 Gaussian 16, Revision C.01,

 ----------------------------------------------------------------------
 #t hf aug-cc-pvdz symm=none int=(grid=ultrafine) guess=(read,tcheck) s
 table=(opt,rrhf)
 ----------------------------------------------------------------------
 -----
 title
 -----
 Symbolic Z-matrix:
 Charge =  0 Multiplicity = 1

 SCF Done:  E(RHF) =  -967.930527434     A.U. after   18 cycles
 Normal termination of Gaussian 16 at Tue Apr  8 23:19:21 2025.
 Gaussian 16:  ES64L-G16RevC.01  3-Jul-2019

 ----------------------------------------------------------------------
 #t hf aug-cc-pvdz iop(5/13=1,5/36=2,99/5=2) pseudo=read geom=check gue
 ss=(read,tcheck) scf=(maxcycle=1)
 ----------------------------------------------------------------------
 -----
 title
 -----
 Structure from the checkpoint file:  "BDE49_nonexpt_1088_mol1.chk"
 Charge =  0 Multiplicity = 1

                         Standard orientation:
 ---------------------------------------------------------------------
 Center     Atomic      Atomic             Coordinates (Angstroms)
 Number     Number       Type             X           Y           Z
 ---------------------------------------------------------------------
      1         17           0        2.942211   -0.445483   -0.202446
      2          8           0        1.277317   -0.802471    0.174459
      3          6           0        0.409082    0.255781    0.102486
      4          6           0       -0.966699   -0.044491    0.021091
      5          6           0       -1.914561    0.972677   -0.034487
      6          6           0       -1.521661    2.302125   -0.004467
      7          6           0        0.790727    1.596883    0.121312
      8          1           0        1.841881    1.842650    0.165889
      9          6           0       -0.164584    2.605635    0.073065
     10          1           0        0.162727    3.638411    0.094838
     11          1           0       -2.263735    3.089181   -0.042872
     12          7           0       -1.462568   -1.432084    0.010477
     13          8           0       -2.576498   -1.622178   -0.462992
     14          8           0       -0.745832   -2.298967    0.486796
     15          1           0       -2.954210    0.684826   -0.109732
 ---------------------------------------------------------------------

 SCF Done:  E(RHF) =  -968.100633297     A.U. after    2 cycles

 The electronic state is 1-A.
 Alpha  occ. eigenvalues -- -103.74474 -20.69401 -20.62126 -20.61708 -15.92467
 Alpha  occ. eigenvalues --  -11.37463 -11.33168 -11.29518 -11.29445 -11.28106
 Alpha  occ. eigenvalues --  -11.27653 -10.77101  -8.42863  -8.42439  -8.42407
 Alpha  occ. eigenvalues --   -1.55329  -1.42405  -1.36773  -1.20177  -1.14609
 Alpha  occ. eigenvalues --   -1.09316  -1.04271  -0.95945  -0.87421  -0.84829
 Alpha  occ. eigenvalues --   -0.79170  -0.75271  -0.74267  -0.73506  -0.69997
 Alpha  occ. eigenvalues --   -0.68455  -0.68101  -0.65390  -0.61253  -0.58025
 Alpha  occ. eigenvalues --   -0.55537  -0.54534  -0.51915  -0.51663  -0.49780
 Alpha  occ. eigenvalues --   -0.49335  -0.47311  -0.39124  -0.36794
 Alpha virt. eigenvalues --    0.02218   0.02667   0.03252   0.03791   0.05068
 Alpha virt. eigenvalues --    0.06317   0.08443   0.08843   0.10107   0.10824
 Alpha virt. eigenvalues --    0.11691   0.12277   0.12550   0.12626   0.13071

 Mulliken charges:
               1
     1  Cl   0.272417
     2  O   -0.705312
     3  C    0.029390
     4  C    0.960074
     5  C    0.489400
     6  C    0.415971
     7  C    0.926162
     8  H   -0.566743
     9  C    0.509880
    10  H   -0.423531
    11  H   -0.409375
    12  N    0.064166
    13  O   -0.568146
    14  O   -0.519230
    15  H   -0.475122
 Sum of Mulliken charges =  -0.00000

 Dipole moment (field-independent basis, Debye):
    X=              1.5825    Y=              6.0684    Z=             -0.1311  Tot=              6.2728

 Test job not archived.
 1\1\GINC-SE329\SP\RHF\Aug-CC-pVDZ\C6H4Cl1N1O3\OHZDE\08-Apr-2025\0\\#t
 hf aug-cc-pvdz iop(5/13=1,5/36=2,99/5=2) pseudo=read geom=check guess=
 (read,tcheck) scf=(maxcycle=1)\\title\\0,1\Cl,0,2.942211,-0.445484,-0.
 202446\O,0,1.277317,-0.802471,0.174459\C,0,0.409082,0.255781,0.102486\
 C,0,-0.966699,-0.044491,0.021091\C,0,-1.914561,0.972677,-0.034487\C,0,
 -1.52166,2.302125,-0.004467\C,0,0.790727,1.596883,0.121312\H,0,1.84188
 1,1.842649,0.165889\C,0,-0.164583,2.605635,0.073065\H,0,0.162728,3.638
 411,0.094838\H,0,-2.263734,3.089181,-0.042872\N,0,-1.462568,-1.432084,

 Normal termination of Gaussian 16 at Tue Apr  8 23:19:29 2025.
