 Gaussian 16, Revision C.01,

 ----------------------------------------------------------------------
 #t hf aug-cc-pvdz symm=none int=(grid=ultrafine) guess=(read,tcheck) s
 table=opt
 ----------------------------------------------------------------------
 -----
 title
 -----
 Symbolic Z-matrix:
 Charge =  0 Multiplicity = 2

 SCF Done:  E(UHF) =  -518.436426965     A.U. after   16 cycles
 Normal termination of Gaussian 16 at Wed Apr  9 00:06:43 2025.
 Gaussian 16:  ES64L-G16RevC.01  3-Jul-2019

 ----------------------------------------------------------------------
 #t hf aug-cc-pvdz iop(5/13=1,5/36=2,99/5=2) pseudo=read geom=check gue
 ss=(read,tcheck) scf=(maxcycle=1)
 ----------------------------------------------------------------------
 -----
 title
 -----
 Structure from the checkpoint file:  "BDE49_nonexpt_2275_mol2.chk"
 Charge =  0 Multiplicity = 2

                         Standard orientation:
 ---------------------------------------------------------------------
 Center     Atomic      Atomic             Coordinates (Angstroms)
 Number     Number       Type             X           Y           Z
 ---------------------------------------------------------------------
      1         14           0       -0.083957   -1.191164   -0.127634
      2          6           0        1.556626   -0.260936    0.198940
      3          8           0        1.346833    1.142737   -0.082462
      4          1           0        2.358186   -0.671447   -0.428002
      5          1           0        1.851132   -0.399397    1.247527
      6          1           0        2.128053    1.638126    0.184625
      7          6           0       -1.483168   -0.046159    0.477614
      8          8           0       -1.467919    1.134636   -0.331828
      9          1           0       -1.368403    0.184535    1.546063
     10          1           0       -2.462691   -0.511425    0.350281
     11          1           0       -0.573931    1.503480   -0.271548
     12          1           0       -0.229008   -1.443992   -1.587066
 ---------------------------------------------------------------------

 SCF Done:  E(UHF) =  -518.530069749     A.U. after    2 cycles

 The electronic state is 2-A.
 Alpha  occ. eigenvalues --  -69.06828 -20.59705 -20.55804 -11.29058 -11.27297
 Alpha  occ. eigenvalues --   -6.82234  -3.93599  -3.92681  -3.92653  -1.33745
 Alpha  occ. eigenvalues --   -1.30380  -0.93867  -0.90306  -0.73975  -0.69492
 Alpha  occ. eigenvalues --   -0.66422  -0.64190  -0.59792  -0.58823  -0.56965
 Alpha  occ. eigenvalues --   -0.50319  -0.48325  -0.45352  -0.41386  -0.32651
 Alpha virt. eigenvalues --    0.02802   0.04387   0.04574   0.05106   0.06510
 Alpha virt. eigenvalues --    0.06936   0.07679   0.08493   0.08668   0.09823
 Alpha virt. eigenvalues --    0.12752   0.13661   0.14682   0.15794   0.15995

  Beta  occ. eigenvalues --  -69.06282 -20.59608 -20.55604 -11.29002 -11.27222
  Beta  occ. eigenvalues --   -6.81421  -3.92312  -3.92292  -3.91454  -1.33427
  Beta  occ. eigenvalues --   -1.29792  -0.93251  -0.90035  -0.73507  -0.68414
  Beta  occ. eigenvalues --   -0.64860  -0.63726  -0.59283  -0.58456  -0.55239
  Beta  occ. eigenvalues --   -0.49968  -0.48044  -0.44568  -0.40032
  Beta virt. eigenvalues --    0.02451   0.03066   0.04663   0.05115   0.06191
  Beta virt. eigenvalues --    0.06687   0.07028   0.08206   0.08897   0.09192
  Beta virt. eigenvalues --    0.10017   0.13151   0.13891   0.14817   0.16386

 Mulliken charges and spin densities:
               1          2
     1  Si   0.717025   0.897687
     2  C    0.463064   0.007506
     3  O   -0.612296   0.005423
     4  H   -0.221872   0.001247
     5  H   -0.191839  -0.003424
     6  H    0.146013   0.005576
     7  C    0.519734   0.028200
     8  O   -0.529947   0.030715
     9  H   -0.196180  -0.003075
    10  H   -0.301737  -0.003703
    11  H    0.175021  -0.012363
    12  H    0.033014   0.046211
 Sum of Mulliken charges =  -0.00000   1.00000

 Dipole moment (field-independent basis, Debye):
    X=              3.1107    Y=             -1.0051    Z=              1.8804  Tot=              3.7713
                          Isotropic Fermi Contact Couplings
        Atom                 a.u.       MegaHertz       Gauss      10(-4) cm-1
     1  Si(29)             0.49408    -439.10145    -156.68232    -146.46848
     2  C(13)              0.02592      29.13854      10.39735       9.71957
     3  O(17)              0.04086     -24.76755      -8.83768      -8.26156
     4  H(1)              -0.00033      -1.47335      -0.52573      -0.49146
     5  H(1)               0.00066       2.93656       1.04784       0.97953
     6  H(1)               0.00185       8.26178       2.94801       2.75583
     7  C(13)              0.02453      27.58179       9.84187       9.20030
     8  O(17)              0.02314     -14.02584      -5.00477      -4.67852

 Normal termination of Gaussian 16 at Wed Apr  9 00:06:48 2025.
