 Gaussian 16, Revision C.01,

 ----------------------------------------------------------------------
 #t hf aug-cc-pvdz symm=none int=(grid=ultrafine) guess=(read,tcheck) s
 table=opt
 ----------------------------------------------------------------------
 -----
 title
 -----
 Symbolic Z-matrix:
 Charge =  0 Multiplicity = 2

 SCF Done:  E(UHF) =  -655.775418023     A.U. after   19 cycles
 Normal termination of Gaussian 16 at Wed Apr  9 00:19:01 2025.
 Gaussian 16:  ES64L-G16RevC.01  3-Jul-2019

 ----------------------------------------------------------------------
 #t hf aug-cc-pvdz iop(5/13=1,5/36=2,99/5=2) pseudo=read geom=check gue
 ss=(read,tcheck) scf=(maxcycle=1)
 ----------------------------------------------------------------------
 -----
 title
 -----
 Structure from the checkpoint file:  "BDE49_nonexpt_259_mol2.chk"
 Charge =  0 Multiplicity = 2

                         Standard orientation:
 ---------------------------------------------------------------------
 Center     Atomic      Atomic             Coordinates (Angstroms)
 Number     Number       Type             X           Y           Z
 ---------------------------------------------------------------------
      1         17           0        2.769455   -0.000001    0.010402
      2          7           0       -0.190730   -0.000022   -0.037034
      3          6           0       -2.262542    1.302576    0.020834
      4          6           0       -1.526362    0.000000   -0.082618
      5          6           0       -2.262572   -1.302559    0.020835
      6          5           0        1.063089   -0.000001   -0.000788
      7          1           0       -1.677084    2.118386   -0.408591
      8          1           0       -2.472776    1.567436    1.069223
      9          1           0       -3.226196    1.253019   -0.494616
     10          1           0       -1.677137   -2.118381   -0.408599
     11          1           0       -3.226230   -1.252977   -0.494607
     12          1           0       -2.472802   -1.567419    1.069224
 ---------------------------------------------------------------------

 SCF Done:  E(UHF) =  -655.856096152     A.U. after    2 cycles

 The electronic state is 2-A.
 Alpha  occ. eigenvalues -- -103.69400 -15.61603 -11.27711 -11.22960 -11.22955
 Alpha  occ. eigenvalues --  -10.72809  -8.38472  -8.38314  -8.38266  -7.67892
 Alpha  occ. eigenvalues --   -1.18663  -1.16550  -1.00742  -0.94087  -0.82953
 Alpha  occ. eigenvalues --   -0.66032  -0.63940  -0.62207  -0.60204  -0.54647
 Alpha  occ. eigenvalues --   -0.54520  -0.54069  -0.53136  -0.51286  -0.46128
 Alpha  occ. eigenvalues --   -0.39160  -0.26979
 Alpha virt. eigenvalues --    0.03310   0.04457   0.04566   0.05035   0.06671
 Alpha virt. eigenvalues --    0.06831   0.07525   0.07597   0.08387   0.09563
 Alpha virt. eigenvalues --    0.12867   0.13669   0.14946   0.15096   0.15635

  Beta  occ. eigenvalues -- -103.69392 -15.62881 -11.25278 -11.23287 -11.23282
  Beta  occ. eigenvalues --  -10.72800  -8.38588  -8.38246  -8.38178  -7.67101
  Beta  occ. eigenvalues --   -1.18443  -1.16067  -0.99899  -0.94160  -0.80480
  Beta  occ. eigenvalues --   -0.64349  -0.63344  -0.59889  -0.57887  -0.54402
  Beta  occ. eigenvalues --   -0.53664  -0.52889  -0.52679  -0.51045  -0.45783
  Beta  occ. eigenvalues --   -0.40615
  Beta virt. eigenvalues --    0.03364   0.04462   0.04604   0.04888   0.06677
  Beta virt. eigenvalues --    0.06839   0.07527   0.07615   0.08474   0.09566
  Beta virt. eigenvalues --    0.11717   0.12983   0.13967   0.15063   0.15194

 Mulliken charges and spin densities:
               1          2
     1  Cl  -0.248244  -0.000292
     2  N   -0.023669  -0.400801
     3  C    0.396593  -0.228562
     4  C   -0.024532   1.285901
     5  C    0.396591  -0.228563
     6  B   -0.250351   0.448961
     7  H   -0.106432   0.007802
     8  H    0.037072   0.042775
     9  H   -0.053832   0.011101
    10  H   -0.106432   0.007802
    11  H   -0.053833   0.011101
    12  H    0.037068   0.042774
 Sum of Mulliken charges =  -0.00000   1.00000

 Dipole moment (field-independent basis, Debye):
    X=             -0.6773    Y=              0.0001    Z=              0.0664  Tot=              0.6806
                          Isotropic Fermi Contact Couplings
        Atom                 a.u.       MegaHertz       Gauss      10(-4) cm-1
     1  Cl(35)             0.00727       3.18949       1.13809       1.06390
     2  N(14)             -0.19320     -62.42526     -22.27489     -20.82283
     3  C(13)             -0.06032     -67.81615     -24.19849     -22.62103
     4  C(13)              0.22834     256.69527      91.59525      85.62432
     5  C(13)             -0.06032     -67.81617     -24.19850     -22.62104
     6  B(11)              0.05471      78.46928      27.99979      26.17453
     7  H(1)               0.00591      26.41848       9.42677       8.81226
     8  H(1)               0.02162      96.65691      34.48959      32.24128

 1\1\GINC-SE096\SP\UHF\Aug-CC-pVDZ\C3H6B1Cl1N1(2)\OHZDE\09-Apr-2025\0\\
 #t hf aug-cc-pvdz iop(5/13=1,5/36=2,99/5=2) pseudo=read geom=check gue
 ss=(read,tcheck) scf=(maxcycle=1)\\title\\0,2\Cl,0,2.769455,-0.000001,
 0.010402\N,0,-0.19073,-0.000022,-0.037034\C,0,-2.262542,1.302576,0.020
 834\C,0,-1.526362,0.,-0.082618\C,0,-2.262572,-1.302559,0.020835\B,0,1.
 063089,-0.000001,-0.000788\H,0,-1.677084,2.118386,-0.408591\H,0,-2.472
 776,1.567436,1.069223\H,0,-3.226196,1.253019,-0.494616\H,0,-1.677137,-
 2.118381,-0.408599\H,0,-3.22623,-1.252977,-0.494607\H,0,-2.472802,-1.5

 Normal termination of Gaussian 16 at Wed Apr  9 00:19:06 2025.
