 Gaussian 16, Revision C.01,

 ----------------------------------------------------------------------
 #t hf aug-cc-pvdz symm=none int=(grid=ultrafine) guess=(read,tcheck) s
 table=(opt,rrhf)
 ----------------------------------------------------------------------
 -----
 title
 -----
 Symbolic Z-matrix:
 Charge =  0 Multiplicity = 1

 SCF Done:  E(RHF) =  -301.192389685     A.U. after   13 cycles
 Normal termination of Gaussian 16 at Wed Apr  9 00:30:45 2025.
 Gaussian 16:  ES64L-G16RevC.01  3-Jul-2019

 ----------------------------------------------------------------------
 #t hf aug-cc-pvdz iop(5/13=1,5/36=2,99/5=2) pseudo=read geom=check gue
 ss=(read,tcheck) scf=(maxcycle=1)
 ----------------------------------------------------------------------
 -----
 title
 -----
 Structure from the checkpoint file:  "BDE49_nonexpt_385_mol1.chk"
 Charge =  0 Multiplicity = 1

                         Standard orientation:
 ---------------------------------------------------------------------
 Center     Atomic      Atomic             Coordinates (Angstroms)
 Number     Number       Type             X           Y           Z
 ---------------------------------------------------------------------
      1          9           0       -1.620514   -0.764011   -0.000021
      2          9           0       -0.680527    1.290237   -0.000003
      3          5           0       -0.513384   -0.029549    0.000033
      4          6           0        0.888903   -0.671016    0.000006
      5          6           0        2.003069    0.068617    0.000004
      6          1           0        0.971438   -1.754889   -0.000012
      7          1           0        1.957795    1.153453    0.000021
      8          1           0        2.995230   -0.372462   -0.000013
 ---------------------------------------------------------------------

 SCF Done:  E(RHF) =  -301.308110105     A.U. after    2 cycles

 The electronic state is 1-A.
 Alpha  occ. eigenvalues --  -26.13293 -26.13249 -11.27868 -11.24248  -7.73405
 Alpha  occ. eigenvalues --   -1.68568  -1.66296  -1.05536  -0.87684  -0.82817
 Alpha  occ. eigenvalues --   -0.81201  -0.76336  -0.76076  -0.71669  -0.71118
 Alpha  occ. eigenvalues --   -0.65297  -0.59997  -0.51458  -0.40923
 Alpha virt. eigenvalues --    0.03370   0.04730   0.05154   0.05755   0.06628
 Alpha virt. eigenvalues --    0.06978   0.07639   0.09167   0.13824   0.14343
 Alpha virt. eigenvalues --    0.15410   0.15452   0.16883   0.19143   0.20738

 Mulliken charges:
               1
     1  F   -0.469471
     2  F   -0.426881
     3  B    0.985351
     4  C    0.469368
     5  C    0.290048
     6  H   -0.308042
     7  H   -0.286191
     8  H   -0.254181
 Sum of Mulliken charges =   0.00000

 Dipole moment (field-independent basis, Debye):
    X=              2.5116    Y=             -0.5468    Z=              0.0002  Tot=              2.5704

 Test job not archived.
 1\1\GINC-SE222\SP\RHF\Aug-CC-pVDZ\C2H3B1F2\OHZDE\09-Apr-2025\0\\#t hf
 aug-cc-pvdz iop(5/13=1,5/36=2,99/5=2) pseudo=read geom=check guess=(re
 ad,tcheck) scf=(maxcycle=1)\\title\\0,1\F,0,1.620514,-0.764011,0.00002
 1\F,0,0.680527,1.290237,0.000003\B,0,0.513384,-0.029549,-0.000033\C,0,
 -0.888903,-0.671016,-0.000006\C,0,-2.003069,0.068617,-0.000004\H,0,-0.
 971438,-1.754889,0.000012\H,0,-1.957795,1.153453,-0.000021\H,0,-2.9952
 3,-0.372462,0.000013\\Version=ES64L-G16RevC.01\State=1-A\HF=-301.30811
 01\RMSD=6.648e-03\Dipole=-0.988125,-0.215134,-0.0000668\Quadrupole=0.6

 Normal termination of Gaussian 16 at Wed Apr  9 00:30:47 2025.
