 Gaussian 16, Revision C.01,

 ----------------------------------------------------------------------
 #t hf aug-cc-pvdz symm=none int=(grid=ultrafine) guess=(read,tcheck) s
 table=(opt,rrhf)
 ----------------------------------------------------------------------
 -----
 title
 -----
 Symbolic Z-matrix:
 Charge =  0 Multiplicity = 1

 SCF Done:  E(RHF) =  -104.481485216     A.U. after   12 cycles
 Normal termination of Gaussian 16 at Wed Apr  9 00:25:40 2025.
 Gaussian 16:  ES64L-G16RevC.01  3-Jul-2019

 ----------------------------------------------------------------------
 #t hf aug-cc-pvdz iop(5/13=1,5/36=2,99/5=2) pseudo=read geom=check gue
 ss=(read,tcheck) scf=(maxcycle=1)
 ----------------------------------------------------------------------
 -----
 title
 -----
 Structure from the checkpoint file:  "BDE49_nonexpt_307_mol1.chk"
 Charge =  0 Multiplicity = 1

                         Standard orientation:
 ---------------------------------------------------------------------
 Center     Atomic      Atomic             Coordinates (Angstroms)
 Number     Number       Type             X           Y           Z
 ---------------------------------------------------------------------
      1          5           0        1.364066   -0.277066   -0.000001
      2          6           0        0.097664    0.633476   -0.000010
      3          6           0       -1.133199   -0.323351    0.000009
      4          1           0        0.035275    1.273055   -0.886024
      5          1           0        0.035280    1.273082    0.885986
      6          1           0       -1.145095   -0.967409   -0.883534
      7          1           0       -2.061098    0.253782    0.000004
      8          1           0       -1.145089   -0.967384    0.883570
      9          1           0        1.836797   -0.670292   -1.025091
     10          1           0        1.836813   -0.670251    1.025098
 ---------------------------------------------------------------------

 SCF Done:  E(RHF) =  -104.517577092     A.U. after    2 cycles

 The electronic state is 1-A.
 Alpha  occ. eigenvalues --  -11.23599 -11.20981  -7.60846  -1.01442  -0.84539
 Alpha  occ. eigenvalues --   -0.66970  -0.61310  -0.57022  -0.51295  -0.50740
 Alpha  occ. eigenvalues --   -0.45631  -0.45022
 Alpha virt. eigenvalues --    0.03426   0.04201   0.04760   0.05015   0.06852
 Alpha virt. eigenvalues --    0.07110   0.07302   0.08156   0.09230   0.11200
 Alpha virt. eigenvalues --    0.12789   0.13420   0.14583   0.16266   0.17758

 Mulliken charges:
               1
     1  B   -0.389611
     2  C    0.316060
     3  C    0.122854
     4  H   -0.160741
     5  H   -0.160740
     6  H   -0.120010
     7  H   -0.086927
     8  H   -0.120012
     9  H    0.299563
    10  H    0.299564
 Sum of Mulliken charges =  -0.00000

 Dipole moment (field-independent basis, Debye):
    X=             -0.5170    Y=              0.3132    Z=             -0.0000  Tot=              0.6045

 Test job not archived.
 1\1\GINC-SE072\SP\RHF\Aug-CC-pVDZ\C2H7B1\OHZDE\09-Apr-2025\0\\#t hf au
 g-cc-pvdz iop(5/13=1,5/36=2,99/5=2) pseudo=read geom=check guess=(read
 ,tcheck) scf=(maxcycle=1)\\title\\0,1\B,0,1.364066,-0.277066,-0.000001
 \C,0,0.097664,0.633476,-0.00001\C,0,-1.133199,-0.323351,0.000009\H,0,0
 .035275,1.273055,-0.886024\H,0,0.03528,1.273082,0.885986\H,0,-1.145095
 ,-0.967409,-0.883534\H,0,-2.061098,0.253782,0.000004\H,0,-1.145089,-0.
 967384,0.88357\H,0,1.836797,-0.670292,-1.025091\H,0,1.836813,-0.670251
 ,1.025098\\Version=ES64L-G16RevC.01\State=1-A\HF=-104.5175771\RMSD=3.0

 Normal termination of Gaussian 16 at Wed Apr  9 00:25:43 2025.
