 Gaussian 16, Revision C.01,

 ----------------------------------------------------------------------
 #t hf aug-cc-pvdz symm=none int=(grid=ultrafine) guess=(read,tcheck) s
 table=(opt,rrhf)
 ----------------------------------------------------------------------
 -----
 title
 -----
 Symbolic Z-matrix:
 Charge =  0 Multiplicity = 1

 SCF Done:  E(RHF) =  -673.852110178     A.U. after   14 cycles
 Normal termination of Gaussian 16 at Wed Apr  9 00:09:14 2025.
 Gaussian 16:  ES64L-G16RevC.01  3-Jul-2019

 ----------------------------------------------------------------------
 #t hf aug-cc-pvdz iop(5/13=1,5/36=2,99/5=2) pseudo=read geom=check gue
 ss=(read,tcheck) scf=(maxcycle=1)
 ----------------------------------------------------------------------
 -----
 title
 -----
 Structure from the checkpoint file:  "BDE49_nonexpt_2298_mol1.chk"
 Charge =  0 Multiplicity = 1

                         Standard orientation:
 ---------------------------------------------------------------------
 Center     Atomic      Atomic             Coordinates (Angstroms)
 Number     Number       Type             X           Y           Z
 ---------------------------------------------------------------------
      1          6           0        1.107419   -1.208100    0.000088
      2          6           0        2.499605   -1.246407    0.000105
      3          6           0        0.410982    0.011635   -0.000014
      4          6           0        1.163527    1.196387   -0.000101
      5          6           0        2.556992    1.163189   -0.000087
      6          6           0        3.227605   -0.057792    0.000017
      7          8           0       -1.824927    1.680529   -0.000339
      8          1           0        0.561351   -2.147693    0.000155
      9          1           0        3.016090   -2.200268    0.000185
     10          1           0        4.311894   -0.084286    0.000028
     11          1           0        3.119490    2.090748   -0.000158
     12          1           0        0.647906    2.150083   -0.000185
     13         14           0       -1.462916    0.055204   -0.000016
     14          1           0       -2.746145    1.946907   -0.000158
     15          6           0       -2.153903   -0.780285    1.532993
     16          1           0       -1.776033   -0.301980    2.440671
     17          1           0       -1.865953   -1.835904    1.568484
     18          1           0       -3.248176   -0.740429    1.556486
     19          6           0       -2.153900   -0.780910   -1.532683
     20          1           0       -1.865922   -1.836535   -1.567770
     21          1           0       -1.776059   -0.302944   -2.440552
     22          1           0       -3.248173   -0.741090   -1.556172
 ---------------------------------------------------------------------

 SCF Done:  E(RHF) =  -674.002293906     A.U. after    2 cycles

 The electronic state is 1-A.
 Alpha  occ. eigenvalues --  -69.07629 -20.56125 -11.24497 -11.24374 -11.24068
 Alpha  occ. eigenvalues --  -11.23977 -11.23858 -11.22304 -11.21037 -11.21032
 Alpha  occ. eigenvalues --   -6.82479  -3.93396  -3.93242  -3.93181  -1.29128
 Alpha  occ. eigenvalues --   -1.13423  -1.00437  -1.00254  -0.94712  -0.92124
 Alpha  occ. eigenvalues --   -0.82163  -0.81682  -0.73987  -0.69562  -0.63683
 Alpha  occ. eigenvalues --   -0.62124  -0.60291  -0.58570  -0.58176  -0.56645
 Alpha  occ. eigenvalues --   -0.56413  -0.54769  -0.54394  -0.52507  -0.50938
 Alpha  occ. eigenvalues --   -0.49904  -0.48848  -0.43119  -0.42878  -0.33525
 Alpha  occ. eigenvalues --   -0.33360
 Alpha virt. eigenvalues --    0.02688   0.03826   0.04277   0.05156   0.05343
 Alpha virt. eigenvalues --    0.05478   0.06583   0.07184   0.07253   0.07605
 Alpha virt. eigenvalues --    0.07911   0.09525   0.09652   0.10103   0.10639

 Mulliken charges:
               1
     1  C    0.784453
     2  C    0.489277
     3  C   -0.644321
     4  C    0.243604
     5  C    0.561060
     6  C    0.844238
     7  O   -0.822599
     8  H   -0.642253
     9  H   -0.453902
    10  H   -0.453332
    11  H   -0.459608
    12  H   -0.631936
    13  Si   1.739409
    14  H    0.108060
    15  C    0.523382
    16  H   -0.359065
    17  H   -0.242252
    18  H   -0.253173
    19  C    0.523419
    20  H   -0.242241
    21  H   -0.359064
    22  H   -0.253155
 Sum of Mulliken charges =  -0.00000

 Dipole moment (field-independent basis, Debye):
    X=             -1.2503    Y=             -0.7015    Z=              0.0005  Tot=              1.4337

 Test job not archived.
 1\1\GINC-SE102\SP\RHF\Aug-CC-pVDZ\C8H12O1Si1\OHZDE\09-Apr-2025\0\\#t h
 f aug-cc-pvdz iop(5/13=1,5/36=2,99/5=2) pseudo=read geom=check guess=(
 read,tcheck) scf=(maxcycle=1)\\title\\0,1\C,0,1.107419,-1.2081,0.00008
 8\C,0,2.499605,-1.246407,0.000105\C,0,0.410982,0.011635,-0.000014\C,0,
 1.163527,1.196387,-0.000101\C,0,2.556992,1.163189,-0.000087\C,0,3.2276
 05,-0.057792,0.000017\O,0,-1.824927,1.680529,-0.000339\H,0,0.561351,-2
 .147693,0.000155\H,0,3.01609,-2.200268,0.000185\H,0,4.311894,-0.084286
 ,0.000028\H,0,3.11949,2.090748,-0.000158\H,0,0.647906,2.150083,-0.0001

 Normal termination of Gaussian 16 at Wed Apr  9 00:09:29 2025.
