 Gaussian 16, Revision C.01,

 ----------------------------------------------------------------------
 #t hf aug-cc-pvdz symm=none int=(grid=ultrafine) guess=(read,tcheck) s
 table=(opt,rrhf)
 ----------------------------------------------------------------------
 -----
 title
 -----
 Symbolic Z-matrix:
 Charge =  0 Multiplicity = 1

 SCF Done:  E(RHF) =  -652.064171353     A.U. after   13 cycles
 Normal termination of Gaussian 16 at Tue Apr  8 22:39:30 2025.
 Gaussian 16:  ES64L-G16RevC.01  3-Jul-2019

 ----------------------------------------------------------------------
 #t hf aug-cc-pvdz iop(5/13=1,5/36=2,99/5=2) pseudo=read geom=check gue
 ss=(read,tcheck) scf=(maxcycle=1)
 ----------------------------------------------------------------------
 -----
 title
 -----
 Structure from the checkpoint file:  "BDE49_expt_1358_mol1.chk"
 Charge =  0 Multiplicity = 1

                         Standard orientation:
 ---------------------------------------------------------------------
 Center     Atomic      Atomic             Coordinates (Angstroms)
 Number     Number       Type             X           Y           Z
 ---------------------------------------------------------------------
      1          6           0        2.075272   -0.389427    0.069663
      2          8           0        1.066982    0.528234   -0.353154
      3          1           0        2.972140   -0.139741   -0.494320
      4          1           0        1.775675   -1.418229   -0.146470
      5          1           0        2.274403   -0.283198    1.142853
      6          6           0       -0.112047    0.472695    0.339025
      7          6           0       -0.977323    1.650855   -0.037354
      8          1           0       -0.457287    2.571513    0.241035
      9          1           0       -1.935684    1.607290    0.479172
     10          1           0       -1.148490    1.654652   -1.114319
     11         17           0       -1.057450   -1.117392   -0.054550
     12          1           0        0.044624    0.372762    1.416632
 ---------------------------------------------------------------------

 SCF Done:  E(RHF) =  -652.145684179     A.U. after    2 cycles

 The electronic state is 1-A.
 Alpha  occ. eigenvalues -- -103.63453 -20.60497 -11.37175 -11.29853 -11.24533
 Alpha  occ. eigenvalues --  -10.66752  -8.32444  -8.32195  -8.32182  -1.37920
 Alpha  occ. eigenvalues --   -1.13238  -1.02778  -0.94123  -0.83730  -0.71157
 Alpha  occ. eigenvalues --   -0.67708  -0.66698  -0.60235  -0.56178  -0.55069
 Alpha  occ. eigenvalues --   -0.52818  -0.52009  -0.45483  -0.44890  -0.43975
 Alpha virt. eigenvalues --    0.03345   0.04516   0.04937   0.05795   0.06686
 Alpha virt. eigenvalues --    0.07090   0.07546   0.10369   0.11557   0.13332
 Alpha virt. eigenvalues --    0.14679   0.14824   0.15451   0.16364   0.16732

 Mulliken charges:
               1
     1  C    0.696126
     2  O   -0.641062
     3  H   -0.231746
     4  H   -0.042991
     5  H   -0.073788
     6  C    0.171133
     7  C    0.415344
     8  H   -0.006507
     9  H   -0.022901
    10  H   -0.010730
    11  Cl  -0.235317
    12  H   -0.017560
 Sum of Mulliken charges =  -0.00000

 Dipole moment (field-independent basis, Debye):
    X=              1.5712    Y=              1.4124    Z=              1.4587  Tot=              2.5674

 Test job not archived.
 1\1\GINC-SE367\SP\RHF\Aug-CC-pVDZ\C3H7Cl1O1\OHZDE\08-Apr-2025\0\\#t hf
  aug-cc-pvdz iop(5/13=1,5/36=2,99/5=2) pseudo=read geom=check guess=(r
 ead,tcheck) scf=(maxcycle=1)\\title\\0,1\C,0,2.075272,-0.389427,0.0696
 63\O,0,1.066982,0.528234,-0.353154\H,0,2.97214,-0.13974,-0.49432\H,0,1
 .775675,-1.418229,-0.14647\H,0,2.274403,-0.283198,1.142853\C,0,-0.1120
 47,0.472695,0.339025\C,0,-0.977323,1.650855,-0.037354\H,0,-0.457288,2.
 571513,0.241035\H,0,-1.935684,1.60729,0.479172\H,0,-1.14849,1.654652,-
 1.114319\Cl,0,-1.05745,-1.117392,-0.05455\H,0,0.044624,0.372762,1.4166

 Normal termination of Gaussian 16 at Tue Apr  8 22:39:33 2025.
