 Gaussian 16, Revision C.01,

 ----------------------------------------------------------------------
 #t hf aug-cc-pvdz symm=none int=(grid=ultrafine) guess=(read,tcheck) s
 table=(opt,rrhf)
 ----------------------------------------------------------------------
 -----
 title
 -----
 Symbolic Z-matrix:
 Charge =  0 Multiplicity = 1

 SCF Done:  E(RHF) =  -840.991899333     A.U. after   16 cycles
 Normal termination of Gaussian 16 at Wed Apr  9 00:23:16 2025.
 Gaussian 16:  ES64L-G16RevC.01  3-Jul-2019

 ----------------------------------------------------------------------
 #t hf aug-cc-pvdz iop(5/13=1,5/36=2,99/5=2) pseudo=read geom=check gue
 ss=(read,tcheck) scf=(maxcycle=1)
 ----------------------------------------------------------------------
 -----
 title
 -----
 Structure from the checkpoint file:  "BDE49_nonexpt_2696_mol1.chk"
 Charge =  0 Multiplicity = 1

                         Standard orientation:
 ---------------------------------------------------------------------
 Center     Atomic      Atomic             Coordinates (Angstroms)
 Number     Number       Type             X           Y           Z
 ---------------------------------------------------------------------
      1          9           0        3.303288   -0.186261    1.135329
      2         16           0        2.784614   -0.134958   -0.481710
      3          6           0        1.051619    0.025837   -0.273327
      4          6           0        0.455499    1.296432   -0.159848
      5          6           0       -0.912681    1.421060   -0.021231
      6          6           0       -1.725192    0.275185    0.005547
      7          6           0        0.232505   -1.109841   -0.243837
      8          1           0        0.686902   -2.089425   -0.327077
      9          6           0       -1.146173   -0.995879   -0.108201
     10          1           0       -1.754686   -1.889504   -0.090561
     11          1           0        1.084170    2.177980   -0.180701
     12          8           0       -3.051531    0.503963    0.141732
     13          6           0       -3.944092   -0.606382    0.183651
     14          1           0       -3.902928   -1.185171   -0.744600
     15          1           0       -4.938123   -0.179297    0.299473
     16          1           0       -3.727118   -1.259019    1.035211
     17          1           0       -1.388304    2.389930    0.067277
 ---------------------------------------------------------------------

 SCF Done:  E(RHF) =  -841.154278535     A.U. after    2 cycles

 The electronic state is 1-A.
 Alpha  occ. eigenvalues --  -93.61075 -26.10243 -20.62259 -11.34295 -11.31411
 Alpha  occ. eigenvalues --  -11.28001 -11.27749 -11.27602 -11.25987 -11.25504
 Alpha  occ. eigenvalues --   -8.89887  -6.24079  -6.23778  -6.23349  -1.60877
 Alpha  occ. eigenvalues --   -1.39402  -1.16691  -1.06041  -1.03951  -0.98354
 Alpha  occ. eigenvalues --   -0.92265  -0.85988  -0.81883  -0.75009  -0.71303
 Alpha  occ. eigenvalues --   -0.70883  -0.69517  -0.68991  -0.68517  -0.64740
 Alpha  occ. eigenvalues --   -0.61991  -0.61049  -0.60567  -0.55295  -0.55078
 Alpha  occ. eigenvalues --   -0.50990  -0.50277  -0.48516  -0.37544  -0.36673
 Alpha  occ. eigenvalues --   -0.34618
 Alpha virt. eigenvalues --    0.02740   0.03856   0.04353   0.05139   0.05474
 Alpha virt. eigenvalues --    0.05836   0.06078   0.08278   0.08809   0.08983
 Alpha virt. eigenvalues --    0.09216   0.09882   0.12445   0.12663   0.13446

 Mulliken charges:
               1
     1  F   -0.621807
     2  S    0.621767
     3  C    0.516994
     4  C    0.228644
     5  C    0.838014
     6  C    0.200686
     7  C    0.041223
     8  H   -0.462104
     9  C    0.691998
    10  H   -0.721711
    11  H   -0.457133
    12  O   -0.669026
    13  C    0.820835
    14  H   -0.081390
    15  H   -0.297192
    16  H   -0.081518
    17  H   -0.568279
 Sum of Mulliken charges =  -0.00000

 Dipole moment (field-independent basis, Debye):
    X=             -4.6977    Y=             -1.0687    Z=             -1.5250  Tot=              5.0533

 Test job not archived.
 1\1\GINC-SE058\SP\RHF\Aug-CC-pVDZ\C7H7F1O1S1\OHZDE\09-Apr-2025\0\\#t h
 f aug-cc-pvdz iop(5/13=1,5/36=2,99/5=2) pseudo=read geom=check guess=(
 read,tcheck) scf=(maxcycle=1)\\title\\0,1\F,0,3.303288,-0.186261,1.135
 329\S,0,2.784614,-0.134958,-0.48171\C,0,1.051619,0.025837,-0.273327\C,
 0,0.455499,1.296432,-0.159848\C,0,-0.912681,1.42106,-0.021231\C,0,-1.7
 25192,0.275185,0.005547\C,0,0.232505,-1.109841,-0.243837\H,0,0.686902,
 -2.089425,-0.327077\C,0,-1.146173,-0.995879,-0.108201\H,0,-1.754686,-1
 .889504,-0.090561\H,0,1.08417,2.17798,-0.180701\O,0,-3.051531,0.503963

 Normal termination of Gaussian 16 at Wed Apr  9 00:23:26 2025.
