 Gaussian 16, Revision C.01,

 ----------------------------------------------------------------------
 #t hf aug-cc-pvdz symm=none int=(grid=ultrafine) guess=(read,tcheck) s
 table=(opt,rrhf)
 ----------------------------------------------------------------------
 -----
 title
 -----
 Symbolic Z-matrix:
 Charge =  0 Multiplicity = 1

 SCF Done:  E(RHF) =  -1087.17994610     A.U. after   15 cycles
 Normal termination of Gaussian 16 at Tue Apr  8 23:13:24 2025.
 Gaussian 16:  ES64L-G16RevC.01  3-Jul-2019

 ----------------------------------------------------------------------
 #t hf aug-cc-pvdz iop(5/13=1,5/36=2,99/5=2) pseudo=read geom=check gue
 ss=(read,tcheck) scf=(maxcycle=1)
 ----------------------------------------------------------------------
 -----
 title
 -----
 Structure from the checkpoint file:  "BDE49_expt_852_mol1.chk"
 Charge =  0 Multiplicity = 1

                         Standard orientation:
 ---------------------------------------------------------------------
 Center     Atomic      Atomic             Coordinates (Angstroms)
 Number     Number       Type             X           Y           Z
 ---------------------------------------------------------------------
      1          6           0       -1.241660    1.389084    0.000000
      2          6           0       -1.204920   -0.000463    0.000000
      3          6           0       -0.006249   -0.704689    0.000000
      4          6           0       -0.032633    2.081090    0.000000
      5          6           0        1.180932    1.403054    0.000000
      6          6           0        1.198021    0.003974    0.000000
      7          1           0       -2.188976    1.910943    0.000001
      8         17           0       -2.712794   -0.901702    0.000000
      9          1           0       -0.021754   -1.786545    0.000000
     10          1           0       -0.039022    3.164920    0.000001
     11          1           0        2.112001    1.957447    0.000000
     12         16           0        2.785520   -0.805245    0.000000
     13          1           0        2.325983   -2.066228   -0.000002
 ---------------------------------------------------------------------

 SCF Done:  E(RHF) =  -1087.28553226     A.U. after    2 cycles

 The electronic state is 1-A.
 Alpha  occ. eigenvalues -- -103.67234 -93.56025 -11.32496 -11.30480 -11.27016
 Alpha  occ. eigenvalues --  -11.26978 -11.26366 -11.26350 -10.70503  -8.85799
 Alpha  occ. eigenvalues --   -8.36238  -8.35933  -8.35915  -6.20003  -6.19800
 Alpha  occ. eigenvalues --   -6.19378  -1.20700  -1.14900  -1.06122  -1.01801
 Alpha  occ. eigenvalues --   -0.95775  -0.85212  -0.81606  -0.71805  -0.67682
 Alpha  occ. eigenvalues --   -0.64856  -0.60733  -0.59972  -0.56288  -0.54202
 Alpha  occ. eigenvalues --   -0.52768  -0.49619  -0.48955  -0.46878  -0.42358
 Alpha  occ. eigenvalues --   -0.35711  -0.32318
 Alpha virt. eigenvalues --    0.03371   0.03925   0.04678   0.06123   0.06453
 Alpha virt. eigenvalues --    0.08077   0.08552   0.08958   0.10196   0.10967
 Alpha virt. eigenvalues --    0.11051   0.12634   0.13392   0.13458   0.13839

 Mulliken charges:
               1
     1  C    0.412434
     2  C   -0.112519
     3  C    0.808906
     4  C    0.558326
     5  C   -0.032978
     6  C    0.342276
     7  H   -0.420906
     8  Cl  -0.370111
     9  H   -0.516561
    10  H   -0.418086
    11  H   -0.498437
    12  S    0.232498
    13  H    0.015158
 Sum of Mulliken charges =  -0.00000

 Dipole moment (field-independent basis, Debye):
    X=              0.6453    Y=              0.7948    Z=              0.0000  Tot=              1.0238

 Test job not archived.
 1\1\GINC-SE159\SP\RHF\Aug-CC-pVDZ\C6H5Cl1S1\OHZDE\08-Apr-2025\0\\#t hf
  aug-cc-pvdz iop(5/13=1,5/36=2,99/5=2) pseudo=read geom=check guess=(r
 ead,tcheck) scf=(maxcycle=1)\\title\\0,1\C,0,-1.24166,1.389084,0.\C,0,
 -1.20492,-0.000463,0.\C,0,-0.006249,-0.704689,0.\C,0,-0.032633,2.08109
 ,0.\C,0,1.180932,1.403054,0.\C,0,1.198021,0.003974,0.\H,0,-2.188976,1.
 910943,0.000001\Cl,0,-2.712794,-0.901702,0.\H,0,-0.021754,-1.786545,0.
 \H,0,-0.039022,3.16492,0.000001\H,0,2.112001,1.957447,0.\S,0,2.78552,-
 0.805245,0.\H,0,2.325983,-2.066228,-0.000002\\Version=ES64L-G16RevC.01

 Normal termination of Gaussian 16 at Tue Apr  8 23:13:30 2025.
