 Gaussian 16, Revision C.01,

 ----------------------------------------------------------------------
 #t hf aug-cc-pvdz symm=none int=(grid=ultrafine) guess=(read,tcheck) s
 table=(opt,rrhf)
 ----------------------------------------------------------------------
 -----
 title
 -----
 Symbolic Z-matrix:
 Charge =  0 Multiplicity = 1

 SCF Done:  E(RHF) =  -719.310306150     A.U. after   14 cycles
 Normal termination of Gaussian 16 at Wed Apr  9 00:44:59 2025.
 Gaussian 16:  ES64L-G16RevC.01  3-Jul-2019

 ----------------------------------------------------------------------
 #t hf aug-cc-pvdz iop(5/13=1,5/36=2,99/5=2) pseudo=read geom=check gue
 ss=(read,tcheck) scf=(maxcycle=1)
 ----------------------------------------------------------------------
 -----
 title
 -----
 Structure from the checkpoint file:  "BDE49_nonexpt_825_mol1.chk"
 Charge =  0 Multiplicity = 1

                         Standard orientation:
 ---------------------------------------------------------------------
 Center     Atomic      Atomic             Coordinates (Angstroms)
 Number     Number       Type             X           Y           Z
 ---------------------------------------------------------------------
      1          6           0       -0.005357    1.629058    0.542390
      2          5           0        0.001245    0.115446    0.243444
      3         14           0       -1.759162   -0.842773   -0.031038
      4          8           0       -0.032662    2.157368   -0.565697
      5         14           0        1.773248   -0.817881   -0.037192
      6          1           0        0.007268    2.233503    1.469280
      7          1           0       -1.820688   -1.943203    0.967221
      8          1           0       -1.821415   -1.448563   -1.383123
      9          1           0       -2.942815    0.029483    0.158911
     10          1           0        1.719895   -1.815601   -1.132107
     11          1           0        2.064256   -1.545625    1.228065
     12          1           0        2.883500    0.128647   -0.299012
 ---------------------------------------------------------------------

 SCF Done:  E(RHF) =  -719.393950838     A.U. after    2 cycles

 The electronic state is 1-A.
 Alpha  occ. eigenvalues --  -69.06411 -69.06403 -20.59048 -11.34549  -7.64086
 Alpha  occ. eigenvalues --   -6.81891  -6.81851  -3.92650  -3.92636  -3.92628
 Alpha  occ. eigenvalues --   -3.92619  -3.92615  -3.92594  -1.36659  -0.87191
 Alpha  occ. eigenvalues --   -0.76412  -0.70617  -0.70149  -0.64903  -0.56786
 Alpha  occ. eigenvalues --   -0.52202  -0.49568  -0.48477  -0.48382  -0.48295
 Alpha  occ. eigenvalues --   -0.42069  -0.39671
 Alpha virt. eigenvalues --    0.02721   0.03577   0.04053   0.04338   0.06289
 Alpha virt. eigenvalues --    0.06565   0.06828   0.06859   0.07659   0.08031
 Alpha virt. eigenvalues --    0.08727   0.08947   0.09752   0.09794   0.10369

 Mulliken charges:
               1
     1  C    0.456916
     2  B    0.279356
     3  Si  -0.209058
     4  O   -0.527617
     5  Si  -0.194461
     6  H   -0.176982
     7  H    0.082354
     8  H    0.050659
     9  H    0.051835
    10  H    0.039351
    11  H    0.079732
    12  H    0.067915
 Sum of Mulliken charges =   0.00000

 Dipole moment (field-independent basis, Debye):
    X=              0.0528    Y=             -0.9966    Z=              2.4965  Tot=              2.6886

 Test job not archived.
 1\1\GINC-SE329\SP\RHF\Aug-CC-pVDZ\C1H7B1O1Si2\OHZDE\09-Apr-2025\0\\#t
 hf aug-cc-pvdz iop(5/13=1,5/36=2,99/5=2) pseudo=read geom=check guess=
 (read,tcheck) scf=(maxcycle=1)\\title\\0,1\C,0,-0.005356,1.629058,0.54
 239\B,0,0.001245,0.115446,0.243444\Si,0,-1.759162,-0.842772,-0.031038\
 O,0,-0.032661,2.157368,-0.565697\Si,0,1.773248,-0.817882,-0.037192\H,0
 ,0.007269,2.233503,1.46928\H,0,-1.820689,-1.943202,0.967221\H,0,-1.821
 415,-1.448562,-1.383123\H,0,-2.942815,0.029484,0.158911\H,0,1.719894,-
 1.815602,-1.132107\H,0,2.064256,-1.545626,1.228065\H,0,2.8835,0.128646

 Normal termination of Gaussian 16 at Wed Apr  9 00:45:03 2025.
