 Gaussian 16, Revision C.01,

 ----------------------------------------------------------------------
 #t hf aug-cc-pvdz symm=none int=(grid=ultrafine) guess=(read,tcheck) s
 table=(opt,rrhf)
 ----------------------------------------------------------------------
 -----
 title
 -----
 Symbolic Z-matrix:
 Charge =  0 Multiplicity = 1

 SCF Done:  E(RHF) =  -799.220700670     A.U. after   16 cycles
 Normal termination of Gaussian 16 at Wed Apr  9 00:04:22 2025.
 Gaussian 16:  ES64L-G16RevC.01  3-Jul-2019

 ----------------------------------------------------------------------
 #t hf aug-cc-pvdz iop(5/13=1,5/36=2,99/5=2) pseudo=read geom=check gue
 ss=(read,tcheck) scf=(maxcycle=1)
 ----------------------------------------------------------------------
 -----
 title
 -----
 Structure from the checkpoint file:  "BDE49_nonexpt_2207_mol1.chk"
 Charge =  0 Multiplicity = 1

                         Standard orientation:
 ---------------------------------------------------------------------
 Center     Atomic      Atomic             Coordinates (Angstroms)
 Number     Number       Type             X           Y           Z
 ---------------------------------------------------------------------
      1          6           0       -2.904764   -0.286834    0.234104
      2          6           0       -2.005815    0.762557    0.196877
      3          6           0       -0.644233    0.523840   -0.018309
      4          6           0       -2.439229   -1.590364    0.037434
      5          6           0       -1.093263   -1.831073   -0.181766
      6          6           0       -0.155073   -0.787347   -0.206971
      7          1           0       -3.132208   -2.423695    0.056257
      8          1           0       -0.718623   -2.833819   -0.344292
      9          8           0        1.116449   -1.124833   -0.469357
     10         14           0        2.615254   -0.860467    0.244989
     11          1           0       -3.955811   -0.095258    0.408796
     12          7           0        0.230322    1.698286   -0.066263
     13          8           0        1.448268    1.523113   -0.006115
     14          8           0       -0.287720    2.799802   -0.161887
     15          1           0       -2.324603    1.787312    0.325472
     16          1           0        3.470975    0.003093   -0.580701
     17          1           0        3.201007   -2.219909    0.264489
     18          1           0        2.471745   -0.388510    1.634632
 ---------------------------------------------------------------------

 SCF Done:  E(RHF) =  -799.404459559     A.U. after    2 cycles

 The electronic state is 1-A.
 Alpha  occ. eigenvalues --  -69.10594 -20.62753 -20.62399 -20.60241 -15.93084
 Alpha  occ. eigenvalues --  -11.36762 -11.32286 -11.28914 -11.28761 -11.26855
 Alpha  occ. eigenvalues --  -11.26789  -6.85217  -3.96145  -3.95963  -3.95939
 Alpha  occ. eigenvalues --   -1.55888  -1.37782  -1.36556  -1.18456  -1.09234
 Alpha  occ. eigenvalues --   -1.04000  -0.96049  -0.87397  -0.85785  -0.80267
 Alpha  occ. eigenvalues --   -0.76841  -0.75036  -0.73768  -0.70241  -0.68389
 Alpha  occ. eigenvalues --   -0.65904  -0.63824  -0.62623  -0.58706  -0.57121
 Alpha  occ. eigenvalues --   -0.54454  -0.53219  -0.52306  -0.50841  -0.49027
 Alpha  occ. eigenvalues --   -0.47553  -0.46166  -0.38619  -0.35502
 Alpha virt. eigenvalues --    0.02652   0.02764   0.03645   0.04250   0.05289
 Alpha virt. eigenvalues --    0.05867   0.06214   0.07111   0.07816   0.08975
 Alpha virt. eigenvalues --    0.09917   0.10070   0.10764   0.12200   0.12320

 Mulliken charges:
               1
     1  C    0.414004
     2  C    0.439478
     3  C    1.659048
     4  C    0.456912
     5  C    0.990471
     6  C   -0.626569
     7  H   -0.424955
     8  H   -0.581748
     9  O   -0.903060
    10  Si   0.250410
    11  H   -0.423713
    12  N    0.009324
    13  O   -0.486569
    14  O   -0.547590
    15  H   -0.489459
    16  H    0.143634
    17  H   -0.002377
    18  H    0.122760
 Sum of Mulliken charges =  -0.00000

 Dipole moment (field-independent basis, Debye):
    X=             -3.1243    Y=             -3.2448    Z=              0.7255  Tot=              4.5625

 Test job not archived.
 1\1\GINC-SE070\SP\RHF\Aug-CC-pVDZ\C6H7N1O3Si1\OHZDE\09-Apr-2025\0\\#t
 hf aug-cc-pvdz iop(5/13=1,5/36=2,99/5=2) pseudo=read geom=check guess=
 (read,tcheck) scf=(maxcycle=1)\\title\\0,1\C,0,-2.904764,-0.286835,0.2
 34104\C,0,-2.005815,0.762557,0.196877\C,0,-0.644233,0.52384,-0.018309\
 C,0,-2.439229,-1.590365,0.037434\C,0,-1.093263,-1.831073,-0.181766\C,0
 ,-0.155073,-0.787347,-0.206971\H,0,-3.132207,-2.423696,0.056257\H,0,-0
 .718622,-2.833819,-0.344292\O,0,1.116449,-1.124833,-0.469357\Si,0,2.61
 5254,-0.860466,0.244989\H,0,-3.955811,-0.095259,0.408796\N,0,0.230322,

 Normal termination of Gaussian 16 at Wed Apr  9 00:04:33 2025.
