 Gaussian 16, Revision C.01,

 ----------------------------------------------------------------------
 #t hf aug-cc-pvdz symm=none int=(grid=ultrafine) guess=(read,tcheck) s
 table=(opt,rrhf)
 ----------------------------------------------------------------------
 -----
 title
 -----
 Symbolic Z-matrix:
 Charge =  0 Multiplicity = 1

 SCF Done:  E(RHF) =  -1146.72062812     A.U. after   14 cycles
 Normal termination of Gaussian 16 at Tue Apr  8 23:07:50 2025.
 Gaussian 16:  ES64L-G16RevC.01  3-Jul-2019

 ----------------------------------------------------------------------
 #t hf aug-cc-pvdz iop(5/13=1,5/36=2,99/5=2) pseudo=read geom=check gue
 ss=(read,tcheck) scf=(maxcycle=1)
 ----------------------------------------------------------------------
 -----
 title
 -----
 Structure from the checkpoint file:  "BDE49_expt_624_mol1.chk"
 Charge =  0 Multiplicity = 1

                         Standard orientation:
 ---------------------------------------------------------------------
 Center     Atomic      Atomic             Coordinates (Angstroms)
 Number     Number       Type             X           Y           Z
 ---------------------------------------------------------------------
      1          6           0        0.082145   -0.201570    0.351595
      2          8           0       -0.241103    0.970892    0.993554
      3          8           0       -0.478341    2.045760    0.065647
      4          1           0       -1.421164    1.916253   -0.129063
      5          6           0        0.351262   -1.223063    1.437820
      6          1           0        1.193035   -0.882200    2.041529
      7          1           0        0.592152   -2.182979    0.985449
      8          1           0       -0.534594   -1.325237    2.065281
      9         17           0       -1.329888   -0.756866   -0.695117
     10         17           0        1.525517   -0.014384   -0.726842
 ---------------------------------------------------------------------

 SCF Done:  E(RHF) =  -1146.82910639     A.U. after    2 cycles

 The electronic state is 1-A.
 Alpha  occ. eigenvalues -- -103.67688-103.67374 -20.68858 -20.67369 -11.45176
 Alpha  occ. eigenvalues --  -11.27069 -10.70989 -10.70680  -8.36694  -8.36405
 Alpha  occ. eigenvalues --   -8.36396  -8.36390  -8.36077  -8.36075  -1.48265
 Alpha  occ. eigenvalues --   -1.27786  -1.18409  -1.14244  -1.02149  -0.84980
 Alpha  occ. eigenvalues --   -0.77085  -0.71578  -0.70496  -0.65805  -0.58906
 Alpha  occ. eigenvalues --   -0.58429  -0.57289  -0.55223  -0.51137  -0.50018
 Alpha  occ. eigenvalues --   -0.48146  -0.47453  -0.45892
 Alpha virt. eigenvalues --    0.03580   0.04589   0.05927   0.06023   0.08171
 Alpha virt. eigenvalues --    0.09423   0.10403   0.12739   0.13364   0.14082
 Alpha virt. eigenvalues --    0.15062   0.16026   0.16438   0.17009   0.18106

 Mulliken charges:
               1
     1  C   -0.176731
     2  O   -0.402324
     3  O   -0.206877
     4  H    0.241475
     5  C    0.733008
     6  H   -0.000500
     7  H    0.001362
     8  H   -0.019650
     9  Cl  -0.105368
    10  Cl  -0.064396
 Sum of Mulliken charges =  -0.00000

 Dipole moment (field-independent basis, Debye):
    X=             -1.0870    Y=             -1.1306    Z=              1.2249  Tot=              1.9900

 Test job not archived.
 1\1\GINC-SE218\SP\RHF\Aug-CC-pVDZ\C2H4Cl2O2\OHZDE\08-Apr-2025\0\\#t hf
  aug-cc-pvdz iop(5/13=1,5/36=2,99/5=2) pseudo=read geom=check guess=(r
 ead,tcheck) scf=(maxcycle=1)\\title\\0,1\C,0,0.082145,-0.20157,0.35159
 5\O,0,-0.241105,0.970891,0.993554\O,0,-0.478345,2.045759,0.065647\H,0,
 -1.421168,1.91625,-0.129063\C,0,0.351264,-1.223063,1.43782\H,0,1.19303
 7,-0.882198,2.041529\H,0,0.592156,-2.182978,0.985449\H,0,-0.534591,-1.
 325238,2.065281\Cl,0,-1.329887,-0.756869,-0.695117\Cl,0,1.525517,-0.01
 4381,-0.726842\\Version=ES64L-G16RevC.01\State=1-A\HF=-1146.8291064\RM

 Normal termination of Gaussian 16 at Tue Apr  8 23:07:54 2025.
