 Gaussian 16, Revision C.01,

 ----------------------------------------------------------------------
 #t hf aug-cc-pvdz symm=none int=(grid=ultrafine) guess=(read,tcheck) s
 table=(opt,rrhf)
 ----------------------------------------------------------------------
 -----
 title
 -----
 Symbolic Z-matrix:
 Charge =  0 Multiplicity = 1

 SCF Done:  E(RHF) =  -501.318698459     A.U. after   12 cycles
 Normal termination of Gaussian 16 at Tue Apr  8 23:59:53 2025.
 Gaussian 16:  ES64L-G16RevC.01  3-Jul-2019

 ----------------------------------------------------------------------
 #t hf aug-cc-pvdz iop(5/13=1,5/36=2,99/5=2) pseudo=read geom=check gue
 ss=(read,tcheck) scf=(maxcycle=1)
 ----------------------------------------------------------------------
 -----
 title
 -----
 Structure from the checkpoint file:  "BDE49_nonexpt_2127_mol1.chk"
 Charge =  0 Multiplicity = 1

                         Standard orientation:
 ---------------------------------------------------------------------
 Center     Atomic      Atomic             Coordinates (Angstroms)
 Number     Number       Type             X           Y           Z
 ---------------------------------------------------------------------
      1          7           0        2.252915   -0.055308    0.566063
      2         14           0        0.856038   -0.007699   -0.448956
      3          6           0       -0.410920    1.398157   -0.244364
      4          6           0       -0.359163   -1.391979   -0.007693
      5          1           0        2.166229   -0.143578    1.568394
      6          1           0        3.081550    0.466265    0.319882
      7          6           0       -1.748995   -0.711215   -0.016304
      8          1           0       -0.122075   -1.760750    0.998279
      9          1           0       -0.307920   -2.255872   -0.674469
     10          6           0       -1.593468    0.734293    0.503096
     11          1           0       -2.483624   -1.268272    0.573656
     12          1           0       -2.132481   -0.678129   -1.043338
     13          1           0       -2.524761    1.298520    0.390687
     14          1           0       -1.376339    0.703486    1.578517
     15          1           0       -0.737929    1.731646   -1.236984
     16          1           0       -0.027520    2.280332    0.275112
     17          1           0        1.385210   -0.054242   -1.835202
 ---------------------------------------------------------------------

 SCF Done:  E(RHF) =  -501.413586016     A.U. after    2 cycles

 The electronic state is 1-A.
 Alpha  occ. eigenvalues --  -69.05568 -15.59339 -11.22804 -11.22735 -11.20571
 Alpha  occ. eigenvalues --  -11.20355  -6.80617  -3.91498  -3.91417  -3.91335
 Alpha  occ. eigenvalues --   -1.09381  -1.06100  -0.94588  -0.86458  -0.76807
 Alpha  occ. eigenvalues --   -0.67023  -0.64879  -0.62397  -0.61698  -0.57035
 Alpha  occ. eigenvalues --   -0.53201  -0.49372  -0.48358  -0.46758  -0.46132
 Alpha  occ. eigenvalues --   -0.44490  -0.42213  -0.36760
 Alpha virt. eigenvalues --    0.03088   0.04296   0.04413   0.04771   0.06290
 Alpha virt. eigenvalues --    0.06501   0.06675   0.06950   0.07256   0.09200
 Alpha virt. eigenvalues --    0.09319   0.09705   0.10331   0.11881   0.13877

 Mulliken charges:
               1
     1  N   -0.503565
     2  Si   1.080236
     3  C    0.149657
     4  C    0.169484
     5  H   -0.036344
     6  H   -0.073613
     7  C    0.181517
     8  H   -0.176013
     9  H   -0.148132
    10  C    0.167124
    11  H   -0.103326
    12  H   -0.136473
    13  H   -0.110084
    14  H   -0.151922
    15  H   -0.204119
    16  H   -0.163361
    17  H    0.058935
 Sum of Mulliken charges =   0.00000

 Dipole moment (field-independent basis, Debye):
    X=              0.2034    Y=              0.6146    Z=              0.8849  Tot=              1.0964

 Test job not archived.
 1\1\GINC-SE402\SP\RHF\Aug-CC-pVDZ\C4H11N1Si1\OHZDE\08-Apr-2025\0\\#t h
 f aug-cc-pvdz iop(5/13=1,5/36=2,99/5=2) pseudo=read geom=check guess=(
 read,tcheck) scf=(maxcycle=1)\\title\\0,1\N,0,2.252915,-0.055308,0.566
 063\Si,0,0.856038,-0.007699,-0.448956\C,0,-0.41092,1.398157,-0.244364\
 C,0,-0.359163,-1.391979,-0.007693\H,0,2.166229,-0.143578,1.568394\H,0,
 3.08155,0.466265,0.319882\C,0,-1.748995,-0.711215,-0.016304\H,0,-0.122
 075,-1.76075,0.998279\H,0,-0.30792,-2.255872,-0.674469\C,0,-1.593468,0
 .734293,0.503096\H,0,-2.483624,-1.268272,0.573656\H,0,-2.132481,-0.678

 Normal termination of Gaussian 16 at Tue Apr  8 23:59:59 2025.
