 Gaussian 16, Revision C.01,

 ----------------------------------------------------------------------
 #t hf aug-cc-pvdz symm=none int=(grid=ultrafine) guess=(read,tcheck) s
 table=(opt,rrhf)
 ----------------------------------------------------------------------
 -----
 title
 -----
 Symbolic Z-matrix:
 Charge =  0 Multiplicity = 1

 SCF Done:  E(RHF) =  -942.200744625     A.U. after   13 cycles
 Normal termination of Gaussian 16 at Wed Apr  9 00:01:23 2025.
 Gaussian 16:  ES64L-G16RevC.01  3-Jul-2019

 ----------------------------------------------------------------------
 #t hf aug-cc-pvdz iop(5/13=1,5/36=2,99/5=2) pseudo=read geom=check gue
 ss=(read,tcheck) scf=(maxcycle=1)
 ----------------------------------------------------------------------
 -----
 title
 -----
 Structure from the checkpoint file:  "BDE49_nonexpt_2168_mol1.chk"
 Charge =  0 Multiplicity = 1

                         Standard orientation:
 ---------------------------------------------------------------------
 Center     Atomic      Atomic             Coordinates (Angstroms)
 Number     Number       Type             X           Y           Z
 ---------------------------------------------------------------------
      1          6           0       -2.043037   -0.137609   -0.460502
      2          8           0       -1.255446    0.828654    0.248487
      3         14           0        0.212959    1.445034   -0.129535
      4          6           0        1.641376    0.426434    0.572329
      5          6           0       -2.246357   -1.384280    0.384050
      6         17           0        1.740622   -1.212274   -0.222337
      7          1           0        1.537353    0.246802    1.642633
      8          1           0        2.600777    0.915828    0.394540
      9          1           0       -1.564649   -0.390989   -1.413964
     10          1           0       -3.004408    0.334320   -0.684509
     11          1           0       -1.293304   -1.879816    0.580970
     12          1           0       -2.901303   -2.089504   -0.136536
     13          1           0       -2.708678   -1.124584    1.339135
     14          1           0        0.297958    2.778880    0.505059
     15          1           0        0.395934    1.530748   -1.597265
 ---------------------------------------------------------------------

 SCF Done:  E(RHF) =  -942.315869296     A.U. after    2 cycles

 The electronic state is 1-A.
 Alpha  occ. eigenvalues -- -103.65352 -69.10010 -20.56449 -11.29836 -11.29029
 Alpha  occ. eigenvalues --  -11.22705 -10.68576  -8.34294  -8.34015  -8.34006
 Alpha  occ. eigenvalues --   -6.84783  -3.95705  -3.95567  -3.95556  -1.30948
 Alpha  occ. eigenvalues --   -1.15333  -1.01236  -0.91903  -0.85147  -0.72701
 Alpha  occ. eigenvalues --   -0.65916  -0.63551  -0.61913  -0.59837  -0.57084
 Alpha  occ. eigenvalues --   -0.54983  -0.53634  -0.51768  -0.48784  -0.46889
 Alpha  occ. eigenvalues --   -0.46520  -0.44986  -0.41900
 Alpha virt. eigenvalues --    0.03319   0.04223   0.04787   0.05309   0.06290
 Alpha virt. eigenvalues --    0.06304   0.06839   0.07522   0.08268   0.09117
 Alpha virt. eigenvalues --    0.09956   0.10394   0.11757   0.13439   0.14273

 Mulliken charges:
               1
     1  C    0.747605
     2  O   -0.935270
     3  Si   1.026606
     4  C   -0.069746
     5  C    0.198662
     6  Cl  -0.241359
     7  H   -0.080853
     8  H   -0.118355
     9  H   -0.167247
    10  H   -0.190111
    11  H   -0.109132
    12  H   -0.017998
    13  H   -0.060355
    14  H    0.014611
    15  H    0.002941
 Sum of Mulliken charges =  -0.00000

 Dipole moment (field-independent basis, Debye):
    X=             -0.4073    Y=              0.8469    Z=              0.0986  Tot=              0.9449

 Test job not archived.
 1\1\GINC-SE109\SP\RHF\Aug-CC-pVDZ\C3H9Cl1O1Si1\OHZDE\09-Apr-2025\0\\#t
  hf aug-cc-pvdz iop(5/13=1,5/36=2,99/5=2) pseudo=read geom=check guess
 =(read,tcheck) scf=(maxcycle=1)\\title\\0,1\C,0,-2.043037,-0.137609,-0
 .460502\O,0,-1.255446,0.828654,0.248487\Si,0,0.212959,1.445034,-0.1295
 35\C,0,1.641376,0.426434,0.572329\C,0,-2.246357,-1.38428,0.38405\Cl,0,
 1.740622,-1.212274,-0.222337\H,0,1.537353,0.246802,1.642633\H,0,2.6007
 77,0.915828,0.39454\H,0,-1.564649,-0.390989,-1.413964\H,0,-3.004408,0.
 33432,-0.684509\H,0,-1.293304,-1.879816,0.58097\H,0,-2.901303,-2.08950

 Normal termination of Gaussian 16 at Wed Apr  9 00:01:29 2025.
