 Gaussian 16, Revision C.01,

 ----------------------------------------------------------------------
 #t hf aug-cc-pvdz symm=none int=(grid=ultrafine) guess=(read,tcheck) s
 table=(opt,rrhf)
 ----------------------------------------------------------------------
 -----
 title
 -----
 Symbolic Z-matrix:
 Charge =  0 Multiplicity = 1

 SCF Done:  E(RHF) =  -482.907106083     A.U. after   15 cycles
 Normal termination of Gaussian 16 at Tue Apr  8 22:50:35 2025.
 Gaussian 16:  ES64L-G16RevC.01  3-Jul-2019

 ----------------------------------------------------------------------
 #t hf aug-cc-pvdz iop(5/13=1,5/36=2,99/5=2) pseudo=read geom=check gue
 ss=(read,tcheck) scf=(maxcycle=1)
 ----------------------------------------------------------------------
 -----
 title
 -----
 Structure from the checkpoint file:  "BDE49_expt_1776_mol1.chk"
 Charge =  0 Multiplicity = 1

                         Standard orientation:
 ---------------------------------------------------------------------
 Center     Atomic      Atomic             Coordinates (Angstroms)
 Number     Number       Type             X           Y           Z
 ---------------------------------------------------------------------
      1          7           0        1.275272   -0.008888   -0.078358
      2          8           0       -0.000027   -0.819642   -0.000057
      3          7           0       -1.275261   -0.008877    0.078355
      4          8           0        2.176324   -0.629567    0.379819
      5          8           0        1.198851    1.047132   -0.616541
      6          8           0       -2.176373   -0.629523   -0.379759
      7          8           0       -1.198785    1.047144    0.616540
 ---------------------------------------------------------------------

 SCF Done:  E(RHF) =  -483.058660582     A.U. after    2 cycles

 The electronic state is 1-A.
 Alpha  occ. eigenvalues --  -20.75564 -20.70264 -20.70263 -20.70229 -20.70228
 Alpha  occ. eigenvalues --  -16.04186 -16.04180  -1.67222  -1.64949  -1.48495
 Alpha  occ. eigenvalues --   -1.47959  -1.40300  -1.01834  -0.92181  -0.87634
 Alpha  occ. eigenvalues --   -0.84320  -0.83898  -0.81824  -0.81526  -0.78712
 Alpha  occ. eigenvalues --   -0.64340  -0.62320  -0.59133  -0.58541  -0.56401
 Alpha  occ. eigenvalues --   -0.55450  -0.54676
 Alpha virt. eigenvalues --    0.03059   0.05184   0.06821   0.09682   0.10266
 Alpha virt. eigenvalues --    0.10895   0.12582   0.13949   0.14465   0.17939
 Alpha virt. eigenvalues --    0.18917   0.20714   0.20801   0.21593   0.24342

 Mulliken charges:
               1
     1  N    0.927348
     2  O   -0.456719
     3  N    0.927361
     4  O   -0.371292
     5  O   -0.327689
     6  O   -0.371306
     7  O   -0.327703
 Sum of Mulliken charges =  -0.00000

 Dipole moment (field-independent basis, Debye):
    X=              0.0003    Y=             -0.2110    Z=             -0.0001  Tot=              0.2110

 Test job not archived.
 1\1\GINC-SE044\SP\RHF\Aug-CC-pVDZ\N2O5\OHZDE\08-Apr-2025\0\\#t hf aug-
 cc-pvdz iop(5/13=1,5/36=2,99/5=2) pseudo=read geom=check guess=(read,t
 check) scf=(maxcycle=1)\\title\\0,1\N,0,1.275272,-0.008888,-0.078358\O
 ,0,-0.000027,-0.819642,-0.000057\N,0,-1.275261,-0.008877,0.078355\O,0,
 2.176324,-0.629567,0.379819\O,0,1.198851,1.047132,-0.616541\O,0,-2.176
 373,-0.629523,-0.379759\O,0,-1.198785,1.047144,0.61654\\Version=ES64L-
 G16RevC.01\State=1-A\HF=-483.0586606\RMSD=3.863e-03\Dipole=0.0001207,-
 0.0830051,-0.0000208\Quadrupole=-1.6766951,-0.7175239,2.3942191,-0.000

 Normal termination of Gaussian 16 at Tue Apr  8 22:50:37 2025.
