 Gaussian 16, Revision C.01,

 ----------------------------------------------------------------------
 #t hf aug-cc-pvdz symm=none int=(grid=ultrafine) guess=(read,tcheck) s
 table=(opt,rrhf)
 ----------------------------------------------------------------------
 -----
 title
 -----
 Symbolic Z-matrix:
 Charge =  0 Multiplicity = 1

 SCF Done:  E(RHF) =  -907.692898926     A.U. after   16 cycles
 Normal termination of Gaussian 16 at Tue Apr  8 23:32:23 2025.
 Gaussian 16:  ES64L-G16RevC.01  3-Jul-2019

 ----------------------------------------------------------------------
 #t hf aug-cc-pvdz iop(5/13=1,5/36=2,99/5=2) pseudo=read geom=check gue
 ss=(read,tcheck) scf=(maxcycle=1)
 ----------------------------------------------------------------------
 -----
 title
 -----
 Structure from the checkpoint file:  "BDE49_nonexpt_1423_mol1.chk"
 Charge =  0 Multiplicity = 1

                         Standard orientation:
 ---------------------------------------------------------------------
 Center     Atomic      Atomic             Coordinates (Angstroms)
 Number     Number       Type             X           Y           Z
 ---------------------------------------------------------------------
      1          6           0       -2.860115   -0.495672    0.013552
      2          6           0       -2.154053    0.704520    0.007772
      3          6           0       -0.754187    0.733939   -0.017047
      4          6           0       -2.176319   -1.705326   -0.012178
      5          6           0       -0.785608   -1.703992   -0.032928
      6          6           0       -0.076789   -0.502759   -0.025968
      7          1           0       -3.944020   -0.479816    0.029904
      8          1           0       -2.703253    1.638338    0.014996
      9         15           0        0.138513    2.364051    0.081923
     10          1           0       -0.241935   -2.638948   -0.052722
     11          1           0       -2.716376   -2.644536   -0.015507
     12          6           0        1.430830   -0.567306    0.005896
     13          9           0        1.898835   -1.803569   -0.263260
     14          9           0        1.995305    0.268415   -0.900401
     15          9           0        1.925741   -0.217878    1.214439
     16          1           0       -1.032442    3.156659   -0.001078
     17          1           0        0.438856    2.504394   -1.296028
 ---------------------------------------------------------------------

 SCF Done:  E(RHF) =  -907.899639605     A.U. after    2 cycles

 The electronic state is 1-A.
 Alpha  occ. eigenvalues --  -81.27000 -26.16590 -26.16345 -26.15901 -11.52979
 Alpha  occ. eigenvalues --  -11.28562 -11.28378 -11.27353 -11.27091 -11.26810
 Alpha  occ. eigenvalues --  -11.26644  -7.77351  -4.91449  -4.91309  -4.91031
 Alpha  occ. eigenvalues --   -1.75751  -1.68894  -1.68411  -1.17686  -1.08222
 Alpha  occ. eigenvalues --   -1.03949  -1.00136  -0.89569  -0.88719  -0.87416
 Alpha  occ. eigenvalues --   -0.85260  -0.82526  -0.77982  -0.76992  -0.76399
 Alpha  occ. eigenvalues --   -0.72815  -0.72347  -0.71342  -0.70278  -0.66084
 Alpha  occ. eigenvalues --   -0.65067  -0.60964  -0.58036  -0.54321  -0.53201
 Alpha  occ. eigenvalues --   -0.51375  -0.49561  -0.39550  -0.37136  -0.33921
 Alpha virt. eigenvalues --    0.02837   0.03778   0.04511   0.05825   0.06224
 Alpha virt. eigenvalues --    0.06925   0.07754   0.08287   0.08968   0.09508
 Alpha virt. eigenvalues --    0.09974   0.10454   0.12475   0.12780   0.12876

 Mulliken charges:
               1
     1  C    0.334790
     2  C    0.892626
     3  C   -0.986527
     4  C    0.599930
     5  C    0.429078
     6  C    0.816637
     7  H   -0.445337
     8  H   -0.580458
     9  P   -0.118797
    10  H   -0.567435
    11  H   -0.424080
    12  C    0.776180
    13  F   -0.304057
    14  F   -0.343567
    15  F   -0.331626
    16  H    0.077006
    17  H    0.175636
 Sum of Mulliken charges =  -0.00000

 Dipole moment (field-independent basis, Debye):
    X=             -3.8405    Y=             -0.2888    Z=             -0.5052  Tot=              3.8843

 Test job not archived.
 1\1\GINC-SE049\SP\RHF\Aug-CC-pVDZ\C7H6F3P1\OHZDE\08-Apr-2025\0\\#t hf
 aug-cc-pvdz iop(5/13=1,5/36=2,99/5=2) pseudo=read geom=check guess=(re
 ad,tcheck) scf=(maxcycle=1)\\title\\0,1\C,0,-2.860115,-0.495672,0.0135
 52\C,0,-2.154053,0.70452,0.007772\C,0,-0.754187,0.733939,-0.017047\C,0
 ,-2.176319,-1.705326,-0.012178\C,0,-0.785608,-1.703992,-0.032928\C,0,-
 0.076789,-0.502759,-0.025968\H,0,-3.94402,-0.479817,0.029904\H,0,-2.70
 3253,1.638338,0.014996\P,0,0.138513,2.364051,0.081923\H,0,-0.241934,-2
 .638948,-0.052722\H,0,-2.716375,-2.644536,-0.015507\C,0,1.43083,-0.567

 Normal termination of Gaussian 16 at Tue Apr  8 23:32:34 2025.
