 Gaussian 16, Revision C.01,

 ----------------------------------------------------------------------
 #t hf aug-cc-pvdz symm=none int=(grid=ultrafine) guess=(read,tcheck) s
 table=(opt,rrhf)
 ----------------------------------------------------------------------
 -----
 title
 -----
 Symbolic Z-matrix:
 Charge =  0 Multiplicity = 1

 SCF Done:  E(RHF) =  -611.926027001     A.U. after   17 cycles
 Normal termination of Gaussian 16 at Wed Apr  9 00:04:06 2025.
 Gaussian 16:  ES64L-G16RevC.01  3-Jul-2019

 ----------------------------------------------------------------------
 #t hf aug-cc-pvdz iop(5/13=1,5/36=2,99/5=2) pseudo=read geom=check gue
 ss=(read,tcheck) scf=(maxcycle=1)
 ----------------------------------------------------------------------
 -----
 title
 -----
 Structure from the checkpoint file:  "BDE49_nonexpt_2217_mol1.chk"
 Charge =  0 Multiplicity = 1

                         Standard orientation:
 ---------------------------------------------------------------------
 Center     Atomic      Atomic             Coordinates (Angstroms)
 Number     Number       Type             X           Y           Z
 ---------------------------------------------------------------------
      1         14           0        0.603954    1.174085    0.146613
      2          8           0        1.547187    0.150818   -0.879192
      3          7           0        2.158483   -1.007321   -0.405135
      4          8           0        1.949442   -1.232504    0.737150
      5          6           0       -1.010726    0.377258    0.658756
      6          6           0       -1.901443   -0.103244   -0.503597
      7          1           0       -1.548467    1.127969    1.255171
      8          1           0       -0.795657   -0.450930    1.342672
      9          6           0       -3.226546   -0.708189   -0.029203
     10          1           0       -1.357509   -0.843859   -1.099400
     11          1           0       -2.106503    0.735000   -1.179121
     12          1           0       -3.054816   -1.571860    0.620220
     13          1           0       -3.834881   -1.041598   -0.874439
     14          1           0       -3.812905    0.021582    0.537507
     15          1           0        0.382286    2.325567   -0.748956
     16          1           0        1.422972    1.570731    1.310310
 ---------------------------------------------------------------------

 SCF Done:  E(RHF) =  -612.056165288     A.U. after    2 cycles

 The electronic state is 1-A.
 Alpha  occ. eigenvalues --  -69.10498 -20.66914 -20.62620 -15.85916 -11.24531
 Alpha  occ. eigenvalues --  -11.23262 -11.23069  -6.85333  -3.96234  -3.96082
 Alpha  occ. eigenvalues --   -3.96048  -1.54541  -1.33529  -1.05687  -0.94797
 Alpha  occ. eigenvalues --   -0.92714  -0.81639  -0.77852  -0.74461  -0.69405
 Alpha  occ. eigenvalues --   -0.66043  -0.64051  -0.58512  -0.56850  -0.56440
 Alpha  occ. eigenvalues --   -0.54656  -0.53007  -0.49926  -0.48600  -0.47833
 Alpha  occ. eigenvalues --   -0.46671  -0.43806
 Alpha virt. eigenvalues --    0.03310   0.04187   0.04497   0.05107   0.06311
 Alpha virt. eigenvalues --    0.06690   0.06927   0.07372   0.08190   0.08923
 Alpha virt. eigenvalues --    0.09775   0.09881   0.10166   0.12626   0.13698

 Mulliken charges:
               1
     1  Si   0.961461
     2  O   -0.763417
     3  N    0.325253
     4  O   -0.325769
     5  C    0.241429
     6  C   -0.009580
     7  H   -0.198203
     8  H   -0.203856
     9  C    0.411097
    10  H   -0.189253
    11  H   -0.144511
    12  H   -0.056729
    13  H   -0.065085
    14  H   -0.067835
    15  H    0.087962
    16  H   -0.002964
 Sum of Mulliken charges =   0.00000

 Dipole moment (field-independent basis, Debye):
    X=             -1.8295    Y=              0.9535    Z=              0.4436  Tot=              2.1102

 Test job not archived.
 1\1\GINC-SE329\SP\RHF\Aug-CC-pVDZ\C3H9N1O2Si1\OHZDE\09-Apr-2025\0\\#t
 hf aug-cc-pvdz iop(5/13=1,5/36=2,99/5=2) pseudo=read geom=check guess=
 (read,tcheck) scf=(maxcycle=1)\\title\\0,1\Si,0,0.603954,1.174085,0.14
 6613\O,0,1.547187,0.150818,-0.879192\N,0,2.158483,-1.007321,-0.405135\
 O,0,1.949442,-1.232504,0.73715\C,0,-1.010726,0.377258,0.658756\C,0,-1.
 901443,-0.103244,-0.503597\H,0,-1.548467,1.127969,1.255171\H,0,-0.7956
 57,-0.45093,1.342672\C,0,-3.226546,-0.708189,-0.029203\H,0,-1.357509,-
 0.843859,-1.0994\H,0,-2.106503,0.735,-1.179121\H,0,-3.054816,-1.57186,

 Normal termination of Gaussian 16 at Wed Apr  9 00:04:12 2025.
