 Gaussian 16, Revision C.01,

 ----------------------------------------------------------------------
 #t hf aug-cc-pvdz symm=none int=(grid=ultrafine) guess=(read,tcheck) s
 table=(opt,rrhf)
 ----------------------------------------------------------------------
 -----
 title
 -----
 Symbolic Z-matrix:
 Charge =  0 Multiplicity = 1

 SCF Done:  E(RHF) =  -1950.65389133     A.U. after   14 cycles

 1\1\GINC-SE363\Stability\RHF\Aug-CC-pVDZ\C1Cl4O1\OHZDE\08-Apr-2025\0\\
 #t hf aug-cc-pvdz symm=none int=(grid=ultrafine) guess=(read,tcheck) s
 table=(opt,rrhf)\\title\\0,1\Cl,0,-0.719029,-2.188589,0.\O,0,0.602186,
 -1.046655,0.\C,0,0.221335,0.279894,0.\Cl,0,1.795588,1.116987,0.\Cl,0,-
 0.719029,0.732679,1.464252\Cl,0,-0.719029,0.732679,-1.464252\\Version=
 ES64L-G16RevC.01\HF=-1950.6538913\RMSD=6.004e-09\Dipole=-0.2358208,-0.
 1672888,0.\Quadrupole=0.199636,0.5014117,-0.7010477,1.9340358,0.,0.\PG
 =Unknown\\@

 Normal termination of Gaussian 16 at Tue Apr  8 23:14:51 2025.
 Gaussian 16:  ES64L-G16RevC.01  3-Jul-2019

 ----------------------------------------------------------------------
 #t hf aug-cc-pvdz iop(5/13=1,5/36=2,99/5=2) pseudo=read geom=check gue
 ss=(read,tcheck) scf=(maxcycle=1)
 ----------------------------------------------------------------------
 -----
 title
 -----
 Structure from the checkpoint file:  "BDE49_nonexpt_1031_mol1.chk"
 Charge =  0 Multiplicity = 1

                         Standard orientation:
 ---------------------------------------------------------------------
 Center     Atomic      Atomic             Coordinates (Angstroms)
 Number     Number       Type             X           Y           Z
 ---------------------------------------------------------------------
      1         17           0       -0.719029   -2.188589    0.000000
      2          8           0        0.602186   -1.046655    0.000000
      3          6           0        0.221335    0.279894   -0.000000
      4         17           0        1.795588    1.116987   -0.000000
      5         17           0       -0.719029    0.732679    1.464252
      6         17           0       -0.719029    0.732679   -1.464252
 ---------------------------------------------------------------------

 SCF Done:  E(RHF) =  -1950.76358039     A.U. after    2 cycles

 The electronic state is 1-A'.
 Alpha  occ. eigenvalues -- -103.75243-103.70398-103.70032-103.70031 -20.70935
 Alpha  occ. eigenvalues --  -11.51980 -10.77869 -10.73725 -10.73365 -10.73344
 Alpha  occ. eigenvalues --   -8.43632  -8.43178  -8.43153  -8.39445  -8.39089
 Alpha  occ. eigenvalues --   -8.39082  -8.39073  -8.39066  -8.38726  -8.38726
 Alpha  occ. eigenvalues --   -8.38722  -8.38720  -1.45360  -1.25636  -1.17874
 Alpha  occ. eigenvalues --   -1.17024  -1.14234  -0.87569  -0.73165  -0.72994
 Alpha  occ. eigenvalues --   -0.71725  -0.60201  -0.59889  -0.52794  -0.52579
 Alpha  occ. eigenvalues --   -0.51891  -0.51016  -0.49610  -0.48568  -0.48567
 Alpha  occ. eigenvalues --   -0.47482
 Alpha virt. eigenvalues --    0.01524   0.05536   0.08233   0.08319   0.08533
 Alpha virt. eigenvalues --    0.09893   0.11471   0.12620   0.13709   0.14664
 Alpha virt. eigenvalues --    0.14810   0.16587   0.17783   0.18250   0.18709

 Mulliken charges:
               1
     1  Cl   0.363769
     2  O   -0.511847
     3  C   -0.299907
     4  Cl   0.156465
     5  Cl   0.145760
     6  Cl   0.145760
 Sum of Mulliken charges =  -0.00000

 Dipole moment (field-independent basis, Debye):
    X=             -0.7327    Y=             -0.4562    Z=             -0.0000  Tot=              0.8631

 Test job not archived.
 1\1\GINC-SE363\SP\RHF\Aug-CC-pVDZ\C1Cl4O1\OHZDE\08-Apr-2025\0\\#t hf a
 ug-cc-pvdz iop(5/13=1,5/36=2,99/5=2) pseudo=read geom=check guess=(rea
 d,tcheck) scf=(maxcycle=1)\\title\\0,1\Cl,0,-0.719029,-2.188589,0.\O,0
 ,0.602186,-1.046655,0.\C,0,0.221335,0.279894,0.\Cl,0,1.795588,1.116987
 ,0.\Cl,0,-0.719029,0.732679,1.464252\Cl,0,-0.719029,0.732679,-1.464252
 \\Version=ES64L-G16RevC.01\State=1-A'\HF=-1950.7635804\RMSD=2.727e-03\
 Dipole=-0.2882675,-0.179467,0.\Quadrupole=0.1615209,0.5806101,-0.74213
 1,2.114342,0.,0.\PG=CS [SG(C1Cl2O1),X(Cl2)]\\@

 Normal termination of Gaussian 16 at Tue Apr  8 23:14:53 2025.
