 Gaussian 16, Revision C.01,

 ----------------------------------------------------------------------
 #t hf aug-cc-pvdz symm=none int=(grid=ultrafine) guess=(read,tcheck) s
 table=(opt,rrhf)
 ----------------------------------------------------------------------
 -----
 title
 -----
 Symbolic Z-matrix:
 Charge =  0 Multiplicity = 1

 SCF Done:  E(RHF) =  -845.113818853     A.U. after   14 cycles
 Normal termination of Gaussian 16 at Wed Apr  9 00:44:43 2025.
 Gaussian 16:  ES64L-G16RevC.01  3-Jul-2019

 ----------------------------------------------------------------------
 #t hf aug-cc-pvdz iop(5/13=1,5/36=2,99/5=2) pseudo=read geom=check gue
 ss=(read,tcheck) scf=(maxcycle=1)
 ----------------------------------------------------------------------
 -----
 title
 -----
 Structure from the checkpoint file:  "BDE49_nonexpt_796_mol1.chk"
 Charge =  0 Multiplicity = 1

                         Standard orientation:
 ---------------------------------------------------------------------
 Center     Atomic      Atomic             Coordinates (Angstroms)
 Number     Number       Type             X           Y           Z
 ---------------------------------------------------------------------
      1          7           0        1.439277   -0.832829   -0.000021
      2          9           0        0.983921   -1.596819    1.111034
      3          9           0        0.983904   -1.596792   -1.111087
      4         14           0        0.356657    0.659996    0.000005
      5          6           0        0.817563    1.563530   -1.566200
      6          1           0        1.889278    1.777053   -1.595865
      7          1           0        0.279593    2.514635   -1.625208
      8          1           0        0.557806    0.973405   -2.447528
      9          6           0        0.817586    1.563492    1.566226
     10          1           0        1.889301    1.777013    1.595881
     11          1           0        0.557841    0.973345    2.447543
     12          1           0        0.279617    2.514596    1.625265
     13          5           0       -1.570358   -0.003788    0.000011
     14          9           0       -2.232830   -0.218953    1.127669
     15          9           0       -2.232847   -0.218923   -1.127642
 ---------------------------------------------------------------------

 SCF Done:  E(RHF) =  -845.340909110     A.U. after    2 cycles

 The electronic state is 1-A.
 Alpha  occ. eigenvalues --  -69.10541 -26.15869 -26.15865 -26.14950 -26.14943
 Alpha  occ. eigenvalues --  -15.80522 -11.24213 -11.24209  -7.75216  -6.85771
 Alpha  occ. eigenvalues --   -3.96637  -3.96476  -3.96444  -1.70254  -1.69862
 Alpha  occ. eigenvalues --   -1.67933  -1.64776  -1.09349  -0.98001  -0.95293
 Alpha  occ. eigenvalues --   -0.88880  -0.82980  -0.82025  -0.79597  -0.79288
 Alpha  occ. eigenvalues --   -0.78947  -0.77615  -0.73997  -0.72948  -0.72514
 Alpha  occ. eigenvalues --   -0.69544  -0.67391  -0.61397  -0.59423  -0.57670
 Alpha  occ. eigenvalues --   -0.57515  -0.56738  -0.47917  -0.47696  -0.45488
 Alpha virt. eigenvalues --    0.02432   0.04056   0.04244   0.05015   0.06363
 Alpha virt. eigenvalues --    0.06659   0.06820   0.07064   0.07938   0.09108
 Alpha virt. eigenvalues --    0.09140   0.09815   0.10442   0.11966   0.14059

 Mulliken charges:
               1
     1  N   -0.030344
     2  F   -0.424141
     3  F   -0.424140
     4  Si   1.598985
     5  C    0.330075
     6  H   -0.211246
     7  H   -0.259798
     8  H   -0.202507
     9  C    0.330076
    10  H   -0.211248
    11  H   -0.202507
    12  H   -0.259797
    13  B    0.982408
    14  F   -0.507908
    15  F   -0.507907
 Sum of Mulliken charges =  -0.00000

 Dipole moment (field-independent basis, Debye):
    X=              0.8235    Y=              4.3898    Z=              0.0000  Tot=              4.4664

 Test job not archived.
 1\1\GINC-SE227\SP\RHF\Aug-CC-pVDZ\C2H6B1F4N1Si1\OHZDE\09-Apr-2025\0\\#
 t hf aug-cc-pvdz iop(5/13=1,5/36=2,99/5=2) pseudo=read geom=check gues
 s=(read,tcheck) scf=(maxcycle=1)\\title\\0,1\N,0,1.439277,-0.832829,-0
 .000021\F,0,0.983921,-1.596819,1.111034\F,0,0.983904,-1.596792,-1.1110
 87\Si,0,0.356657,0.659996,0.000005\C,0,0.817563,1.56353,-1.5662\H,0,1.
 889278,1.777053,-1.595865\H,0,0.279594,2.514635,-1.625208\H,0,0.557806
 ,0.973405,-2.447528\C,0,0.817586,1.563492,1.566226\H,0,1.889301,1.7770
 13,1.595881\H,0,0.557841,0.973345,2.447543\H,0,0.279618,2.514596,1.625

 Normal termination of Gaussian 16 at Wed Apr  9 00:44:50 2025.
