 Gaussian 16, Revision C.01,

 ----------------------------------------------------------------------
 #t hf aug-cc-pvdz symm=none int=(grid=ultrafine) guess=(read,tcheck) s
 table=(opt,rrhf)
 ----------------------------------------------------------------------
 -----
 title
 -----
 Symbolic Z-matrix:
 Charge =  0 Multiplicity = 1

 SCF Done:  E(RHF) =  -499.983329513     A.U. after   15 cycles
 Normal termination of Gaussian 16 at Wed Apr  9 00:40:02 2025.
 Gaussian 16:  ES64L-G16RevC.01  3-Jul-2019

 ----------------------------------------------------------------------
 #t hf aug-cc-pvdz iop(5/13=1,5/36=2,99/5=2) pseudo=read geom=check gue
 ss=(read,tcheck) scf=(maxcycle=1)
 ----------------------------------------------------------------------
 -----
 title
 -----
 Structure from the checkpoint file:  "BDE49_nonexpt_613_mol1.chk"
 Charge =  0 Multiplicity = 1

                         Standard orientation:
 ---------------------------------------------------------------------
 Center     Atomic      Atomic             Coordinates (Angstroms)
 Number     Number       Type             X           Y           Z
 ---------------------------------------------------------------------
      1          6           0       -2.118761   -1.303759   -0.720437
      2          6           0       -0.939992   -0.609266   -0.973780
      3          6           0       -3.058538   -0.791485    0.174161
      4          6           0       -2.808504    0.418146    0.815958
      5          6           0       -1.626022    1.112261    0.560347
      6          6           0       -0.681332    0.611364   -0.340301
      7          1           0       -0.201331   -1.013617   -1.656313
      8          5           0        2.363887   -0.209185    0.247172
      9          8           0        1.732821   -0.502329    1.435854
     10          8           0        3.623762   -0.718092    0.032866
     11          1           0       -2.304766   -2.248297   -1.219703
     12          1           0       -3.528833    0.820509    1.519551
     13          1           0       -3.974671   -1.335716    0.373713
     14          1           0       -1.434727    2.054147    1.065855
     15          6           0        0.583621    1.402632   -0.647827
     16          1           0        3.891485   -1.287272    0.759540
     17          1           0        0.806805   -0.244030    1.461119
     18          7           0        1.784560    0.590597   -0.776672
     19          1           0        0.699789    2.178056    0.122075
     20          1           0        0.433577    1.938049   -1.591174
     21          1           0        2.345825    0.773917   -1.592307
 ---------------------------------------------------------------------

 SCF Done:  E(RHF) =  -500.140416624     A.U. after    2 cycles

 The electronic state is 1-A.
 Alpha  occ. eigenvalues --  -20.56763 -20.56256 -15.60373 -11.28302 -11.25740
 Alpha  occ. eigenvalues --  -11.25292 -11.25183 -11.25105 -11.24959 -11.24695
 Alpha  occ. eigenvalues --   -7.65470  -1.32985  -1.29222  -1.16940  -1.13746
 Alpha  occ. eigenvalues --   -1.02877  -1.01567  -0.91555  -0.83635  -0.80946
 Alpha  occ. eigenvalues --   -0.76463  -0.73309  -0.71041  -0.69787  -0.65265
 Alpha  occ. eigenvalues --   -0.64047  -0.60169  -0.59761  -0.59115  -0.57993
 Alpha  occ. eigenvalues --   -0.57370  -0.56258  -0.54465  -0.51118  -0.50707
 Alpha  occ. eigenvalues --   -0.50137  -0.49558  -0.39026  -0.34774  -0.33855
 Alpha virt. eigenvalues --    0.03017   0.03701   0.03855   0.04372   0.05322
 Alpha virt. eigenvalues --    0.05489   0.06894   0.07498   0.07550   0.07929
 Alpha virt. eigenvalues --    0.08365   0.09172   0.09900   0.10355   0.10550

 Mulliken charges:
               1
     1  C    0.159819
     2  C    0.430538
     3  C    0.718261
     4  C    0.193577
     5  C    0.692379
     6  C    0.096876
     7  H   -0.659738
     8  B    0.689037
     9  O   -0.483966
    10  O   -0.538975
    11  H   -0.456984
    12  H   -0.450868
    13  H   -0.445052
    14  H   -0.577099
    15  C    0.770738
    16  H    0.205205
    17  H    0.253435
    18  N   -0.179824
    19  H   -0.272464
    20  H   -0.089778
    21  H   -0.055117
 Sum of Mulliken charges =  -0.00000

 Dipole moment (field-independent basis, Debye):
    X=             -1.8648    Y=              0.8176    Z=             -0.4093  Tot=              2.0768

 Test job not archived.
 1\1\GINC-SE058\SP\RHF\Aug-CC-pVDZ\C7H10B1N1O2\OHZDE\09-Apr-2025\0\\#t
 hf aug-cc-pvdz iop(5/13=1,5/36=2,99/5=2) pseudo=read geom=check guess=
 (read,tcheck) scf=(maxcycle=1)\\title\\0,1\C,0,-2.118761,-1.303759,-0.
 720437\C,0,-0.939992,-0.609266,-0.97378\C,0,-3.058538,-0.791485,0.1741
 61\C,0,-2.808504,0.418146,0.815958\C,0,-1.626022,1.112261,0.560347\C,0
 ,-0.681332,0.611364,-0.340301\H,0,-0.201331,-1.013617,-1.656313\B,0,2.
 363887,-0.209185,0.247172\O,0,1.732821,-0.502329,1.435854\O,0,3.623762
 ,-0.718092,0.032866\H,0,-2.304766,-2.248297,-1.219703\H,0,-3.528833,0.

 Normal termination of Gaussian 16 at Wed Apr  9 00:40:16 2025.
