 Gaussian 16, Revision C.01,

 ----------------------------------------------------------------------
 #t hf aug-cc-pvdz symm=none int=(grid=ultrafine) guess=(read,tcheck) s
 table=(opt,rrhf)
 ----------------------------------------------------------------------
 -----
 title
 -----
 Symbolic Z-matrix:
 Charge =  0 Multiplicity = 1

 SCF Done:  E(RHF) =  -1499.30469125     A.U. after   10 cycles
 Normal termination of Gaussian 16 at Wed Apr  9 00:07:29 2025.
 Gaussian 16:  ES64L-G16RevC.01  3-Jul-2019

 ----------------------------------------------------------------------
 #t hf aug-cc-pvdz iop(5/13=1,5/36=2,99/5=2) pseudo=read geom=check gue
 ss=(read,tcheck) scf=(maxcycle=1)
 ----------------------------------------------------------------------
 -----
 title
 -----
 Structure from the checkpoint file:  "BDE49_nonexpt_2314_mol1.chk"
 Charge =  0 Multiplicity = 1

                         Standard orientation:
 ---------------------------------------------------------------------
 Center     Atomic      Atomic             Coordinates (Angstroms)
 Number     Number       Type             X           Y           Z
 ---------------------------------------------------------------------
      1         14           0       -0.877006    0.785742    0.000000
      2         14           0        0.877006   -0.785742    0.000000
      3          1           0        0.850704   -1.631093    1.210914
      4         17           0        2.681591    0.272502    0.000000
      5          1           0        0.850704   -1.631093   -1.210914
      6         17           0       -2.681591   -0.272502   -0.000001
      7          1           0       -0.850704    1.631093   -1.210914
      8          1           0       -0.850705    1.631093    1.210914
 ---------------------------------------------------------------------

 SCF Done:  E(RHF) =  -1499.38518271     A.U. after    2 cycles

 The electronic state is 1-A.
 Alpha  occ. eigenvalues -- -103.66175-103.66175 -69.12434 -69.12434 -10.69600
 Alpha  occ. eigenvalues --  -10.69599  -8.35291  -8.35290  -8.35062  -8.35060
 Alpha  occ. eigenvalues --   -8.35058  -8.35058  -6.87385  -6.87380  -3.98223
 Alpha  occ. eigenvalues --   -3.98222  -3.98081  -3.98068  -3.98057  -3.98002
 Alpha  occ. eigenvalues --   -1.14482  -1.14205  -0.75240  -0.68497  -0.55169
 Alpha  occ. eigenvalues --   -0.55049  -0.53395  -0.52947  -0.51903  -0.48987
 Alpha  occ. eigenvalues --   -0.46767  -0.46722  -0.41004
 Alpha virt. eigenvalues --    0.04040   0.04073   0.04463   0.06327   0.06853
 Alpha virt. eigenvalues --    0.07422   0.07566   0.08876   0.09337   0.09905
 Alpha virt. eigenvalues --    0.10682   0.11151   0.12621   0.13565   0.14636

 Mulliken charges:
               1
     1  Si   0.504412
     2  Si   0.504412
     3  H    0.016742
     4  Cl  -0.537896
     5  H    0.016742
     6  Cl  -0.537896
     7  H    0.016742
     8  H    0.016742
 Sum of Mulliken charges =   0.00000

 Dipole moment (field-independent basis, Debye):
    X=              0.0000    Y=             -0.0000    Z=              0.0000  Tot=              0.0000

 Test job not archived.
 1\1\GINC-SE403\SP\RHF\Aug-CC-pVDZ\Cl2H4Si2\OHZDE\09-Apr-2025\0\\#t hf
 aug-cc-pvdz iop(5/13=1,5/36=2,99/5=2) pseudo=read geom=check guess=(re
 ad,tcheck) scf=(maxcycle=1)\\title\\0,1\Si,0,0.877006,-0.785742,0.\Si,
 0,-0.877006,0.785742,0.\H,0,-0.850704,1.631093,1.210914\Cl,0,-2.681591
 ,-0.272502,0.\H,0,-0.850704,1.631093,-1.210914\Cl,0,2.681591,0.272502,
 -0.000001\H,0,0.850704,-1.631093,-1.210914\H,0,0.850705,-1.631093,1.21
 0914\\Version=ES64L-G16RevC.01\State=1-A\HF=-1499.3851827\RMSD=4.869e-
 03\Dipole=-0.0000006,0.,0.0000005\Quadrupole=-5.112038,3.0284026,2.083

 Normal termination of Gaussian 16 at Wed Apr  9 00:07:32 2025.
