 Gaussian 16, Revision C.01,

 ----------------------------------------------------------------------
 #t hf aug-cc-pvdz symm=none int=(grid=ultrafine) guess=(read,tcheck) s
 table=opt
 ----------------------------------------------------------------------
 -----
 title
 -----
 Symbolic Z-matrix:
 Charge =  0 Multiplicity = 2

 SCF Done:  E(UHF) =  -1270.04878656     a.u. after    6 cycles
 Normal termination of Gaussian 16 at Wed Apr  9 00:17:00 2025.
 Gaussian 16:  ES64L-G16RevC.01  3-Jul-2019

 ----------------------------------------------------------------------
 #t hf aug-cc-pvdz iop(5/13=1,5/36=2,99/5=2) pseudo=read geom=check gue
 ss=(read,tcheck) scf=(maxcycle=1)
 ----------------------------------------------------------------------
 -----
 title
 -----
 Structure from the checkpoint file:  "BDE49_nonexpt_2576_mol2.chk"
 Charge =  0 Multiplicity = 2

                         Standard orientation:
 ---------------------------------------------------------------------
 Center     Atomic      Atomic             Coordinates (Angstroms)
 Number     Number       Type             X           Y           Z
 ---------------------------------------------------------------------
      1         16           0       -1.874925   -0.784215    0.000008
      2          6           0       -0.353699   -0.058377   -0.000011
      3         16           0       -0.502458    1.615611    0.000000
      4         16           0        1.100278   -0.998351   -0.000005
      5          6           0        2.415190    0.261273    0.000001
      6          1           0        3.348689   -0.302828    0.000004
      7          1           0        2.358013    0.878361    0.895456
      8          1           0        2.358019    0.878362   -0.895453
 ---------------------------------------------------------------------

 SCF Done:  E(UHF) =  -1270.13092744     A.U. after    2 cycles

 The electronic state is 2-A.
 Alpha  occ. eigenvalues --  -93.59441 -93.58846 -93.52416 -11.39394 -11.29330
 Alpha  occ. eigenvalues --   -8.89293  -8.88660  -8.82239  -6.24500  -6.23000
 Alpha  occ. eigenvalues --   -6.22812  -6.22535  -6.22526  -6.22239  -6.16448
 Alpha  occ. eigenvalues --   -6.16022  -6.15851  -1.15581  -1.05183  -0.94744
 Alpha  occ. eigenvalues --   -0.91578  -0.70542  -0.63437  -0.62119  -0.58583
 Alpha  occ. eigenvalues --   -0.55469  -0.51924  -0.48526  -0.45097  -0.39016
 Alpha  occ. eigenvalues --   -0.35104  -0.34900
 Alpha virt. eigenvalues --    0.03295   0.03445   0.05666   0.06118   0.06307
 Alpha virt. eigenvalues --    0.08337   0.09027   0.10986   0.11410   0.12813
 Alpha virt. eigenvalues --    0.13620   0.13774   0.14924   0.15949   0.16299

  Beta  occ. eigenvalues --  -93.58852 -93.58550 -93.52221 -11.39487 -11.29315
  Beta  occ. eigenvalues --   -8.88668  -8.88296  -8.82016  -6.22803  -6.22550
  Beta  occ. eigenvalues --   -6.22525  -6.22267  -6.21904  -6.20654  -6.16172
  Beta  occ. eigenvalues --   -6.15731  -6.15362  -1.14166  -1.03791  -0.91309
  Beta  occ. eigenvalues --   -0.89541  -0.68878  -0.62123  -0.62064  -0.56557
  Beta  occ. eigenvalues --   -0.54354  -0.51425  -0.47153  -0.38068  -0.33972
  Beta  occ. eigenvalues --   -0.33700
  Beta virt. eigenvalues --   -0.01154   0.03321   0.03326   0.05727   0.06312
  Beta virt. eigenvalues --    0.06415   0.08440   0.09275   0.11128   0.12083
  Beta virt. eigenvalues --    0.12987   0.13794   0.13995   0.15070   0.15999

 Mulliken charges and spin densities:
               1          2
     1  S    0.321631   0.953371
     2  C   -0.669882  -0.094700
     3  S   -0.034601   0.125415
     4  S    0.467382   0.008891
     5  C    0.051302   0.006363
     6  H   -0.101558   0.002339
     7  H   -0.017136  -0.000839
     8  H   -0.017138  -0.000839
 Sum of Mulliken charges =  -0.00000   1.00000

 Dipole moment (field-independent basis, Debye):
    X=              2.4421    Y=             -1.3140    Z=              0.0000  Tot=              2.7731
                          Isotropic Fermi Contact Couplings
        Atom                 a.u.       MegaHertz       Gauss      10(-4) cm-1
     1  S(33)              0.23964      82.30883      29.36984      27.45527
     2  C(13)             -0.02048     -23.02244      -8.21498      -7.67946
     3  S(33)              0.08110      27.85469       9.93925       9.29133
     4  S(33)             -0.00479      -1.64376      -0.58654      -0.54830
     5  C(13)              0.00425       4.78125       1.70607       1.59485
     6  H(1)               0.00075       3.36216       1.19970       1.12150
     7  H(1)              -0.00013      -0.55950      -0.19964      -0.18663
     8  H(1)              -0.00013      -0.55942      -0.19962      -0.18660

 Normal termination of Gaussian 16 at Wed Apr  9 00:17:03 2025.
