 Gaussian 16, Revision C.01,

 ----------------------------------------------------------------------
 #t hf aug-cc-pvdz symm=none int=(grid=ultrafine) guess=(read,tcheck) s
 table=(opt,rrhf)
 ----------------------------------------------------------------------
 -----
 title
 -----
 Symbolic Z-matrix:
 Charge =  0 Multiplicity = 1

 SCF Done:  E(RHF) =  -627.083754804     A.U. after   15 cycles
 Normal termination of Gaussian 16 at Tue Apr  8 23:37:53 2025.
 Gaussian 16:  ES64L-G16RevC.01  3-Jul-2019

 ----------------------------------------------------------------------
 #t hf aug-cc-pvdz iop(5/13=1,5/36=2,99/5=2) pseudo=read geom=check gue
 ss=(read,tcheck) scf=(maxcycle=1)
 ----------------------------------------------------------------------
 -----
 title
 -----
 Structure from the checkpoint file:  "BDE49_nonexpt_1574_mol1.chk"
 Charge =  0 Multiplicity = 1

                         Standard orientation:
 ---------------------------------------------------------------------
 Center     Atomic      Atomic             Coordinates (Angstroms)
 Number     Number       Type             X           Y           Z
 ---------------------------------------------------------------------
      1         15           0        2.795132    0.148601    0.000062
      2          7           0        1.342130   -0.752975    0.000030
      3          6           0        0.004866   -0.334679    0.000001
      4          6           0       -0.353188    1.019661   -0.000075
      5          6           0       -1.015415   -1.300757    0.000046
      6          6           0       -2.350353   -0.920076    0.000015
      7          6           0       -2.703947    0.429444   -0.000059
      8          6           0       -1.696335    1.388991   -0.000104
      9          1           0       -3.746243    0.724853   -0.000082
     10          1           0       -1.951679    2.443031   -0.000162
     11          1           0        0.412943    1.783837   -0.000112
     12          1           0       -0.751998   -2.354254    0.000105
     13          1           0       -3.119961   -1.684140    0.000051
     14          1           0        2.525021    1.093002    1.030631
     15          1           0        2.525110    1.092933   -1.030595
     16          1           0        1.471142   -1.752963    0.000084
 ---------------------------------------------------------------------

 SCF Done:  E(RHF) =  -627.194599412     A.U. after    2 cycles

 The electronic state is 1-A.
 Alpha  occ. eigenvalues --  -81.28766 -15.64054 -11.29710 -11.24905 -11.24837
 Alpha  occ. eigenvalues --  -11.23995 -11.23730 -11.23368  -7.78733  -4.92929
 Alpha  occ. eigenvalues --   -4.92562  -4.92406  -1.20108  -1.11952  -1.01185
 Alpha  occ. eigenvalues --   -0.98779  -0.84804  -0.82983  -0.77773  -0.71850
 Alpha  occ. eigenvalues --   -0.67245  -0.64027  -0.61055  -0.59134  -0.57419
 Alpha  occ. eigenvalues --   -0.57129  -0.51608  -0.50814  -0.49398  -0.43698
 Alpha  occ. eigenvalues --   -0.36931  -0.34404  -0.29995
 Alpha virt. eigenvalues --    0.03377   0.03746   0.04190   0.05469   0.05973
 Alpha virt. eigenvalues --    0.07175   0.07953   0.08127   0.09439   0.09808
 Alpha virt. eigenvalues --    0.11129   0.11869   0.12396   0.13065   0.13162

 Mulliken charges:
               1
     1  P    0.320626
     2  N   -0.769341
     3  C    0.550967
     4  C    0.614104
     5  C    0.455259
     6  C    0.499942
     7  C    0.407741
     8  C    0.514604
     9  H   -0.452197
    10  H   -0.438360
    11  H   -0.646103
    12  H   -0.600142
    13  H   -0.428974
    14  H    0.046884
    15  H    0.046884
    16  H   -0.121892
 Sum of Mulliken charges =   0.00000

 Dipole moment (field-independent basis, Debye):
    X=             -0.1343    Y=             -0.3729    Z=              0.0000  Tot=              0.3964

 Test job not archived.
 1\1\GINC-SE393\SP\RHF\Aug-CC-pVDZ\C6H8N1P1\OHZDE\08-Apr-2025\0\\#t hf
 aug-cc-pvdz iop(5/13=1,5/36=2,99/5=2) pseudo=read geom=check guess=(re
 ad,tcheck) scf=(maxcycle=1)\\title\\0,1\P,0,2.795132,0.148601,0.000062
 \N,0,1.34213,-0.752975,0.00003\C,0,0.004866,-0.334679,0.000001\C,0,-0.
 353188,1.019661,-0.000075\C,0,-1.015415,-1.300757,0.000046\C,0,-2.3503
 53,-0.920076,0.000015\C,0,-2.703947,0.429444,-0.000059\C,0,-1.696335,1
 .388991,-0.000104\H,0,-3.746243,0.724853,-0.000082\H,0,-1.951679,2.443
 031,-0.000162\H,0,0.412943,1.783837,-0.000112\H,0,-0.751998,-2.354254,

 Normal termination of Gaussian 16 at Tue Apr  8 23:37:59 2025.
