 Gaussian 16, Revision C.01,

 ----------------------------------------------------------------------
 #t hf aug-cc-pvdz symm=none int=(grid=ultrafine) guess=(read,tcheck) s
 table=(opt,rrhf)
 ----------------------------------------------------------------------
 -----
 title
 -----
 Symbolic Z-matrix:
 Charge =  0 Multiplicity = 1

 SCF Done:  E(RHF) =  -986.582927623     A.U. after   13 cycles
 Normal termination of Gaussian 16 at Tue Apr  8 23:39:44 2025.
 Gaussian 16:  ES64L-G16RevC.01  3-Jul-2019

 ----------------------------------------------------------------------
 #t hf aug-cc-pvdz iop(5/13=1,5/36=2,99/5=2) pseudo=read geom=check gue
 ss=(read,tcheck) scf=(maxcycle=1)
 ----------------------------------------------------------------------
 -----
 title
 -----
 Structure from the checkpoint file:  "BDE49_nonexpt_1627_mol1.chk"
 Charge =  0 Multiplicity = 1

                         Standard orientation:
 ---------------------------------------------------------------------
 Center     Atomic      Atomic             Coordinates (Angstroms)
 Number     Number       Type             X           Y           Z
 ---------------------------------------------------------------------
      1         15           0        1.160247   -0.010825   -0.719248
      2         15           0       -0.919160    0.135437   -0.022174
      3          6           0        1.854094    1.402927    0.269097
      4          6           0        1.730060   -1.475928    0.274032
      5          1           0        1.682519    1.291113    1.341181
      6          1           0        1.394570    2.331170   -0.074465
      7          1           0        2.928463    1.460995    0.078650
      8          8           0       -1.609538    1.380481   -0.398330
      9          8           0       -1.644435   -1.202843   -0.583985
     10          1           0        1.224391   -2.371677   -0.090928
     11          1           0        1.534785   -1.363402    1.341036
     12          1           0        2.803265   -1.601483    0.109195
     13          1           0       -2.104012   -1.019463   -1.412918
     14          8           0       -0.857663   -0.196649    1.553322
     15          1           0       -1.692130   -0.006340    2.002743
 ---------------------------------------------------------------------

 SCF Done:  E(RHF) =  -986.766787741     A.U. after    2 cycles

 The electronic state is 1-A.
 Alpha  occ. eigenvalues --  -81.41072 -81.27098 -20.61669 -20.61271 -20.52391
 Alpha  occ. eigenvalues --  -11.24900 -11.24838  -7.89510  -7.77474  -5.04119
 Alpha  occ. eigenvalues --   -5.04002  -5.03614  -4.91415  -4.91383  -4.91073
 Alpha  occ. eigenvalues --   -1.37578  -1.34301  -1.25525  -0.99663  -0.94681
 Alpha  occ. eigenvalues --   -0.85261  -0.75734  -0.73229  -0.67822  -0.65173
 Alpha  occ. eigenvalues --   -0.62321  -0.60113  -0.59121  -0.58214  -0.57212
 Alpha  occ. eigenvalues --   -0.56945  -0.56452  -0.51248  -0.48554  -0.47370
 Alpha  occ. eigenvalues --   -0.43407  -0.34881
 Alpha virt. eigenvalues --    0.03183   0.04189   0.04654   0.05216   0.06435
 Alpha virt. eigenvalues --    0.06935   0.07489   0.07925   0.08552   0.10765
 Alpha virt. eigenvalues --    0.11292   0.12129   0.12398   0.14089   0.14455

 Mulliken charges:
               1
     1  P    0.198654
     2  P    2.221606
     3  C    0.255958
     4  C    0.294276
     5  H   -0.124520
     6  H   -0.129718
     7  H   -0.165454
     8  O   -0.945550
     9  O   -0.735151
    10  H   -0.150235
    11  H   -0.128069
    12  H   -0.153392
    13  H    0.153119
    14  O   -0.743030
    15  H    0.151506
 Sum of Mulliken charges =  -0.00000

 Dipole moment (field-independent basis, Debye):
    X=              1.5493    Y=             -1.9434    Z=              1.1342  Tot=              2.7320

 Test job not archived.
 1\1\GINC-SE016\SP\RHF\Aug-CC-pVDZ\C2H8O3P2\OHZDE\08-Apr-2025\0\\#t hf
 aug-cc-pvdz iop(5/13=1,5/36=2,99/5=2) pseudo=read geom=check guess=(re
 ad,tcheck) scf=(maxcycle=1)\\title\\0,1\P,0,1.160247,-0.010825,-0.7192
 48\P,0,-0.91916,0.135437,-0.022174\C,0,1.854094,1.402927,0.269097\C,0,
 1.73006,-1.475928,0.274032\H,0,1.682519,1.291113,1.341181\H,0,1.394569
 ,2.33117,-0.074465\H,0,2.928463,1.460996,0.07865\O,0,-1.609538,1.38048
 1,-0.39833\O,0,-1.644435,-1.202843,-0.583985\H,0,1.224391,-2.371677,-0
 .090928\H,0,1.534785,-1.363402,1.341036\H,0,2.803265,-1.601482,0.10919

 Normal termination of Gaussian 16 at Tue Apr  8 23:39:50 2025.
