 Gaussian 16, Revision C.01,

 ----------------------------------------------------------------------
 #t hf aug-cc-pvdz symm=none int=(grid=ultrafine) guess=(read,tcheck) s
 table=(opt,rrhf)
 ----------------------------------------------------------------------
 -----
 title
 -----
 Symbolic Z-matrix:
 Charge =  0 Multiplicity = 1

 SCF Done:  E(RHF) =  -1331.19574848     A.U. after   14 cycles
 Normal termination of Gaussian 16 at Tue Apr  8 23:22:08 2025.
 Gaussian 16:  ES64L-G16RevC.01  3-Jul-2019

 ----------------------------------------------------------------------
 #t hf aug-cc-pvdz iop(5/13=1,5/36=2,99/5=2) pseudo=read geom=check gue
 ss=(read,tcheck) scf=(maxcycle=1)
 ----------------------------------------------------------------------
 -----
 title
 -----
 Structure from the checkpoint file:  "BDE49_nonexpt_1228_mol1.chk"
 Charge =  0 Multiplicity = 1

                         Standard orientation:
 ---------------------------------------------------------------------
 Center     Atomic      Atomic             Coordinates (Angstroms)
 Number     Number       Type             X           Y           Z
 ---------------------------------------------------------------------
      1         16           0        1.038881   -1.081620   -0.222317
      2          8           0       -0.325624   -0.325956   -0.901309
      3          6           0        2.062285    0.362682   -0.052463
      4         16           0       -1.496212    0.242057    0.083946
      5          9           0       -2.147325   -1.176388    0.465069
      6          8           0       -0.955052    0.766096    1.285785
      7          8           0       -2.407051    0.905951   -0.771450
      8          8           0        1.820341    1.486300   -0.288840
      9          9           0        3.245400   -0.090524    0.416624
 ---------------------------------------------------------------------

 SCF Done:  E(RHF) =  -1331.49173156     A.U. after    2 cycles

 The electronic state is 1-A.
 Alpha  occ. eigenvalues --  -93.93582 -93.69050 -26.21147 -26.21066 -20.72110
 Alpha  occ. eigenvalues --  -20.64842 -20.64394 -20.64046 -11.50880  -9.18897
 Alpha  occ. eigenvalues --   -8.98123  -6.53539  -6.53498  -6.53421  -6.32303
 Alpha  occ. eigenvalues --   -6.31942  -6.31540  -1.75401  -1.75041  -1.52820
 Alpha  occ. eigenvalues --   -1.45812  -1.42210  -1.40534  -1.09408  -0.98230
 Alpha  occ. eigenvalues --   -0.93644  -0.87154  -0.83385  -0.82738  -0.82537
 Alpha  occ. eigenvalues --   -0.81356  -0.78145  -0.75638  -0.73308  -0.71080
 Alpha  occ. eigenvalues --   -0.67765  -0.64143  -0.63451  -0.62382  -0.60833
 Alpha  occ. eigenvalues --   -0.58624  -0.57307  -0.53096  -0.46044
 Alpha virt. eigenvalues --    0.02963   0.05323   0.07425   0.08117   0.08731
 Alpha virt. eigenvalues --    0.09125   0.10366   0.10725   0.11096   0.11819
 Alpha virt. eigenvalues --    0.12418   0.14562   0.15686   0.17408   0.18135

 Mulliken charges:
               1
     1  S    0.831776
     2  O   -1.000892
     3  C    0.233467
     4  S    2.534408
     5  F   -0.523893
     6  O   -0.781483
     7  O   -0.736130
     8  O   -0.273011
     9  F   -0.284241
 Sum of Mulliken charges =  -0.00000

 Dipole moment (field-independent basis, Debye):
    X=              1.4064    Y=             -3.0827    Z=             -0.1584  Tot=              3.3920

 Test job not archived.
 1\1\GINC-SE099\SP\RHF\Aug-CC-pVDZ\C1F2O4S2\OHZDE\08-Apr-2025\0\\#t hf
 aug-cc-pvdz iop(5/13=1,5/36=2,99/5=2) pseudo=read geom=check guess=(re
 ad,tcheck) scf=(maxcycle=1)\\title\\0,1\S,0,1.038881,-1.08162,-0.22231
 7\O,0,-0.325624,-0.325956,-0.901309\C,0,2.062285,0.362682,-0.052463\S,
 0,-1.496212,0.242057,0.083946\F,0,-2.147325,-1.176388,0.465069\O,0,-0.
 955052,0.766096,1.285785\O,0,-2.407051,0.905951,-0.77145\O,0,1.820341,
 1.4863,-0.28884\F,0,3.2454,-0.090524,0.416624\\Version=ES64L-G16RevC.0
 1\State=1-A\HF=-1331.4917316\RMSD=3.949e-03\Dipole=0.5533091,-1.212819

 Normal termination of Gaussian 16 at Tue Apr  8 23:22:14 2025.
