 Gaussian 16, Revision C.01,

 ----------------------------------------------------------------------
 #t hf aug-cc-pvdz symm=none int=(grid=ultrafine) guess=(read,tcheck) s
 table=(opt,rrhf)
 ----------------------------------------------------------------------
 -----
 title
 -----
 Symbolic Z-matrix:
 Charge =  0 Multiplicity = 1

 SCF Done:  E(RHF) =  -974.394962399     A.U. after   13 cycles
 Normal termination of Gaussian 16 at Tue Apr  8 23:40:11 2025.
 Gaussian 16:  ES64L-G16RevC.01  3-Jul-2019

 ----------------------------------------------------------------------
 #t hf aug-cc-pvdz iop(5/13=1,5/36=2,99/5=2) pseudo=read geom=check gue
 ss=(read,tcheck) scf=(maxcycle=1)
 ----------------------------------------------------------------------
 -----
 title
 -----
 Structure from the checkpoint file:  "BDE49_nonexpt_1633_mol1.chk"
 Charge =  0 Multiplicity = 1

                         Standard orientation:
 ---------------------------------------------------------------------
 Center     Atomic      Atomic             Coordinates (Angstroms)
 Number     Number       Type             X           Y           Z
 ---------------------------------------------------------------------
      1         14           0       -0.112975    1.383174   -0.185446
      2         15           0        1.393123   -0.315354   -0.031189
      3          8           0        1.027326   -1.584840   -0.691558
      4          8           0        1.632527   -0.378454    1.561869
      5          6           0       -1.795913    0.789529    0.409938
      6          6           0       -2.419468   -0.335863   -0.439414
      7          1           0       -2.463133    1.660842    0.433625
      8          1           0       -1.688695    0.463747    1.451581
      9          6           0       -3.768339   -0.813196    0.107543
     10          1           0       -1.724941   -1.179284   -0.497318
     11          1           0       -2.550359    0.018735   -1.468144
     12          1           0       -3.663537   -1.209186    1.122294
     13          1           0       -4.188772   -1.606176   -0.517025
     14          1           0       -4.494631    0.004987    0.143595
     15          1           0        2.182879   -1.124971    1.836420
     16          8           0        2.821992    0.259155   -0.555784
     17          1           0        3.055501   -0.141123   -1.402853
     18          1           0       -0.128602    1.739640   -1.623813
     19          1           0        0.396645    2.528963    0.601099
 ---------------------------------------------------------------------

 SCF Done:  E(RHF) =  -974.589025020     A.U. after    2 cycles

 The electronic state is 1-A.
 Alpha  occ. eigenvalues --  -81.40149 -69.08086 -20.61338 -20.60914 -20.52165
 Alpha  occ. eigenvalues --  -11.23698 -11.23454 -11.22517  -7.88664  -6.83448
 Alpha  occ. eigenvalues --   -5.03273  -5.03161  -5.02745  -3.94217  -3.94177
 Alpha  occ. eigenvalues --   -3.94157  -1.37125  -1.33912  -1.25137  -1.05141
 Alpha  occ. eigenvalues --   -0.93102  -0.84804  -0.81041  -0.75403  -0.71063
 Alpha  occ. eigenvalues --   -0.67597  -0.64461  -0.63870  -0.61519  -0.58201
 Alpha  occ. eigenvalues --   -0.57276  -0.56618  -0.55183  -0.54960  -0.51241
 Alpha  occ. eigenvalues --   -0.49853  -0.48375  -0.47937  -0.47659  -0.44330
 Alpha  occ. eigenvalues --   -0.41903
 Alpha virt. eigenvalues --    0.03091   0.04063   0.04402   0.04633   0.05702
 Alpha virt. eigenvalues --    0.06100   0.07006   0.07084   0.07353   0.08995
 Alpha virt. eigenvalues --    0.09409   0.09576   0.10436   0.11059   0.11778

 Mulliken charges:
               1
     1  Si   0.109443
     2  P    2.048701
     3  O   -1.008178
     4  O   -0.680820
     5  C    0.146452
     6  C    0.094346
     7  H   -0.249081
     8  H   -0.120162
     9  C    0.420302
    10  H   -0.148443
    11  H   -0.135510
    12  H   -0.060904
    13  H   -0.068566
    14  H   -0.074669
    15  H    0.133834
    16  O   -0.729714
    17  H    0.137264
    18  H    0.125003
    19  H    0.060702
 Sum of Mulliken charges =  -0.00000

 Dipole moment (field-independent basis, Debye):
    X=             -0.1698    Y=              1.5654    Z=              0.5338  Tot=              1.6626

 Test job not archived.
 1\1\GINC-SE338\SP\RHF\Aug-CC-pVDZ\C3H11O3P1Si1\OHZDE\08-Apr-2025\0\\#t
  hf aug-cc-pvdz iop(5/13=1,5/36=2,99/5=2) pseudo=read geom=check guess
 =(read,tcheck) scf=(maxcycle=1)\\title\\0,1\Si,0,-0.112975,1.383174,-0
 .185446\P,0,1.393123,-0.315354,-0.031189\O,0,1.027326,-1.58484,-0.6915
 58\O,0,1.632527,-0.378454,1.561869\C,0,-1.795913,0.789529,0.409938\C,0
 ,-2.419468,-0.335863,-0.439414\H,0,-2.463133,1.660842,0.433625\H,0,-1.
 688695,0.463747,1.451581\C,0,-3.768339,-0.813196,0.107543\H,0,-1.72494
 1,-1.179284,-0.497318\H,0,-2.550359,0.018735,-1.468144\H,0,-3.663537,-

 Normal termination of Gaussian 16 at Tue Apr  8 23:40:19 2025.
