 Gaussian 16, Revision C.01,

 ----------------------------------------------------------------------
 #t hf aug-cc-pvdz symm=none int=(grid=ultrafine) guess=(read,tcheck) s
 table=opt
 ----------------------------------------------------------------------
 -----
 title
 -----
 Symbolic Z-matrix:
 Charge =  0 Multiplicity = 2

 SCF Done:  E(UHF) =  -666.962130808     A.U. after   18 cycles
 Normal termination of Gaussian 16 at Tue Apr  8 23:03:37 2025.
 Gaussian 16:  ES64L-G16RevC.01  3-Jul-2019

 ----------------------------------------------------------------------
 #t hf aug-cc-pvdz iop(5/13=1,5/36=2,99/5=2) pseudo=read geom=check gue
 ss=(read,tcheck) scf=(maxcycle=1)
 ----------------------------------------------------------------------
 -----
 title
 -----
 Structure from the checkpoint file:  "BDE49_expt_386_mol2.chk"
 Charge =  0 Multiplicity = 2

                         Standard orientation:
 ---------------------------------------------------------------------
 Center     Atomic      Atomic             Coordinates (Angstroms)
 Number     Number       Type             X           Y           Z
 ---------------------------------------------------------------------
      1          8           0       -0.130192    1.279932   -0.176106
      2          6           0       -1.551284    1.203733   -0.066332
      3          6           0       -1.882405   -0.130135    0.605456
      4          1           0       -1.999673    1.252037   -1.065109
      5          1           0       -1.872603    2.062878    0.523326
      6         16           0       -0.665814   -1.291166   -0.129579
      7          1           0       -2.895772   -0.463201    0.383507
      8          1           0       -1.736290   -0.085971    1.685657
      9          6           0        0.379570    0.082928   -0.628001
     10          6           0        1.871613   -0.017491   -0.596851
     11          6           0        2.488352    0.101988    0.811660
     12          1           0        2.272962    0.775417   -1.238170
     13          1           0        2.163786   -0.967218   -1.054711
     14          1           0        2.212703    1.054287    1.269206
     15          1           0        3.579415    0.048206    0.762599
     16          1           0        2.134946   -0.703371    1.460206
 ---------------------------------------------------------------------

 SCF Done:  E(UHF) =  -667.066441792     A.U. after    2 cycles

 The electronic state is 2-A.
 Alpha  occ. eigenvalues --  -93.53469 -20.60026 -11.31424 -11.30773 -11.27883
 Alpha  occ. eigenvalues --  -11.23948 -11.22412  -8.83260  -6.17364  -6.17202
 Alpha  occ. eigenvalues --   -6.16945  -1.37732  -1.06686  -1.06036  -0.97366
 Alpha  occ. eigenvalues --   -0.87038  -0.83723  -0.76710  -0.69949  -0.67687
 Alpha  occ. eigenvalues --   -0.63285  -0.61062  -0.58633  -0.57483  -0.53839
 Alpha  occ. eigenvalues --   -0.52029  -0.50135  -0.50012  -0.47542  -0.45282
 Alpha  occ. eigenvalues --   -0.39921  -0.29351
 Alpha virt. eigenvalues --    0.03487   0.04301   0.04783   0.05158   0.06217
 Alpha virt. eigenvalues --    0.06305   0.06551   0.07664   0.08535   0.10070
 Alpha virt. eigenvalues --    0.11708   0.12265   0.12511   0.13212   0.14088

  Beta  occ. eigenvalues --  -93.53419 -20.59603 -11.30785 -11.28779 -11.27884
  Beta  occ. eigenvalues --  -11.24125 -11.22216  -8.83197  -6.17385  -6.17223
  Beta  occ. eigenvalues --   -6.16652  -1.36228  -1.05808  -1.04652  -0.96088
  Beta  occ. eigenvalues --   -0.86091  -0.83347  -0.74517  -0.68091  -0.67305
  Beta  occ. eigenvalues --   -0.61794  -0.58629  -0.58203  -0.55382  -0.52776
  Beta  occ. eigenvalues --   -0.51182  -0.49655  -0.48177  -0.46957  -0.44410
  Beta  occ. eigenvalues --   -0.35554
  Beta virt. eigenvalues --    0.03491   0.04307   0.04787   0.05165   0.06185
  Beta virt. eigenvalues --    0.06312   0.06462   0.07674   0.08547   0.10117
  Beta virt. eigenvalues --    0.11313   0.12233   0.12510   0.12862   0.13715

 Mulliken charges and spin densities:
               1          2
     1  O   -0.690160   0.037864
     2  C    0.836112  -0.019362
     3  C   -0.203456   0.003746
     4  H   -0.127164  -0.007146
     5  H   -0.236128   0.000624
     6  S    0.368012  -0.008686
     7  H   -0.052443   0.002300
     8  H   -0.117052  -0.002908
     9  C   -0.003320   1.116292
    10  C    0.149556  -0.176918
    11  C    0.336563   0.060087
    12  H   -0.016270   0.002335
    13  H   -0.057898   0.002257
    14  H   -0.047283  -0.003525
    15  H   -0.071286   0.000835
    16  H   -0.067782  -0.007796
 Sum of Mulliken charges =  -0.00000   1.00000

 Dipole moment (field-independent basis, Debye):
    X=             -1.2372    Y=              0.6616    Z=              0.6234  Tot=              1.5353
                          Isotropic Fermi Contact Couplings
        Atom                 a.u.       MegaHertz       Gauss      10(-4) cm-1
     1  O(17)              0.04181     -25.34442      -9.04352      -8.45399
     2  C(13)             -0.00206      -2.32000      -0.82783      -0.77387
     3  C(13)             -0.00107      -1.19985      -0.42814      -0.40023
     4  H(1)               0.00006       0.25253       0.09011       0.08424
     5  H(1)              -0.00069      -3.07674      -1.09786      -1.02629
     6  S(33)              0.05988      20.56649       7.33864       6.86024
     7  H(1)              -0.00069      -3.10586      -1.10825      -1.03600
     8  H(1)               0.00115       5.13355       1.83178       1.71237

 Normal termination of Gaussian 16 at Tue Apr  8 23:03:43 2025.
