 Gaussian 16, Revision C.01,

 ----------------------------------------------------------------------
 #t hf aug-cc-pvdz symm=none int=(grid=ultrafine) guess=(read,tcheck) s
 table=(opt,rrhf)
 ----------------------------------------------------------------------
 -----
 title
 -----
 Symbolic Z-matrix:
 Charge =  0 Multiplicity = 1

 SCF Done:  E(RHF) =  -1079.37098050     A.U. after   11 cycles
 Normal termination of Gaussian 16 at Tue Apr  8 22:56:41 2025.
 Gaussian 16:  ES64L-G16RevC.01  3-Jul-2019

 ----------------------------------------------------------------------
 #t hf aug-cc-pvdz iop(5/13=1,5/36=2,99/5=2) pseudo=read geom=check gue
 ss=(read,tcheck) scf=(maxcycle=1)
 ----------------------------------------------------------------------
 -----
 title
 -----
 Structure from the checkpoint file:  "BDE49_expt_1948_mol1.chk"
 Charge =  0 Multiplicity = 1

                         Standard orientation:
 ---------------------------------------------------------------------
 Center     Atomic      Atomic             Coordinates (Angstroms)
 Number     Number       Type             X           Y           Z
 ---------------------------------------------------------------------
      1         15           0        0.456877    1.061117   -0.000000
      2         15           0       -0.456877   -1.061117   -0.000000
      3          9           0       -0.456877    1.584763    1.231205
      4          9           0       -0.456877    1.584764   -1.231205
      5          9           0        0.456877   -1.584763    1.231205
      6          9           0        0.456877   -1.584764   -1.231205
 ---------------------------------------------------------------------

 SCF Done:  E(RHF) =  -1079.58104312     A.U. after    2 cycles

 The electronic state is 1-A.
 Alpha  occ. eigenvalues --  -81.42440 -81.42439 -26.16359 -26.16359 -26.16356
 Alpha  occ. eigenvalues --  -26.16355  -7.91205  -7.91197  -5.05231  -5.05205
 Alpha  occ. eigenvalues --   -5.04880  -5.04876  -5.04511  -5.04441  -1.69559
 Alpha  occ. eigenvalues --   -1.69379  -1.68203  -1.68086  -0.93783  -0.89796
 Alpha  occ. eigenvalues --   -0.81952  -0.81157  -0.80954  -0.79440  -0.78836
 Alpha  occ. eigenvalues --   -0.77600  -0.76519  -0.75772  -0.73597  -0.73239
 Alpha  occ. eigenvalues --   -0.60867  -0.50062  -0.37513
 Alpha virt. eigenvalues --    0.03621   0.04428   0.06772   0.07803   0.08672
 Alpha virt. eigenvalues --    0.09689   0.11181   0.11188   0.12782   0.16789
 Alpha virt. eigenvalues --    0.19935   0.20493   0.20702   0.22870   0.23317

 Mulliken charges:
               1
     1  P    1.167040
     2  P    1.167040
     3  F   -0.583520
     4  F   -0.583520
     5  F   -0.583520
     6  F   -0.583520
 Sum of Mulliken charges =  -0.00000

 Dipole moment (field-independent basis, Debye):
    X=             -0.0000    Y=              0.0000    Z=              0.0000  Tot=              0.0000

 Test job not archived.
 1\1\GINC-SE163\SP\RHF\Aug-CC-pVDZ\F4P2\OHZDE\08-Apr-2025\0\\#t hf aug-
 cc-pvdz iop(5/13=1,5/36=2,99/5=2) pseudo=read geom=check guess=(read,t
 check) scf=(maxcycle=1)\\title\\0,1\P,0,0.456877,1.061117,0.\P,0,-0.45
 6877,-1.061117,0.\F,0,-0.456877,1.584763,1.231205\F,0,-0.456877,1.5847
 64,-1.231205\F,0,0.456877,-1.584763,1.231205\F,0,0.456877,-1.584764,-1
 .231205\\Version=ES64L-G16RevC.01\State=1-A\HF=-1079.5810431\RMSD=5.70
 7e-03\Dipole=0.,0.,0.0000009\Quadrupole=1.3458138,-0.374552,-0.9712618
 ,2.7021652,0.,0.\PG=C02 [X(F4P2)]\\@

 Normal termination of Gaussian 16 at Tue Apr  8 22:56:43 2025.
