 Gaussian 16, Revision C.01,

 ----------------------------------------------------------------------
 #t hf aug-cc-pvdz symm=none int=(grid=ultrafine) guess=(read,tcheck) s
 table=opt
 ----------------------------------------------------------------------
 -----
 title
 -----
 Symbolic Z-matrix:
 Charge =  0 Multiplicity = 2

 SCF Done:  E(UHF) =  -188.133314936     a.u. after   13 cycles
 Normal termination of Gaussian 16 at Tue Apr  8 22:41:27 2025.
 Gaussian 16:  ES64L-G16RevC.01  3-Jul-2019

 ----------------------------------------------------------------------
 #t hf aug-cc-pvdz iop(5/13=1,5/36=2,99/5=2) pseudo=read geom=check gue
 ss=(read,tcheck) scf=(maxcycle=1)
 ----------------------------------------------------------------------
 -----
 title
 -----
 Structure from the checkpoint file:  "BDE49_expt_1440_mol2.chk"
 Charge =  0 Multiplicity = 2

                         Standard orientation:
 ---------------------------------------------------------------------
 Center     Atomic      Atomic             Coordinates (Angstroms)
 Number     Number       Type             X           Y           Z
 ---------------------------------------------------------------------
      1          6           0        0.003877    0.206801   -0.000005
      2          8           0        1.164646   -0.161534    0.000001
      3          8           0       -1.164280   -0.164923    0.000001
      4          1           0       -0.026187    1.370850    0.000007
 ---------------------------------------------------------------------

 SCF Done:  E(UHF) =  -188.196129705     A.U. after    2 cycles

 The electronic state is 2-A.
 Alpha  occ. eigenvalues --  -20.74600 -20.59328 -11.43346  -1.53958  -1.37376
 Alpha  occ. eigenvalues --   -0.90731  -0.82748  -0.74507  -0.73724  -0.63197
 Alpha  occ. eigenvalues --   -0.53526  -0.48625
 Alpha virt. eigenvalues --    0.03629   0.07808   0.08226   0.09254   0.15017
 Alpha virt. eigenvalues --    0.15982   0.20002   0.20618   0.21613   0.25182
 Alpha virt. eigenvalues --    0.27595   0.28434   0.29102   0.33229   0.35235

  Beta  occ. eigenvalues --  -20.70564 -20.59239 -11.43813  -1.43711  -1.34619
  Beta  occ. eigenvalues --   -0.83508  -0.74692  -0.70226  -0.68430  -0.52503
  Beta  occ. eigenvalues --   -0.48550
  Beta virt. eigenvalues --   -0.01904   0.03972   0.08096   0.08355   0.09638
  Beta virt. eigenvalues --    0.15106   0.15948   0.20159   0.21751   0.21980
  Beta virt. eigenvalues --    0.26641   0.27875   0.28594   0.29784   0.33751

 Mulliken charges and spin densities:
               1          2
     1  C    0.447682  -0.185883
     2  O   -0.366630   0.025368
     3  O   -0.093784   0.981826
     4  H    0.012732   0.178689
 Sum of Mulliken charges =  -0.00000   1.00000

 Dipole moment (field-independent basis, Debye):
    X=             -2.0276    Y=              1.4143    Z=             -0.0000  Tot=              2.4721
                          Isotropic Fermi Contact Couplings
        Atom                 a.u.       MegaHertz       Gauss      10(-4) cm-1
     1  C(13)             -0.10311    -115.91468     -41.36124     -38.66498
     2  O(17)              0.00910      -5.51637      -1.96838      -1.84006
     3  O(17)              0.27485    -166.61587     -59.45269     -55.57707
     4  H(1)               0.07757     346.74802     123.72832     115.66269
 --------------------------------------------------------
       Center         ----  Spin Dipole Couplings  ----
                      3XX-RR        3YY-RR        3ZZ-RR
 --------------------------------------------------------

 Normal termination of Gaussian 16 at Tue Apr  8 22:41:28 2025.
