 Gaussian 16, Revision C.01,

 ----------------------------------------------------------------------
 #t hf aug-cc-pvdz symm=none int=(grid=ultrafine) guess=(read,tcheck) s
 table=(opt,rrhf)
 ----------------------------------------------------------------------
 -----
 title
 -----
 Symbolic Z-matrix:
 Charge =  0 Multiplicity = 1

 SCF Done:  E(RHF) =  -189.264934881     A.U. after   12 cycles
 Normal termination of Gaussian 16 at Tue Apr  8 23:04:46 2025.
 Gaussian 16:  ES64L-G16RevC.01  3-Jul-2019

 ----------------------------------------------------------------------
 #t hf aug-cc-pvdz iop(5/13=1,5/36=2,99/5=2) pseudo=read geom=check gue
 ss=(read,tcheck) scf=(maxcycle=1)
 ----------------------------------------------------------------------
 -----
 title
 -----
 Structure from the checkpoint file:  "BDE49_expt_413_mol1.chk"
 Charge =  0 Multiplicity = 1

                         Standard orientation:
 ---------------------------------------------------------------------
 Center     Atomic      Atomic             Coordinates (Angstroms)
 Number     Number       Type             X           Y           Z
 ---------------------------------------------------------------------
      1          6           0        0.849482   -1.072948    0.064923
      2          7           0       -0.007055    0.019359   -0.380107
      3          1           0        0.917419   -1.136628    1.168684
      4          1           0        1.857537   -0.933430   -0.333175
      5          1           0        0.464576   -2.024832   -0.310306
      6          7           0        0.459848    1.297072    0.054021
      7          1           0        1.258653    1.545771   -0.520960
      8          1           0        0.786802    1.246656    1.025774
      9          6           0       -1.384685   -0.149202    0.059927
     10          1           0       -1.784334   -1.081384   -0.347222
     11          1           0       -1.977754    0.686015   -0.310856
     12          1           0       -1.481228   -0.184285    1.161563
 ---------------------------------------------------------------------

 SCF Done:  E(RHF) =  -189.325591556     A.U. after    2 cycles

 The electronic state is 1-A.
 Alpha  occ. eigenvalues --  -15.64017 -15.63385 -11.25800 -11.24967  -1.24356
 Alpha  occ. eigenvalues --   -1.04333  -0.95058  -0.81827  -0.68074  -0.64941
 Alpha  occ. eigenvalues --   -0.61608  -0.58476  -0.54690  -0.52572  -0.51353
 Alpha  occ. eigenvalues --   -0.40481  -0.36085
 Alpha virt. eigenvalues --    0.03407   0.04352   0.04736   0.05161   0.07681
 Alpha virt. eigenvalues --    0.07897   0.08027   0.08224   0.11451   0.14140
 Alpha virt. eigenvalues --    0.15781   0.16431   0.16897   0.17760   0.18204

 Mulliken charges:
               1
     1  C    0.797077
     2  N   -0.757268
     3  H   -0.077383
     4  H   -0.170514
     5  H   -0.164241
     6  N   -0.164117
     7  H    0.050222
     8  H    0.058942
     9  C    0.810916
    10  H   -0.154483
    11  H   -0.178928
    12  H   -0.050224
 Sum of Mulliken charges =  -0.00000

 Dipole moment (field-independent basis, Debye):
    X=              1.0300    Y=             -0.9633    Z=              0.9639  Tot=              1.7082

 Test job not archived.
 1\1\GINC-SE222\SP\RHF\Aug-CC-pVDZ\C2H8N2\OHZDE\08-Apr-2025\0\\#t hf au
 g-cc-pvdz iop(5/13=1,5/36=2,99/5=2) pseudo=read geom=check guess=(read
 ,tcheck) scf=(maxcycle=1)\\title\\0,1\C,0,0.849481,-1.072949,0.064923\
 N,0,-0.007055,0.019359,-0.380107\H,0,0.917418,-1.136629,1.168684\H,0,1
 .857536,-0.933431,-0.333175\H,0,0.464575,-2.024832,-0.310306\N,0,0.459
 849,1.297072,0.054021\H,0,1.258654,1.54577,-0.52096\H,0,0.786803,1.246
 655,1.025774\C,0,-1.384685,-0.149201,0.059927\H,0,-1.784335,-1.081383,
 -0.347222\H,0,-1.977753,0.686017,-0.310856\H,0,-1.481228,-0.184284,1.1

 Normal termination of Gaussian 16 at Tue Apr  8 23:04:49 2025.
