 Gaussian 16, Revision C.01,

 ----------------------------------------------------------------------
 #t hf aug-cc-pvdz symm=none int=(grid=ultrafine) guess=(read,tcheck) s
 table=(opt,rrhf)
 ----------------------------------------------------------------------
 -----
 title
 -----
 Symbolic Z-matrix:
 Charge =  0 Multiplicity = 1

 SCF Done:  E(RHF) =  -1142.88442686     A.U. after   17 cycles
 Normal termination of Gaussian 16 at Wed Apr  9 00:49:52 2025.
 Gaussian 16:  ES64L-G16RevC.01  3-Jul-2019

 ----------------------------------------------------------------------
 #t hf aug-cc-pvdz iop(5/13=1,5/36=2,99/5=2) pseudo=read geom=check gue
 ss=(read,tcheck) scf=(maxcycle=1)
 ----------------------------------------------------------------------
 -----
 title
 -----
 Structure from the checkpoint file:  "BDE49_nonexpt_890_mol1.chk"
 Charge =  0 Multiplicity = 1

                         Standard orientation:
 ---------------------------------------------------------------------
 Center     Atomic      Atomic             Coordinates (Angstroms)
 Number     Number       Type             X           Y           Z
 ---------------------------------------------------------------------
      1         16           0        2.951386    0.940128    0.605677
      2         16           0        1.970744   -1.922626   -0.507717
      3          7           0       -4.188946   -1.621060    0.509754
      4          6           0       -2.198551   -0.029641    0.065834
      5          6           0       -3.299215   -0.911694    0.311791
      6          6           0        0.209805    0.334489   -0.087466
      7          6           0       -0.886275   -0.511793    0.138557
      8          1           0       -0.728583   -1.553801    0.389565
      9          6           0       -2.435994    1.316043   -0.247797
     10          1           0       -3.453679    1.681695   -0.306096
     11          6           0       -0.057021    1.681711   -0.395298
     12          1           0        0.767740    2.358927   -0.586419
     13          6           0       -1.360046    2.163682   -0.479579
     14          1           0       -1.538197    3.203761   -0.725970
     15          5           0        1.676881   -0.205023    0.001918
     16          1           0        3.260573   -2.036092   -0.149394
     17          1           0        4.040077    0.181233    0.396837
 ---------------------------------------------------------------------

 SCF Done:  E(RHF) =  -1143.01843633     A.U. after    2 cycles

 The electronic state is 1-A.
 Alpha  occ. eigenvalues --  -93.55654 -93.55598 -15.64474 -11.30362 -11.29372
 Alpha  occ. eigenvalues --  -11.29067 -11.28973 -11.28464 -11.27463 -11.26360
 Alpha  occ. eigenvalues --   -8.85612  -8.85548  -7.68903  -6.19813  -6.19754
 Alpha  occ. eigenvalues --   -6.19543  -6.19484  -6.19314  -6.19252  -1.20526
 Alpha  occ. eigenvalues --   -1.17370  -1.06344  -1.05215  -1.00390  -0.96245
 Alpha  occ. eigenvalues --   -0.89233  -0.86642  -0.77751  -0.70837  -0.67929
 Alpha  occ. eigenvalues --   -0.67354  -0.63573  -0.58931  -0.58141  -0.55901
 Alpha  occ. eigenvalues --   -0.55816  -0.53796  -0.53682  -0.50650  -0.48756
 Alpha  occ. eigenvalues --   -0.46863  -0.44630  -0.43926  -0.38437  -0.37108
 Alpha  occ. eigenvalues --   -0.36337
 Alpha virt. eigenvalues --    0.02627   0.03330   0.04014   0.04740   0.05174
 Alpha virt. eigenvalues --    0.05419   0.05913   0.06309   0.07307   0.07544
 Alpha virt. eigenvalues --    0.08775   0.08965   0.09585   0.10789   0.10852

 Mulliken charges:
               1
     1  S   -0.188691
     2  S   -0.178513
     3  N   -0.082709
     4  C    2.191393
     5  C   -1.288311
     6  C    0.350573
     7  C   -0.169793
     8  H   -0.714742
     9  C    0.271987
    10  H   -0.543823
    11  C    0.337869
    12  H   -0.662869
    13  C    0.620277
    14  H   -0.427352
    15  B    0.532527
    16  H   -0.021776
    17  H   -0.026047
 Sum of Mulliken charges =   0.00000

 Dipole moment (field-independent basis, Debye):
    X=              4.0440    Y=              2.8049    Z=             -0.8028  Tot=              4.9866

 Test job not archived.
 1\1\GINC-SE150\SP\RHF\Aug-CC-pVDZ\C7H6B1N1S2\OHZDE\09-Apr-2025\0\\#t h
 f aug-cc-pvdz iop(5/13=1,5/36=2,99/5=2) pseudo=read geom=check guess=(
 read,tcheck) scf=(maxcycle=1)\\title\\0,1\S,0,2.951386,0.940128,0.6056
 77\S,0,1.970744,-1.922626,-0.507717\N,0,-4.188946,-1.62106,0.509754\C,
 0,-2.198551,-0.029641,0.065834\C,0,-3.299215,-0.911694,0.311791\C,0,0.
 209805,0.334489,-0.087466\C,0,-0.886275,-0.511793,0.138557\H,0,-0.7285
 83,-1.553801,0.389565\C,0,-2.435994,1.316043,-0.247797\H,0,-3.453679,1
 .681695,-0.306096\C,0,-0.057021,1.681711,-0.395298\H,0,0.76774,2.35892

 Normal termination of Gaussian 16 at Wed Apr  9 00:50:03 2025.
