 Gaussian 16, Revision C.01,

 ----------------------------------------------------------------------
 #t hf aug-cc-pvdz symm=none int=(grid=ultrafine) guess=(read,tcheck) s
 table=(opt,rrhf)
 ----------------------------------------------------------------------
 -----
 title
 -----
 Symbolic Z-matrix:
 Charge =  0 Multiplicity = 1

 SCF Done:  E(RHF) =  -901.191129006     A.U. after   15 cycles
 Normal termination of Gaussian 16 at Tue Apr  8 23:42:13 2025.
 Gaussian 16:  ES64L-G16RevC.01  3-Jul-2019

 ----------------------------------------------------------------------
 #t hf aug-cc-pvdz iop(5/13=1,5/36=2,99/5=2) pseudo=read geom=check gue
 ss=(read,tcheck) scf=(maxcycle=1)
 ----------------------------------------------------------------------
 -----
 title
 -----
 Structure from the checkpoint file:  "BDE49_nonexpt_1653_mol1.chk"
 Charge =  0 Multiplicity = 1

                         Standard orientation:
 ---------------------------------------------------------------------
 Center     Atomic      Atomic             Coordinates (Angstroms)
 Number     Number       Type             X           Y           Z
 ---------------------------------------------------------------------
      1          6           0        0.641467   -0.388900    0.378295
      2         15           0       -2.774018   -0.101832   -0.429344
      3          6           0       -2.261856    1.691161   -0.621884
      4          1           0       -1.203814    1.824181   -0.849795
      5          1           0       -2.495601    2.222259    0.303556
      6          1           0       -2.857779    2.138644   -1.420013
      7          6           0        1.312729   -1.057159   -0.659311
      8          6           0        2.587929   -0.667795   -1.059354
      9          6           0        3.219824    0.403969   -0.430054
     10          6           0        2.572146    1.080703    0.600650
     11          6           0        1.296354    0.686354    1.000122
     12          1           0        0.810414    1.217754    1.812470
     13          1           0        0.837913   -1.896568   -1.158482
     14          1           0        3.090490   -1.201000   -1.858912
     15          1           0        4.213666    0.707290   -0.740007
     16          1           0        3.061147    1.912067    1.096531
     17         14           0       -1.093183   -0.894141    0.892154
     18          1           0       -2.198517   -0.601929   -1.628263
     19          1           0       -1.339555   -0.394860    2.267576
     20          1           0       -1.215081   -2.372386    0.874547
 ---------------------------------------------------------------------

 SCF Done:  E(RHF) =  -901.312745867     A.U. after    2 cycles

 The electronic state is 1-A.
 Alpha  occ. eigenvalues --  -81.24092 -69.06891 -11.25529 -11.25521 -11.25455
 Alpha  occ. eigenvalues --  -11.25107 -11.25092 -11.24049 -11.24006  -7.74544
 Alpha  occ. eigenvalues --   -6.82160  -4.88502  -4.88424  -4.88189  -3.92888
 Alpha  occ. eigenvalues --   -3.92877  -3.92854  -1.14606  -1.01613  -1.01344
 Alpha  occ. eigenvalues --   -0.95883  -0.83253  -0.83119  -0.76000  -0.71590
 Alpha  occ. eigenvalues --   -0.66212  -0.63494  -0.63186  -0.59775  -0.57848
 Alpha  occ. eigenvalues --   -0.57404  -0.55579  -0.51296  -0.50352  -0.49510
 Alpha  occ. eigenvalues --   -0.46523  -0.45924  -0.41741  -0.35571  -0.34700
 Alpha  occ. eigenvalues --   -0.32063
 Alpha virt. eigenvalues --    0.03043   0.03970   0.04111   0.04781   0.05696
 Alpha virt. eigenvalues --    0.05803   0.06410   0.07155   0.07339   0.07545
 Alpha virt. eigenvalues --    0.08368   0.08670   0.09403   0.09759   0.11037

 Mulliken charges:
               1
     1  C   -0.369064
     2  P   -0.163970
     3  C    0.293680
     4  H   -0.192596
     5  H   -0.152817
     6  H   -0.229866
     7  C    0.401219
     8  C    0.781018
     9  C    0.642552
    10  C    0.655497
    11  C    0.456975
    12  H   -0.612664
    13  H   -0.628615
    14  H   -0.442873
    15  H   -0.444075
    16  H   -0.450588
    17  Si   0.171616
    18  H    0.213150
    19  H    0.034344
    20  H    0.037076
 Sum of Mulliken charges =   0.00000

 Dipole moment (field-independent basis, Debye):
    X=              1.6667    Y=              1.0475    Z=             -0.5276  Tot=              2.0380

 Test job not archived.
 1\1\GINC-SE249\SP\RHF\Aug-CC-pVDZ\C7H11P1Si1\OHZDE\08-Apr-2025\0\\#t h
 f aug-cc-pvdz iop(5/13=1,5/36=2,99/5=2) pseudo=read geom=check guess=(
 read,tcheck) scf=(maxcycle=1)\\title\\0,1\C,0,0.641467,-0.3889,0.37829
 5\P,0,-2.774018,-0.101832,-0.429344\C,0,-2.261856,1.691161,-0.621884\H
 ,0,-1.203814,1.824181,-0.849795\H,0,-2.495601,2.222259,0.303556\H,0,-2
 .857779,2.138644,-1.420013\C,0,1.312729,-1.057159,-0.659311\C,0,2.5879
 29,-0.667795,-1.059354\C,0,3.219824,0.403969,-0.430054\C,0,2.572146,1.
 080703,0.60065\C,0,1.296354,0.686354,1.000122\H,0,0.810414,1.217754,1.

 Normal termination of Gaussian 16 at Tue Apr  8 23:42:25 2025.
