 Gaussian 16, Revision C.01,

 ----------------------------------------------------------------------
 #t hf aug-cc-pvdz symm=none int=(grid=ultrafine) guess=(read,tcheck) s
 table=(opt,rrhf)
 ----------------------------------------------------------------------
 -----
 title
 -----
 Symbolic Z-matrix:
 Charge =  0 Multiplicity = 1

 SCF Done:  E(RHF) =  -285.770639260     A.U. after   15 cycles
 Normal termination of Gaussian 16 at Tue Apr  8 23:06:09 2025.
 Gaussian 16:  ES64L-G16RevC.01  3-Jul-2019

 ----------------------------------------------------------------------
 #t hf aug-cc-pvdz iop(5/13=1,5/36=2,99/5=2) pseudo=read geom=check gue
 ss=(read,tcheck) scf=(maxcycle=1)
 ----------------------------------------------------------------------
 -----
 title
 -----
 Structure from the checkpoint file:  "BDE49_expt_456_mol1.chk"
 Charge =  0 Multiplicity = 1

                         Standard orientation:
 ---------------------------------------------------------------------
 Center     Atomic      Atomic             Coordinates (Angstroms)
 Number     Number       Type             X           Y           Z
 ---------------------------------------------------------------------
      1          6           0       -1.170049   -1.200112    0.003312
      2          6           0        0.220258   -1.205810   -0.004393
      3          6           0        0.938401   -0.000000   -0.007498
      4          6           0       -1.878917    0.000000    0.007314
      5          6           0       -1.170049    1.200112    0.003312
      6          6           0        0.220258    1.205810   -0.004392
      7          1           0       -1.703062   -2.144836    0.007240
      8          1           0        0.759673   -2.147964   -0.012718
      9          1           0        0.759673    2.147964   -0.012716
     10          1           0       -2.962227    0.000000    0.013990
     11          1           0       -1.703062    2.144836    0.007240
     12          7           0        2.333050   -0.000000   -0.076073
     13          1           0        2.779119    0.836097    0.271767
     14          1           0        2.779119   -0.836094    0.271777
 ---------------------------------------------------------------------

 SCF Done:  E(RHF) =  -285.855844388     A.U. after    2 cycles

 The electronic state is 1-A.
 Alpha  occ. eigenvalues --  -15.63128 -11.28931 -11.24467 -11.24463 -11.23329
 Alpha  occ. eigenvalues --  -11.23328 -11.22853  -1.19647  -1.11397  -1.00640
 Alpha  occ. eigenvalues --   -0.97890  -0.83303  -0.81413  -0.70854  -0.68688
 Alpha  occ. eigenvalues --   -0.65734  -0.60180  -0.59661  -0.58568  -0.53485
 Alpha  occ. eigenvalues --   -0.51056  -0.49145  -0.44734  -0.33974  -0.29523
 Alpha virt. eigenvalues --    0.03245   0.03888   0.04040   0.05667   0.05753
 Alpha virt. eigenvalues --    0.07609   0.08935   0.10824   0.11030   0.12572
 Alpha virt. eigenvalues --    0.13189   0.13918   0.14056   0.14507   0.14714

 Mulliken charges:
               1
     1  C    0.495544
     2  C    0.564241
     3  C    0.320930
     4  C    0.378249
     5  C    0.495543
     6  C    0.564245
     7  H   -0.433258
     8  H   -0.555582
     9  H   -0.555583
    10  H   -0.451038
    11  H   -0.433258
    12  N   -0.311876
    13  H   -0.039078
    14  H   -0.039078
 Sum of Mulliken charges =   0.00000

 Dipole moment (field-independent basis, Debye):
    X=              1.1172    Y=              0.0000    Z=              0.9919  Tot=              1.4939

 Test job not archived.
 1\1\GINC-SE232\SP\RHF\Aug-CC-pVDZ\C6H7N1\OHZDE\08-Apr-2025\0\\#t hf au
 g-cc-pvdz iop(5/13=1,5/36=2,99/5=2) pseudo=read geom=check guess=(read
 ,tcheck) scf=(maxcycle=1)\\title\\0,1\C,0,-1.170049,-1.200112,0.003312
 \C,0,0.220258,-1.20581,-0.004393\C,0,0.938401,0.,-0.007498\C,0,-1.8789
 17,0.,0.007314\C,0,-1.170049,1.200112,0.003312\C,0,0.220258,1.20581,-0
 .004392\H,0,-1.703062,-2.144836,0.00724\H,0,0.759673,-2.147964,-0.0127
 18\H,0,0.759673,2.147964,-0.012716\H,0,-2.962227,0.,0.01399\H,0,-1.703
 062,2.144836,0.00724\N,0,2.33305,0.,-0.076073\H,0,2.779119,0.836097,0.

 Normal termination of Gaussian 16 at Tue Apr  8 23:06:14 2025.
