 Gaussian 16, Revision C.01,

 ----------------------------------------------------------------------
 #t hf aug-cc-pvdz symm=none int=(grid=ultrafine) guess=(read,tcheck) s
 table=(opt,rrhf)
 ----------------------------------------------------------------------
 -----
 title
 -----
 Symbolic Z-matrix:
 Charge =  0 Multiplicity = 1

 SCF Done:  E(RHF) =  -884.009428367     A.U. after   12 cycles
 Normal termination of Gaussian 16 at Wed Apr  9 00:14:38 2025.
 Gaussian 16:  ES64L-G16RevC.01  3-Jul-2019

 ----------------------------------------------------------------------
 #t hf aug-cc-pvdz iop(5/13=1,5/36=2,99/5=2) pseudo=read geom=check gue
 ss=(read,tcheck) scf=(maxcycle=1)
 ----------------------------------------------------------------------
 -----
 title
 -----
 Structure from the checkpoint file:  "BDE49_nonexpt_2489_mol1.chk"
 Charge =  0 Multiplicity = 1

                         Standard orientation:
 ---------------------------------------------------------------------
 Center     Atomic      Atomic             Coordinates (Angstroms)
 Number     Number       Type             X           Y           Z
 ---------------------------------------------------------------------
      1          6           0        2.043669    0.669853    0.772673
      2          6           0        1.600322   -0.785561    0.603446
      3         16           0        0.403705   -1.090470   -0.783785
      4          1           0        1.159259   -1.172075    1.524109
      5          1           0        2.459329   -1.418704    0.367816
      6         14           0       -1.504949   -0.931073    0.212458
      7          6           0       -2.057929    0.816602    0.654788
      8          6           0        2.827433    1.228966   -0.416511
      9          1           0        2.667512    0.717966    1.674531
     10          1           0        1.169446    1.298442    0.969621
     11          1           0        3.731249    0.640230   -0.602924
     12          1           0        3.135070    2.261232   -0.231151
     13          1           0        2.225279    1.215054   -1.327879
     14          6           0       -2.223155    1.772467   -0.537937
     15          1           0       -1.353014    1.233089    1.383512
     16          1           0       -3.010317    0.711075    1.191443
     17          1           0       -1.282270    1.899898   -1.079356
     18          1           0       -2.556003    2.761963   -0.211705
     19          1           0       -2.962104    1.395608   -1.250933
     20          1           0       -1.458272   -1.745979    1.453174
     21          1           0       -2.457183   -1.529227   -0.752859
 ---------------------------------------------------------------------

 SCF Done:  E(RHF) =  -884.114991864     A.U. after    2 cycles

 The electronic state is 1-A.
 Alpha  occ. eigenvalues --  -93.51107 -69.07827 -11.27285 -11.24158 -11.23181
 Alpha  occ. eigenvalues --  -11.22719 -11.22527  -8.81007  -6.82874  -6.15144
 Alpha  occ. eigenvalues --   -6.14942  -6.14710  -3.93680  -3.93621  -3.93573
 Alpha  occ. eigenvalues --   -1.06992  -1.01654  -0.96987  -0.87744  -0.84689
 Alpha  occ. eigenvalues --   -0.79014  -0.67003  -0.63298  -0.61757  -0.60884
 Alpha  occ. eigenvalues --   -0.57874  -0.57066  -0.52889  -0.51636  -0.50524
 Alpha  occ. eigenvalues --   -0.50030  -0.49396  -0.47985  -0.44625  -0.44243
 Alpha  occ. eigenvalues --   -0.40065  -0.34561
 Alpha virt. eigenvalues --    0.03178   0.04085   0.04444   0.04637   0.05767
 Alpha virt. eigenvalues --    0.05922   0.06400   0.06927   0.07097   0.08000
 Alpha virt. eigenvalues --    0.08457   0.08503   0.09392   0.10025   0.10734

 Mulliken charges:
               1
     1  C    0.152653
     2  C    0.194546
     3  S   -0.204452
     4  H   -0.202945
     5  H   -0.049950
     6  Si   0.342188
     7  C    0.339320
     8  C    0.258935
     9  H   -0.068172
    10  H   -0.206704
    11  H   -0.087635
    12  H   -0.086500
    13  H   -0.080924
    14  C    0.223156
    15  H   -0.229484
    16  H   -0.179473
    17  H   -0.163290
    18  H   -0.097623
    19  H   -0.104010
    20  H    0.147259
    21  H    0.103105
 Sum of Mulliken charges =  -0.00000

 Dipole moment (field-independent basis, Debye):
    X=              0.1922    Y=              1.2378    Z=              1.7058  Tot=              2.1164

 Test job not archived.
 1\1\GINC-SE249\SP\RHF\Aug-CC-pVDZ\C5H14S1Si1\OHZDE\09-Apr-2025\0\\#t h
 f aug-cc-pvdz iop(5/13=1,5/36=2,99/5=2) pseudo=read geom=check guess=(
 read,tcheck) scf=(maxcycle=1)\\title\\0,1\C,0,2.043669,0.669853,0.7726
 73\C,0,1.600322,-0.785561,0.603446\S,0,0.403705,-1.09047,-0.783785\H,0
 ,1.159259,-1.172075,1.524109\H,0,2.459329,-1.418704,0.367816\Si,0,-1.5
 04949,-0.931073,0.212458\C,0,-2.057929,0.816602,0.654788\C,0,2.827433,
 1.228966,-0.416511\H,0,2.667512,0.717966,1.674531\H,0,1.169446,1.29844
 2,0.969621\H,0,3.731249,0.64023,-0.602924\H,0,3.13507,2.261232,-0.2311

 Normal termination of Gaussian 16 at Wed Apr  9 00:14:49 2025.
