 Gaussian 16, Revision C.01,

 ----------------------------------------------------------------------
 #t hf aug-cc-pvdz symm=none int=(grid=ultrafine) guess=(read,tcheck) s
 table=opt
 ----------------------------------------------------------------------
 -----
 title
 -----
 Symbolic Z-matrix:
 Charge =  0 Multiplicity = 2

 SCF Done:  E(UHF) =  -947.424595745     A.U. after   22 cycles
 Normal termination of Gaussian 16 at Wed Apr  9 00:48:01 2025.
 Gaussian 16:  ES64L-G16RevC.01  3-Jul-2019

 ----------------------------------------------------------------------
 #t hf aug-cc-pvdz iop(5/13=1,5/36=2,99/5=2) pseudo=read geom=check gue
 ss=(read,tcheck) scf=(maxcycle=1)
 ----------------------------------------------------------------------
 -----
 title
 -----
 Structure from the checkpoint file:  "BDE49_nonexpt_908_mol2.chk"
 Charge =  0 Multiplicity = 2

                         Standard orientation:
 ---------------------------------------------------------------------
 Center     Atomic      Atomic             Coordinates (Angstroms)
 Number     Number       Type             X           Y           Z
 ---------------------------------------------------------------------
      1         16           0        1.964299    0.268049    0.000207
      2         16           0        0.350128   -0.881525   -0.000141
      3          6           0       -1.110211    0.328585   -0.000110
      4          6           0       -2.428572   -0.403254    0.000019
      5          1           0       -3.242716    0.320830    0.000073
      6          1           0       -2.501119   -1.045005    0.882006
      7          1           0       -2.501269   -1.045046   -0.881925
      8          8           0       -0.944129    1.504106   -0.000082
 ---------------------------------------------------------------------

 SCF Done:  E(UHF) =  -947.512837646     A.U. after    2 cycles

 The electronic state is 2-A.
 Alpha  occ. eigenvalues --  -93.59227 -93.57898 -20.60481 -11.39894 -11.27802
 Alpha  occ. eigenvalues --   -8.88900  -8.87594  -6.22905  -6.22744  -6.22673
 Alpha  occ. eigenvalues --   -6.22622  -6.21304  -6.20766  -1.40557  -1.08201
 Alpha  occ. eigenvalues --   -1.03405  -0.87905  -0.75924  -0.67502  -0.66506
 Alpha  occ. eigenvalues --   -0.64406  -0.58385  -0.56128  -0.51109  -0.50138
 Alpha  occ. eigenvalues --   -0.45530  -0.37718  -0.37382
 Alpha virt. eigenvalues --    0.03080   0.05268   0.05550   0.06490   0.08303
 Alpha virt. eigenvalues --    0.09501   0.10602   0.12096   0.12564   0.12908
 Alpha virt. eigenvalues --    0.13771   0.14015   0.15217   0.15994   0.16010

  Beta  occ. eigenvalues --  -93.59062 -93.57060 -20.60340 -11.39998 -11.27800
  Beta  occ. eigenvalues --   -8.88715  -8.86663  -6.22857  -6.22553  -6.21973
  Beta  occ. eigenvalues --   -6.20833  -6.20243  -6.19005  -1.40296  -1.06408
  Beta  occ. eigenvalues --   -1.01988  -0.83222  -0.74530  -0.67412  -0.65538
  Beta  occ. eigenvalues --   -0.64060  -0.58337  -0.55275  -0.48469  -0.44978
  Beta  occ. eigenvalues --   -0.41661  -0.36107
  Beta virt. eigenvalues --    0.00165   0.03092   0.05286   0.05569   0.06714
  Beta virt. eigenvalues --    0.08488   0.09563   0.11036   0.12152   0.12992
  Beta virt. eigenvalues --    0.13470   0.14422   0.14525   0.15318   0.16085

 Mulliken charges and spin densities:
               1          2
     1  S    0.022497   0.931384
     2  S    0.079158   0.076498
     3  C   -0.125054  -0.041585
     4  C    0.343076   0.004868
     5  H   -0.045685  -0.001230
     6  H    0.052514  -0.000936
     7  H    0.052503  -0.000939
     8  O   -0.379010   0.031939
 Sum of Mulliken charges =   0.00000   1.00000

 Dipole moment (field-independent basis, Debye):
    X=             -2.3439    Y=             -2.2420    Z=              0.0000  Tot=              3.2435
                          Isotropic Fermi Contact Couplings
        Atom                 a.u.       MegaHertz       Gauss      10(-4) cm-1
     1  S(33)              0.19476      66.89597      23.87014      22.31409
     2  S(33)              0.06949      23.86801       8.51670       7.96151
     3  C(13)             -0.01382     -15.54018      -5.54512      -5.18365
     4  C(13)             -0.00061      -0.68350      -0.24389      -0.22799
     5  H(1)              -0.00039      -1.76086      -0.62832      -0.58736
     6  H(1)              -0.00000      -0.01377      -0.00492      -0.00459
     7  H(1)              -0.00000      -0.01499      -0.00535      -0.00500
     8  O(17)              0.01080      -6.54677      -2.33605      -2.18377

 Normal termination of Gaussian 16 at Wed Apr  9 00:48:04 2025.
