 Gaussian 16, Revision C.01,

 ----------------------------------------------------------------------
 #t hf aug-cc-pvdz symm=none int=(grid=ultrafine) guess=(read,tcheck) s
 table=(opt,rrhf)
 ----------------------------------------------------------------------
 -----
 title
 -----
 Symbolic Z-matrix:
 Charge =  0 Multiplicity = 1

 SCF Done:  E(RHF) =  -1346.86158424     A.U. after   15 cycles
 Normal termination of Gaussian 16 at Wed Apr  9 00:16:05 2025.
 Gaussian 16:  ES64L-G16RevC.01  3-Jul-2019

 ----------------------------------------------------------------------
 #t hf aug-cc-pvdz iop(5/13=1,5/36=2,99/5=2) pseudo=read geom=check gue
 ss=(read,tcheck) scf=(maxcycle=1)
 ----------------------------------------------------------------------
 -----
 title
 -----
 Structure from the checkpoint file:  "BDE49_nonexpt_2563_mol1.chk"
 Charge =  0 Multiplicity = 1

                         Standard orientation:
 ---------------------------------------------------------------------
 Center     Atomic      Atomic             Coordinates (Angstroms)
 Number     Number       Type             X           Y           Z
 ---------------------------------------------------------------------
      1         17           0        1.988376    0.721934   -0.264477
      2         16           0        0.728588   -0.664900    0.661103
      3          6           0       -1.950819    0.435259    0.021141
      4          7           0       -2.686645    1.265578    0.352146
      5         16           0       -0.934273   -0.819066   -0.542087
 ---------------------------------------------------------------------

 SCF Done:  E(RHF) =  -1346.95086235     A.U. after    2 cycles

 The electronic state is 1-A.
 Alpha  occ. eigenvalues -- -103.70900 -93.66171 -93.65482 -15.67757 -11.33211
 Alpha  occ. eigenvalues --  -10.74037  -8.95336  -8.94937  -8.39764  -8.39400
 Alpha  occ. eigenvalues --   -8.39369  -6.29334  -6.29092  -6.29057  -6.28779
 Alpha  occ. eigenvalues --   -6.28641  -6.28404  -1.22551  -1.19808  -1.09510
 Alpha  occ. eigenvalues --   -0.92377  -0.70174  -0.60446  -0.58274  -0.57598
 Alpha  occ. eigenvalues --   -0.54068  -0.53437  -0.51322  -0.46515  -0.42340
 Alpha  occ. eigenvalues --   -0.41735
 Alpha virt. eigenvalues --    0.00626   0.03607   0.05467   0.08254   0.08853
 Alpha virt. eigenvalues --    0.09397   0.10714   0.11927   0.12462   0.13157
 Alpha virt. eigenvalues --    0.13374   0.14601   0.15613   0.16227   0.16512

 Mulliken charges:
               1
     1  Cl  -0.243566
     2  S    0.271301
     3  C   -0.272513
     4  N   -0.162236
     5  S    0.407015
 Sum of Mulliken charges =  -0.00000

 Dipole moment (field-independent basis, Debye):
    X=              1.4013    Y=             -2.4586    Z=             -0.4253  Tot=              2.8617

 Test job not archived.
 1\1\GINC-SE186\SP\RHF\Aug-CC-pVDZ\C1Cl1N1S2\OHZDE\09-Apr-2025\0\\#t hf
  aug-cc-pvdz iop(5/13=1,5/36=2,99/5=2) pseudo=read geom=check guess=(r
 ead,tcheck) scf=(maxcycle=1)\\title\\0,1\Cl,0,1.988376,0.721934,-0.264
 477\S,0,0.728588,-0.6649,0.661103\C,0,-1.950819,0.435259,0.021141\N,0,
 -2.686645,1.265578,0.352146\S,0,-0.934273,-0.819066,-0.542087\\Version
 =ES64L-G16RevC.01\State=1-A\HF=-1346.9508623\RMSD=4.679e-03\Dipole=0.5
 51313,-0.9672843,-0.1673234\Quadrupole=-2.9927205,0.5799018,2.4128187,
 4.0316785,2.1250168,-0.9920309\PG=C01 [X(C1Cl1N1S2)]\\@

 Normal termination of Gaussian 16 at Wed Apr  9 00:16:07 2025.
