 Gaussian 16, Revision C.01,

 ----------------------------------------------------------------------
 #t hf aug-cc-pvdz symm=none int=(grid=ultrafine) guess=(read,tcheck) s
 table=(opt,rrhf)
 ----------------------------------------------------------------------
 -----
 title
 -----
 Symbolic Z-matrix:
 Charge =  0 Multiplicity = 1

 SCF Done:  E(RHF) =  -567.772502621     A.U. after   16 cycles
 Normal termination of Gaussian 16 at Wed Apr  9 00:34:25 2025.
 Gaussian 16:  ES64L-G16RevC.01  3-Jul-2019

 ----------------------------------------------------------------------
 #t hf aug-cc-pvdz iop(5/13=1,5/36=2,99/5=2) pseudo=read geom=check gue
 ss=(read,tcheck) scf=(maxcycle=1)
 ----------------------------------------------------------------------
 -----
 title
 -----
 Structure from the checkpoint file:  "BDE49_nonexpt_432_mol1.chk"
 Charge =  0 Multiplicity = 1

                         Standard orientation:
 ---------------------------------------------------------------------
 Center     Atomic      Atomic             Coordinates (Angstroms)
 Number     Number       Type             X           Y           Z
 ---------------------------------------------------------------------
      1          9           0       -3.388233    0.032791   -0.000019
      2          9           0       -2.227806   -1.905266   -0.000018
      3          5           0       -2.203685   -0.573035    0.000020
      4          6           0       -0.879500    0.215993    0.000012
      5          6           0        0.346980   -0.474615    0.000009
      6          6           0        1.550024    0.229726    0.000002
      7          6           0        1.529119    1.632056   -0.000002
      8          6           0       -0.883968    1.615920    0.000007
      9          1           0       -1.825920    2.151230    0.000009
     10          6           0        0.321964    2.315874    0.000000
     11          1           0        0.323412    3.399993   -0.000003
     12          1           0        2.476744    2.157467   -0.000007
     13          1           0        0.336609   -1.556328    0.000013
     14          8           0        2.786846   -0.340101    0.000000
     15          6           0        2.878947   -1.759091    0.000005
     16          1           0        2.416168   -2.191332   -0.893936
     17          1           0        2.416174   -2.191325    0.893952
     18          1           0        3.943430   -1.986621    0.000002
 ---------------------------------------------------------------------

 SCF Done:  E(RHF) =  -567.966153021     A.U. after    2 cycles

 The electronic state is 1-A.
 Alpha  occ. eigenvalues --  -26.13342 -26.13251 -20.60792 -11.32179 -11.30403
 Alpha  occ. eigenvalues --  -11.25931 -11.25884 -11.25784 -11.25651 -11.24453
 Alpha  occ. eigenvalues --   -7.73272  -1.68524  -1.66244  -1.37815  -1.15163
 Alpha  occ. eigenvalues --   -1.03405  -1.02456  -0.95233  -0.87932  -0.84852
 Alpha  occ. eigenvalues --   -0.83265  -0.80576  -0.77846  -0.76316  -0.72469
 Alpha  occ. eigenvalues --   -0.71670  -0.71126  -0.68419  -0.67934  -0.67383
 Alpha  occ. eigenvalues --   -0.62982  -0.59602  -0.58814  -0.54181  -0.54031
 Alpha  occ. eigenvalues --   -0.52874  -0.49387  -0.48873  -0.36154  -0.33112
 Alpha virt. eigenvalues --    0.03089   0.03766   0.04389   0.05180   0.05545
 Alpha virt. eigenvalues --    0.05631   0.06255   0.06655   0.06972   0.08212
 Alpha virt. eigenvalues --    0.08715   0.10248   0.10940   0.11445   0.12566

 Mulliken charges:
               1
     1  F   -0.534040
     2  F   -0.540978
     3  B    0.916628
     4  C    0.474129
     5  C    0.342247
     6  C    0.474284
     7  C    0.578723
     8  C    0.468702
     9  H   -0.595416
    10  C    0.501833
    11  H   -0.425282
    12  H   -0.541759
    13  H   -0.806402
    14  O   -0.700932
    15  C    0.879504
    16  H   -0.086421
    17  H   -0.086422
    18  H   -0.318399
 Sum of Mulliken charges =  -0.00000

 Dipole moment (field-independent basis, Debye):
    X=              2.1537    Y=              0.1056    Z=              0.0001  Tot=              2.1563

 Test job not archived.
 1\1\GINC-SE127\SP\RHF\Aug-CC-pVDZ\C7H7B1F2O1\OHZDE\09-Apr-2025\0\\#t h
 f aug-cc-pvdz iop(5/13=1,5/36=2,99/5=2) pseudo=read geom=check guess=(
 read,tcheck) scf=(maxcycle=1)\\title\\0,1\F,0,-3.388233,0.032791,-0.00
 0019\F,0,-2.227806,-1.905266,-0.000018\B,0,-2.203685,-0.573035,0.00002
 \C,0,-0.8795,0.215993,0.000012\C,0,0.34698,-0.474615,0.000009\C,0,1.55
 0024,0.229726,0.000002\C,0,1.529119,1.632056,-0.000002\C,0,-0.883968,1
 .61592,0.000007\H,0,-1.82592,2.15123,0.000009\C,0,0.321964,2.315874,0.
 \H,0,0.323412,3.399993,-0.000003\H,0,2.476744,2.157467,-0.000007\H,0,0

 Normal termination of Gaussian 16 at Wed Apr  9 00:34:36 2025.
