 Gaussian 16, Revision C.01,

 ----------------------------------------------------------------------
 #t hf aug-cc-pvdz symm=none int=(grid=ultrafine) guess=(read,tcheck) s
 table=(opt,rrhf)
 ----------------------------------------------------------------------
 -----
 title
 -----
 Symbolic Z-matrix:
 Charge =  0 Multiplicity = 1

 SCF Done:  E(RHF) =  -389.172722257     A.U. after   15 cycles
 Normal termination of Gaussian 16 at Wed Apr  9 00:39:00 2025.
 Gaussian 16:  ES64L-G16RevC.01  3-Jul-2019

 ----------------------------------------------------------------------
 #t hf aug-cc-pvdz iop(5/13=1,5/36=2,99/5=2) pseudo=read geom=check gue
 ss=(read,tcheck) scf=(maxcycle=1)
 ----------------------------------------------------------------------
 -----
 title
 -----
 Structure from the checkpoint file:  "BDE49_nonexpt_575_mol1.chk"
 Charge =  0 Multiplicity = 1

                         Standard orientation:
 ---------------------------------------------------------------------
 Center     Atomic      Atomic             Coordinates (Angstroms)
 Number     Number       Type             X           Y           Z
 ---------------------------------------------------------------------
      1          5           0        2.213901    0.007739    0.033596
      2          6           0        2.235540    1.491943    0.580324
      3          6           0       -0.347257   -0.342336   -0.141204
      4          6           0        3.579261   -0.760998   -0.199721
      5          1           0        4.120170   -0.874147    0.748053
      6          1           0        4.245300   -0.179752   -0.848913
      7          1           0        3.474648   -1.757470   -0.642106
      8          1           0        2.311317    2.205150   -0.251413
      9          1           0        3.119154    1.664282    1.202766
     10          1           0        1.350683    1.771961    1.157450
     11          6           0       -1.282764   -1.322188    0.218879
     12          6           0       -0.803374    0.952881   -0.413638
     13          6           0       -2.156700    1.259846   -0.298235
     14          6           0       -3.080198    0.283820    0.067944
     15          6           0       -2.634616   -1.012699    0.318151
     16          1           0       -3.340434   -1.786719    0.598464
     17          1           0       -0.939575   -2.329873    0.431678
     18          1           0       -2.490728    2.269021   -0.512767
     19          1           0       -4.132986    0.527348    0.149301
     20          1           0       -0.103537    1.711080   -0.736928
     21          7           0        1.017627   -0.698641   -0.250295
     22          1           0        1.133742   -1.670696   -0.506493
 ---------------------------------------------------------------------

 SCF Done:  E(RHF) =  -389.291210987     A.U. after    2 cycles

 The electronic state is 1-A.
 Alpha  occ. eigenvalues --  -15.62516 -11.28903 -11.24742 -11.24674 -11.24039
 Alpha  occ. eigenvalues --  -11.23833 -11.23729 -11.19907 -11.19703  -7.60085
 Alpha  occ. eigenvalues --   -1.19212  -1.11799  -1.01113  -0.98988  -0.94620
 Alpha  occ. eigenvalues --   -0.91272  -0.83477  -0.81951  -0.71790  -0.69270
 Alpha  occ. eigenvalues --   -0.66494  -0.62025  -0.60941  -0.59263  -0.57655
 Alpha  occ. eigenvalues --   -0.55873  -0.53053  -0.52694  -0.52283  -0.51810
 Alpha  occ. eigenvalues --   -0.50180  -0.48698  -0.44568  -0.43951  -0.34212
 Alpha  occ. eigenvalues --   -0.30932
 Alpha virt. eigenvalues --    0.03060   0.03805   0.03840   0.04781   0.05389
 Alpha virt. eigenvalues --    0.05534   0.06779   0.07239   0.07496   0.07657
 Alpha virt. eigenvalues --    0.07931   0.09499   0.09834   0.10018   0.10695

 Mulliken charges:
               1
     1  B    0.466630
     2  C    0.523989
     3  C    0.411760
     4  C    0.557498
     5  H   -0.114742
     6  H   -0.186051
     7  H   -0.363299
     8  H   -0.075818
     9  H   -0.291239
    10  H   -0.245485
    11  C    0.652148
    12  C    0.656319
    13  C    0.475140
    14  C    0.588651
    15  C    0.464252
    16  H   -0.437973
    17  H   -0.619828
    18  H   -0.474081
    19  H   -0.449093
    20  H   -0.629836
    21  N   -0.829213
    22  H   -0.079729
 Sum of Mulliken charges =  -0.00000

 Dipole moment (field-independent basis, Debye):
    X=             -0.0699    Y=             -0.5758    Z=             -0.1446  Tot=              0.5978

 Test job not archived.
 1\1\GINC-SE102\SP\RHF\Aug-CC-pVDZ\C8H12B1N1\OHZDE\09-Apr-2025\0\\#t hf
  aug-cc-pvdz iop(5/13=1,5/36=2,99/5=2) pseudo=read geom=check guess=(r
 ead,tcheck) scf=(maxcycle=1)\\title\\0,1\B,0,2.213901,0.007739,0.03359
 6\C,0,2.23554,1.491943,0.580324\C,0,-0.347257,-0.342336,-0.141204\C,0,
 3.579261,-0.760998,-0.199721\H,0,4.12017,-0.874147,0.748053\H,0,4.2453
 ,-0.179752,-0.848913\H,0,3.474648,-1.75747,-0.642106\H,0,2.311317,2.20
 515,-0.251413\H,0,3.119154,1.664282,1.202766\H,0,1.350683,1.771961,1.1
 5745\C,0,-1.282764,-1.322188,0.218879\C,0,-0.803374,0.952881,-0.413638

 Normal termination of Gaussian 16 at Wed Apr  9 00:39:13 2025.
