 Gaussian 16, Revision C.01,

 ----------------------------------------------------------------------
 #t hf aug-cc-pvdz symm=none int=(grid=ultrafine) guess=(read,tcheck) s
 table=opt
 ----------------------------------------------------------------------
 -----
 title
 -----
 Symbolic Z-matrix:
 Charge =  0 Multiplicity = 2

 SCF Done:  E(UHF) =  -154.496688391     A.U. after   19 cycles
 Normal termination of Gaussian 16 at Wed Apr  9 00:34:45 2025.
 Gaussian 16:  ES64L-G16RevC.01  3-Jul-2019

 ----------------------------------------------------------------------
 #t hf aug-cc-pvdz iop(5/13=1,5/36=2,99/5=2) pseudo=read geom=check gue
 ss=(read,tcheck) scf=(maxcycle=1)
 ----------------------------------------------------------------------
 -----
 title
 -----
 Structure from the checkpoint file:  "BDE49_nonexpt_493_mol2.chk"
 Charge =  0 Multiplicity = 2

                         Standard orientation:
 ---------------------------------------------------------------------
 Center     Atomic      Atomic             Coordinates (Angstroms)
 Number     Number       Type             X           Y           Z
 ---------------------------------------------------------------------
      1          1           0        0.000000    0.000000   -2.475796
      2          5           0        0.000000    0.000000   -1.313258
      3          7           0        0.000000    0.000000   -0.048566
      4          8           0        0.000000    0.000000    1.172756
 ---------------------------------------------------------------------

 SCF Done:  E(UHF) =  -154.548352935     A.U. after    2 cycles

 Unable to determine electronic state:  an orbital has unidentified symmetry.
 Alpha  occ. eigenvalues --  -20.68178 -15.71342  -7.67295  -1.48473  -1.05254
 Alpha  occ. eigenvalues --   -0.77426  -0.74332  -0.68483  -0.64333  -0.42316
 Alpha  occ. eigenvalues --   -0.38943
 Alpha virt. eigenvalues --    0.04313   0.04385   0.04585   0.05306   0.09033
 Alpha virt. eigenvalues --    0.14821   0.15700   0.17568   0.19078   0.19783
 Alpha virt. eigenvalues --    0.21364   0.24262   0.25981   0.26535   0.26574

  Beta  occ. eigenvalues --  -20.64682 -15.71693  -7.66766  -1.41156  -1.00509
  Beta  occ. eigenvalues --   -0.73370  -0.66439  -0.63897  -0.54322  -0.37470
  Beta virt. eigenvalues --    0.02806   0.04344   0.04553   0.05354   0.05800
  Beta virt. eigenvalues --    0.09142   0.15732   0.17475   0.17749   0.20024
  Beta virt. eigenvalues --    0.21942   0.22973   0.24328   0.26304   0.27052

 Mulliken charges and spin densities:
               1          2
     1  H    0.241428  -0.017482
     2  B   -0.211195   0.298268
     3  N    0.223381  -0.081023
     4  O   -0.253614   0.800237
 Sum of Mulliken charges =  -0.00000   1.00000

 Dipole moment (field-independent basis, Debye):
    X=              0.0000    Y=              0.0000    Z=             -2.6533  Tot=              2.6533
                          Isotropic Fermi Contact Couplings
        Atom                 a.u.       MegaHertz       Gauss      10(-4) cm-1
     1  H(1)              -0.00922     -41.19024     -14.69770     -13.73959
     2  B(11)              0.03561      51.07839      18.22604      17.03792
     3  N(14)             -0.10055     -32.48925     -11.59297     -10.83725
     4  O(17)              0.27700    -167.91751     -59.91714     -56.01125
 --------------------------------------------------------
       Center         ----  Spin Dipole Couplings  ----
                      3XX-RR        3YY-RR        3ZZ-RR
 --------------------------------------------------------

 Normal termination of Gaussian 16 at Wed Apr  9 00:34:46 2025.
