 Gaussian 16, Revision C.01,

 ----------------------------------------------------------------------
 #t hf aug-cc-pvdz symm=none int=(grid=ultrafine) guess=(read,tcheck) s
 table=(opt,rrhf)
 ----------------------------------------------------------------------
 -----
 title
 -----
 Symbolic Z-matrix:
 Charge =  0 Multiplicity = 1

 SCF Done:  E(RHF) =  -750.687144632     A.U. after   13 cycles
 Normal termination of Gaussian 16 at Wed Apr  9 00:45:34 2025.
 Gaussian 16:  ES64L-G16RevC.01  3-Jul-2019

 ----------------------------------------------------------------------
 #t hf aug-cc-pvdz iop(5/13=1,5/36=2,99/5=2) pseudo=read geom=check gue
 ss=(read,tcheck) scf=(maxcycle=1)
 ----------------------------------------------------------------------
 -----
 title
 -----
 Structure from the checkpoint file:  "BDE49_nonexpt_757_mol1.chk"
 Charge =  0 Multiplicity = 1

                         Standard orientation:
 ---------------------------------------------------------------------
 Center     Atomic      Atomic             Coordinates (Angstroms)
 Number     Number       Type             X           Y           Z
 ---------------------------------------------------------------------
      1          6           0       -2.921859   -0.674372    0.534558
      2          6           0       -1.583128   -1.336815    0.172939
      3          6           0       -3.191955    0.566401   -0.326812
      4          1           0       -2.903443   -0.382695    1.592639
      5          1           0       -3.735739   -1.398769    0.425727
      6          6           0       -2.029477    1.564113   -0.242672
      7          1           0       -4.126956    1.045681   -0.018990
      8          1           0       -3.328753    0.257719   -1.371532
      9          6           0       -0.686311    0.907286   -0.603244
     10          1           0       -1.970095    1.965363    0.777165
     11          1           0       -2.212367    2.418911   -0.902394
     12          6           0       -0.409173   -0.340241    0.254460
     13          1           0        0.124589    1.629519   -0.480579
     14          1           0       -0.698854    0.616068   -1.661761
     15          1           0       -1.644903   -1.736942   -0.848027
     16          1           0       -1.394434   -2.191716    0.829136
     17          5           0        2.528741    0.192133    0.121680
     18          8           0        2.323916    1.110258    1.107951
     19          8           0        3.704827    0.252881   -0.579108
     20          1           0        3.790096   -0.416683   -1.262503
     21          1           0        3.073208    1.711695    1.199872
     22         15           0        1.213542   -1.219943   -0.108247
     23          1           0       -0.300580   -0.021151    1.299271
     24          1           0        1.182870   -1.181861   -1.528837
 ---------------------------------------------------------------------

 SCF Done:  E(RHF) =  -750.836947318     A.U. after    2 cycles

 The electronic state is 1-A.
 Alpha  occ. eigenvalues --  -81.22982 -20.59169 -20.58488 -11.24167 -11.22844
 Alpha  occ. eigenvalues --  -11.22755 -11.22545 -11.22514 -11.22446  -7.73569
 Alpha  occ. eigenvalues --   -7.67273  -4.87646  -4.87585  -4.87316  -1.35165
 Alpha  occ. eigenvalues --   -1.31397  -1.10338  -0.99896  -0.99536  -0.84301
 Alpha  occ. eigenvalues --   -0.83161  -0.79451  -0.76913  -0.75083  -0.72980
 Alpha  occ. eigenvalues --   -0.64559  -0.62888  -0.60725  -0.60251  -0.59589
 Alpha  occ. eigenvalues --   -0.58886  -0.57937  -0.53203  -0.52655  -0.52541
 Alpha  occ. eigenvalues --   -0.50909  -0.48529  -0.48299  -0.45908  -0.45201
 Alpha  occ. eigenvalues --   -0.43490  -0.40495  -0.32912
 Alpha virt. eigenvalues --    0.03090   0.03889   0.04358   0.04528   0.05466
 Alpha virt. eigenvalues --    0.05804   0.06259   0.06537   0.06800   0.07703
 Alpha virt. eigenvalues --    0.08005   0.08253   0.08990   0.09194   0.09359

 Mulliken charges:
               1
     1  C    0.390975
     2  C    0.377364
     3  C    0.261248
     4  H   -0.097611
     5  H   -0.108026
     6  C    0.354633
     7  H   -0.109418
     8  H   -0.105394
     9  C    0.284807
    10  H   -0.099204
    11  H   -0.122900
    12  C   -0.428080
    13  H   -0.216271
    14  H   -0.128642
    15  H   -0.090562
    16  H   -0.174175
    17  B    0.936043
    18  O   -0.575119
    19  O   -0.540511
    20  H    0.188608
    21  H    0.209520
    22  P   -0.131170
    23  H   -0.215736
    24  H    0.139621
 Sum of Mulliken charges =  -0.00000

 Dipole moment (field-independent basis, Debye):
    X=             -0.0183    Y=              0.6169    Z=             -1.0371  Tot=              1.2068

 Test job not archived.
 1\1\GINC-SE186\SP\RHF\Aug-CC-pVDZ\C6H14B1O2P1\OHZDE\09-Apr-2025\0\\#t
 hf aug-cc-pvdz iop(5/13=1,5/36=2,99/5=2) pseudo=read geom=check guess=
 (read,tcheck) scf=(maxcycle=1)\\title\\0,1\C,0,-2.921859,-0.674372,0.5
 34558\C,0,-1.583128,-1.336815,0.172939\C,0,-3.191955,0.566401,-0.32681
 2\H,0,-2.903443,-0.382695,1.592639\H,0,-3.735739,-1.398769,0.425727\C,
 0,-2.029477,1.564113,-0.242672\H,0,-4.126956,1.045681,-0.01899\H,0,-3.
 328753,0.257719,-1.371532\C,0,-0.686311,0.907286,-0.603244\H,0,-1.9700
 95,1.965363,0.777165\H,0,-2.212367,2.418911,-0.902394\C,0,-0.409173,-0

 Normal termination of Gaussian 16 at Wed Apr  9 00:45:51 2025.
