 Gaussian 16, Revision C.01,

 ----------------------------------------------------------------------
 #t hf aug-cc-pvdz symm=none int=(grid=ultrafine) guess=(read,tcheck) s
 table=opt
 ----------------------------------------------------------------------
 -----
 title
 -----
 Symbolic Z-matrix:
 Charge =  0 Multiplicity = 2

 SCF Done:  E(UHF) =  -213.313644240     A.U. after   16 cycles
 Normal termination of Gaussian 16 at Tue Apr  8 23:17:48 2025.
 Gaussian 16:  ES64L-G16RevC.01  3-Jul-2019

 ----------------------------------------------------------------------
 #t hf aug-cc-pvdz iop(5/13=1,5/36=2,99/5=2) pseudo=read geom=check gue
 ss=(read,tcheck) scf=(maxcycle=1)
 ----------------------------------------------------------------------
 -----
 title
 -----
 Structure from the checkpoint file:  "BDE49_nonexpt_1108_mol2.chk"
 Charge =  0 Multiplicity = 2

                         Standard orientation:
 ---------------------------------------------------------------------
 Center     Atomic      Atomic             Coordinates (Angstroms)
 Number     Number       Type             X           Y           Z
 ---------------------------------------------------------------------
      1          8           0       -1.164025   -0.318338   -0.000002
      2          6           0       -0.092614    0.433650    0.000000
      3          9           0        1.119107   -0.248318    0.000001
      4          1           0       -0.102041    1.089832    0.894936
      5          1           0       -0.102034    1.089837   -0.894931
 ---------------------------------------------------------------------

 SCF Done:  E(UHF) =  -213.388462383     A.U. after    2 cycles

 The electronic state is 2-A.
 Alpha  occ. eigenvalues --  -26.11961 -20.67649 -11.39682  -1.65629  -1.43581
 Alpha  occ. eigenvalues --   -0.95653  -0.80686  -0.78109  -0.75957  -0.71166
 Alpha  occ. eigenvalues --   -0.65334  -0.58428  -0.53950
 Alpha virt. eigenvalues --    0.03369   0.05209   0.08484   0.08956   0.14286
 Alpha virt. eigenvalues --    0.16259   0.20232   0.22539   0.22981   0.24990
 Alpha virt. eigenvalues --    0.27080   0.29464   0.30718   0.33714   0.34101

  Beta  occ. eigenvalues --  -26.12023 -20.63594 -11.40053  -1.65737  -1.31140
  Beta  occ. eigenvalues --   -0.92727  -0.77467  -0.76539  -0.73621  -0.63113
  Beta  occ. eigenvalues --   -0.59031  -0.54084
  Beta virt. eigenvalues --    0.03386   0.04412   0.05350   0.08576   0.09011
  Beta virt. eigenvalues --    0.14613   0.16305   0.20324   0.23026   0.24605
  Beta virt. eigenvalues --    0.25175   0.29483   0.29682   0.31213   0.33982

 Mulliken charges and spin densities:
               1          2
     1  O   -0.300286   1.022343
     2  C    0.872745  -0.168074
     3  F   -0.396652  -0.005388
     4  H   -0.087903   0.075560
     5  H   -0.087905   0.075559
 Sum of Mulliken charges =   0.00000   1.00000

 Dipole moment (field-independent basis, Debye):
    X=             -0.6571    Y=              2.2535    Z=              0.0000  Tot=              2.3473
                          Isotropic Fermi Contact Couplings
        Atom                 a.u.       MegaHertz       Gauss      10(-4) cm-1
     1  O(17)              0.28485    -172.67239     -61.61380     -57.59731
     2  C(13)             -0.07115     -79.98441     -28.54043     -26.67993
     3  F(19)             -0.01490     -62.67845     -22.36523     -20.90728
     4  H(1)               0.03477     155.41026      55.45425      51.83928
     5  H(1)               0.03477     155.40848      55.45361      51.83869
 --------------------------------------------------------
       Center         ----  Spin Dipole Couplings  ----
                      3XX-RR        3YY-RR        3ZZ-RR

 Normal termination of Gaussian 16 at Tue Apr  8 23:17:49 2025.
