 Gaussian 16, Revision C.01,

 ----------------------------------------------------------------------
 #t hf aug-cc-pvdz symm=none int=(grid=ultrafine) guess=(read,tcheck) s
 table=(opt,rrhf)
 ----------------------------------------------------------------------
 -----
 title
 -----
 Symbolic Z-matrix:
 Charge =  0 Multiplicity = 1

 SCF Done:  E(RHF) =  -374.622554988     A.U. after   12 cycles
 Normal termination of Gaussian 16 at Tue Apr  8 22:39:38 2025.
 Gaussian 16:  ES64L-G16RevC.01  3-Jul-2019

 ----------------------------------------------------------------------
 #t hf aug-cc-pvdz iop(5/13=1,5/36=2,99/5=2) pseudo=read geom=check gue
 ss=(read,tcheck) scf=(maxcycle=1)
 ----------------------------------------------------------------------
 -----
 title
 -----
 Structure from the checkpoint file:  "BDE49_expt_136_mol1.chk"
 Charge =  0 Multiplicity = 1

                         Standard orientation:
 ---------------------------------------------------------------------
 Center     Atomic      Atomic             Coordinates (Angstroms)
 Number     Number       Type             X           Y           Z
 ---------------------------------------------------------------------
      1          6           0        0.748250   -0.638664    0.000005
      2          6           0       -0.430557   -0.038140    0.000008
      3          9           0       -0.618294    1.266906    0.000001
      4          1           0        0.860840   -1.711709   -0.000003
      5          9           0        1.885520    0.077946   -0.000005
      6          9           0       -1.574670   -0.703459   -0.000005
 ---------------------------------------------------------------------

 SCF Done:  E(RHF) =  -374.759179752     A.U. after    2 cycles

 The electronic state is 1-A.
 Alpha  occ. eigenvalues --  -26.18883 -26.18770 -26.15883 -11.45566 -11.36071
 Alpha  occ. eigenvalues --   -1.75698  -1.71216  -1.69551  -1.10559  -0.95283
 Alpha  occ. eigenvalues --   -0.87778  -0.85947  -0.83385  -0.78513  -0.77203
 Alpha  occ. eigenvalues --   -0.76774  -0.75264  -0.74488  -0.64218  -0.41628
 Alpha virt. eigenvalues --    0.03582   0.06988   0.08709   0.09671   0.11296
 Alpha virt. eigenvalues --    0.12009   0.12391   0.15156   0.18050   0.20009
 Alpha virt. eigenvalues --    0.23912   0.25174   0.25486   0.28019   0.29546

 Mulliken charges:
               1
     1  C    0.508381
     2  C    0.506125
     3  F   -0.265392
     4  H   -0.169573
     5  F   -0.297356
     6  F   -0.282185
 Sum of Mulliken charges =  -0.00000

 Dipole moment (field-independent basis, Debye):
    X=              0.0651    Y=             -1.7598    Z=              0.0000  Tot=              1.7610

 Test job not archived.
 1\1\GINC-SE092\SP\RHF\Aug-CC-pVDZ\C2H1F3\OHZDE\08-Apr-2025\0\\#t hf au
 g-cc-pvdz iop(5/13=1,5/36=2,99/5=2) pseudo=read geom=check guess=(read
 ,tcheck) scf=(maxcycle=1)\\title\\0,1\C,0,0.74825,-0.638664,0.000005\C
 ,0,-0.430557,-0.03814,0.000008\F,0,-0.618294,1.266906,0.000001\H,0,0.8
 60839,-1.711709,-0.000003\F,0,1.88552,0.077945,-0.000005\F,0,-1.57467,
 -0.703458,-0.000005\\Version=ES64L-G16RevC.01\State=1-A\HF=-374.759179
 8\RMSD=8.958e-03\Dipole=0.0255954,-0.6923402,0.0000052\Quadrupole=-2.3
 477037,1.5045233,0.8431804,-1.5728165,-0.0000095,0.0000111\PG=C01 [X(C

 Normal termination of Gaussian 16 at Tue Apr  8 22:39:40 2025.
