 Gaussian 16, Revision C.01,

 ----------------------------------------------------------------------
 #t hf aug-cc-pvdz symm=none int=(grid=ultrafine) guess=(read,tcheck) s
 table=(opt,rrhf)
 ----------------------------------------------------------------------
 -----
 title
 -----
 Symbolic Z-matrix:
 Charge =  0 Multiplicity = 1

 SCF Done:  E(RHF) =  -540.880664901     A.U. after   12 cycles
 Normal termination of Gaussian 16 at Wed Apr  9 00:33:28 2025.
 Gaussian 16:  ES64L-G16RevC.01  3-Jul-2019

 ----------------------------------------------------------------------
 #t hf aug-cc-pvdz iop(5/13=1,5/36=2,99/5=2) pseudo=read geom=check gue
 ss=(read,tcheck) scf=(maxcycle=1)
 ----------------------------------------------------------------------
 -----
 title
 -----
 Structure from the checkpoint file:  "BDE49_nonexpt_442_mol1.chk"
 Charge =  0 Multiplicity = 1

                         Standard orientation:
 ---------------------------------------------------------------------
 Center     Atomic      Atomic             Coordinates (Angstroms)
 Number     Number       Type             X           Y           Z
 ---------------------------------------------------------------------
      1          6           0        0.407087   -1.600375    0.481087
      2          8           0        1.363809   -1.186995   -0.456550
      3          6           0        2.063429    0.000062   -0.173526
      4          8           0        1.363621    1.186981   -0.456678
      5          6           0        0.406995    1.600454    0.481017
      6          8           0       -0.911212    1.233557    0.140220
      7          5           0       -1.456768   -0.000041   -0.024898
      8          9           0       -2.742495   -0.000077   -0.389491
      9          8           0       -0.911093   -1.233609    0.140047
     10          1           0        2.924191    0.000089   -0.837728
     11          1           0        2.383987    0.000147    0.880399
     12          1           0        0.412817    2.689109    0.476624
     13          1           0        0.663164    1.229686    1.482957
     14          1           0        0.663103   -1.229432    1.483003
     15          1           0        0.412979   -2.689030    0.476867
 ---------------------------------------------------------------------

 SCF Done:  E(RHF) =  -541.071328315     A.U. after    2 cycles

 The electronic state is 1-A.
 Alpha  occ. eigenvalues --  -26.10593 -20.60865 -20.60862 -20.59719 -20.59718
 Alpha  occ. eigenvalues --  -11.37653 -11.37652 -11.37111  -7.73024  -1.64862
 Alpha  occ. eigenvalues --   -1.42362  -1.37989  -1.35518  -1.31521  -1.02166
 Alpha  occ. eigenvalues --   -0.95615  -0.90075  -0.82458  -0.78125  -0.77229
 Alpha  occ. eigenvalues --   -0.74529  -0.73235  -0.72902  -0.69716  -0.69077
 Alpha  occ. eigenvalues --   -0.67164  -0.65366  -0.60469  -0.58550  -0.54223
 Alpha  occ. eigenvalues --   -0.53818  -0.53090  -0.51579  -0.50189  -0.48175
 Alpha virt. eigenvalues --    0.02741   0.04227   0.04289   0.04836   0.05867
 Alpha virt. eigenvalues --    0.06656   0.06811   0.07609   0.07903   0.10508
 Alpha virt. eigenvalues --    0.11056   0.12555   0.13516   0.13960   0.14096

 Mulliken charges:
               1
     1  C    1.165240
     2  O   -0.638817
     3  C    1.026104
     4  O   -0.638823
     5  C    1.165173
     6  O   -0.400812
     7  B    0.759894
     8  F   -0.560571
     9  O   -0.400818
    10  H   -0.324322
    11  H   -0.010994
    12  H   -0.363786
    13  H   -0.206819
    14  H   -0.206834
    15  H   -0.363814
 Sum of Mulliken charges =  -0.00000

 Dipole moment (field-independent basis, Debye):
    X=              3.8914    Y=              0.0004    Z=              3.4737  Tot=              5.2163

 Test job not archived.
 1\1\GINC-SE074\SP\RHF\Aug-CC-pVDZ\C3H6B1F1O4\OHZDE\09-Apr-2025\0\\#t h
 f aug-cc-pvdz iop(5/13=1,5/36=2,99/5=2) pseudo=read geom=check guess=(
 read,tcheck) scf=(maxcycle=1)\\title\\0,1\C,0,0.407087,-1.600375,0.481
 087\O,0,1.363809,-1.186994,-0.45655\C,0,2.063429,0.000063,-0.173526\O,
 0,1.36362,1.186982,-0.456678\C,0,0.406994,1.600454,0.481017\O,0,-0.911
 213,1.233557,0.14022\B,0,-1.456768,-0.000041,-0.024898\F,0,-2.742495,-
 0.000078,-0.389491\O,0,-0.911093,-1.233609,0.140047\H,0,2.924191,0.000
 09,-0.837728\H,0,2.383987,0.000148,0.880399\H,0,0.412816,2.689109,0.47

 Normal termination of Gaussian 16 at Wed Apr  9 00:33:35 2025.
