 Gaussian 16, Revision C.01,

 ----------------------------------------------------------------------
 #t hf aug-cc-pvdz symm=none int=(grid=ultrafine) guess=(read,tcheck) s
 table=(opt,rrhf)
 ----------------------------------------------------------------------
 -----
 title
 -----
 Symbolic Z-matrix:
 Charge =  0 Multiplicity = 1

 SCF Done:  E(RHF) =  -661.379837633     A.U. after   16 cycles
 Normal termination of Gaussian 16 at Wed Apr  9 00:26:01 2025.
 Gaussian 16:  ES64L-G16RevC.01  3-Jul-2019

 ----------------------------------------------------------------------
 #t hf aug-cc-pvdz iop(5/13=1,5/36=2,99/5=2) pseudo=read geom=check gue
 ss=(read,tcheck) scf=(maxcycle=1)
 ----------------------------------------------------------------------
 -----
 title
 -----
 Structure from the checkpoint file:  "BDE49_nonexpt_290_mol1.chk"
 Charge =  0 Multiplicity = 1

                         Standard orientation:
 ---------------------------------------------------------------------
 Center     Atomic      Atomic             Coordinates (Angstroms)
 Number     Number       Type             X           Y           Z
 ---------------------------------------------------------------------
      1          6           0       -0.068169    0.041864    0.435688
      2          7           0       -0.415315    1.332798   -0.338006
      3          5           0        1.448167   -0.379905    0.010372
      4          7           0       -1.066660   -0.989408   -0.118593
      5          6           0       -0.302544    0.287147    1.911682
      6          8           0       -1.056065   -1.137058   -1.337826
      7          8           0        1.732959   -1.048077   -1.125100
      8          8           0        0.504806    1.858583   -0.942639
      9          8           0        2.400723   -0.065355    0.918291
     10          8           0       -1.554729    1.742307   -0.258625
     11          8           0       -1.759049   -1.603231    0.660639
     12          1           0        0.395140    1.051604    2.255007
     13          1           0       -0.107713   -0.627490    2.470436
     14          1           0       -1.328430    0.606499    2.090912
     15          1           0        0.961959   -1.189926   -1.692122
     16          1           0        3.287140   -0.296309    0.617961
 ---------------------------------------------------------------------

 SCF Done:  E(RHF) =  -661.586521479     A.U. after    2 cycles

 The electronic state is 1-A.
 Alpha  occ. eigenvalues --  -20.66743 -20.65513 -20.65389 -20.65232 -20.62021
 Alpha  occ. eigenvalues --  -20.61377 -15.95465 -15.94966 -11.39512 -11.28289
 Alpha  occ. eigenvalues --   -7.71711  -1.59723  -1.58123  -1.41001  -1.40600
 Alpha  occ. eigenvalues --   -1.38273  -1.34795  -1.17215  -0.99550  -0.97015
 Alpha  occ. eigenvalues --   -0.86417  -0.83857  -0.82573  -0.80244  -0.77981
 Alpha  occ. eigenvalues --   -0.77399  -0.76690  -0.74510  -0.70544  -0.66726
 Alpha  occ. eigenvalues --   -0.63092  -0.62726  -0.61571  -0.61197  -0.56645
 Alpha  occ. eigenvalues --   -0.55920  -0.55785  -0.54474  -0.52504  -0.52185
 Alpha  occ. eigenvalues --   -0.51172  -0.50289
 Alpha virt. eigenvalues --    0.02418   0.03463   0.04018   0.04432   0.05386
 Alpha virt. eigenvalues --    0.05583   0.06501   0.07051   0.07388   0.08949
 Alpha virt. eigenvalues --    0.09966   0.12032   0.12573   0.13385   0.13941

 Mulliken charges:
               1
     1  C    0.392842
     2  N    0.328161
     3  B    0.774450
     4  N    0.273113
     5  C    0.844165
     6  O   -0.597217
     7  O   -0.435485
     8  O   -0.559890
     9  O   -0.466841
    10  O   -0.573302
    11  O   -0.528622
    12  H   -0.029679
    13  H    0.037281
    14  H    0.068745
    15  H    0.276294
    16  H    0.195986
 Sum of Mulliken charges =  -0.00000

 Dipole moment (field-independent basis, Debye):
    X=              2.7869    Y=             -0.9465    Z=              2.6770  Tot=              3.9785

 Test job not archived.
 1\1\GINC-SE344\SP\RHF\Aug-CC-pVDZ\C2H5B1N2O6\OHZDE\09-Apr-2025\0\\#t h
 f aug-cc-pvdz iop(5/13=1,5/36=2,99/5=2) pseudo=read geom=check guess=(
 read,tcheck) scf=(maxcycle=1)\\title\\0,1\C,0,-0.068169,0.041864,0.435
 688\N,0,-0.415315,1.332798,-0.338006\B,0,1.448167,-0.379905,0.010372\N
 ,0,-1.06666,-0.989408,-0.118593\C,0,-0.302544,0.287147,1.911682\O,0,-1
 .056065,-1.137058,-1.337826\O,0,1.732959,-1.048078,-1.1251\O,0,0.50480
 7,1.858583,-0.942639\O,0,2.400723,-0.065356,0.918291\O,0,-1.554728,1.7
 42308,-0.258625\O,0,-1.75905,-1.60323,0.660639\H,0,0.39514,1.051604,2.

 Normal termination of Gaussian 16 at Wed Apr  9 00:26:10 2025.
