 Gaussian 16, Revision C.01,

 ----------------------------------------------------------------------
 #t hf aug-cc-pvdz symm=none int=(grid=ultrafine) guess=(read,tcheck) s
 table=opt
 ----------------------------------------------------------------------
 -----
 title
 -----
 Symbolic Z-matrix:
 Charge =  0 Multiplicity = 2

 SCF Done:  E(UHF) =  -686.144003802     A.U. after   19 cycles
 Normal termination of Gaussian 16 at Tue Apr  8 22:59:42 2025.
 Gaussian 16:  ES64L-G16RevC.01  3-Jul-2019

 ----------------------------------------------------------------------
 #t hf aug-cc-pvdz iop(5/13=1,5/36=2,99/5=2) pseudo=read geom=check gue
 ss=(read,tcheck) scf=(maxcycle=1)
 ----------------------------------------------------------------------
 -----
 title
 -----
 Structure from the checkpoint file:  "BDE49_expt_248_mol2.chk"
 Charge =  0 Multiplicity = 2

                         Standard orientation:
 ---------------------------------------------------------------------
 Center     Atomic      Atomic             Coordinates (Angstroms)
 Number     Number       Type             X           Y           Z
 ---------------------------------------------------------------------
      1          6           0       -1.012414   -0.093438    0.000006
      2          8           0       -0.951874    1.256720    0.000000
      3          8           0       -2.053047   -0.721057    0.000004
      4          1           0       -1.867621    1.569798   -0.000001
      5          6           0        0.275259   -0.756758    0.000001
      6         17           0        1.765889    0.063612   -0.000005
      7          1           0        0.309808   -1.835329    0.000000
 ---------------------------------------------------------------------

 SCF Done:  E(UHF) =  -686.236063280     A.U. after    2 cycles

 The electronic state is 2-A.
 Alpha  occ. eigenvalues -- -103.69741 -20.63847 -20.59841 -11.41616 -11.34854
 Alpha  occ. eigenvalues --  -10.73028  -8.38664  -8.38617  -8.38417  -1.44524
 Alpha  occ. eigenvalues --   -1.35514  -1.22562  -1.01709  -0.84875  -0.74382
 Alpha  occ. eigenvalues --   -0.72184  -0.68396  -0.64362  -0.62320  -0.56916
 Alpha  occ. eigenvalues --   -0.55525  -0.52388  -0.48313  -0.40461
 Alpha virt. eigenvalues --    0.03467   0.04500   0.07550   0.10039   0.10129
 Alpha virt. eigenvalues --    0.12460   0.12653   0.13468   0.14754   0.15742
 Alpha virt. eigenvalues --    0.16228   0.17406   0.18660   0.20045   0.21012

  Beta  occ. eigenvalues -- -103.69679 -20.63945 -20.58454 -11.42302 -11.32429
  Beta  occ. eigenvalues --  -10.72963  -8.38855  -8.38377  -8.38153  -1.43929
  Beta  occ. eigenvalues --   -1.33468  -1.20649  -0.97296  -0.83043  -0.73342
  Beta  occ. eigenvalues --   -0.71105  -0.65960  -0.63309  -0.61478  -0.51198
  Beta  occ. eigenvalues --   -0.51193  -0.48578  -0.47738
  Beta virt. eigenvalues --    0.02747   0.03492   0.04532   0.07760   0.10197
  Beta virt. eigenvalues --    0.10316   0.12563   0.13194   0.13608   0.14821
  Beta virt. eigenvalues --    0.15767   0.16426   0.17497   0.20143   0.21516

 Mulliken charges and spin densities:
               1          2
     1  C    0.756748  -0.340308
     2  O   -0.438439  -0.005926
     3  O   -0.418507   0.309241
     4  H    0.192256  -0.002941
     5  C    0.293660   1.109387
     6  Cl  -0.173887   0.015326
     7  H   -0.211831  -0.084780
 Sum of Mulliken charges =  -0.00000   1.00000

 Dipole moment (field-independent basis, Debye):
    X=              0.5433    Y=              0.3948    Z=              0.0000  Tot=              0.6716
                          Isotropic Fermi Contact Couplings
        Atom                 a.u.       MegaHertz       Gauss      10(-4) cm-1
     1  C(13)             -0.09578    -107.67136     -38.41982     -35.91530
     2  O(17)             -0.01957      11.86142       4.23245       3.95655
     3  O(17)              0.11672     -70.75723     -25.24794     -23.60207
     4  H(1)              -0.00038      -1.70212      -0.60736      -0.56777
     5  C(13)              0.21925     246.47581      87.94870      82.21548
     6  Cl(35)             0.03692      16.18944       5.77679       5.40021
     7  H(1)              -0.02400    -107.28405     -38.28162     -35.78611
 --------------------------------------------------------

 Normal termination of Gaussian 16 at Tue Apr  8 22:59:45 2025.
