 Gaussian 16, Revision C.01,

 ----------------------------------------------------------------------
 #t hf aug-cc-pvdz symm=none int=(grid=ultrafine) guess=(read,tcheck) s
 table=(opt,rrhf)
 ----------------------------------------------------------------------
 -----
 title
 -----
 Symbolic Z-matrix:
 Charge =  0 Multiplicity = 1

 SCF Done:  E(RHF) =  -990.565412448     A.U. after   16 cycles
 Normal termination of Gaussian 16 at Tue Apr  8 23:11:12 2025.
 Gaussian 16:  ES64L-G16RevC.01  3-Jul-2019

 ----------------------------------------------------------------------
 #t hf aug-cc-pvdz iop(5/13=1,5/36=2,99/5=2) pseudo=read geom=check gue
 ss=(read,tcheck) scf=(maxcycle=1)
 ----------------------------------------------------------------------
 -----
 title
 -----
 Structure from the checkpoint file:  "BDE49_expt_494_mol1.chk"
 Charge =  0 Multiplicity = 1

                         Standard orientation:
 ---------------------------------------------------------------------
 Center     Atomic      Atomic             Coordinates (Angstroms)
 Number     Number       Type             X           Y           Z
 ---------------------------------------------------------------------
      1          6           0       -2.128184   -1.120912   -0.050928
      2          6           0       -0.742378   -0.992384   -0.052889
      3          6           0       -2.938419    0.006300    0.001219
      4          6           0       -2.375912    1.276510    0.052367
      5          6           0       -0.993763    1.406674    0.050278
      6          6           0       -0.157903    0.280767   -0.001964
      7          1           0       -0.109335   -1.864545   -0.087941
      8          1           0       -2.575601   -2.105878   -0.089686
      9          1           0       -3.009243    2.153137    0.093213
     10          1           0       -0.558479    2.400751    0.089642
     11          7           0        1.229739    0.511990   -0.006781
     12          6           0        2.251946   -0.431192   -0.011015
     13          8           0        2.046398   -1.634496    0.026362
     14          7           0        3.525270    0.105248   -0.072951
     15          1           0        1.487930    1.482937    0.038813
     16          6           0        4.656432   -0.798338    0.098016
     17          1           0        4.289614   -1.819591    0.045423
     18          1           0        5.146456   -0.645491    1.067438
     19          1           0        5.392064   -0.637608   -0.695811
     20          6           0        3.807077    1.531691   -0.071566
     21          1           0        3.628981    2.004732    0.904458
     22          1           0        3.225481    2.057020   -0.835469
     23          1           0        4.857639    1.678550   -0.322345
     24         17           0       -4.688537   -0.170789    0.003435
 ---------------------------------------------------------------------

 SCF Done:  E(RHF) =  -990.745856090     A.U. after    2 cycles

 The electronic state is 1-A.
 Alpha  occ. eigenvalues -- -103.65944 -20.53331 -15.67193 -15.65815 -11.40448
 Alpha  occ. eigenvalues --  -11.30836 -11.30241 -11.29679 -11.27251 -11.26235
 Alpha  occ. eigenvalues --  -11.25780 -11.25750 -11.24427 -10.69203  -8.34939
 Alpha  occ. eigenvalues --   -8.34640  -8.34619  -1.36683  -1.23871  -1.21415
 Alpha  occ. eigenvalues --   -1.18604  -1.11813  -1.02617  -1.00416  -0.98297
 Alpha  occ. eigenvalues --   -0.93183  -0.86288  -0.83153  -0.78124  -0.74950
 Alpha  occ. eigenvalues --   -0.71675  -0.67336  -0.67163  -0.65628  -0.64038
 Alpha  occ. eigenvalues --   -0.61812  -0.60827  -0.60158  -0.59531  -0.57810
 Alpha  occ. eigenvalues --   -0.57565  -0.54643  -0.54535  -0.53309  -0.52118
 Alpha  occ. eigenvalues --   -0.49838  -0.46385  -0.45452  -0.43903  -0.38684
 Alpha  occ. eigenvalues --   -0.35472  -0.30927
 Alpha virt. eigenvalues --    0.02022   0.03223   0.04004   0.04390   0.05267
 Alpha virt. eigenvalues --    0.05509   0.06879   0.07246   0.07708   0.07919
 Alpha virt. eigenvalues --    0.09366   0.09949   0.09993   0.10560   0.10932

 Mulliken charges:
               1
     1  C    0.862421
     2  C    0.885834
     3  C   -0.231068
     4  C    0.839228
     5  C    1.106441
     6  C   -0.067775
     7  H   -0.695907
     8  H   -0.444139
     9  H   -0.448000
    10  H   -0.733785
    11  N   -0.644944
    12  C    0.241398
    13  O   -0.514185
    14  N   -0.389405
    15  H   -0.072567
    16  C    0.724021
    17  H   -0.218998
    18  H   -0.063588
    19  H   -0.146642
    20  C    0.837220
    21  H   -0.035978
    22  H   -0.104428
    23  H   -0.315000
    24  Cl  -0.370151
 Sum of Mulliken charges =  -0.00000

 Dipole moment (field-independent basis, Debye):
    X=              4.5544    Y=              4.2878    Z=              0.0525  Tot=              6.2554

 Test job not archived.
 1\1\GINC-SE048\SP\RHF\Aug-CC-pVDZ\C9H11Cl1N2O1\OHZDE\08-Apr-2025\0\\#t
  hf aug-cc-pvdz iop(5/13=1,5/36=2,99/5=2) pseudo=read geom=check guess
 =(read,tcheck) scf=(maxcycle=1)\\title\\0,1\C,0,-2.128184,-1.120912,-0
 .050928\C,0,-0.742378,-0.992384,-0.052889\C,0,-2.938419,0.0063,0.00121
 9\C,0,-2.375912,1.27651,0.052367\C,0,-0.993763,1.406674,0.050278\C,0,-
 0.157903,0.280767,-0.001964\H,0,-0.109335,-1.864545,-0.087941\H,0,-2.5
 75601,-2.105878,-0.089686\H,0,-3.009243,2.153137,0.093213\H,0,-0.55847
 9,2.400751,0.089642\N,0,1.229739,0.51199,-0.006781\C,0,2.251946,-0.431

 Normal termination of Gaussian 16 at Tue Apr  8 23:11:32 2025.
