 Gaussian 16, Revision C.01,

 ----------------------------------------------------------------------
 #t hf aug-cc-pvdz symm=none int=(grid=ultrafine) guess=(read,tcheck) s
 table=opt
 ----------------------------------------------------------------------
 -----
 title
 -----
 Symbolic Z-matrix:
 Charge =  0 Multiplicity = 2

 SCF Done:  E(UHF) =  -442.413447975     A.U. after   20 cycles
 Normal termination of Gaussian 16 at Tue Apr  8 23:49:23 2025.
 Gaussian 16:  ES64L-G16RevC.01  3-Jul-2019

 ----------------------------------------------------------------------
 #t hf aug-cc-pvdz iop(5/13=1,5/36=2,99/5=2) pseudo=read geom=check gue
 ss=(read,tcheck) scf=(maxcycle=1)
 ----------------------------------------------------------------------
 -----
 title
 -----
 Structure from the checkpoint file:  "BDE49_nonexpt_1870_mol2.chk"
 Charge =  0 Multiplicity = 2

                         Standard orientation:
 ---------------------------------------------------------------------
 Center     Atomic      Atomic             Coordinates (Angstroms)
 Number     Number       Type             X           Y           Z
 ---------------------------------------------------------------------
      1         14           0        1.551288   -0.196339   -0.024997
      2          6           0       -0.038875    0.830521   -0.261606
      3          1           0        1.886039   -0.323288    1.416804
      4          1           0        1.409254   -1.539289   -0.638586
      5          6           0       -1.212256    0.146105    0.390551
      6          1           0        0.129899    1.811755    0.192699
      7          1           0       -0.229617    0.941382   -1.331323
      8          8           0       -2.015501   -0.536897   -0.194215
      9          1           0       -1.282816    0.293593    1.490415
 ---------------------------------------------------------------------

 SCF Done:  E(UHF) =  -442.482199614     A.U. after    2 cycles

 The electronic state is 2-A.
 Alpha  occ. eigenvalues --  -69.09105 -20.57637 -11.35373 -11.25396  -6.84427
 Alpha  occ. eigenvalues --   -3.95766  -3.94879  -3.94854  -1.36656  -1.01674
 Alpha  occ. eigenvalues --   -0.80781  -0.71092  -0.68558  -0.64348  -0.58390
 Alpha  occ. eigenvalues --   -0.56722  -0.49416  -0.47349  -0.44452  -0.33940
 Alpha virt. eigenvalues --    0.03060   0.04324   0.04710   0.05369   0.07103
 Alpha virt. eigenvalues --    0.07760   0.08389   0.09091   0.09587   0.12068
 Alpha virt. eigenvalues --    0.12923   0.14879   0.15051   0.15300   0.15827

  Beta  occ. eigenvalues --  -69.08533 -20.57327 -11.35422 -11.25380  -6.83563
  Beta  occ. eigenvalues --   -3.94484  -3.94456  -3.93596  -1.36015  -1.01234
  Beta  occ. eigenvalues --   -0.80534  -0.68945  -0.66616  -0.63894  -0.58037
  Beta  occ. eigenvalues --   -0.55318  -0.48573  -0.46559  -0.43460
  Beta virt. eigenvalues --    0.01926   0.03416   0.04516   0.05080   0.05854
  Beta virt. eigenvalues --    0.07277   0.08295   0.08947   0.09505   0.10306
  Beta virt. eigenvalues --    0.12123   0.14118   0.15220   0.15582   0.15604

 Mulliken charges and spin densities:
               1          2
     1  Si   0.397686   0.976652
     2  C   -0.190896  -0.012671
     3  H   -0.013402   0.008918
     4  H    0.001116   0.015916
     5  C    0.528717  -0.062792
     6  H   -0.046371   0.000704
     7  H   -0.100318  -0.002338
     8  O   -0.462351   0.072132
     9  H   -0.114181   0.003480
 Sum of Mulliken charges =  -0.00000   1.00000

 Dipole moment (field-independent basis, Debye):
    X=              2.4083    Y=              2.1574    Z=              1.0204  Tot=              3.3905
                          Isotropic Fermi Contact Couplings
        Atom                 a.u.       MegaHertz       Gauss      10(-4) cm-1
     1  Si(29)             0.55722    -495.21702    -176.70575    -165.18662
     2  C(13)              0.00792       8.89970       3.17563       2.96862
     3  H(1)               0.00192       8.57162       3.05857       2.85918
     4  H(1)               0.00407      18.19394       6.49205       6.06885
     5  C(13)              0.01235      13.88414       4.95420       4.63125
     6  H(1)               0.00070       3.11486       1.11146       1.03901
     7  H(1)               0.00076       3.41024       1.21686       1.13753
     8  O(17)              0.02601     -15.76638      -5.62584      -5.25910

 Normal termination of Gaussian 16 at Tue Apr  8 23:49:27 2025.
