 Gaussian 16, Revision C.01,

 ----------------------------------------------------------------------
 #t hf aug-cc-pvdz symm=none int=(grid=ultrafine) guess=(read,tcheck) s
 table=(opt,rrhf)
 ----------------------------------------------------------------------
 -----
 title
 -----
 Symbolic Z-matrix:
 Charge =  0 Multiplicity = 1

 SCF Done:  E(RHF) =  -716.343853037     A.U. after   16 cycles
 Normal termination of Gaussian 16 at Wed Apr  9 00:40:49 2025.
 Gaussian 16:  ES64L-G16RevC.01  3-Jul-2019

 ----------------------------------------------------------------------
 #t hf aug-cc-pvdz iop(5/13=1,5/36=2,99/5=2) pseudo=read geom=check gue
 ss=(read,tcheck) scf=(maxcycle=1)
 ----------------------------------------------------------------------
 -----
 title
 -----
 Structure from the checkpoint file:  "BDE49_nonexpt_666_mol1.chk"
 Charge =  0 Multiplicity = 1

                         Standard orientation:
 ---------------------------------------------------------------------
 Center     Atomic      Atomic             Coordinates (Angstroms)
 Number     Number       Type             X           Y           Z
 ---------------------------------------------------------------------
      1          9           0        1.047900    2.027792    0.000002
      2          9           0       -1.609730    2.113271   -0.000003
      3          8           0        3.186012   -1.694059    0.000004
      4          8           0        3.474207    0.634268    0.000006
      5          8           0       -3.947833   -1.206318    0.000003
      6          6           0        1.065540   -0.359409    0.000001
      7          6           0        0.374398    0.845993   -0.000000
      8          6           0       -1.013513    0.908095   -0.000003
      9          6           0       -1.769786   -0.261256   -0.000005
     10          6           0       -1.094563   -1.490492   -0.000004
     11          6           0        0.288788   -1.535281   -0.000001
     12          6           0       -3.255780   -0.214906   -0.000008
     13          5           0        2.643306   -0.444685    0.000004
     14          1           0       -1.693278   -2.392980   -0.000005
     15          1           0        0.804796   -2.486923   -0.000000
     16          1           0       -3.702030    0.795594    0.000003
     17          1           0        4.148911   -1.667431    0.000006
     18          1           0        3.011947    1.478009    0.000005
 ---------------------------------------------------------------------

 SCF Done:  E(RHF) =  -716.575344961     A.U. after    2 cycles

 The electronic state is 1-A.
 Alpha  occ. eigenvalues --  -26.17370 -26.17272 -20.59732 -20.59628 -20.59043
 Alpha  occ. eigenvalues --  -11.38123 -11.37555 -11.36639 -11.29207 -11.28106
 Alpha  occ. eigenvalues --  -11.27856 -11.27300  -7.68489  -1.71613  -1.70576
 Alpha  occ. eigenvalues --   -1.37658  -1.36237  -1.32541  -1.19437  -1.07580
 Alpha  occ. eigenvalues --   -1.06037  -0.94216  -0.91214  -0.85775  -0.83243
 Alpha  occ. eigenvalues --   -0.81349  -0.79857  -0.79681  -0.77639  -0.77617
 Alpha  occ. eigenvalues --   -0.75342  -0.73839  -0.69534  -0.68241  -0.66485
 Alpha  occ. eigenvalues --   -0.63691  -0.61557  -0.60997  -0.60197  -0.58252
 Alpha  occ. eigenvalues --   -0.56386  -0.53814  -0.52871  -0.52518  -0.46284
 Alpha  occ. eigenvalues --   -0.38485  -0.37497
 Alpha virt. eigenvalues --    0.02401   0.03145   0.04073   0.04433   0.05159
 Alpha virt. eigenvalues --    0.05223   0.06256   0.07252   0.08473   0.08879
 Alpha virt. eigenvalues --    0.09091   0.09492   0.10586   0.11819   0.12404

 Mulliken charges:
               1
     1  F   -0.373199
     2  F   -0.211659
     3  O   -0.513034
     4  O   -0.532339
     5  O   -0.491892
     6  C   -0.046114
     7  C    0.025687
     8  C   -0.146587
     9  C    0.907544
    10  C    0.595157
    11  C    0.435090
    12  C    0.721722
    13  B    0.707576
    14  H   -0.561336
    15  H   -0.649586
    16  H   -0.329573
    17  H    0.209262
    18  H    0.253282
 Sum of Mulliken charges =  -0.00000

 Dipole moment (field-independent basis, Debye):
    X=              2.3958    Y=              0.1011    Z=             -0.0000  Tot=              2.3979

 Test job not archived.
 1\1\GINC-SE435\SP\RHF\Aug-CC-pVDZ\C7H5B1F2O3\OHZDE\09-Apr-2025\0\\#t h
 f aug-cc-pvdz iop(5/13=1,5/36=2,99/5=2) pseudo=read geom=check guess=(
 read,tcheck) scf=(maxcycle=1)\\title\\0,1\F,0,1.0479,2.027792,0.000002
 \F,0,-1.60973,2.113271,-0.000003\O,0,3.186012,-1.694059,0.000004\O,0,3
 .474207,0.634268,0.000006\O,0,-3.947833,-1.206318,0.000003\C,0,1.06554
 ,-0.359409,0.000001\C,0,0.374398,0.845993,0.\C,0,-1.013513,0.908095,-0
 .000003\C,0,-1.769786,-0.261256,-0.000005\C,0,-1.094563,-1.490492,-0.0
 00004\C,0,0.288788,-1.535281,-0.000001\C,0,-3.25578,-0.214906,-0.00000

 Normal termination of Gaussian 16 at Wed Apr  9 00:41:01 2025.
