 Gaussian 16, Revision C.01,

 ----------------------------------------------------------------------
 #t hf aug-cc-pvdz symm=none int=(grid=ultrafine) guess=(read,tcheck) s
 table=opt
 ----------------------------------------------------------------------
 -----
 title
 -----
 Symbolic Z-matrix:
 Charge =  0 Multiplicity = 2

 SCF Done:  E(UHF) =  -632.323448576     A.U. after   26 cycles

 1\1\GINC-SE072\Stability\UHF\Aug-CC-pVDZ\C6H13S1\OHZDE\08-Apr-2025\0\\
 #t hf aug-cc-pvdz symm=none int=(grid=ultrafine) guess=(read,tcheck) s
 table=opt\\title\\0,2\S,0,-3.010598,-0.818982,-0.164581\C,0,-2.267504,
 0.765493,0.307077\C,0,-0.865811,1.041288,-0.241117\H,0,-2.292665,0.830
 165,1.40109\H,0,-2.984022,1.519184,-0.046564\C,0,0.211975,0.118461,0.3
 35843\H,0,-0.611588,2.085025,-0.014356\H,0,-0.885048,0.951042,-1.33236
 3\C,0,1.611183,0.391554,-0.225229\H,0,-0.065318,-0.922823,0.130873\H,0
 ,0.230715,0.224095,1.428721\C,0,2.692768,-0.527998,0.353355\H,0,1.8847

 Normal termination of Gaussian 16 at Tue Apr  8 22:53:22 2025.
 Gaussian 16:  ES64L-G16RevC.01  3-Jul-2019

 ----------------------------------------------------------------------
 #t hf aug-cc-pvdz iop(5/13=1,5/36=2,99/5=2) pseudo=read geom=check gue
 ss=(read,tcheck) scf=(maxcycle=1)
 ----------------------------------------------------------------------
 -----
 title
 -----
 Structure from the checkpoint file:  "BDE49_expt_1821_mol2.chk"
 Charge =  0 Multiplicity = 2

                         Standard orientation:
 ---------------------------------------------------------------------
 Center     Atomic      Atomic             Coordinates (Angstroms)
 Number     Number       Type             X           Y           Z
 ---------------------------------------------------------------------
      1         16           0       -3.010598   -0.818982   -0.164581
      2          6           0       -2.267504    0.765493    0.307077
      3          6           0       -0.865811    1.041288   -0.241117
      4          1           0       -2.292665    0.830165    1.401090
      5          1           0       -2.984022    1.519184   -0.046564
      6          6           0        0.211975    0.118461    0.335843
      7          1           0       -0.611588    2.085025   -0.014356
      8          1           0       -0.885048    0.951042   -1.332363
      9          6           0        1.611183    0.391554   -0.225229
     10          1           0       -0.065318   -0.922823    0.130873
     11          1           0        0.230715    0.224095    1.428721
     12          6           0        2.692768   -0.527998    0.353355
     13          1           0        1.884758    1.436905   -0.030460
     14          1           0        1.590236    0.281367   -1.317034
     15          6           0        4.087897   -0.251453   -0.213856
     16          1           0        2.419356   -1.571895    0.158517
     17          1           0        2.713720   -0.418008    1.444410
     18          1           0        4.107549   -0.387936   -1.299625
     19          1           0        4.834867   -0.922877    0.218254
     20          1           0        4.403960    0.775396   -0.004602
 ---------------------------------------------------------------------

 SCF Done:  E(UHF) =  -632.414970279     A.U. after    2 cycles

 The electronic state is 2-A.
 Alpha  occ. eigenvalues --  -93.54672 -11.27407 -11.23960 -11.23051 -11.22877
 Alpha  occ. eigenvalues --  -11.22814 -11.22298  -8.84378  -6.19736  -6.18052
 Alpha  occ. eigenvalues --   -6.17620  -1.09121  -1.05324  -0.99296  -0.92225
 Alpha  occ. eigenvalues --   -0.85147  -0.79463  -0.78500  -0.65702  -0.62847
 Alpha  occ. eigenvalues --   -0.61284  -0.59094  -0.55954  -0.55136  -0.53673
 Alpha  occ. eigenvalues --   -0.50478  -0.48981  -0.47109  -0.46690  -0.45968
 Alpha  occ. eigenvalues --   -0.45901  -0.41891  -0.36503
 Alpha virt. eigenvalues --    0.03482   0.03861   0.04416   0.04893   0.05721
 Alpha virt. eigenvalues --    0.06211   0.06601   0.07020   0.08037   0.08690
 Alpha virt. eigenvalues --    0.09137   0.09519   0.10752   0.11124   0.12063

  Beta  occ. eigenvalues --  -93.53774 -11.27536 -11.23955 -11.23044 -11.22877
  Beta  occ. eigenvalues --  -11.22815 -11.22298  -8.83379  -6.17515  -6.17070
  Beta  occ. eigenvalues --   -6.15800  -1.08715  -1.04655  -0.98020  -0.90070
  Beta  occ. eigenvalues --   -0.82951  -0.79225  -0.75698  -0.65509  -0.61689
  Beta  occ. eigenvalues --   -0.61042  -0.58807  -0.55820  -0.54633  -0.53336
  Beta  occ. eigenvalues --   -0.50086  -0.48763  -0.47031  -0.46633  -0.45574
  Beta  occ. eigenvalues --   -0.44989  -0.34304
  Beta virt. eigenvalues --    0.02262   0.03498   0.03893   0.04524   0.04914
  Beta virt. eigenvalues --    0.05792   0.06227   0.06692   0.07096   0.08064
  Beta virt. eigenvalues --    0.08722   0.09216   0.09685   0.10808   0.11340

 Mulliken charges and spin densities:
               1          2
     1  S    0.214513   1.097958
     2  C    0.244233  -0.120270
     3  C    0.253831  -0.002795
     4  H   -0.106859   0.012352
     5  H   -0.028492   0.025122
     6  C    0.057576   0.002429
     7  H   -0.121055   0.002243
     8  H   -0.162638  -0.002293
     9  C    0.042846  -0.006395
    10  H   -0.193728   0.001330
    11  H   -0.173822  -0.001476
    12  C    0.338270  -0.005931
    13  H   -0.187097  -0.000014
    14  H   -0.178278  -0.001247
    15  C    0.532018  -0.000193
    16  H   -0.145660  -0.000693
    17  H   -0.150651  -0.000108
    18  H   -0.084980   0.000041
    19  H   -0.062584  -0.000041
    20  H   -0.087443  -0.000020
 Sum of Mulliken charges =  -0.00000   1.00000

 Dipole moment (field-independent basis, Debye):
    X=              0.9680    Y=              1.4937    Z=              0.4068  Tot=              1.8258
                          Isotropic Fermi Contact Couplings
        Atom                 a.u.       MegaHertz       Gauss      10(-4) cm-1
     1  S(33)              0.18716      64.28477      22.93840      21.44309
     2  C(13)             -0.02742     -30.82556     -10.99933     -10.28230
     3  C(13)              0.00007       0.07731       0.02759       0.02579
     4  H(1)               0.00882      39.42719      14.06860      13.15149
     5  H(1)               0.01533      68.50170      24.44311      22.84971
     6  C(13)             -0.00010      -0.11608      -0.04142      -0.03872
     7  H(1)              -0.00072      -3.19675      -1.14068      -1.06632
     8  H(1)              -0.00030      -1.32893      -0.47419      -0.44328

 Normal termination of Gaussian 16 at Tue Apr  8 22:53:32 2025.
