 Gaussian 16, Revision C.01,

 ----------------------------------------------------------------------
 #t hf aug-cc-pvdz symm=none int=(grid=ultrafine) guess=(read,tcheck) s
 table=(opt,rrhf)
 ----------------------------------------------------------------------
 -----
 title
 -----
 Symbolic Z-matrix:
 Charge =  0 Multiplicity = 1

 SCF Done:  E(RHF) =  -305.927064461     A.U. after   13 cycles
 Normal termination of Gaussian 16 at Tue Apr  8 22:41:43 2025.
 Gaussian 16:  ES64L-G16RevC.01  3-Jul-2019

 ----------------------------------------------------------------------
 #t hf aug-cc-pvdz iop(5/13=1,5/36=2,99/5=2) pseudo=read geom=check gue
 ss=(read,tcheck) scf=(maxcycle=1)
 ----------------------------------------------------------------------
 -----
 title
 -----
 Structure from the checkpoint file:  "BDE49_expt_1445_mol1.chk"
 Charge =  0 Multiplicity = 1

                         Standard orientation:
 ---------------------------------------------------------------------
 Center     Atomic      Atomic             Coordinates (Angstroms)
 Number     Number       Type             X           Y           Z
 ---------------------------------------------------------------------
      1          6           0        0.974489    0.102291   -0.075606
      2          8           0        2.120227   -0.404130    0.444561
      3          8           0        0.883401    1.247518   -0.438442
      4          1           0        2.766740    0.317450    0.437026
      5          6           0       -0.108351   -0.951311   -0.150095
      6          6           0       -1.487316   -0.396020   -0.515220
      7          1           0       -0.128517   -1.485281    0.805570
      8          1           0        0.226523   -1.686389   -0.891184
      9          6           0       -2.125792    0.440485    0.597633
     10          1           0       -2.140636   -1.238962   -0.762073
     11          1           0       -1.394858    0.209109   -1.421269
     12          1           0       -2.242956   -0.145324    1.515239
     13          1           0       -3.117164    0.792534    0.301039
     14          1           0       -1.516339    1.317093    0.826429
 ---------------------------------------------------------------------

 SCF Done:  E(RHF) =  -306.025598095     A.U. after    2 cycles

 The electronic state is 1-A.
 Alpha  occ. eigenvalues --  -20.62578 -20.56647 -11.40047 -11.25746 -11.23949
 Alpha  occ. eigenvalues --  -11.22434  -1.42629  -1.32827  -1.07413  -0.97252
 Alpha  occ. eigenvalues --   -0.86181  -0.78929  -0.71984  -0.70224  -0.66757
 Alpha  occ. eigenvalues --   -0.62322  -0.60254  -0.57643  -0.56190  -0.50983
 Alpha  occ. eigenvalues --   -0.49659  -0.49330  -0.48825  -0.46407
 Alpha virt. eigenvalues --    0.03364   0.04213   0.04706   0.05142   0.06480
 Alpha virt. eigenvalues --    0.07228   0.07707   0.08015   0.11342   0.11984
 Alpha virt. eigenvalues --    0.13316   0.14551   0.14806   0.14990   0.15465

 Mulliken charges:
               1
     1  C    0.443531
     2  O   -0.495075
     3  O   -0.477420
     4  H    0.178426
     5  C    0.077089
     6  C    0.309367
     7  H   -0.014783
     8  H    0.028526
     9  C    0.345920
    10  H   -0.071434
    11  H   -0.094771
    12  H   -0.074241
    13  H   -0.070904
    14  H   -0.084232
 Sum of Mulliken charges =   0.00000

 Dipole moment (field-independent basis, Debye):
    X=             -0.1036    Y=             -1.7630    Z=              0.4185  Tot=              1.8149

 Test job not archived.
 1\1\GINC-SE250\SP\RHF\Aug-CC-pVDZ\C4H8O2\OHZDE\08-Apr-2025\0\\#t hf au
 g-cc-pvdz iop(5/13=1,5/36=2,99/5=2) pseudo=read geom=check guess=(read
 ,tcheck) scf=(maxcycle=1)\\title\\0,1\C,0,0.974489,0.102291,-0.075606\
 O,0,2.120227,-0.40413,0.444561\O,0,0.883401,1.247518,-0.438442\H,0,2.7
 6674,0.31745,0.437026\C,0,-0.108351,-0.951311,-0.150095\C,0,-1.487316,
 -0.39602,-0.51522\H,0,-0.128517,-1.485281,0.80557\H,0,0.226523,-1.6863
 89,-0.891184\C,0,-2.125792,0.440485,0.597633\H,0,-2.140636,-1.238962,-
 0.762073\H,0,-1.394858,0.209109,-1.421269\H,0,-2.242956,-0.145324,1.51

 Normal termination of Gaussian 16 at Tue Apr  8 22:41:47 2025.
