 Gaussian 16, Revision C.01,

 ----------------------------------------------------------------------
 #t hf aug-cc-pvdz symm=none int=(grid=ultrafine) guess=(read,tcheck) s
 table=(opt,rrhf)
 ----------------------------------------------------------------------
 -----
 title
 -----
 Symbolic Z-matrix:
 Charge =  0 Multiplicity = 1

 SCF Done:  E(RHF) =  -525.496373230     A.U. after   12 cycles
 Normal termination of Gaussian 16 at Tue Apr  8 23:11:12 2025.
 Gaussian 16:  ES64L-G16RevC.01  3-Jul-2019

 ----------------------------------------------------------------------
 #t hf aug-cc-pvdz iop(5/13=1,5/36=2,99/5=2) pseudo=read geom=check gue
 ss=(read,tcheck) scf=(maxcycle=1)
 ----------------------------------------------------------------------
 -----
 title
 -----
 Structure from the checkpoint file:  "BDE49_expt_801_mol1.chk"
 Charge =  0 Multiplicity = 1

                         Standard orientation:
 ---------------------------------------------------------------------
 Center     Atomic      Atomic             Coordinates (Angstroms)
 Number     Number       Type             X           Y           Z
 ---------------------------------------------------------------------
      1         14           0       -0.000000   -0.396879   -0.386594
      2          6           0        0.000000    1.474569   -0.677281
      3          6           0        0.000000    2.342799    0.593936
      4          1           0        0.000000    3.409893    0.351892
      5          1           0        0.880976    2.151656    1.213944
      6          1           0       -0.880976    2.151656    1.213944
      7          1           0       -0.871338    1.721031   -1.295833
      8          1           0        0.871338    1.721031   -1.295833
      9          6           0       -1.547351   -0.952297    0.551483
     10          6           0       -2.882882   -0.635749   -0.145051
     11          1           0       -2.934421   -1.094346   -1.137015
     12          1           0       -3.024097    0.440993   -0.276892
     13          1           0       -3.735911   -1.006458    0.431369
     14          1           0       -1.532680   -0.501522    1.551603
     15          1           0       -1.464461   -2.033599    0.716602
     16          6           0        1.547351   -0.952296    0.551483
     17          1           0       -0.000000   -1.056755   -1.724252
     18          6           0        2.882882   -0.635749   -0.145051
     19          1           0        3.024097    0.440993   -0.276892
     20          1           0        2.934421   -1.094346   -1.137015
     21          1           0        3.735911   -1.006458    0.431369
     22          1           0        1.464461   -2.033599    0.716602
     23          1           0        1.532680   -0.501522    1.551603
 ---------------------------------------------------------------------

 SCF Done:  E(RHF) =  -525.598382579     A.U. after    2 cycles

 The electronic state is 1-A.
 Alpha  occ. eigenvalues --  -69.03750 -11.22782 -11.22635 -11.22634 -11.21250
 Alpha  occ. eigenvalues --  -11.21246 -11.21213  -6.79070  -3.89839  -3.89817
 Alpha  occ. eigenvalues --   -3.89812  -1.01971  -1.00014  -0.99859  -0.85256
 Alpha  occ. eigenvalues --   -0.83341  -0.82276  -0.64664  -0.61293  -0.61077
 Alpha  occ. eigenvalues --   -0.59159  -0.57290  -0.56976  -0.54295  -0.52386
 Alpha  occ. eigenvalues --   -0.50805  -0.50063  -0.49626  -0.49219  -0.48314
 Alpha  occ. eigenvalues --   -0.43016  -0.40298  -0.40278
 Alpha virt. eigenvalues --    0.03193   0.04143   0.04327   0.04644   0.05864
 Alpha virt. eigenvalues --    0.06207   0.06427   0.06529   0.06651   0.08301
 Alpha virt. eigenvalues --    0.08484   0.08708   0.08991   0.09794   0.09854

 Mulliken charges:
               1
     1  Si   0.684494
     2  C    0.281816
     3  C    0.340527
     4  H   -0.104845
     5  H   -0.142869
     6  H   -0.142869
     7  H   -0.292885
     8  H   -0.292885
     9  C    0.262917
    10  C    0.253348
    11  H   -0.107924
    12  H   -0.148253
    13  H   -0.084693
    14  H   -0.144008
    15  H   -0.283123
    16  C    0.262915
    17  H    0.172988
    18  C    0.253348
    19  H   -0.148253
    20  H   -0.107924
    21  H   -0.084693
    22  H   -0.283119
    23  H   -0.144010
 Sum of Mulliken charges =  -0.00000

 Dipole moment (field-independent basis, Debye):
    X=              0.0000    Y=              0.2065    Z=              0.5355  Tot=              0.5739

 Test job not archived.
 1\1\GINC-SE102\SP\RHF\Aug-CC-pVDZ\C6H16Si1\OHZDE\08-Apr-2025\0\\#t hf
 aug-cc-pvdz iop(5/13=1,5/36=2,99/5=2) pseudo=read geom=check guess=(re
 ad,tcheck) scf=(maxcycle=1)\\title\\0,1\Si,0,0.,-0.396879,0.386594\C,0
 ,0.,1.474569,0.677281\C,0,0.,2.342799,-0.593936\H,0,0.,3.409893,-0.351
 892\H,0,-0.880976,2.151656,-1.213944\H,0,0.880976,2.151656,-1.213944\H
 ,0,0.871338,1.721031,1.295833\H,0,-0.871338,1.721031,1.295833\C,0,1.54
 7351,-0.952297,-0.551483\C,0,2.882882,-0.635749,0.145051\H,0,2.934421,
 -1.094346,1.137015\H,0,3.024097,0.440993,0.276892\H,0,3.735911,-1.0064

 Normal termination of Gaussian 16 at Tue Apr  8 23:11:23 2025.
