 Gaussian 16, Revision C.01,

 ----------------------------------------------------------------------
 #t hf aug-cc-pvdz symm=none int=(grid=ultrafine) guess=(read,tcheck) s
 table=opt
 ----------------------------------------------------------------------
 -----
 title
 -----
 Symbolic Z-matrix:
 Charge =  0 Multiplicity = 2

 SCF Done:  E(UHF) =  -103.846415202     A.U. after   16 cycles
 Normal termination of Gaussian 16 at Wed Apr  9 00:25:42 2025.
 Gaussian 16:  ES64L-G16RevC.01  3-Jul-2019

 ----------------------------------------------------------------------
 #t hf aug-cc-pvdz iop(5/13=1,5/36=2,99/5=2) pseudo=read geom=check gue
 ss=(read,tcheck) scf=(maxcycle=1)
 ----------------------------------------------------------------------
 -----
 title
 -----
 Structure from the checkpoint file:  "BDE49_nonexpt_2_mol2.chk"
 Charge =  0 Multiplicity = 2

                         Standard orientation:
 ---------------------------------------------------------------------
 Center     Atomic      Atomic             Coordinates (Angstroms)
 Number     Number       Type             X           Y           Z
 ---------------------------------------------------------------------
      1          5           0        1.525439   -0.248684   -0.092168
      2          6           0        0.202541    0.535796    0.013853
      3          6           0       -1.118956   -0.263275   -0.010967
      4          1           0        0.321558    1.023215    1.002428
      5          1           0        0.164000    1.377669   -0.687581
      6          1           0       -1.116642   -1.055213    0.741868
      7          1           0       -1.271609   -0.735194   -0.984918
      8          1           0       -1.980399    0.383378    0.180262
      9          1           0        1.754393   -1.385560    0.191466
 ---------------------------------------------------------------------

 SCF Done:  E(UHF) =  -103.880313562     A.U. after    2 cycles

 The electronic state is 2-A.
 Alpha  occ. eigenvalues --  -11.23234 -11.22161  -7.63218  -1.02034  -0.85923
 Alpha  occ. eigenvalues --   -0.66073  -0.60474  -0.56666  -0.53307  -0.49928
 Alpha  occ. eigenvalues --   -0.46988  -0.31849
 Alpha virt. eigenvalues --    0.03340   0.04216   0.04821   0.05256   0.06566
 Alpha virt. eigenvalues --    0.06915   0.07450   0.07838   0.10906   0.11377
 Alpha virt. eigenvalues --    0.13121   0.14302   0.15197   0.17216   0.17345

  Beta  occ. eigenvalues --  -11.23090 -11.22188  -7.61440  -1.01510  -0.85244
  Beta  occ. eigenvalues --   -0.63161  -0.60202  -0.54930  -0.52075  -0.49659
  Beta  occ. eigenvalues --   -0.46147
  Beta virt. eigenvalues --    0.03355   0.04425   0.04656   0.04952   0.06954
  Beta virt. eigenvalues --    0.07056   0.07342   0.07683   0.10247   0.11690
  Beta virt. eigenvalues --    0.12822   0.13786   0.15069   0.15528   0.17284

 Mulliken charges and spin densities:
               1          2
     1  B   -0.250188   1.023946
     2  C    0.199025  -0.047573
     3  C    0.213012   0.038928
     4  H   -0.109434  -0.013665
     5  H   -0.157060  -0.003950
     6  H   -0.094826  -0.000497
     7  H   -0.088960  -0.003414
     8  H   -0.055523   0.006183
     9  H    0.343954   0.000042
 Sum of Mulliken charges =  -0.00000   1.00000

 Dipole moment (field-independent basis, Debye):
    X=             -0.9561    Y=              0.1134    Z=              0.2192  Tot=              0.9874
                          Isotropic Fermi Contact Couplings
        Atom                 a.u.       MegaHertz       Gauss      10(-4) cm-1
     1  B(11)              0.25447     365.00446     130.24267     121.75238
     2  C(13)              0.00481       5.40242       1.92772       1.80205
     3  C(13)              0.03432      38.57752      13.76542      12.86808
     4  H(1)              -0.00122      -5.46803      -1.95113      -1.82394
     5  H(1)               0.00578      25.81520       9.21150       8.61102
     6  H(1)              -0.00074      -3.32407      -1.18611      -1.10879
     7  H(1)              -0.00092      -4.09470      -1.46109      -1.36585
     8  H(1)               0.00169       7.55097       2.69437       2.51873

 Normal termination of Gaussian 16 at Wed Apr  9 00:25:45 2025.
