 Gaussian 16, Revision C.01,

 ----------------------------------------------------------------------
 #t hf aug-cc-pvdz symm=none int=(grid=ultrafine) guess=(read,tcheck) s
 table=(opt,rrhf)
 ----------------------------------------------------------------------
 -----
 title
 -----
 Symbolic Z-matrix:
 Charge =  0 Multiplicity = 1

 SCF Done:  E(RHF) =  -734.994885127     A.U. after   15 cycles
 Normal termination of Gaussian 16 at Wed Apr  9 00:48:24 2025.
 Gaussian 16:  ES64L-G16RevC.01  3-Jul-2019

 ----------------------------------------------------------------------
 #t hf aug-cc-pvdz iop(5/13=1,5/36=2,99/5=2) pseudo=read geom=check gue
 ss=(read,tcheck) scf=(maxcycle=1)
 ----------------------------------------------------------------------
 -----
 title
 -----
 Structure from the checkpoint file:  "BDE49_nonexpt_851_mol1.chk"
 Charge =  0 Multiplicity = 1

                         Standard orientation:
 ---------------------------------------------------------------------
 Center     Atomic      Atomic             Coordinates (Angstroms)
 Number     Number       Type             X           Y           Z
 ---------------------------------------------------------------------
      1          6           0        2.382185   -1.236420    0.715197
      2          6           0        1.320729   -0.439063    1.145189
      3          6           0        3.117932   -0.876685   -0.411127
      4          6           0        2.784749    0.288629   -1.099882
      5          6           0        1.723463    1.081225   -0.671999
      6          6           0        0.970446    0.733996    0.458917
      7          1           0        0.768810   -0.718255    2.037449
      8          5           0       -2.256037   -0.751967   -0.210669
      9          8           0       -3.575096   -1.069509   -0.337840
     10          8           0       -1.351449   -1.775810   -0.186103
     11          1           0        2.637076   -2.133795    1.268235
     12          1           0        3.354258    0.582512   -1.974718
     13          1           0        3.944504   -1.493039   -0.744963
     14          1           0        1.475098    1.985266   -1.218340
     15          6           0       -0.202546    1.572386    0.899879
     16          1           0       -0.432484   -1.498627   -0.091481
     17          1           0       -3.708836   -2.023916   -0.411958
     18         14           0       -1.791150    1.233461   -0.113661
     19          1           0        0.030474    2.637797    0.808300
     20          1           0       -0.425989    1.388078    1.955100
     21          1           0       -1.558417    1.756001   -1.487741
     22          1           0       -2.897609    2.027488    0.479217
 ---------------------------------------------------------------------

 SCF Done:  E(RHF) =  -735.155925703     A.U. after    2 cycles

 The electronic state is 1-A.
 Alpha  occ. eigenvalues --  -69.04724 -20.58100 -20.57923 -11.26733 -11.25673
 Alpha  occ. eigenvalues --  -11.25526 -11.25063 -11.24908 -11.24871 -11.23339
 Alpha  occ. eigenvalues --   -7.65796  -6.80155  -3.90920  -3.90913  -3.90852
 Alpha  occ. eigenvalues --   -1.34301  -1.30504  -1.15440  -1.04716  -1.01808
 Alpha  occ. eigenvalues --   -0.93440  -0.83835  -0.81022  -0.78364  -0.75231
 Alpha  occ. eigenvalues --   -0.70837  -0.67942  -0.65092  -0.64504  -0.61541
 Alpha  occ. eigenvalues --   -0.59876  -0.58776  -0.58584  -0.58163  -0.55715
 Alpha  occ. eigenvalues --   -0.53094  -0.51890  -0.50385  -0.50087  -0.46388
 Alpha  occ. eigenvalues --   -0.45658  -0.41164  -0.35190  -0.32953
 Alpha virt. eigenvalues --    0.03005   0.03815   0.03891   0.04596   0.05424
 Alpha virt. eigenvalues --    0.05482   0.06194   0.06937   0.07462   0.07484
 Alpha virt. eigenvalues --    0.07904   0.08939   0.09247   0.09551   0.10066

 Mulliken charges:
               1
     1  C    0.141131
     2  C    0.707406
     3  C    0.693933
     4  C    0.171990
     5  C    0.660088
     6  C    0.476451
     7  H   -0.673824
     8  B    0.983663
     9  O   -0.529921
    10  O   -0.517328
    11  H   -0.460113
    12  H   -0.459902
    13  H   -0.439672
    14  H   -0.654188
    15  C    0.200692
    16  H    0.257624
    17  H    0.190200
    18  Si  -0.361340
    19  H   -0.347864
    20  H   -0.303094
    21  H    0.149634
    22  H    0.114434
 Sum of Mulliken charges =   0.00000

 Dipole moment (field-independent basis, Debye):
    X=              1.8894    Y=             -0.3230    Z=              0.4743  Tot=              1.9746

 Test job not archived.
 1\1\GINC-SE338\SP\RHF\Aug-CC-pVDZ\C7H11B1O2Si1\OHZDE\09-Apr-2025\0\\#t
  hf aug-cc-pvdz iop(5/13=1,5/36=2,99/5=2) pseudo=read geom=check guess
 =(read,tcheck) scf=(maxcycle=1)\\title\\0,1\C,0,2.382185,-1.23642,0.71
 5197\C,0,1.320729,-0.439063,1.145189\C,0,3.117932,-0.876685,-0.411127\
 C,0,2.784749,0.288629,-1.099882\C,0,1.723463,1.081225,-0.671999\C,0,0.
 970446,0.733996,0.458917\H,0,0.76881,-0.718255,2.037449\B,0,-2.256037,
 -0.751967,-0.210669\O,0,-3.575096,-1.069509,-0.33784\O,0,-1.351449,-1.
 77581,-0.186103\H,0,2.637076,-2.133795,1.268235\H,0,3.354258,0.582512,

 Normal termination of Gaussian 16 at Wed Apr  9 00:48:37 2025.
