 Gaussian 16, Revision C.01,

 ----------------------------------------------------------------------
 #t hf aug-cc-pvdz symm=none int=(grid=ultrafine) guess=(read,tcheck) s
 table=(opt,rrhf)
 ----------------------------------------------------------------------
 -----
 title
 -----
 Symbolic Z-matrix:
 Charge =  0 Multiplicity = 1

 SCF Done:  E(RHF) =  -513.437018124     A.U. after   12 cycles
 Normal termination of Gaussian 16 at Tue Apr  8 23:35:17 2025.
 Gaussian 16:  ES64L-G16RevC.01  3-Jul-2019

 ----------------------------------------------------------------------
 #t hf aug-cc-pvdz iop(5/13=1,5/36=2,99/5=2) pseudo=read geom=check gue
 ss=(read,tcheck) scf=(maxcycle=1)
 ----------------------------------------------------------------------
 -----
 title
 -----
 Structure from the checkpoint file:  "BDE49_nonexpt_1531_mol1.chk"
 Charge =  0 Multiplicity = 1

                         Standard orientation:
 ---------------------------------------------------------------------
 Center     Atomic      Atomic             Coordinates (Angstroms)
 Number     Number       Type             X           Y           Z
 ---------------------------------------------------------------------
      1          7           0       -2.141275    0.545170    0.122323
      2          6           0        0.642853    0.073042    0.518319
      3          6           0        1.605078    0.894412   -0.315576
      4          6           0        1.965283   -0.513710    0.057758
      5          1           0        1.940895   -1.265406   -0.723508
      6          1           0        2.731388   -0.672823    0.807063
      7          1           0        2.128068    1.707432    0.174132
      8          1           0        1.339896    1.089764   -1.349072
      9         15           0       -0.890347   -0.560162   -0.271230
     10          1           0        0.586288    0.333621    1.572337
     11          1           0       -1.182939   -1.530839    0.720252
     12          1           0       -2.325104    1.233188   -0.594105
     13          1           0       -2.153644    0.968835    1.042076
 ---------------------------------------------------------------------

 SCF Done:  E(RHF) =  -513.519062880     A.U. after    2 cycles

 The electronic state is 1-A.
 Alpha  occ. eigenvalues --  -81.26836 -15.61314 -11.24322 -11.24206 -11.24114
 Alpha  occ. eigenvalues --   -7.76800  -4.90915  -4.90728  -4.90448  -1.13327
 Alpha  occ. eigenvalues --   -1.11145  -0.84265  -0.82523  -0.73901  -0.67201
 Alpha  occ. eigenvalues --   -0.65974  -0.62010  -0.54830  -0.52177  -0.51231
 Alpha  occ. eigenvalues --   -0.44556  -0.42215  -0.38716  -0.33774
 Alpha virt. eigenvalues --    0.03318   0.04226   0.04620   0.05180   0.06511
 Alpha virt. eigenvalues --    0.07159   0.07230   0.08056   0.10227   0.11294
 Alpha virt. eigenvalues --    0.12217   0.13061   0.13708   0.14695   0.15484

 Mulliken charges:
               1
     1  N   -0.494324
     2  C    0.285385
     3  C    0.700195
     4  C    0.621520
     5  H   -0.341994
     6  H   -0.309480
     7  H   -0.322318
     8  H   -0.354524
     9  P    0.623186
    10  H   -0.460936
    11  H    0.041114
    12  H    0.037742
    13  H   -0.025565
 Sum of Mulliken charges =   0.00000

 Dipole moment (field-independent basis, Debye):
    X=              0.7853    Y=              1.5383    Z=              1.1291  Tot=              2.0635

 Test job not archived.
 1\1\GINC-SE069\SP\RHF\Aug-CC-pVDZ\C3H8N1P1\OHZDE\08-Apr-2025\0\\#t hf
 aug-cc-pvdz iop(5/13=1,5/36=2,99/5=2) pseudo=read geom=check guess=(re
 ad,tcheck) scf=(maxcycle=1)\\title\\0,1\N,0,-2.141275,0.54517,0.122323
 \C,0,0.642853,0.073042,0.518319\C,0,1.605078,0.894412,-0.315576\C,0,1.
 965283,-0.51371,0.057758\H,0,1.940895,-1.265406,-0.723508\H,0,2.731388
 ,-0.672823,0.807063\H,0,2.128068,1.707432,0.174132\H,0,1.339896,1.0897
 64,-1.349072\P,0,-0.890347,-0.560162,-0.27123\H,0,0.586288,0.333621,1.
 572337\H,0,-1.182939,-1.530839,0.720252\H,0,-2.325104,1.233188,-0.5941

 Normal termination of Gaussian 16 at Tue Apr  8 23:35:20 2025.
