 Gaussian 16, Revision C.01,

 ----------------------------------------------------------------------
 #t hf aug-cc-pvdz symm=none int=(grid=ultrafine) guess=(read,tcheck) s
 table=opt
 ----------------------------------------------------------------------
 -----
 title
 -----
 Symbolic Z-matrix:
 Charge =  0 Multiplicity = 2

 SCF Done:  E(UHF) =  -591.776888607     A.U. after   19 cycles
 Normal termination of Gaussian 16 at Tue Apr  8 23:29:05 2025.
 Gaussian 16:  ES64L-G16RevC.01  3-Jul-2019

 ----------------------------------------------------------------------
 #t hf aug-cc-pvdz iop(5/13=1,5/36=2,99/5=2) pseudo=read geom=check gue
 ss=(read,tcheck) scf=(maxcycle=1)
 ----------------------------------------------------------------------
 -----
 title
 -----
 Structure from the checkpoint file:  "BDE49_nonexpt_136_mol2.chk"
 Charge =  0 Multiplicity = 2

                         Standard orientation:
 ---------------------------------------------------------------------
 Center     Atomic      Atomic             Coordinates (Angstroms)
 Number     Number       Type             X           Y           Z
 ---------------------------------------------------------------------
      1          5           0        1.496598   -0.299612   -1.117809
      2         15           0        0.060474   -0.017695    0.034204
      3          8           0       -0.814468    1.295867   -0.263920
      4          8           0       -1.129224   -1.053735   -0.241843
      5          1           0       -0.380871    2.090975    0.067825
      6          1           0       -0.835601   -1.967003   -0.142129
      7          8           0        0.748812   -0.079808    1.344326
      8          1           0        2.385419    0.340913   -1.558208
 ---------------------------------------------------------------------

 SCF Done:  E(UHF) =  -591.921281155     A.U. after    2 cycles

 The electronic state is 2-A.
 Alpha  occ. eigenvalues --  -81.41661 -20.62414 -20.62318 -20.53408  -7.90139
 Alpha  occ. eigenvalues --   -7.68610  -5.04808  -5.04681  -5.04288  -1.38934
 Alpha  occ. eigenvalues --   -1.35386  -1.26350  -0.86986  -0.77560  -0.72793
 Alpha  occ. eigenvalues --   -0.67960  -0.65789  -0.63540  -0.59496  -0.58744
 Alpha  occ. eigenvalues --   -0.53267  -0.50091  -0.46677  -0.37008
 Alpha virt. eigenvalues --    0.01704   0.03275   0.04035   0.04900   0.06907
 Alpha virt. eigenvalues --    0.07727   0.09853   0.10188   0.11520   0.12070
 Alpha virt. eigenvalues --    0.13529   0.15645   0.18030   0.20185   0.21181

  Beta  occ. eigenvalues --  -81.41666 -20.62348 -20.62264 -20.53335  -7.90144
  Beta  occ. eigenvalues --   -7.66820  -5.04813  -5.04690  -5.04291  -1.38782
  Beta  occ. eigenvalues --   -1.35198  -1.26164  -0.86665  -0.74636  -0.72655
  Beta  occ. eigenvalues --   -0.67099  -0.65349  -0.62062  -0.59138  -0.58144
  Beta  occ. eigenvalues --   -0.52830  -0.48985  -0.45763
  Beta virt. eigenvalues --    0.02394   0.03058   0.03677   0.04796   0.06112
  Beta virt. eigenvalues --    0.07827   0.08603   0.10062   0.10330   0.11677
  Beta virt. eigenvalues --    0.12327   0.14987   0.15918   0.19071   0.20386

 Mulliken charges and spin densities:
               1          2
     1  B   -0.470714   1.034164
     2  P    2.090919  -0.003295
     3  O   -0.697797   0.015255
     4  O   -0.682281  -0.003969
     5  H    0.150659  -0.009577
     6  H    0.166909  -0.006108
     7  O   -0.946668   0.013302
     8  H    0.388974  -0.039771
 Sum of Mulliken charges =   0.00000   1.00000

 Dipole moment (field-independent basis, Debye):
    X=              0.6940    Y=              0.1964    Z=             -2.9645  Tot=              3.0510
                          Isotropic Fermi Contact Couplings
        Atom                 a.u.       MegaHertz       Gauss      10(-4) cm-1
     1  B(11)              0.23006     329.99463     117.75029     110.07436
     2  P(31)             -0.00993     -17.99195      -6.41997      -6.00147
     3  O(17)              0.02134     -12.93916      -4.61702      -4.31604
     4  O(17)             -0.00736       4.46221       1.59223       1.48843
     5  H(1)              -0.00066      -2.96983      -1.05971      -0.99063
     6  H(1)               0.00012       0.54484       0.19441       0.18174
     7  O(17)              0.00532      -3.22665      -1.15135      -1.07629
     8  H(1)              -0.00899     -40.16336     -14.33129     -13.39706

 Normal termination of Gaussian 16 at Tue Apr  8 23:29:08 2025.
