 Gaussian 16, Revision C.01,

 ----------------------------------------------------------------------
 #t hf aug-cc-pvdz symm=none int=(grid=ultrafine) guess=(read,tcheck) s
 table=(opt,rrhf)
 ----------------------------------------------------------------------
 -----
 title
 -----
 Symbolic Z-matrix:
 Charge =  0 Multiplicity = 1

 SCF Done:  E(RHF) =  -636.334354629     A.U. after   16 cycles
 Normal termination of Gaussian 16 at Wed Apr  9 00:42:03 2025.
 Gaussian 16:  ES64L-G16RevC.01  3-Jul-2019

 ----------------------------------------------------------------------
 #t hf aug-cc-pvdz iop(5/13=1,5/36=2,99/5=2) pseudo=read geom=check gue
 ss=(read,tcheck) scf=(maxcycle=1)
 ----------------------------------------------------------------------
 -----
 title
 -----
 Structure from the checkpoint file:  "BDE49_nonexpt_713_mol1.chk"
 Charge =  0 Multiplicity = 1

                         Standard orientation:
 ---------------------------------------------------------------------
 Center     Atomic      Atomic             Coordinates (Angstroms)
 Number     Number       Type             X           Y           Z
 ---------------------------------------------------------------------
      1          6           0        0.313856   -0.278039    0.499350
      2          6           0        1.160675   -1.261308   -0.022011
      3          6           0        2.434404   -0.935862   -0.484183
      4          6           0        2.883606    0.380672   -0.427349
      5          6           0        2.049969    1.368584    0.095706
      6          6           0        0.777071    1.041555    0.552284
      7          5           0       -2.876733    1.324758   -0.574934
      8          1           0        3.076371   -1.712977   -0.883981
      9          1           0        3.875120    0.635601   -0.783658
     10          1           0        2.393311    2.395745    0.150178
     11          1           0        0.134248    1.818070    0.954407
     12          1           0        0.822245   -2.291976   -0.062746
     13          6           0       -1.069416   -0.637445    0.983105
     14         15           0       -2.443710   -0.441974   -0.272280
     15          1           0       -2.862507    2.098707    0.329687
     16          1           0       -3.352591    1.624362   -1.622736
     17          1           0       -1.366333   -0.011415    1.828914
     18          1           0       -1.093621   -1.672601    1.330509
     19          1           0       -1.887920   -0.946623   -1.463112
 ---------------------------------------------------------------------

 SCF Done:  E(RHF) =  -636.441765658     A.U. after    2 cycles

 The electronic state is 1-A.
 Alpha  occ. eigenvalues --  -81.24136 -11.26069 -11.25998 -11.24988 -11.24973
 Alpha  occ. eigenvalues --  -11.24608 -11.24572 -11.24532  -7.74890  -7.62266
 Alpha  occ. eigenvalues --   -4.88964  -4.88957  -4.88639  -1.15059  -1.04904
 Alpha  occ. eigenvalues --   -1.01369  -0.94630  -0.83454  -0.81639  -0.77779
 Alpha  occ. eigenvalues --   -0.70475  -0.65991  -0.64547  -0.64322  -0.59536
 Alpha  occ. eigenvalues --   -0.58666  -0.56773  -0.53721  -0.51306  -0.50105
 Alpha  occ. eigenvalues --   -0.49668  -0.47455  -0.45800  -0.34913  -0.34410
 Alpha  occ. eigenvalues --   -0.31273
 Alpha virt. eigenvalues --    0.03143   0.03951   0.04059   0.04647   0.04809
 Alpha virt. eigenvalues --    0.05501   0.05900   0.06784   0.07309   0.07859
 Alpha virt. eigenvalues --    0.07936   0.09162   0.09902   0.10324   0.11030

 Mulliken charges:
               1
     1  C    0.427950
     2  C    0.500692
     3  C    0.300610
     4  C    0.632929
     5  C    0.256526
     6  C    0.658761
     7  B   -0.539922
     8  H   -0.453801
     9  H   -0.436311
    10  H   -0.461176
    11  H   -0.613810
    12  H   -0.584886
    13  C   -0.178205
    14  P    0.227415
    15  H    0.286994
    16  H    0.347404
    17  H   -0.215013
    18  H   -0.274780
    19  H    0.118621
 Sum of Mulliken charges =   0.00000

 Dipole moment (field-independent basis, Debye):
    X=              1.2271    Y=             -0.1789    Z=              0.2951  Tot=              1.2747

 Test job not archived.
 1\1\GINC-SE367\SP\RHF\Aug-CC-pVDZ\C7H10B1P1\OHZDE\09-Apr-2025\0\\#t hf
  aug-cc-pvdz iop(5/13=1,5/36=2,99/5=2) pseudo=read geom=check guess=(r
 ead,tcheck) scf=(maxcycle=1)\\title\\0,1\C,0,0.313856,-0.278039,0.4993
 5\C,0,1.160675,-1.261308,-0.022011\C,0,2.434404,-0.935862,-0.484183\C,
 0,2.883606,0.380672,-0.427349\C,0,2.049969,1.368584,0.095706\C,0,0.777
 071,1.041555,0.552284\B,0,-2.876733,1.324758,-0.574934\H,0,3.076371,-1
 .712977,-0.883981\H,0,3.87512,0.635601,-0.783658\H,0,2.393311,2.395745
 ,0.150178\H,0,0.134248,1.81807,0.954407\H,0,0.822245,-2.291976,-0.0627

 Normal termination of Gaussian 16 at Wed Apr  9 00:42:11 2025.
