 Gaussian 16, Revision C.01,

 ----------------------------------------------------------------------
 #t hf aug-cc-pvdz symm=none int=(grid=ultrafine) guess=(read,tcheck) s
 table=(opt,rrhf)
 ----------------------------------------------------------------------
 -----
 title
 -----
 Symbolic Z-matrix:
 Charge =  0 Multiplicity = 1

 SCF Done:  E(RHF) =  -175.574134638     A.U. after   12 cycles
 Normal termination of Gaussian 16 at Wed Apr  9 00:36:54 2025.
 Gaussian 16:  ES64L-G16RevC.01  3-Jul-2019

 ----------------------------------------------------------------------
 #t hf aug-cc-pvdz iop(5/13=1,5/36=2,99/5=2) pseudo=read geom=check gue
 ss=(read,tcheck) scf=(maxcycle=1)
 ----------------------------------------------------------------------
 -----
 title
 -----
 Structure from the checkpoint file:  "BDE49_nonexpt_582_mol1.chk"
 Charge =  0 Multiplicity = 1

                         Standard orientation:
 ---------------------------------------------------------------------
 Center     Atomic      Atomic             Coordinates (Angstroms)
 Number     Number       Type             X           Y           Z
 ---------------------------------------------------------------------
      1          7           0       -0.693384   -0.259212   -0.320471
      2          6           0        0.536897    0.511571   -0.237236
      3          5           0       -1.908186    0.026227    0.285950
      4          7           0        1.626209   -0.343788    0.222165
      5          1           0        0.323395    1.379609    0.399267
      6          1           0        0.815487    0.886305   -1.229074
      7          1           0        1.532181   -0.536680    1.214670
      8          1           0        2.523332    0.107251    0.077705
      9          1           0       -2.006493    1.012028    0.952936
     10          1           0       -2.824043   -0.720693    0.126740
     11          1           0       -0.574082   -1.107377   -0.860441
 ---------------------------------------------------------------------

 SCF Done:  E(RHF) =  -175.631708226     A.U. after    2 cycles

 The electronic state is 1-A.
 Alpha  occ. eigenvalues --  -15.61855 -15.61600 -11.30115  -7.59355  -1.19534
 Alpha  occ. eigenvalues --   -1.10200  -0.87530  -0.73068  -0.68785  -0.62195
 Alpha  occ. eigenvalues --   -0.59659  -0.56947  -0.53096  -0.46022  -0.41489
 Alpha  occ. eigenvalues --   -0.39461
 Alpha virt. eigenvalues --    0.03347   0.04027   0.04242   0.05031   0.06595
 Alpha virt. eigenvalues --    0.07233   0.07504   0.08303   0.10907   0.12388
 Alpha virt. eigenvalues --    0.13174   0.13468   0.15238   0.15888   0.17169

 Mulliken charges:
               1
     1  N   -0.267664
     2  C    1.125040
     3  B   -0.507702
     4  N   -0.363928
     5  H   -0.243102
     6  H   -0.195607
     7  H   -0.002565
     8  H    0.013768
     9  H    0.155818
    10  H    0.321277
    11  H   -0.035336
 Sum of Mulliken charges =  -0.00000

 Dipole moment (field-independent basis, Debye):
    X=              1.7305    Y=              0.7184    Z=              0.0227  Tot=              1.8738

 Test job not archived.
 1\1\GINC-SE084\SP\RHF\Aug-CC-pVDZ\C1H7B1N2\OHZDE\09-Apr-2025\0\\#t hf
 aug-cc-pvdz iop(5/13=1,5/36=2,99/5=2) pseudo=read geom=check guess=(re
 ad,tcheck) scf=(maxcycle=1)\\title\\0,1\N,0,-0.693384,-0.259212,-0.320
 471\C,0,0.536897,0.511571,-0.237236\B,0,-1.908186,0.026227,0.28595\N,0
 ,1.626209,-0.343788,0.222165\H,0,0.323395,1.379609,0.399267\H,0,0.8154
 87,0.886305,-1.229074\H,0,1.532181,-0.53668,1.21467\H,0,2.523332,0.107
 251,0.077705\H,0,-2.006493,1.012028,0.952936\H,0,-2.824043,-0.720693,0
 .12674\H,0,-0.574082,-1.107377,-0.860441\\Version=ES64L-G16RevC.01\Sta

 Normal termination of Gaussian 16 at Wed Apr  9 00:36:59 2025.
