 Gaussian 16, Revision C.01,

 ----------------------------------------------------------------------
 #t hf aug-cc-pvdz symm=none int=(grid=ultrafine) guess=(read,tcheck) s
 table=(opt,rrhf)
 ----------------------------------------------------------------------
 -----
 title
 -----
 Symbolic Z-matrix:
 Charge =  0 Multiplicity = 1

 SCF Done:  E(RHF) =  -756.907221370     A.U. after   18 cycles
 Normal termination of Gaussian 16 at Tue Apr  8 22:52:35 2025.
 Gaussian 16:  ES64L-G16RevC.01  3-Jul-2019

 ----------------------------------------------------------------------
 #t hf aug-cc-pvdz iop(5/13=1,5/36=2,99/5=2) pseudo=read geom=check gue
 ss=(read,tcheck) scf=(maxcycle=1)
 ----------------------------------------------------------------------
 -----
 title
 -----
 Structure from the checkpoint file:  "BDE49_expt_1824_mol1.chk"
 Charge =  0 Multiplicity = 1

                         Standard orientation:
 ---------------------------------------------------------------------
 Center     Atomic      Atomic             Coordinates (Angstroms)
 Number     Number       Type             X           Y           Z
 ---------------------------------------------------------------------
      1          7           0        2.536763   -0.016947    0.726003
      2          8           0        1.839900   -0.040737    1.656557
      3         16           0        1.645807    0.025451   -1.009685
      4          6           0       -0.047920    0.012473   -0.508557
      5          6           0       -0.714120   -1.204174   -0.308946
      6          6           0       -2.038477   -1.211100    0.117434
      7          6           0       -2.703883   -0.009509    0.355536
      8          6           0       -2.041561    1.202920    0.169368
      9          6           0       -0.717177    1.217717   -0.256685
     10          1           0       -0.196762    2.156319   -0.402809
     11          1           0       -3.736072   -0.017951    0.686585
     12          1           0       -2.555934    2.138348    0.357828
     13          1           0       -0.191407   -2.134296   -0.495497
     14          1           0       -2.550449   -2.155075    0.265473
 ---------------------------------------------------------------------

 SCF Done:  E(RHF) =  -757.033202457     A.U. after    2 cycles

 The electronic state is 1-A.
 Alpha  occ. eigenvalues --  -93.56414 -20.69173 -15.83089 -11.28513 -11.26613
 Alpha  occ. eigenvalues --  -11.26607 -11.26510 -11.25925 -11.25916  -8.85964
 Alpha  occ. eigenvalues --   -6.20069  -6.19846  -6.19541  -1.54069  -1.16437
 Alpha  occ. eigenvalues --   -1.06002  -1.02810  -0.98222  -0.89267  -0.84660
 Alpha  occ. eigenvalues --   -0.81190  -0.73036  -0.71341  -0.69206  -0.66195
 Alpha  occ. eigenvalues --   -0.64778  -0.64060  -0.60918  -0.56472  -0.52570
 Alpha  occ. eigenvalues --   -0.51687  -0.48290  -0.40268  -0.37902  -0.35601
 Alpha  occ. eigenvalues --   -0.34204
 Alpha virt. eigenvalues --    0.03190   0.03935   0.04604   0.05852   0.05887
 Alpha virt. eigenvalues --    0.06436   0.07229   0.08609   0.09044   0.09521
 Alpha virt. eigenvalues --    0.11119   0.12128   0.12571   0.13694   0.13704

 Mulliken charges:
               1
     1  N   -0.068013
     2  O   -0.300416
     3  S    0.335766
     4  C    0.565582
     5  C    0.209964
     6  C    0.436086
     7  C    0.389865
     8  C    0.436546
     9  C    0.206813
    10  H   -0.460370
    11  H   -0.430232
    12  H   -0.430387
    13  H   -0.460759
    14  H   -0.430444
 Sum of Mulliken charges =  -0.00000

 Dipole moment (field-independent basis, Debye):
    X=             -2.1212    Y=              0.0026    Z=             -0.1193  Tot=              2.1245

 Test job not archived.
 1\1\GINC-SE132\SP\RHF\Aug-CC-pVDZ\C6H5N1O1S1\OHZDE\08-Apr-2025\0\\#t h
 f aug-cc-pvdz iop(5/13=1,5/36=2,99/5=2) pseudo=read geom=check guess=(
 read,tcheck) scf=(maxcycle=1)\\title\\0,1\N,0,2.536763,-0.016947,0.726
 003\O,0,1.8399,-0.040737,1.656557\S,0,1.645807,0.025451,-1.009685\C,0,
 -0.04792,0.012473,-0.508557\C,0,-0.71412,-1.204174,-0.308946\C,0,-2.03
 8477,-1.2111,0.117434\C,0,-2.703883,-0.009509,0.355536\C,0,-2.041561,1
 .20292,0.169368\C,0,-0.717177,1.217717,-0.256685\H,0,-0.196762,2.15631
 9,-0.402809\H,0,-3.736072,-0.017951,0.686585\H,0,-2.555934,2.138348,0.

 Normal termination of Gaussian 16 at Tue Apr  8 22:52:42 2025.
