 Gaussian 16, Revision C.01,

 ----------------------------------------------------------------------
 #t hf aug-cc-pvdz symm=none int=(grid=ultrafine) guess=(read,tcheck) s
 table=(opt,rrhf)
 ----------------------------------------------------------------------
 -----
 title
 -----
 Symbolic Z-matrix:
 Charge =  0 Multiplicity = 1

 SCF Done:  E(RHF) =  -1073.97884334     A.U. after   13 cycles

 1\1\GINC-SE402\Stability\RHF\Aug-CC-pVDZ\C4H6Cl2\OHZDE\08-Apr-2025\0\\
 #t hf aug-cc-pvdz symm=none int=(grid=ultrafine) guess=(read,tcheck) s
 table=(opt,rrhf)\\title\\0,1\C,0,-1.746106,-0.837589,0.032428\C,0,-0.5
 25571,-0.07209,0.403215\C,0,0.525571,0.07209,-0.403215\Cl,0,-3.21364,0
 .258982,-0.042382\H,0,-1.999656,-1.591014,0.777055\H,0,-1.662469,-1.30
 0626,-0.948325\C,0,1.746106,0.837589,-0.032428\H,0,1.999656,1.591014,-
 0.777055\Cl,0,3.21364,-0.258982,0.042382\H,0,1.662469,1.300626,0.94832
 5\H,0,-0.521987,0.378342,1.392551\H,0,0.521987,-0.378342,-1.392551\\Ve

 Normal termination of Gaussian 16 at Tue Apr  8 22:46:38 2025.
 Gaussian 16:  ES64L-G16RevC.01  3-Jul-2019

 ----------------------------------------------------------------------
 #t hf aug-cc-pvdz iop(5/13=1,5/36=2,99/5=2) pseudo=read geom=check gue
 ss=(read,tcheck) scf=(maxcycle=1)
 ----------------------------------------------------------------------
 -----
 title
 -----
 Structure from the checkpoint file:  "BDE49_expt_1649_mol1.chk"
 Charge =  0 Multiplicity = 1

                         Standard orientation:
 ---------------------------------------------------------------------
 Center     Atomic      Atomic             Coordinates (Angstroms)
 Number     Number       Type             X           Y           Z
 ---------------------------------------------------------------------
      1          6           0       -1.746106   -0.837589    0.032428
      2          6           0       -0.525571   -0.072090    0.403215
      3          6           0        0.525571    0.072090   -0.403215
      4         17           0       -3.213640    0.258982   -0.042382
      5          1           0       -1.999656   -1.591014    0.777055
      6          1           0       -1.662469   -1.300626   -0.948325
      7          6           0        1.746106    0.837589   -0.032428
      8          1           0        1.999656    1.591014   -0.777055
      9         17           0        3.213640   -0.258982    0.042382
     10          1           0        1.662469    1.300626    0.948325
     11          1           0       -0.521987    0.378342    1.392551
     12          1           0        0.521987   -0.378342   -1.392551
 ---------------------------------------------------------------------

 SCF Done:  E(RHF) =  -1074.06312085     A.U. after    2 cycles

 The electronic state is 1-AG.
 Alpha  occ. eigenvalues -- -103.65484-103.65484 -11.32267 -11.32267 -11.27604
 Alpha  occ. eigenvalues --  -11.27440 -10.68731 -10.68731  -8.34445  -8.34443
 Alpha  occ. eigenvalues --   -8.34159  -8.34158  -8.34150  -8.34150  -1.17348
 Alpha  occ. eigenvalues --   -1.16264  -1.08414  -0.97809  -0.88500  -0.79314
 Alpha  occ. eigenvalues --   -0.67611  -0.67380  -0.60616  -0.60465  -0.57300
 Alpha  occ. eigenvalues --   -0.54919  -0.54380  -0.46229  -0.45582  -0.45371
 Alpha  occ. eigenvalues --   -0.45028  -0.38947
 Alpha virt. eigenvalues --    0.03465   0.04098   0.04257   0.06218   0.06634
 Alpha virt. eigenvalues --    0.06756   0.07422   0.09702   0.10431   0.12408
 Alpha virt. eigenvalues --    0.12638   0.13441   0.13607   0.15164   0.15569

 Mulliken charges:
               1
     1  C   -0.008859
     2  C    0.551669
     3  C    0.551669
     4  Cl  -0.154388
     5  H    0.043224
     6  H   -0.077650
     7  C   -0.008859
     8  H    0.043224
     9  Cl  -0.154388
    10  H   -0.077650
    11  H   -0.353997
    12  H   -0.353997
 Sum of Mulliken charges =  -0.00000

 Dipole moment (field-independent basis, Debye):
    X=             -0.0000    Y=              0.0000    Z=             -0.0000  Tot=              0.0000

 Test job not archived.
 1\1\GINC-SE402\SP\RHF\Aug-CC-pVDZ\C4H6Cl2\OHZDE\08-Apr-2025\0\\#t hf a
 ug-cc-pvdz iop(5/13=1,5/36=2,99/5=2) pseudo=read geom=check guess=(rea
 d,tcheck) scf=(maxcycle=1)\\title\\0,1\C,0,-1.746106,-0.837589,0.03242
 8\C,0,-0.525571,-0.07209,0.403215\C,0,0.525571,0.07209,-0.403215\Cl,0,
 -3.21364,0.258982,-0.042382\H,0,-1.999656,-1.591014,0.777055\H,0,-1.66
 2469,-1.300626,-0.948325\C,0,1.746106,0.837589,-0.032428\H,0,1.999656,
 1.591014,-0.777055\Cl,0,3.21364,-0.258982,0.042382\H,0,1.662469,1.3006
 26,0.948325\H,0,-0.521987,0.378342,1.392551\H,0,0.521987,-0.378342,-1.

 Normal termination of Gaussian 16 at Tue Apr  8 22:46:41 2025.
