 Gaussian 16, Revision C.01,

 ----------------------------------------------------------------------
 #t hf aug-cc-pvdz symm=none int=(grid=ultrafine) guess=(read,tcheck) s
 table=(opt,rrhf)
 ----------------------------------------------------------------------
 -----
 title
 -----
 Symbolic Z-matrix:
 Charge =  0 Multiplicity = 1

 SCF Done:  E(RHF) =  -948.018001072     A.U. after   14 cycles
 Normal termination of Gaussian 16 at Wed Apr  9 00:23:42 2025.
 Gaussian 16:  ES64L-G16RevC.01  3-Jul-2019

 ----------------------------------------------------------------------
 #t hf aug-cc-pvdz iop(5/13=1,5/36=2,99/5=2) pseudo=read geom=check gue
 ss=(read,tcheck) scf=(maxcycle=1)
 ----------------------------------------------------------------------
 -----
 title
 -----
 Structure from the checkpoint file:  "BDE49_nonexpt_2743_mol1.chk"
 Charge =  0 Multiplicity = 1

                         Standard orientation:
 ---------------------------------------------------------------------
 Center     Atomic      Atomic             Coordinates (Angstroms)
 Number     Number       Type             X           Y           Z
 ---------------------------------------------------------------------
      1         16           0       -1.958237    0.230654   -0.116359
      2         16           0       -0.238064   -0.925464    0.053474
      3          6           0        1.109463    0.327551    0.015422
      4          8           0        0.915836    1.505546    0.031456
      5          6           0        2.470161   -0.332460   -0.047506
      6          1           0        2.448732   -1.372793    0.280886
      7          1           0        3.169523    0.239921    0.563496
      8          1           0        2.814952   -0.303001   -1.085088
      9          1           0       -2.096814    0.537922    1.187726
 ---------------------------------------------------------------------

 SCF Done:  E(RHF) =  -948.107182922     A.U. after    2 cycles

 The electronic state is 1-A.
 Alpha  occ. eigenvalues --  -93.58129 -93.57467 -20.58982 -11.39132 -11.27036
 Alpha  occ. eigenvalues --   -8.87784  -8.87062  -6.21883  -6.21607  -6.21295
 Alpha  occ. eigenvalues --   -6.21178  -6.20947  -6.20578  -1.38959  -1.06520
 Alpha  occ. eigenvalues --   -1.01998  -0.89532  -0.75339  -0.66511  -0.66200
 Alpha  occ. eigenvalues --   -0.63549  -0.57922  -0.56528  -0.54200  -0.47622
 Alpha  occ. eigenvalues --   -0.44147  -0.39300  -0.37749
 Alpha virt. eigenvalues --    0.03291   0.04501   0.05447   0.05769   0.07583
 Alpha virt. eigenvalues --    0.09049   0.09935   0.11000   0.12027   0.12273
 Alpha virt. eigenvalues --    0.13045   0.13315   0.15023   0.15671   0.15913

 Mulliken charges:
               1
     1  S   -0.043639
     2  S    0.024944
     3  C   -0.089517
     4  O   -0.427102
     5  C    0.357672
     6  H   -0.049603
     7  H    0.007709
     8  H    0.075041
     9  H    0.144495
 Sum of Mulliken charges =  -0.00000

 Dipole moment (field-independent basis, Debye):
    X=              1.4885    Y=             -1.8897    Z=              0.7001  Tot=              2.5053

 Test job not archived.
 1\1\GINC-SE343\SP\RHF\Aug-CC-pVDZ\C2H4O1S2\OHZDE\09-Apr-2025\0\\#t hf
 aug-cc-pvdz iop(5/13=1,5/36=2,99/5=2) pseudo=read geom=check guess=(re
 ad,tcheck) scf=(maxcycle=1)\\title\\0,1\S,0,-1.958237,0.230654,-0.1163
 59\S,0,-0.238064,-0.925464,0.053474\C,0,1.109463,0.327551,0.015422\O,0
 ,0.915836,1.505546,0.031456\C,0,2.470161,-0.33246,-0.047506\H,0,2.4487
 32,-1.372793,0.280886\H,0,3.169523,0.239921,0.563496\H,0,2.814952,-0.3
 03001,-1.085088\H,0,-2.096814,0.537922,1.187726\\Version=ES64L-G16RevC
 .01\State=1-A\HF=-948.1071829\RMSD=5.494e-03\Dipole=0.5856151,-0.74345

 Normal termination of Gaussian 16 at Wed Apr  9 00:23:45 2025.
