 Gaussian 16, Revision C.01,

 ----------------------------------------------------------------------
 #t hf aug-cc-pvdz symm=none int=(grid=ultrafine) guess=(read,tcheck) s
 table=(opt,rrhf)
 ----------------------------------------------------------------------
 -----
 title
 -----
 Symbolic Z-matrix:
 Charge =  0 Multiplicity = 1

 SCF Done:  E(RHF) =  -610.673292892     A.U. after   14 cycles

 1\1\GINC-SE249\Stability\RHF\Aug-CC-pVDZ\C8H14O4\OHZDE\08-Apr-2025\0\\
 #t hf aug-cc-pvdz symm=none int=(grid=ultrafine) guess=(read,tcheck) s
 table=(opt,rrhf)\\title\\0,1\C,0,3.313016,1.637459,0.120924\C,0,2.7583
 86,0.22577,0.046245\H,0,2.835254,2.198218,0.928013\H,0,3.147219,2.1698
 91,-0.817658\H,0,4.388079,1.603361,0.313435\C,0,2.910249,-0.570555,1.3
 33939\H,0,3.969951,-0.676966,1.580776\H,0,2.482571,-1.568063,1.225547\
 H,0,2.40707,-0.062384,2.159711\O,0,1.326448,0.37828,-0.251491\H,0,3.19
 7847,-0.321461,-0.789595\C,0,0.73324,-0.63016,-0.872067\O,0,1.226479,-

 Normal termination of Gaussian 16 at Tue Apr  8 23:04:37 2025.
 Gaussian 16:  ES64L-G16RevC.01  3-Jul-2019

 ----------------------------------------------------------------------
 #t hf aug-cc-pvdz iop(5/13=1,5/36=2,99/5=2) pseudo=read geom=check gue
 ss=(read,tcheck) scf=(maxcycle=1)
 ----------------------------------------------------------------------
 -----
 title
 -----
 Structure from the checkpoint file:  "BDE49_expt_275_mol1.chk"
 Charge =  0 Multiplicity = 1

                         Standard orientation:
 ---------------------------------------------------------------------
 Center     Atomic      Atomic             Coordinates (Angstroms)
 Number     Number       Type             X           Y           Z
 ---------------------------------------------------------------------
      1          6           0        3.313016    1.637459    0.120924
      2          6           0        2.758386    0.225770    0.046245
      3          1           0        2.835254    2.198218    0.928013
      4          1           0        3.147219    2.169891   -0.817658
      5          1           0        4.388079    1.603361    0.313435
      6          6           0        2.910249   -0.570555    1.333939
      7          1           0        3.969951   -0.676966    1.580776
      8          1           0        2.482571   -1.568063    1.225547
      9          1           0        2.407070   -0.062384    2.159711
     10          8           0        1.326448    0.378280   -0.251491
     11          1           0        3.197847   -0.321461   -0.789595
     12          6           0        0.733240   -0.630160   -0.872067
     13          8           0        1.226479   -1.617274   -1.324820
     14          8           0       -0.620285   -0.344915   -1.016719
     15          6           0       -1.409067   -0.371220    0.119086
     16          8           0       -0.996315   -0.738557    1.181077
     17          6           0       -2.808596    0.111910   -0.204833
     18          6           0       -3.782762   -0.257510    0.915403
     19          1           0       -3.808448   -1.336238    1.081817
     20          1           0       -4.791582    0.074846    0.659042
     21          1           0       -3.490864    0.215320    1.855469
     22          6           0       -2.779409    1.629324   -0.480335
     23          1           0       -3.099303   -0.392184   -1.132720
     24          1           0       -2.467345    2.178765    0.412225
     25          1           0       -3.778138    1.974237   -0.757670
     26          1           0       -2.093258    1.872273   -1.292945
 ---------------------------------------------------------------------

 SCF Done:  E(RHF) =  -610.869565133     A.U. after    2 cycles

 The electronic state is 1-A.
 Alpha  occ. eigenvalues --  -20.63977 -20.62898 -20.58042 -20.57634 -11.46039
 Alpha  occ. eigenvalues --  -11.41247 -11.31480 -11.27022 -11.24551 -11.24021
 Alpha  occ. eigenvalues --  -11.23648 -11.23297  -1.47850  -1.40947  -1.35435
 Alpha  occ. eigenvalues --   -1.33939  -1.09512  -1.07213  -0.95014  -0.94939
 Alpha  occ. eigenvalues --   -0.93970  -0.86092  -0.81681  -0.78345  -0.74252
 Alpha  occ. eigenvalues --   -0.72767  -0.71370  -0.67574  -0.65538  -0.64065
 Alpha  occ. eigenvalues --   -0.63423  -0.61583  -0.59524  -0.57285  -0.56533
 Alpha  occ. eigenvalues --   -0.55873  -0.55410  -0.54932  -0.54508  -0.52782
 Alpha  occ. eigenvalues --   -0.52073  -0.50432  -0.50026  -0.49817  -0.49671
 Alpha  occ. eigenvalues --   -0.48024  -0.46657
 Alpha virt. eigenvalues --    0.03178   0.03725   0.04484   0.04676   0.05175
 Alpha virt. eigenvalues --    0.05519   0.05725   0.06842   0.07126   0.07303
 Alpha virt. eigenvalues --    0.07676   0.08569   0.08780   0.09477   0.10524

 Mulliken charges:
               1
     1  C    0.600495
     2  C   -0.250590
     3  H   -0.006183
     4  H   -0.082645
     5  H   -0.010338
     6  C    0.468454
     7  H   -0.048189
     8  H   -0.076666
     9  H    0.022038
    10  O   -0.421106
    11  H   -0.129176
    12  C    0.596477
    13  O   -0.375464
    14  O   -0.671797
    15  C    0.419364
    16  O   -0.412967
    17  C   -0.806815
    18  C    0.762956
    19  H   -0.076111
    20  H   -0.031649
    21  H   -0.007130
    22  C    0.726227
    23  H   -0.028027
    24  H   -0.005694
    25  H   -0.093845
    26  H   -0.061619
 Sum of Mulliken charges =   0.00000

 Dipole moment (field-independent basis, Debye):
    X=             -0.4435    Y=              2.9189    Z=              0.0888  Tot=              2.9537

 Test job not archived.
 1\1\GINC-SE249\SP\RHF\Aug-CC-pVDZ\C8H14O4\OHZDE\08-Apr-2025\0\\#t hf a
 ug-cc-pvdz iop(5/13=1,5/36=2,99/5=2) pseudo=read geom=check guess=(rea
 d,tcheck) scf=(maxcycle=1)\\title\\0,1\C,0,3.313016,1.637459,0.120924\
 C,0,2.758386,0.22577,0.046245\H,0,2.835254,2.198218,0.928013\H,0,3.147
 219,2.169891,-0.817658\H,0,4.388079,1.603361,0.313435\C,0,2.910249,-0.
 570555,1.333939\H,0,3.969951,-0.676966,1.580776\H,0,2.482571,-1.568063
 ,1.225547\H,0,2.40707,-0.062384,2.159711\O,0,1.326448,0.37828,-0.25149
 1\H,0,3.197847,-0.321461,-0.789595\C,0,0.73324,-0.63016,-0.872067\O,0,

 Normal termination of Gaussian 16 at Tue Apr  8 23:04:56 2025.
