 Gaussian 16, Revision C.01,

 ----------------------------------------------------------------------
 #t hf aug-cc-pvdz symm=none int=(grid=ultrafine) guess=(read,tcheck) s
 table=(opt,rrhf)
 ----------------------------------------------------------------------
 -----
 title
 -----
 Symbolic Z-matrix:
 Charge =  0 Multiplicity = 1

 SCF Done:  E(RHF) =  -324.797450382     A.U. after   15 cycles
 Normal termination of Gaussian 16 at Tue Apr  8 22:39:08 2025.
 Gaussian 16:  ES64L-G16RevC.01  3-Jul-2019

 ----------------------------------------------------------------------
 #t hf aug-cc-pvdz iop(5/13=1,5/36=2,99/5=2) pseudo=read geom=check gue
 ss=(read,tcheck) scf=(maxcycle=1)
 ----------------------------------------------------------------------
 -----
 title
 -----
 Structure from the checkpoint file:  "BDE49_expt_1303_mol1.chk"
 Charge =  0 Multiplicity = 1

                         Standard orientation:
 ---------------------------------------------------------------------
 Center     Atomic      Atomic             Coordinates (Angstroms)
 Number     Number       Type             X           Y           Z
 ---------------------------------------------------------------------
      1          6           0        2.838417    0.363818    0.095222
      2          7           0        1.788270   -0.608612   -0.137556
      3          1           0        2.834061    1.132661   -0.683010
      4          1           0        3.802345   -0.144390    0.045460
      5          1           0        2.759778    0.867150    1.070510
      6          6           0        0.442842   -0.274098   -0.052718
      7          6           0       -0.525128   -1.296186   -0.005468
      8          6           0        0.000013    1.059446   -0.049453
      9          6           0       -1.362454    1.348926   -0.010001
     10          6           0       -2.312614    0.333819    0.035387
     11          6           0       -1.877748   -0.993036    0.038979
     12          1           0       -3.369907    0.567602    0.068855
     13          1           0       -2.600670   -1.800968    0.076302
     14          1           0       -0.201230   -2.332808   -0.010905
     15          1           0        0.715203    1.871444   -0.079552
     16          1           0       -1.678788    2.386656   -0.010282
     17          1           0        2.001361   -1.543204    0.173821
 ---------------------------------------------------------------------

 SCF Done:  E(RHF) =  -324.895481874     A.U. after    2 cycles

 The electronic state is 1-A.
 Alpha  occ. eigenvalues --  -15.63023 -11.28698 -11.27019 -11.24246 -11.24198
 Alpha  occ. eigenvalues --  -11.23104 -11.22928 -11.22530  -1.21011  -1.11880
 Alpha  occ. eigenvalues --   -1.00567  -0.99616  -0.91454  -0.82806  -0.80032
 Alpha  occ. eigenvalues --   -0.71496  -0.67347  -0.64333  -0.61330  -0.61029
 Alpha  occ. eigenvalues --   -0.58430  -0.58002  -0.54238  -0.51319  -0.50522
 Alpha  occ. eigenvalues --   -0.48650  -0.42367  -0.33747  -0.28601
 Alpha virt. eigenvalues --    0.03208   0.03833   0.03990   0.05522   0.05673
 Alpha virt. eigenvalues --    0.05831   0.07319   0.08280   0.09787   0.10975
 Alpha virt. eigenvalues --    0.11218   0.12556   0.13400   0.13539   0.13903

 Mulliken charges:
               1
     1  C    0.864425
     2  N   -0.539232
     3  H   -0.154151
     4  H   -0.277784
     5  H   -0.088752
     6  C    0.594295
     7  C    0.491804
     8  C    0.282231
     9  C    0.604981
    10  C    0.417155
    11  C    0.536272
    12  H   -0.458228
    13  H   -0.432056
    14  H   -0.601090
    15  H   -0.696913
    16  H   -0.448388
    17  H   -0.094570
 Sum of Mulliken charges =  -0.00000

 Dipole moment (field-independent basis, Debye):
    X=              1.5267    Y=             -0.3749    Z=              0.5978  Tot=              1.6819

 Test job not archived.
 1\1\GINC-SE455\SP\RHF\Aug-CC-pVDZ\C7H9N1\OHZDE\08-Apr-2025\0\\#t hf au
 g-cc-pvdz iop(5/13=1,5/36=2,99/5=2) pseudo=read geom=check guess=(read
 ,tcheck) scf=(maxcycle=1)\\title\\0,1\C,0,2.838417,0.363818,0.095222\N
 ,0,1.78827,-0.608612,-0.137556\H,0,2.834061,1.132661,-0.68301\H,0,3.80
 2345,-0.14439,0.04546\H,0,2.759778,0.86715,1.07051\C,0,0.442842,-0.274
 098,-0.052718\C,0,-0.525128,-1.296186,-0.005468\C,0,0.000013,1.059446,
 -0.049453\C,0,-1.362454,1.348926,-0.010001\C,0,-2.312614,0.333819,0.03
 5387\C,0,-1.877748,-0.993036,0.038979\H,0,-3.369907,0.567602,0.068855\

 Normal termination of Gaussian 16 at Tue Apr  8 22:39:14 2025.
