 Gaussian 16, Revision C.01,

 ----------------------------------------------------------------------
 #t hf aug-cc-pvdz symm=none int=(grid=ultrafine) guess=(read,tcheck) s
 table=(opt,rrhf)
 ----------------------------------------------------------------------
 -----
 title
 -----
 Symbolic Z-matrix:
 Charge =  0 Multiplicity = 1

 SCF Done:  E(RHF) =  -495.423302278     A.U. after   12 cycles
 Normal termination of Gaussian 16 at Tue Apr  8 23:38:10 2025.
 Gaussian 16:  ES64L-G16RevC.01  3-Jul-2019

 ----------------------------------------------------------------------
 #t hf aug-cc-pvdz iop(5/13=1,5/36=2,99/5=2) pseudo=read geom=check gue
 ss=(read,tcheck) scf=(maxcycle=1)
 ----------------------------------------------------------------------
 -----
 title
 -----
 Structure from the checkpoint file:  "BDE49_nonexpt_1609_mol1.chk"
 Charge =  0 Multiplicity = 1

                         Standard orientation:
 ---------------------------------------------------------------------
 Center     Atomic      Atomic             Coordinates (Angstroms)
 Number     Number       Type             X           Y           Z
 ---------------------------------------------------------------------
      1         15           0        0.469491   -0.625893   -0.101850
      2          6           0        1.890633    0.546906   -0.047339
      3          1           0        1.788890    1.243058    0.787037
      4          1           0        1.941732    1.107827   -0.982160
      5          1           0        2.816220   -0.024589    0.066991
      6          8           0       -0.730573    0.489606    0.222385
      7          6           0       -2.076565    0.137768   -0.090830
      8          1           0       -2.653540    1.063507   -0.106440
      9          1           0       -2.501554   -0.529017    0.668776
     10          1           0       -2.151152   -0.349654   -1.069947
     11          1           0        0.677214   -1.147631    1.213434
 ---------------------------------------------------------------------

 SCF Done:  E(RHF) =  -495.505557208     A.U. after    2 cycles

 The electronic state is 1-A.
 Alpha  occ. eigenvalues --  -81.28977 -20.57428 -11.28974 -11.23455  -7.78707
 Alpha  occ. eigenvalues --   -4.92856  -4.92556  -4.92299  -1.31374  -0.97182
 Alpha  occ. eigenvalues --   -0.92249  -0.75235  -0.65164  -0.63426  -0.62133
 Alpha  occ. eigenvalues --   -0.57546  -0.55392  -0.50360  -0.50164  -0.44560
 Alpha  occ. eigenvalues --   -0.34156
 Alpha virt. eigenvalues --    0.03693   0.04513   0.05238   0.05991   0.06696
 Alpha virt. eigenvalues --    0.07197   0.07487   0.09752   0.11022   0.11745
 Alpha virt. eigenvalues --    0.14172   0.14920   0.15503   0.16645   0.17043

 Mulliken charges:
               1
     1  P    0.744711
     2  C    0.113617
     3  H   -0.142410
     4  H   -0.116605
     5  H   -0.150644
     6  O   -0.834365
     7  C    0.806023
     8  H   -0.241689
     9  H   -0.109616
    10  H   -0.123050
    11  H    0.054028
 Sum of Mulliken charges =  -0.00000

 Dipole moment (field-independent basis, Debye):
    X=             -0.1604    Y=             -0.1204    Z=              0.0464  Tot=              0.2058

 Test job not archived.
 1\1\GINC-SE333\SP\RHF\Aug-CC-pVDZ\C2H7O1P1\OHZDE\08-Apr-2025\0\\#t hf
 aug-cc-pvdz iop(5/13=1,5/36=2,99/5=2) pseudo=read geom=check guess=(re
 ad,tcheck) scf=(maxcycle=1)\\title\\0,1\P,0,0.469491,-0.625893,-0.1018
 5\C,0,1.890633,0.546906,-0.047339\H,0,1.78889,1.243058,0.787037\H,0,1.
 941732,1.107827,-0.98216\H,0,2.81622,-0.024589,0.066991\O,0,-0.730573,
 0.489606,0.222385\C,0,-2.076565,0.137768,-0.09083\H,0,-2.65354,1.06350
 7,-0.10644\H,0,-2.501554,-0.529017,0.668776\H,0,-2.151152,-0.349654,-1
 .069947\H,0,0.677214,-1.147631,1.213434\\Version=ES64L-G16RevC.01\Stat

 Normal termination of Gaussian 16 at Tue Apr  8 23:38:13 2025.
