 Gaussian 16, Revision C.01,

 ----------------------------------------------------------------------
 #t hf aug-cc-pvdz symm=none int=(grid=ultrafine) guess=(read,tcheck) s
 table=(opt,rrhf)
 ----------------------------------------------------------------------
 -----
 title
 -----
 Symbolic Z-matrix:
 Charge =  0 Multiplicity = 1

 SCF Done:  E(RHF) =  -1099.80678943     A.U. after   14 cycles
 Normal termination of Gaussian 16 at Wed Apr  9 00:24:21 2025.
 Gaussian 16:  ES64L-G16RevC.01  3-Jul-2019

 ----------------------------------------------------------------------
 #t hf aug-cc-pvdz iop(5/13=1,5/36=2,99/5=2) pseudo=read geom=check gue
 ss=(read,tcheck) scf=(maxcycle=1)
 ----------------------------------------------------------------------
 -----
 title
 -----
 Structure from the checkpoint file:  "BDE49_nonexpt_2730_mol1.chk"
 Charge =  0 Multiplicity = 1

                         Standard orientation:
 ---------------------------------------------------------------------
 Center     Atomic      Atomic             Coordinates (Angstroms)
 Number     Number       Type             X           Y           Z
 ---------------------------------------------------------------------
      1          6           0       -3.138824   -0.615800    0.264299
      2          6           0       -1.770766   -0.384980   -0.336445
      3          1           0       -3.798249   -1.021351   -0.503893
      4          1           0       -3.566813    0.293419    0.689251
      5          1           0       -3.038059   -1.356308    1.063128
      6          6           0        3.138719   -0.615916   -0.264441
      7          6           0        1.770705   -0.384967    0.336355
      8          1           0        3.037932   -1.356808   -1.062911
      9          1           0        3.798282   -1.021039    0.503858
     10          1           0        3.566560    0.293150   -0.689869
     11          8           0       -1.272835   -1.045854   -1.196779
     12          8           0        1.273104   -1.045246    1.197338
     13         16           0       -0.913773    1.028379    0.479452
     14         16           0        0.913723    1.028353   -0.479618
 ---------------------------------------------------------------------

 SCF Done:  E(RHF) =  -1099.94292210     A.U. after    2 cycles

 The electronic state is 1-A.
 Alpha  occ. eigenvalues --  -93.57898 -93.57894 -20.58884 -20.58883 -11.39073
 Alpha  occ. eigenvalues --  -11.39072 -11.26753 -11.26752  -8.87581  -8.87562
 Alpha  occ. eigenvalues --   -6.21758  -6.21642  -6.21422  -6.21385  -6.21099
 Alpha  occ. eigenvalues --   -6.21094  -1.38974  -1.38749  -1.07438  -1.04082
 Alpha  occ. eigenvalues --   -1.01105  -0.90453  -0.77245  -0.73929  -0.68066
 Alpha  occ. eigenvalues --   -0.66319  -0.66191  -0.63282  -0.63238  -0.62557
 Alpha  occ. eigenvalues --   -0.57716  -0.57524  -0.54582  -0.53876  -0.47778
 Alpha  occ. eigenvalues --   -0.44057  -0.43955  -0.39267  -0.37431
 Alpha virt. eigenvalues --    0.03536   0.03725   0.05742   0.05802   0.06142
 Alpha virt. eigenvalues --    0.06266   0.07923   0.08954   0.09830   0.10030
 Alpha virt. eigenvalues --    0.11066   0.11609   0.12063   0.12806   0.13049

 Mulliken charges:
               1
     1  C    0.330921
     2  C   -0.053903
     3  H   -0.003501
     4  H   -0.023270
     5  H    0.094781
     6  C    0.330913
     7  C   -0.053718
     8  H    0.094737
     9  H   -0.003509
    10  H   -0.023284
    11  O   -0.435378
    12  O   -0.435387
    13  S    0.090318
    14  S    0.090282
 Sum of Mulliken charges =  -0.00000

 Dipole moment (field-independent basis, Debye):
    X=             -0.0006    Y=              0.9958    Z=             -0.0011  Tot=              0.9958

 Test job not archived.
 1\1\GINC-SE084\SP\RHF\Aug-CC-pVDZ\C4H6O2S2\OHZDE\09-Apr-2025\0\\#t hf
 aug-cc-pvdz iop(5/13=1,5/36=2,99/5=2) pseudo=read geom=check guess=(re
 ad,tcheck) scf=(maxcycle=1)\\title\\0,1\C,0,-3.138824,-0.6158,0.264299
 \C,0,-1.770766,-0.38498,-0.336445\H,0,-3.798249,-1.021351,-0.503893\H,
 0,-3.566813,0.293419,0.689251\H,0,-3.038059,-1.356308,1.063128\C,0,3.1
 38719,-0.615916,-0.264441\C,0,1.770705,-0.384967,0.336355\H,0,3.037932
 ,-1.356808,-1.062911\H,0,3.798282,-1.021039,0.503858\H,0,3.56656,0.293
 15,-0.689869\O,0,-1.272835,-1.045854,-1.196779\O,0,1.273104,-1.045246,

 Normal termination of Gaussian 16 at Wed Apr  9 00:24:28 2025.
