 Gaussian 16, Revision C.01,

 ----------------------------------------------------------------------
 #t hf aug-cc-pvdz symm=none int=(grid=ultrafine) guess=(read,tcheck) s
 table=(opt,rrhf)
 ----------------------------------------------------------------------
 -----
 title
 -----
 Symbolic Z-matrix:
 Charge =  0 Multiplicity = 1

 SCF Done:  E(RHF) =  -1007.94181168     A.U. after   15 cycles
 Normal termination of Gaussian 16 at Tue Apr  8 23:16:40 2025.
 Gaussian 16:  ES64L-G16RevC.01  3-Jul-2019

 ----------------------------------------------------------------------
 #t hf aug-cc-pvdz iop(5/13=1,5/36=2,99/5=2) pseudo=read geom=check gue
 ss=(read,tcheck) scf=(maxcycle=1)
 ----------------------------------------------------------------------
 -----
 title
 -----
 Structure from the checkpoint file:  "BDE49_expt_499_mol1.chk"
 Charge =  0 Multiplicity = 1

                         Standard orientation:
 ---------------------------------------------------------------------
 Center     Atomic      Atomic             Coordinates (Angstroms)
 Number     Number       Type             X           Y           Z
 ---------------------------------------------------------------------
      1          6           0        2.824741    0.398992   -1.364663
      2          6           0        1.542773    0.221675   -0.852036
      3          6           0        3.943335    0.364508   -0.535427
      4          6           0        3.765233    0.147785    0.829413
      5          6           0        2.490802   -0.029846    1.355099
      6          6           0        1.364120    0.005373    0.521241
      7          1           0        0.686449    0.246512   -1.512010
      8          1           0        2.945119    0.564643   -2.429652
      9          1           0        4.622182    0.116320    1.493132
     10          1           0        2.361723   -0.196859    2.420076
     11          7           0        0.091207   -0.176420    1.093315
     12         15           0       -1.434691   -0.173149    0.405202
     13          8           0       -2.423414   -0.407451    1.463645
     14          1           0        0.069910   -0.342907    2.088939
     15          8           0       -1.428220   -1.175161   -0.827025
     16          8           0       -1.540298    1.163301   -0.450875
     17          6           0       -1.751426   -2.582255   -0.653269
     18          6           0       -0.492616   -3.430512   -0.630495
     19          1           0       -2.382104   -2.833655   -1.506950
     20          1           0       -2.340794   -2.699438    0.258499
     21          1           0        0.098061   -3.271433   -1.534874
     22          1           0       -0.764275   -4.488910   -0.576956
     23          1           0        0.130649   -3.192792    0.233742
     24          6           0       -1.559620    2.449234    0.221149
     25          6           0       -1.775163    3.518262   -0.829973
     26          1           0       -0.606619    2.587946    0.740112
     27          1           0       -2.364756    2.444568    0.960080
     28          1           0       -0.968788    3.504704   -1.566023
     29          1           0       -1.796479    4.503913   -0.357169
     30          1           0       -2.722651    3.361679   -1.349258
     31          1           0        4.936679    0.503083   -0.945106
 ---------------------------------------------------------------------

 SCF Done:  E(RHF) =  -1008.22024755     A.U. after    2 cycles

 The electronic state is 1-A.
 Alpha  occ. eigenvalues --  -81.42182 -20.59628 -20.59521 -20.51685 -15.64589
 Alpha  occ. eigenvalues --  -11.30631 -11.30554 -11.30377 -11.25282 -11.25139
 Alpha  occ. eigenvalues --  -11.24581 -11.24090 -11.23901 -11.23594 -11.23503
 Alpha  occ. eigenvalues --   -7.90272  -5.05033  -5.04864  -5.04823  -1.37213
 Alpha  occ. eigenvalues --   -1.33585  -1.25627  -1.20822  -1.12552  -1.03785
 Alpha  occ. eigenvalues --   -1.01872  -1.01569  -0.99451  -0.88676  -0.85198
 Alpha  occ. eigenvalues --   -0.84312  -0.83340  -0.77452  -0.72881  -0.71877
 Alpha  occ. eigenvalues --   -0.71192  -0.67830  -0.67421  -0.65811  -0.63519
 Alpha  occ. eigenvalues --   -0.62384  -0.61259  -0.60150  -0.59567  -0.58866
 Alpha  occ. eigenvalues --   -0.57094  -0.55725  -0.55290  -0.54570  -0.53692
 Alpha  occ. eigenvalues --   -0.52421  -0.51522  -0.50531  -0.49855  -0.48748
 Alpha  occ. eigenvalues --   -0.48618  -0.48211  -0.47686  -0.45298  -0.34746
 Alpha  occ. eigenvalues --   -0.31014
 Alpha virt. eigenvalues --    0.02998   0.03655   0.03919   0.04052   0.05286
 Alpha virt. eigenvalues --    0.05435   0.05713   0.05885   0.06284   0.07001
 Alpha virt. eigenvalues --    0.07604   0.07863   0.08539   0.08799   0.09432

 Mulliken charges:
               1
     1  C    0.443995
     2  C    0.425070
     3  C    0.870323
     4  C    0.551923
     5  C    0.935940
     6  C    0.288898
     7  H   -1.016056
     8  H   -0.486880
     9  H   -0.479673
    10  H   -0.680122
    11  N   -0.610517
    12  P    2.574034
    13  O   -0.894868
    14  H   -0.209018
    15  O   -0.813027
    16  O   -0.995817
    17  C    0.657218
    18  C    0.333834
    19  H   -0.275814
    20  H   -0.128697
    21  H   -0.083165
    22  H   -0.077722
    23  H   -0.140409
    24  C    0.536858
    25  C    0.331164
    26  H   -0.204762
    27  H   -0.182758
    28  H   -0.080247
    29  H   -0.040916
    30  H   -0.074958
    31  H   -0.473830
 Sum of Mulliken charges =  -0.00000

 Dipole moment (field-independent basis, Debye):
    X=              2.3322    Y=              0.1940    Z=             -0.5235  Tot=              2.3981

 Test job not archived.
 1\1\GINC-SE090\SP\RHF\Aug-CC-pVDZ\C10H16N1O3P1\OHZDE\08-Apr-2025\0\\#t
  hf aug-cc-pvdz iop(5/13=1,5/36=2,99/5=2) pseudo=read geom=check guess
 =(read,tcheck) scf=(maxcycle=1)\\title\\0,1\C,0,-2.824741,-0.398992,-1
 .364663\C,0,-1.542773,-0.221675,-0.852036\C,0,-3.943335,-0.364508,-0.5
 35427\C,0,-3.765233,-0.147785,0.829413\C,0,-2.490802,0.029846,1.355099
 \C,0,-1.36412,-0.005373,0.521241\H,0,-0.686449,-0.246512,-1.51201\H,0,
 -2.945119,-0.564643,-2.429652\H,0,-4.622182,-0.11632,1.493132\H,0,-2.3
 61723,0.196859,2.420076\N,0,-0.091207,0.17642,1.093315\P,0,1.434691,0.

 Normal termination of Gaussian 16 at Tue Apr  8 23:17:21 2025.
