 Gaussian 16, Revision C.01,

 ----------------------------------------------------------------------
 #t hf aug-cc-pvdz symm=none int=(grid=ultrafine) guess=(read,tcheck) s
 table=(opt,rrhf)
 ----------------------------------------------------------------------
 -----
 title
 -----
 Symbolic Z-matrix:
 Charge =  0 Multiplicity = 1

 SCF Done:  E(RHF) =  -874.627789168     A.U. after   14 cycles
 Normal termination of Gaussian 16 at Wed Apr  9 00:00:11 2025.
 Gaussian 16:  ES64L-G16RevC.01  3-Jul-2019

 ----------------------------------------------------------------------
 #t hf aug-cc-pvdz iop(5/13=1,5/36=2,99/5=2) pseudo=read geom=check gue
 ss=(read,tcheck) scf=(maxcycle=1)
 ----------------------------------------------------------------------
 -----
 title
 -----
 Structure from the checkpoint file:  "BDE49_nonexpt_2115_mol1.chk"
 Charge =  0 Multiplicity = 1

                         Standard orientation:
 ---------------------------------------------------------------------
 Center     Atomic      Atomic             Coordinates (Angstroms)
 Number     Number       Type             X           Y           Z
 ---------------------------------------------------------------------
      1          7           0       -1.339000   -0.745226    0.412781
      2          9           0       -2.424985    0.155776    0.648901
      3          9           0       -1.689757   -1.353748   -0.811681
      4         14           0        0.000000    0.434788    0.000000
      5          6           0        0.370725    1.374659    1.547060
      6          1           0       -0.420876    2.098350    1.754425
      7          1           0        1.315894    1.911884    1.436219
      8          1           0        0.456424    0.696631    2.398127
      9          6           0       -0.370725    1.374659   -1.547060
     10          1           0       -1.315894    1.911884   -1.436219
     11          1           0       -0.456424    0.696631   -2.398127
     12          1           0        0.420876    2.098349   -1.754425
     13          7           0        1.339000   -0.745226   -0.412781
     14          9           0        2.424985    0.155776   -0.648901
     15          9           0        1.689757   -1.353748    0.811681
 ---------------------------------------------------------------------

 SCF Done:  E(RHF) =  -874.851556239     A.U. after    2 cycles

 The electronic state is 1-A.
 Alpha  occ. eigenvalues --  -69.14844 -26.17197 -26.17197 -26.17181 -26.17180
 Alpha  occ. eigenvalues --  -15.81922 -15.81920 -11.25337 -11.25331  -6.89808
 Alpha  occ. eigenvalues --   -4.00681  -4.00584  -4.00445  -1.71356  -1.71114
 Alpha  occ. eigenvalues --   -1.66145  -1.66058  -1.12303  -1.09426  -0.99223
 Alpha  occ. eigenvalues --   -0.96723  -0.83951  -0.82065  -0.80962  -0.80580
 Alpha  occ. eigenvalues --   -0.80412  -0.79905  -0.75301  -0.75283  -0.70859
 Alpha  occ. eigenvalues --   -0.70777  -0.68791  -0.63763  -0.61235  -0.59728
 Alpha  occ. eigenvalues --   -0.58857  -0.58467  -0.57218  -0.50173  -0.48185
 Alpha  occ. eigenvalues --   -0.47847
 Alpha virt. eigenvalues --    0.02581   0.04141   0.04886   0.05389   0.06754
 Alpha virt. eigenvalues --    0.07135   0.07830   0.07971   0.09383   0.10610
 Alpha virt. eigenvalues --    0.12477   0.13710   0.14783   0.15153   0.15469

 Mulliken charges:
               1
     1  N   -0.002006
     2  F   -0.446214
     3  F   -0.444635
     4  Si   2.429655
     5  C    0.275219
     6  H   -0.182866
     7  H   -0.171397
     8  H   -0.242929
     9  C    0.275221
    10  H   -0.171396
    11  H   -0.242929
    12  H   -0.182868
    13  N   -0.002006
    14  F   -0.446214
    15  F   -0.444635
 Sum of Mulliken charges =  -0.00000

 Dipole moment (field-independent basis, Debye):
    X=              0.0000    Y=              3.5777    Z=             -0.0000  Tot=              3.5777

 Test job not archived.
 1\1\GINC-SE097\SP\RHF\Aug-CC-pVDZ\C2H6F4N2Si1\OHZDE\09-Apr-2025\0\\#t
 hf aug-cc-pvdz iop(5/13=1,5/36=2,99/5=2) pseudo=read geom=check guess=
 (read,tcheck) scf=(maxcycle=1)\\title\\0,1\N,0,-1.339,-0.745226,0.4127
 81\F,0,-2.424985,0.155776,0.648901\F,0,-1.689757,-1.353748,-0.811681\S
 i,0,0.,0.434788,0.\C,0,0.370725,1.374659,1.54706\H,0,-0.420876,2.09835
 ,1.754425\H,0,1.315894,1.911884,1.436219\H,0,0.456424,0.696631,2.39812
 7\C,0,-0.370725,1.374659,-1.54706\H,0,-1.315894,1.911884,-1.436219\H,0
 ,-0.456424,0.696631,-2.398127\H,0,0.420876,2.098349,-1.754425\N,0,1.33

 Normal termination of Gaussian 16 at Wed Apr  9 00:00:18 2025.
