 Gaussian 16, Revision C.01,

 ----------------------------------------------------------------------
 #t hf aug-cc-pvdz symm=none int=(grid=ultrafine) guess=(read,tcheck) s
 table=opt
 ----------------------------------------------------------------------
 -----
 title
 -----
 Symbolic Z-matrix:
 Charge =  0 Multiplicity = 2

 SCF Done:  E(UHF) =  -1205.92808362     A.U. after   19 cycles
 Normal termination of Gaussian 16 at Tue Apr  8 22:50:38 2025.
 Gaussian 16:  ES64L-G16RevC.01  3-Jul-2019

 ----------------------------------------------------------------------
 #t hf aug-cc-pvdz iop(5/13=1,5/36=2,99/5=2) pseudo=read geom=check gue
 ss=(read,tcheck) scf=(maxcycle=1)
 ----------------------------------------------------------------------
 -----
 title
 -----
 Structure from the checkpoint file:  "BDE49_expt_1797_mol2.chk"
 Charge =  0 Multiplicity = 2

                         Standard orientation:
 ---------------------------------------------------------------------
 Center     Atomic      Atomic             Coordinates (Angstroms)
 Number     Number       Type             X           Y           Z
 ---------------------------------------------------------------------
      1          8           0        0.000001    2.039653   -0.443460
      2          8           0        0.000001    1.293478    0.639739
      3          6           0       -0.000000   -0.124583    0.355787
      4          9           0       -0.000001   -0.674570    1.566129
      5         17           0        1.468361   -0.583719   -0.523533
      6         17           0       -1.468362   -0.583717   -0.523533
 ---------------------------------------------------------------------

 SCF Done:  E(UHF) =  -1206.06258717     A.U. after    2 cycles

 The electronic state is 2-A.
 Alpha  occ. eigenvalues -- -103.71102-103.71100 -26.20286 -20.74018 -20.73309
 Alpha  occ. eigenvalues --  -11.55289 -10.74467 -10.74456  -8.40200  -8.40194
 Alpha  occ. eigenvalues --   -8.39831  -8.39830  -8.39827  -8.39826  -1.75761
 Alpha  occ. eigenvalues --   -1.57790  -1.28522  -1.21330  -1.18805  -0.96536
 Alpha  occ. eigenvalues --   -0.85672  -0.84664  -0.82242  -0.81314  -0.72803
 Alpha  occ. eigenvalues --   -0.70518  -0.64461  -0.58275  -0.55839  -0.53607
 Alpha  occ. eigenvalues --   -0.52556  -0.51208  -0.49353
 Alpha virt. eigenvalues --    0.05995   0.07847   0.08954   0.10078   0.10350
 Alpha virt. eigenvalues --    0.11938   0.13290   0.14133   0.15489   0.15973
 Alpha virt. eigenvalues --    0.18205   0.20829   0.21532   0.22681   0.24353

  Beta  occ. eigenvalues -- -103.71097-103.71096 -26.20308 -20.72636 -20.69835
  Beta  occ. eigenvalues --  -11.55363 -10.74463 -10.74452  -8.40174  -8.40167
  Beta  occ. eigenvalues --   -8.39832  -8.39832  -8.39825  -8.39824  -1.75812
  Beta  occ. eigenvalues --   -1.51990  -1.25885  -1.18742  -1.14525  -0.95350
  Beta  occ. eigenvalues --   -0.84356  -0.83369  -0.81927  -0.70726  -0.69455
  Beta  occ. eigenvalues --   -0.68602  -0.57794  -0.55868  -0.53212  -0.51768
  Beta  occ. eigenvalues --   -0.50972  -0.49348
  Beta virt. eigenvalues --    0.05079   0.06008   0.07879   0.08987   0.10106
  Beta virt. eigenvalues --    0.10476   0.12313   0.13366   0.14140   0.15933
  Beta virt. eigenvalues --    0.16219   0.18231   0.20858   0.22544   0.22816

 Mulliken charges and spin densities:
               1          2
     1  O   -0.069432   0.967680
     2  O   -0.307940   0.044500
     3  C    0.497988  -0.014716
     4  F   -0.196956  -0.002394
     5  Cl   0.038170   0.002465
     6  Cl   0.038170   0.002465
 Sum of Mulliken charges =  -0.00000   1.00000

 Dipole moment (field-independent basis, Debye):
    X=             -0.0000    Y=             -0.5247    Z=             -0.7803  Tot=              0.9403
                          Isotropic Fermi Contact Couplings
        Atom                 a.u.       MegaHertz       Gauss      10(-4) cm-1
     1  O(17)              0.29756    -180.37989     -64.36403     -60.16825
     2  O(17)              0.06760     -40.98050     -14.62286     -13.66962
     3  C(13)             -0.01538     -17.29414      -6.17098      -5.76870
     4  F(19)             -0.00366     -15.38156      -5.48852      -5.13073
     5  Cl(35)            -0.00458      -2.00798      -0.71650      -0.66979
     6  Cl(35)            -0.00458      -2.00798      -0.71650      -0.66979
 --------------------------------------------------------
       Center         ----  Spin Dipole Couplings  ----

 Normal termination of Gaussian 16 at Tue Apr  8 22:50:40 2025.
