 Gaussian 16, Revision C.01,

 ----------------------------------------------------------------------
 #t hf aug-cc-pvdz symm=none int=(grid=ultrafine) guess=(read,tcheck) s
 table=opt
 ----------------------------------------------------------------------
 -----
 title
 -----
 Symbolic Z-matrix:
 Charge =  0 Multiplicity = 2

 SCF Done:  E(UHF) =  -189.232510339     A.U. after   19 cycles
 Normal termination of Gaussian 16 at Tue Apr  8 22:55:34 2025.
 Gaussian 16:  ES64L-G16RevC.01  3-Jul-2019

 ----------------------------------------------------------------------
 #t hf aug-cc-pvdz iop(5/13=1,5/36=2,99/5=2) pseudo=read geom=check gue
 ss=(read,tcheck) scf=(maxcycle=1)
 ----------------------------------------------------------------------
 -----
 title
 -----
 Structure from the checkpoint file:  "BDE49_expt_1917_mol3.chk"
 Charge =  0 Multiplicity = 2

                         Standard orientation:
 ---------------------------------------------------------------------
 Center     Atomic      Atomic             Coordinates (Angstroms)
 Number     Number       Type             X           Y           Z
 ---------------------------------------------------------------------
      1          8           0       -1.186401   -0.278559    0.000011
      2          8           0       -0.157137    0.543878   -0.000009
      3          6           0        1.096022   -0.183189   -0.000002
      4          1           0        1.874888    0.578410   -0.000025
      5          1           0        1.148634   -0.800936   -0.896938
      6          1           0        1.148648   -0.800895    0.896961
 ---------------------------------------------------------------------

 SCF Done:  E(UHF) =  -189.295531500     A.U. after    2 cycles

 The electronic state is 2-A.
 Alpha  occ. eigenvalues --  -20.68844 -20.67555 -11.30924  -1.52039  -1.19629
 Alpha  occ. eigenvalues --   -0.94191  -0.78305  -0.72089  -0.71357  -0.62171
 Alpha  occ. eigenvalues --   -0.57698  -0.51764  -0.50228
 Alpha virt. eigenvalues --    0.03370   0.05522   0.05646   0.08795   0.14033
 Alpha virt. eigenvalues --    0.14146   0.15783   0.16974   0.20620   0.21759
 Alpha virt. eigenvalues --    0.23822   0.26023   0.27390   0.28035   0.30081

  Beta  occ. eigenvalues --  -20.66647 -20.64777 -11.30997  -1.45786  -1.10830
  Beta  occ. eigenvalues --   -0.92099  -0.70443  -0.68939  -0.66257  -0.57010
  Beta  occ. eigenvalues --   -0.51406  -0.48367
  Beta virt. eigenvalues --    0.03379   0.05321   0.05524   0.08837   0.09357
  Beta virt. eigenvalues --    0.14194   0.14209   0.15931   0.17019   0.20704
  Beta virt. eigenvalues --    0.23902   0.24858   0.27715   0.27882   0.28121

 Mulliken charges and spin densities:
               1          2
     1  O   -0.132027   0.933796
     2  O   -0.406473   0.084917
     3  C    0.815632  -0.027218
     4  H   -0.127284   0.000025
     5  H   -0.074924   0.004240
     6  H   -0.074924   0.004240
 Sum of Mulliken charges =  -0.00000   1.00000

 Dipole moment (field-independent basis, Debye):
    X=              2.4500    Y=             -0.7817    Z=              0.0000  Tot=              2.5717
                          Isotropic Fermi Contact Couplings
        Atom                 a.u.       MegaHertz       Gauss      10(-4) cm-1
     1  O(17)              0.29579    -179.30627     -63.98094     -59.81013
     2  O(17)              0.09598     -58.18451     -20.76168     -19.40826
     3  C(13)             -0.01143     -12.84547      -4.58358      -4.28479
     4  H(1)              -0.00086      -3.86626      -1.37958      -1.28965
     5  H(1)               0.00156       6.97817       2.48998       2.32767
     6  H(1)               0.00156       6.97822       2.49000       2.32769
 --------------------------------------------------------
       Center         ----  Spin Dipole Couplings  ----

 Normal termination of Gaussian 16 at Tue Apr  8 22:55:36 2025.
