 Gaussian 16, Revision C.01,

 ----------------------------------------------------------------------
 #t hf aug-cc-pvdz symm=none int=(grid=ultrafine) guess=(read,tcheck) s
 table=(opt,rrhf)
 ----------------------------------------------------------------------
 -----
 title
 -----
 Symbolic Z-matrix:
 Charge =  0 Multiplicity = 1

 SCF Done:  E(RHF) =  -1350.86032006     A.U. after   15 cycles
 Normal termination of Gaussian 16 at Tue Apr  8 23:53:04 2025.
 Gaussian 16:  ES64L-G16RevC.01  3-Jul-2019

 ----------------------------------------------------------------------
 #t hf aug-cc-pvdz iop(5/13=1,5/36=2,99/5=2) pseudo=read geom=check gue
 ss=(read,tcheck) scf=(maxcycle=1)
 ----------------------------------------------------------------------
 -----
 title
 -----
 Structure from the checkpoint file:  "BDE49_nonexpt_1941_mol1.chk"
 Charge =  0 Multiplicity = 1

                         Standard orientation:
 ---------------------------------------------------------------------
 Center     Atomic      Atomic             Coordinates (Angstroms)
 Number     Number       Type             X           Y           Z
 ---------------------------------------------------------------------
      1          6           0       -1.230257    1.073071    0.759788
      2         14           0        0.478377    1.468692    0.039229
      3          6           0        1.613681   -0.043997    0.431247
      4          1           0        1.062209    2.612439    0.772268
      5          1           0        0.433866    1.741908   -1.410977
      6          8           0        1.507585   -0.621277    1.484497
      7         16           0        2.847772   -0.494962   -0.819319
      8          1           0        3.404434   -1.474535   -0.081196
      9          6           0       -2.089544    0.250141   -0.168663
     10          8           0       -2.780493    0.712953   -1.034358
     11         16           0       -1.948338   -1.541900    0.112787
     12          1           0       -2.759490   -1.851500   -0.912729
     13          1           0       -1.746459    2.020235    0.936132
     14          1           0       -1.062809    0.570841    1.716446
 ---------------------------------------------------------------------

 SCF Done:  E(RHF) =  -1351.00327964     A.U. after    2 cycles

 The electronic state is 1-A.
 Alpha  occ. eigenvalues --  -93.56789 -93.56484 -69.10721 -20.60067 -20.58712
 Alpha  occ. eigenvalues --  -11.39739 -11.38284 -11.26713  -8.86668  -8.86334
 Alpha  occ. eigenvalues --   -6.85987  -6.20813  -6.20582  -6.20489  -6.20264
 Alpha  occ. eigenvalues --   -6.20261  -6.19936  -3.96781  -3.96743  -3.96724
 Alpha  occ. eigenvalues --   -1.38913  -1.38720  -1.05264  -1.01477  -0.98005
 Alpha  occ. eigenvalues --   -0.82119  -0.76730  -0.71507  -0.67768  -0.66665
 Alpha  occ. eigenvalues --   -0.65195  -0.63603  -0.60266  -0.58539  -0.57368
 Alpha  occ. eigenvalues --   -0.53580  -0.52365  -0.50767  -0.48705  -0.42846
 Alpha  occ. eigenvalues --   -0.40831  -0.40020  -0.39690
 Alpha virt. eigenvalues --    0.03141   0.04357   0.04692   0.05072   0.06045
 Alpha virt. eigenvalues --    0.06809   0.07250   0.07728   0.07954   0.08573
 Alpha virt. eigenvalues --    0.09055   0.10093   0.10361   0.11204   0.12158

 Mulliken charges:
               1
     1  C    0.219433
     2  Si   0.526952
     3  C   -0.111062
     4  H    0.051899
     5  H    0.128372
     6  O   -0.521300
     7  S    0.182764
     8  H    0.100683
     9  C   -0.040939
    10  O   -0.534868
    11  S    0.191842
    12  H    0.086986
    13  H   -0.125524
    14  H   -0.155239
 Sum of Mulliken charges =  -0.00000

 Dipole moment (field-independent basis, Debye):
    X=              1.2528    Y=              0.6183    Z=              0.2325  Tot=              1.4163

 Test job not archived.
 1\1\GINC-SE096\SP\RHF\Aug-CC-pVDZ\C3H6O2S2Si1\OHZDE\08-Apr-2025\0\\#t
 hf aug-cc-pvdz iop(5/13=1,5/36=2,99/5=2) pseudo=read geom=check guess=
 (read,tcheck) scf=(maxcycle=1)\\title\\0,1\C,0,-1.230257,1.073071,0.75
 9788\Si,0,0.478377,1.468692,0.039229\C,0,1.613681,-0.043997,0.431247\H
 ,0,1.062209,2.612439,0.772268\H,0,0.433866,1.741908,-1.410977\O,0,1.50
 7585,-0.621277,1.484497\S,0,2.847772,-0.494962,-0.819319\H,0,3.404434,
 -1.474535,-0.081196\C,0,-2.089544,0.250141,-0.168663\O,0,-2.780493,0.7
 12953,-1.034358\S,0,-1.948338,-1.5419,0.112787\H,0,-2.75949,-1.8515,-0

 Normal termination of Gaussian 16 at Tue Apr  8 23:53:11 2025.
