 Gaussian 16, Revision C.01,

 ----------------------------------------------------------------------
 #t hf aug-cc-pvdz symm=none int=(grid=ultrafine) guess=(read,tcheck) s
 table=(opt,rrhf)
 ----------------------------------------------------------------------
 -----
 title
 -----
 Symbolic Z-matrix:
 Charge =  0 Multiplicity = 1

 SCF Done:  E(RHF) =  -743.826307433     A.U. after   14 cycles
 Normal termination of Gaussian 16 at Tue Apr  8 23:53:34 2025.
 Gaussian 16:  ES64L-G16RevC.01  3-Jul-2019

 ----------------------------------------------------------------------
 #t hf aug-cc-pvdz iop(5/13=1,5/36=2,99/5=2) pseudo=read geom=check gue
 ss=(read,tcheck) scf=(maxcycle=1)
 ----------------------------------------------------------------------
 -----
 title
 -----
 Structure from the checkpoint file:  "BDE49_nonexpt_1926_mol1.chk"
 Charge =  0 Multiplicity = 1

                         Standard orientation:
 ---------------------------------------------------------------------
 Center     Atomic      Atomic             Coordinates (Angstroms)
 Number     Number       Type             X           Y           Z
 ---------------------------------------------------------------------
      1         14           0       -0.201137   -1.195606   -1.118888
      2          6           0        1.435773   -0.214547   -1.243658
      3          6           0        1.704487    0.726848   -0.104887
      4          7           0        2.029945    0.360075    1.076137
      5          8           0        2.082204   -1.056392    1.171659
      6          1           0        2.351213   -1.187480    2.086067
      7          6           0       -1.426856   -0.380919    0.063906
      8          1           0        0.071321   -2.569424   -0.641433
      9          1           0       -0.803667   -1.259055   -2.468263
     10          7           0       -2.263661    0.386529   -0.531741
     11          8           0       -3.165003    0.993185    0.367521
     12          1           0       -3.717528    1.517917   -0.220695
     13          6           0        1.572372    2.206759   -0.329276
     14          1           0        2.266493    2.541114   -1.107228
     15          1           0        1.778242    2.751124    0.591970
     16          1           0        0.559912    2.448560   -0.668990
     17          6           0       -1.414555   -0.608663    1.555122
     18          1           0       -2.321390   -1.141627    1.858752
     19          1           0       -1.413833    0.347412    2.084278
     20          1           0       -0.541903   -1.186114    1.857383
     21          1           0        1.425114    0.341226   -2.183760
     22          1           0        2.233019   -0.962616   -1.295113
 ---------------------------------------------------------------------

 SCF Done:  E(RHF) =  -743.985995582     A.U. after    2 cycles

 The electronic state is 1-A.
 Alpha  occ. eigenvalues --  -69.07127 -20.60905 -20.60862 -15.69209 -15.67741
 Alpha  occ. eigenvalues --  -11.29988 -11.27358 -11.24377 -11.23822 -11.23474
 Alpha  occ. eigenvalues --   -6.82342  -3.93129  -3.93093  -3.93081  -1.37385
 Alpha  occ. eigenvalues --   -1.37084  -1.15530  -1.13703  -0.98889  -0.96937
 Alpha  occ. eigenvalues --   -0.95549  -0.78298  -0.74314  -0.70669  -0.70305
 Alpha  occ. eigenvalues --   -0.68255  -0.65496  -0.62733  -0.61768  -0.60638
 Alpha  occ. eigenvalues --   -0.58644  -0.57696  -0.56112  -0.55582  -0.55458
 Alpha  occ. eigenvalues --   -0.53938  -0.48887  -0.48317  -0.46966  -0.43398
 Alpha  occ. eigenvalues --   -0.41846  -0.39486  -0.37631
 Alpha virt. eigenvalues --    0.03134   0.03890   0.04122   0.04489   0.05666
 Alpha virt. eigenvalues --    0.06283   0.06394   0.06498   0.07265   0.08544
 Alpha virt. eigenvalues --    0.08890   0.09172   0.09324   0.09957   0.11620

 Mulliken charges:
               1
     1  Si   0.144500
     2  C    0.542511
     3  C   -0.022701
     4  N   -0.296127
     5  O   -0.585888
     6  H    0.191047
     7  C    0.019298
     8  H    0.162903
     9  H    0.159045
    10  N   -0.239092
    11  O   -0.525339
    12  H    0.176713
    13  C    0.191476
    14  H    0.045543
    15  H   -0.075974
    16  H    0.010771
    17  C    0.559177
    18  H    0.029917
    19  H    0.017025
    20  H   -0.179205
    21  H   -0.266947
    22  H   -0.058653
 Sum of Mulliken charges =  -0.00000

 Dipole moment (field-independent basis, Debye):
    X=              0.5687    Y=              0.5232    Z=             -0.5248  Tot=              0.9341

 Test job not archived.
 1\1\GINC-SE404\SP\RHF\Aug-CC-pVDZ\C5H12N2O2Si1\OHZDE\08-Apr-2025\0\\#t
  hf aug-cc-pvdz iop(5/13=1,5/36=2,99/5=2) pseudo=read geom=check guess
 =(read,tcheck) scf=(maxcycle=1)\\title\\0,1\Si,0,-0.201137,-1.195606,-
 1.118888\C,0,1.435773,-0.214547,-1.243658\C,0,1.704487,0.726848,-0.104
 887\N,0,2.029945,0.360075,1.076137\O,0,2.082204,-1.056392,1.171659\H,0
 ,2.351213,-1.18748,2.086067\C,0,-1.426856,-0.380919,0.063906\H,0,0.071
 321,-2.569424,-0.641433\H,0,-0.803667,-1.259055,-2.468263\N,0,-2.26366
 1,0.386529,-0.531741\O,0,-3.165003,0.993185,0.367521\H,0,-3.717528,1.5

 Normal termination of Gaussian 16 at Tue Apr  8 23:53:49 2025.
