 Gaussian 16, Revision C.01,

 ----------------------------------------------------------------------
 #t hf aug-cc-pvdz symm=none int=(grid=ultrafine) guess=(read,tcheck) s
 table=(opt,rrhf)
 ----------------------------------------------------------------------
 -----
 title
 -----
 Symbolic Z-matrix:
 Charge =  0 Multiplicity = 1

 SCF Done:  E(RHF) =  -204.167601308     A.U. after   13 cycles
 Normal termination of Gaussian 16 at Tue Apr  8 23:04:42 2025.
 Gaussian 16:  ES64L-G16RevC.01  3-Jul-2019

 ----------------------------------------------------------------------
 #t hf aug-cc-pvdz iop(5/13=1,5/36=2,99/5=2) pseudo=read geom=check gue
 ss=(read,tcheck) scf=(maxcycle=1)
 ----------------------------------------------------------------------
 -----
 title
 -----
 Structure from the checkpoint file:  "BDE49_expt_419_mol1.chk"
 Charge =  0 Multiplicity = 1

                         Standard orientation:
 ---------------------------------------------------------------------
 Center     Atomic      Atomic             Coordinates (Angstroms)
 Number     Number       Type             X           Y           Z
 ---------------------------------------------------------------------
      1          6           0        0.017238    0.124158   -0.000308
      2          7           0        0.192024    1.389211    0.011157
      3          7           0        0.991373   -0.877076    0.078306
      4          7           0       -1.270319   -0.406311   -0.084960
      5          1           0        1.937818   -0.548691   -0.044201
      6          1           0        0.794599   -1.696101   -0.481470
      7          1           0       -1.967790    0.318714    0.010003
      8          1           0       -1.439535   -1.188003    0.534227
      9          1           0        1.179931    1.628363   -0.048235
 ---------------------------------------------------------------------

 SCF Done:  E(RHF) =  -204.230281320     A.U. after    2 cycles

 The electronic state is 1-A.
 Alpha  occ. eigenvalues --  -15.64661 -15.63500 -15.58135 -11.35947  -1.26247
 Alpha  occ. eigenvalues --   -1.13394  -1.10297  -0.80408  -0.72574  -0.70441
 Alpha  occ. eigenvalues --   -0.62705  -0.60635  -0.55908  -0.43035  -0.41753
 Alpha  occ. eigenvalues --   -0.36200
 Alpha virt. eigenvalues --    0.02945   0.03644   0.04984   0.06375   0.07617
 Alpha virt. eigenvalues --    0.11027   0.13372   0.14714   0.15037   0.16749
 Alpha virt. eigenvalues --    0.17738   0.18472   0.18808   0.19785   0.20990

 Mulliken charges:
               1
     1  C    0.876772
     2  N   -0.360090
     3  N   -0.239647
     4  N   -0.287725
     5  H    0.010081
     6  H   -0.001867
     7  H    0.026460
     8  H   -0.017401
     9  H   -0.006582
 Sum of Mulliken charges =  -0.00000

 Dipole moment (field-independent basis, Debye):
    X=              0.9789    Y=             -2.7465    Z=             -0.0443  Tot=              2.9160

 Test job not archived.
 1\1\GINC-SE127\SP\RHF\Aug-CC-pVDZ\C1H5N3\OHZDE\08-Apr-2025\0\\#t hf au
 g-cc-pvdz iop(5/13=1,5/36=2,99/5=2) pseudo=read geom=check guess=(read
 ,tcheck) scf=(maxcycle=1)\\title\\0,1\C,0,0.017238,0.124158,-0.000308\
 N,0,0.192027,1.38921,0.011157\N,0,0.991371,-0.877078,0.078306\N,0,-1.2
 7032,-0.406308,-0.08496\H,0,1.937817,-0.548696,-0.044201\H,0,0.794595,
 -1.696103,-0.48147\H,0,-1.967789,0.318718,0.010003\H,0,-1.439538,-1.18
 8,0.534227\H,0,1.179934,1.62836,-0.048235\\Version=ES64L-G16RevC.01\St
 ate=1-A\HF=-204.2302813\RMSD=1.749e-03\Dipole=0.3851378,-1.0805403,-0.

 Normal termination of Gaussian 16 at Tue Apr  8 23:04:44 2025.
