 Gaussian 16, Revision C.01,

 ----------------------------------------------------------------------
 #t hf aug-cc-pvdz symm=none int=(grid=ultrafine) guess=(read,tcheck) s
 table=(opt,rrhf)
 ----------------------------------------------------------------------
 -----
 title
 -----
 Symbolic Z-matrix:
 Charge =  0 Multiplicity = 1

 SCF Done:  E(RHF) =  -725.887576066     A.U. after   11 cycles
 Normal termination of Gaussian 16 at Tue Apr  8 23:48:17 2025.
 Gaussian 16:  ES64L-G16RevC.01  3-Jul-2019

 ----------------------------------------------------------------------
 #t hf aug-cc-pvdz iop(5/13=1,5/36=2,99/5=2) pseudo=read geom=check gue
 ss=(read,tcheck) scf=(maxcycle=1)
 ----------------------------------------------------------------------
 -----
 title
 -----
 Structure from the checkpoint file:  "BDE49_nonexpt_1835_mol1.chk"
 Charge =  0 Multiplicity = 1

                         Standard orientation:
 ---------------------------------------------------------------------
 Center     Atomic      Atomic             Coordinates (Angstroms)
 Number     Number       Type             X           Y           Z
 ---------------------------------------------------------------------
      1          6           0        1.031018   -0.000000   -0.390951
      2         14           0       -0.727825    0.000000    0.325538
      3          9           0       -1.486476   -1.287109   -0.227132
      4          9           0        1.687691   -1.113436    0.087097
      5          9           0       -1.486476    1.287109   -0.227131
      6          1           0       -0.740735   -0.000001    1.789610
      7          9           0        1.687691    1.113435    0.087096
      8          1           0        1.122308   -0.000001   -1.480806
 ---------------------------------------------------------------------

 SCF Done:  E(RHF) =  -726.086117634     A.U. after    2 cycles

 The electronic state is 1-A.
 Alpha  occ. eigenvalues --  -69.19194 -26.15449 -26.15442 -26.14503 -26.14502
 Alpha  occ. eigenvalues --  -11.42782  -6.93400  -4.04405  -4.04277  -4.04108
 Alpha  occ. eigenvalues --   -1.71110  -1.68008  -1.66987  -1.66787  -1.01198
 Alpha  occ. eigenvalues --   -0.86892  -0.83036  -0.82318  -0.81604  -0.79888
 Alpha  occ. eigenvalues --   -0.77194  -0.76171  -0.74891  -0.74525  -0.73064
 Alpha  occ. eigenvalues --   -0.71201  -0.66393  -0.60216  -0.50978
 Alpha virt. eigenvalues --    0.03752   0.04874   0.05563   0.05854   0.07936
 Alpha virt. eigenvalues --    0.10360   0.10917   0.11982   0.14895   0.15463
 Alpha virt. eigenvalues --    0.16094   0.18917   0.20198   0.22754   0.24381

 Mulliken charges:
               1
     1  C    0.735042
     2  Si   1.915006
     3  F   -0.768494
     4  F   -0.402320
     5  F   -0.768494
     6  H   -0.062685
     7  F   -0.402320
     8  H   -0.245735
 Sum of Mulliken charges =  -0.00000

 Dipole moment (field-independent basis, Debye):
    X=             -0.3984    Y=             -0.0000    Z=             -0.2181  Tot=              0.4541

 Test job not archived.
 1\1\GINC-SE059\SP\RHF\Aug-CC-pVDZ\C1H2F4Si1\OHZDE\08-Apr-2025\0\\#t hf
  aug-cc-pvdz iop(5/13=1,5/36=2,99/5=2) pseudo=read geom=check guess=(r
 ead,tcheck) scf=(maxcycle=1)\\title\\0,1\C,0,1.031018,0.,-0.390951\Si,
 0,-0.727825,0.,0.325538\F,0,-1.486476,-1.287109,-0.227132\F,0,1.687691
 ,-1.113435,0.087097\F,0,-1.486476,1.287109,-0.227131\H,0,-0.740735,-0.
 000001,1.78961\F,0,1.687691,1.113436,0.087096\H,0,1.122308,-0.000001,-
 1.480806\\Version=ES64L-G16RevC.01\State=1-A\HF=-726.0861176\RMSD=5.18
 9e-03\Dipole=-0.1567292,-0.0000005,-0.085796\Quadrupole=-2.5634145,-2.

 Normal termination of Gaussian 16 at Tue Apr  8 23:48:20 2025.
