 Gaussian 16, Revision C.01,

 ----------------------------------------------------------------------
 #t hf aug-cc-pvdz symm=none int=(grid=ultrafine) guess=(read,tcheck) s
 table=opt
 ----------------------------------------------------------------------
 -----
 title
 -----
 Symbolic Z-matrix:
 Charge =  0 Multiplicity = 2

 SCF Done:  E(UHF) =  -419.957252923     A.U. after   14 cycles
 Normal termination of Gaussian 16 at Tue Apr  8 23:24:57 2025.
 Gaussian 16:  ES64L-G16RevC.01  3-Jul-2019

 ----------------------------------------------------------------------
 #t hf aug-cc-pvdz iop(5/13=1,5/36=2,99/5=2) pseudo=read geom=check gue
 ss=(read,tcheck) scf=(maxcycle=1)
 ----------------------------------------------------------------------
 -----
 title
 -----
 Structure from the checkpoint file:  "BDE49_nonexpt_1296_mol3.chk"
 Charge =  0 Multiplicity = 2

                         Standard orientation:
 ---------------------------------------------------------------------
 Center     Atomic      Atomic             Coordinates (Angstroms)
 Number     Number       Type             X           Y           Z
 ---------------------------------------------------------------------
      1         15           0       -0.000000   -0.000000    0.704938
      2          6           0        0.000000    1.408246   -0.504227
      3          6           0       -0.000000   -1.408246   -0.504227
      4          1           0        0.885603   -1.376601   -1.148491
      5          1           0       -0.885603   -1.376600   -1.148491
      6          1           0       -0.000000   -2.357400    0.035305
      7          1           0       -0.885603    1.376601   -1.148491
      8          1           0        0.885603    1.376600   -1.148491
      9          1           0        0.000000    2.357400    0.035305
 ---------------------------------------------------------------------

 SCF Done:  E(UHF) =  -420.004804926     A.U. after    2 cycles

 The electronic state is 2-B.
 Alpha  occ. eigenvalues --  -81.25227 -11.23591 -11.23590  -7.75639  -4.90361
 Alpha  occ. eigenvalues --   -4.89274  -4.88952  -0.98433  -0.93254  -0.70341
 Alpha  occ. eigenvalues --   -0.59316  -0.58719  -0.56034  -0.55694  -0.46117
 Alpha  occ. eigenvalues --   -0.37298  -0.32011
 Alpha virt. eigenvalues --    0.03626   0.04619   0.05552   0.06036   0.07593
 Alpha virt. eigenvalues --    0.07929   0.08499   0.11950   0.12197   0.12504
 Alpha virt. eigenvalues --    0.16269   0.16505   0.16653   0.17459   0.17479

  Beta  occ. eigenvalues --  -81.24531 -11.23732 -11.23731  -7.74803  -4.88780
  Beta  occ. eigenvalues --   -4.88607  -4.87175  -0.97394  -0.93218  -0.64727
  Beta  occ. eigenvalues --   -0.58567  -0.57464  -0.55736  -0.54885  -0.45848
  Beta  occ. eigenvalues --   -0.34895
  Beta virt. eigenvalues --    0.03655   0.04642   0.05281   0.06073   0.06260
  Beta virt. eigenvalues --    0.07597   0.07934   0.08666   0.12061   0.12589
  Beta virt. eigenvalues --    0.15587   0.16333   0.16593   0.16995   0.17682

 Mulliken charges and spin densities:
               1          2
     1  P    0.617563   1.174211
     2  C    0.175405  -0.112820
     3  C    0.175405  -0.112820
     4  H   -0.136881   0.013358
     5  H   -0.136881   0.013358
     6  H   -0.210424  -0.001001
     7  H   -0.136881   0.013358
     8  H   -0.136881   0.013358
     9  H   -0.210424  -0.001001
 Sum of Mulliken charges =   0.00000   1.00000

 Dipole moment (field-independent basis, Debye):
    X=              0.0000    Y=              0.0000    Z=             -1.4457  Tot=              1.4457
                          Isotropic Fermi Contact Couplings
        Atom                 a.u.       MegaHertz       Gauss      10(-4) cm-1
     1  P(31)              0.24901     450.98819     160.92380     150.43347
     2  C(13)             -0.02811     -31.60274     -11.27664     -10.54154
     3  C(13)             -0.02811     -31.60274     -11.27664     -10.54154
     4  H(1)               0.01071      47.86620      17.07985      15.96645
     5  H(1)               0.01071      47.86618      17.07984      15.96644
     6  H(1)               0.00035       1.58024       0.56387       0.52711
     7  H(1)               0.01071      47.86620      17.07985      15.96645
     8  H(1)               0.01071      47.86618      17.07984      15.96644

 Normal termination of Gaussian 16 at Tue Apr  8 23:24:59 2025.
