 Gaussian 16, Revision C.01,

 ----------------------------------------------------------------------
 #t hf aug-cc-pvdz symm=none int=(grid=ultrafine) guess=(read,tcheck) s
 table=(opt,rrhf)
 ----------------------------------------------------------------------
 -----
 title
 -----
 Symbolic Z-matrix:
 Charge =  0 Multiplicity = 1

 SCF Done:  E(RHF) =  -1155.76443605     A.U. after   12 cycles

 1\1\GINC-SE226\Stability\RHF\Aug-CC-pVDZ\C1Cl2F2\OHZDE\08-Apr-2025\0\\
 #t hf aug-cc-pvdz symm=none int=(grid=ultrafine) guess=(read,tcheck) s
 table=(opt,rrhf)\\title\\0,1\C,0,0.000011,0.344568,-0.000007\Cl,0,-1.4
 72819,-0.657066,0.000002\F,0,-0.000033,1.126227,1.080898\F,0,-0.000018
 ,1.126255,-1.080887\Cl,0,1.472842,-0.657036,-0.000006\\Version=ES64L-G
 16RevC.01\HF=-1155.7644361\RMSD=1.552e-09\Dipole=0.0000739,-0.2154589,
 -0.0000125\Quadrupole=1.2771436,-0.2350922,-1.0420514,-0.0000622,-0.00
 00044,-0.000033\PG=Unknown\\@

 Normal termination of Gaussian 16 at Tue Apr  8 22:42:38 2025.
 Gaussian 16:  ES64L-G16RevC.01  3-Jul-2019

 ----------------------------------------------------------------------
 #t hf aug-cc-pvdz iop(5/13=1,5/36=2,99/5=2) pseudo=read geom=check gue
 ss=(read,tcheck) scf=(maxcycle=1)
 ----------------------------------------------------------------------
 -----
 title
 -----
 Structure from the checkpoint file:  "BDE49_expt_1501_mol1.chk"
 Charge =  0 Multiplicity = 1

                         Standard orientation:
 ---------------------------------------------------------------------
 Center     Atomic      Atomic             Coordinates (Angstroms)
 Number     Number       Type             X           Y           Z
 ---------------------------------------------------------------------
      1          6           0        0.000011    0.344568   -0.000007
      2         17           0       -1.472819   -0.657066    0.000002
      3          9           0       -0.000033    1.126227    1.080898
      4          9           0       -0.000018    1.126255   -1.080887
      5         17           0        1.472842   -0.657036   -0.000006
 ---------------------------------------------------------------------

 SCF Done:  E(RHF) =  -1155.88947018     A.U. after    2 cycles

 The electronic state is 1-A.
 Alpha  occ. eigenvalues -- -103.70864-103.70862 -26.19801 -26.19789 -11.57427
 Alpha  occ. eigenvalues --  -10.74229 -10.74216  -8.39946  -8.39939  -8.39589
 Alpha  occ. eigenvalues --   -8.39588  -8.39588  -8.39587  -1.77582  -1.72445
 Alpha  occ. eigenvalues --   -1.24808  -1.18575  -1.00122  -0.88965  -0.85243
 Alpha  occ. eigenvalues --   -0.85237  -0.78887  -0.75477  -0.69365  -0.59357
 Alpha  occ. eigenvalues --   -0.54015  -0.52927  -0.51023  -0.49184
 Alpha virt. eigenvalues --    0.06152   0.07968   0.09030   0.09992   0.10709
 Alpha virt. eigenvalues --    0.11890   0.14339   0.14518   0.15468   0.18169
 Alpha virt. eigenvalues --    0.19070   0.21292   0.25689   0.25768   0.29157

 Mulliken charges:
               1
     1  C    0.412274
     2  Cl   0.009416
     3  F   -0.215564
     4  F   -0.215560
     5  Cl   0.009434
 Sum of Mulliken charges =  -0.00000

 Dipole moment (field-independent basis, Debye):
    X=              0.0002    Y=             -0.8359    Z=             -0.0000  Tot=              0.8359

 Test job not archived.
 1\1\GINC-SE226\SP\RHF\Aug-CC-pVDZ\C1Cl2F2\OHZDE\08-Apr-2025\0\\#t hf a
 ug-cc-pvdz iop(5/13=1,5/36=2,99/5=2) pseudo=read geom=check guess=(rea
 d,tcheck) scf=(maxcycle=1)\\title\\0,1\C,0,0.000011,0.344568,-0.000007
 \Cl,0,-1.472819,-0.657066,0.000002\F,0,-0.000033,1.126227,1.080898\F,0
 ,-0.000018,1.126255,-1.080887\Cl,0,1.472842,-0.657036,-0.000006\\Versi
 on=ES64L-G16RevC.01\State=1-A\HF=-1155.8894702\RMSD=4.821e-03\Dipole=0
 .0000794,-0.3288493,-0.0000139\Quadrupole=1.5515581,-0.3324025,-1.2191
 556,-0.0000504,-0.0000024,-0.0000308\PG=C01 [X(C1Cl2F2)]\\@

 Normal termination of Gaussian 16 at Tue Apr  8 22:42:40 2025.
