 Gaussian 16, Revision C.01,

 ----------------------------------------------------------------------
 #t hf aug-cc-pvdz symm=none int=(grid=ultrafine) guess=(read,tcheck) s
 table=(opt,rrhf)
 ----------------------------------------------------------------------
 -----
 title
 -----
 Symbolic Z-matrix:
 Charge =  0 Multiplicity = 1

 SCF Done:  E(RHF) =  -546.373874697     A.U. after   14 cycles
 Normal termination of Gaussian 16 at Wed Apr  9 00:43:31 2025.
 Gaussian 16:  ES64L-G16RevC.01  3-Jul-2019

 ----------------------------------------------------------------------
 #t hf aug-cc-pvdz iop(5/13=1,5/36=2,99/5=2) pseudo=read geom=check gue
 ss=(read,tcheck) scf=(maxcycle=1)
 ----------------------------------------------------------------------
 -----
 title
 -----
 Structure from the checkpoint file:  "BDE49_nonexpt_776_mol1.chk"
 Charge =  0 Multiplicity = 1

                         Standard orientation:
 ---------------------------------------------------------------------
 Center     Atomic      Atomic             Coordinates (Angstroms)
 Number     Number       Type             X           Y           Z
 ---------------------------------------------------------------------
      1          6           0       -1.621694    0.202223   -0.044854
      2          5           0        1.643121    0.017348   -0.026540
      3          6           0        1.830514    1.569588   -0.002883
      4          1           0        0.901610    2.134320   -0.118616
      5          1           0        2.589175    1.939568   -0.700789
      6          1           0        2.195418    1.812752    1.009779
      7          8           0       -1.609906    1.416654   -0.000102
      8          6           0       -2.782014   -0.554286   -0.662120
      9          6           0        2.740534   -0.936498   -0.611290
     10          1           0        2.797769   -1.924210   -0.145351
     11          1           0        3.740573   -0.492955   -0.654634
     12          1           0        2.440944   -1.123889   -1.657154
     13          1           0       -3.230286   -1.219605    0.083572
     14          1           0       -2.420937   -1.193716   -1.474973
     15          1           0       -3.531011    0.144974   -1.038233
     16         14           0       -0.096782   -0.749011    0.718097
     17          1           0       -0.268185   -2.215453    0.525196
     18          1           0       -0.200526   -0.481764    2.178239
 ---------------------------------------------------------------------

 SCF Done:  E(RHF) =  -546.475526152     A.U. after    2 cycles

 The electronic state is 1-A.
 Alpha  occ. eigenvalues --  -69.05150 -20.56719 -11.32961 -11.24384 -11.21420
 Alpha  occ. eigenvalues --  -11.20331  -7.61482  -6.80696  -3.91460  -3.91441
 Alpha  occ. eigenvalues --   -3.91366  -1.34944  -1.00044  -0.96730  -0.92309
 Alpha  occ. eigenvalues --   -0.78465  -0.70320  -0.63222  -0.62565  -0.60314
 Alpha  occ. eigenvalues --   -0.59413  -0.57137  -0.56148  -0.55374  -0.53706
 Alpha  occ. eigenvalues --   -0.53151  -0.51192  -0.47732  -0.46144  -0.40306
 Alpha  occ. eigenvalues --   -0.37349
 Alpha virt. eigenvalues --    0.02862   0.04090   0.04506   0.05089   0.05894
 Alpha virt. eigenvalues --    0.06031   0.06376   0.06558   0.07327   0.07503
 Alpha virt. eigenvalues --    0.08278   0.08891   0.09306   0.09577   0.09841

 Mulliken charges:
               1
     1  C    0.089696
     2  B    0.401302
     3  C    0.599812
     4  H   -0.228710
     5  H   -0.331038
     6  H   -0.128957
     7  O   -0.550089
     8  C    0.227979
     9  C    0.588594
    10  H   -0.306795
    11  H   -0.350781
    12  H   -0.128772
    13  H    0.003532
    14  H    0.014937
    15  H   -0.068977
    16  Si  -0.102713
    17  H    0.134664
    18  H    0.136317
 Sum of Mulliken charges =  -0.00000

 Dipole moment (field-independent basis, Debye):
    X=              0.8346    Y=             -2.6241    Z=             -0.7165  Tot=              2.8453

 Test job not archived.
 1\1\GINC-SE455\SP\RHF\Aug-CC-pVDZ\C4H11B1O1Si1\OHZDE\09-Apr-2025\0\\#t
  hf aug-cc-pvdz iop(5/13=1,5/36=2,99/5=2) pseudo=read geom=check guess
 =(read,tcheck) scf=(maxcycle=1)\\title\\0,1\C,0,-1.621694,0.202223,-0.
 044854\B,0,1.643121,0.017348,-0.02654\C,0,1.830514,1.569588,-0.002883\
 H,0,0.90161,2.13432,-0.118616\H,0,2.589175,1.939568,-0.700789\H,0,2.19
 5418,1.812752,1.009779\O,0,-1.609906,1.416654,-0.000102\C,0,-2.782014,
 -0.554286,-0.66212\C,0,2.740534,-0.936498,-0.61129\H,0,2.797769,-1.924
 21,-0.145351\H,0,3.740573,-0.492955,-0.654634\H,0,2.440944,-1.123889,-

 Normal termination of Gaussian 16 at Wed Apr  9 00:43:37 2025.
