 Gaussian 16, Revision C.01,

 ----------------------------------------------------------------------
 #t hf aug-cc-pvdz symm=none int=(grid=ultrafine) guess=(read,tcheck) s
 table=(opt,rrhf)
 ----------------------------------------------------------------------
 -----
 title
 -----
 Symbolic Z-matrix:
 Charge =  0 Multiplicity = 1

 SCF Done:  E(RHF) =  -156.125257478     A.U. after   12 cycles
 Normal termination of Gaussian 16 at Tue Apr  8 23:04:45 2025.
 Gaussian 16:  ES64L-G16RevC.01  3-Jul-2019

 ----------------------------------------------------------------------
 #t hf aug-cc-pvdz iop(5/13=1,5/36=2,99/5=2) pseudo=read geom=check gue
 ss=(read,tcheck) scf=(maxcycle=1)
 ----------------------------------------------------------------------
 -----
 title
 -----
 Structure from the checkpoint file:  "BDE49_expt_42_mol1.chk"
 Charge =  0 Multiplicity = 1

                         Standard orientation:
 ---------------------------------------------------------------------
 Center     Atomic      Atomic             Coordinates (Angstroms)
 Number     Number       Type             X           Y           Z
 ---------------------------------------------------------------------
      1          6           0       -1.859505    0.018261   -0.278605
      2          6           0       -0.723635   -0.296460    0.336812
      3          1           0       -1.956211    0.929737   -0.861507
      4          1           0       -2.734867   -0.619083   -0.221621
      5          6           0        0.538430    0.519332    0.307660
      6          1           0       -0.673547   -1.223221    0.908151
      7          6           0        1.729292   -0.245308   -0.293154
      8          1           0        0.793758    0.820442    1.331971
      9          1           0        0.364938    1.442045   -0.255406
     10          1           0        1.930628   -1.164526    0.265123
     11          1           0        2.637382    0.363170   -0.271586
     12          1           0        1.530424   -0.523515   -1.331402
 ---------------------------------------------------------------------

 SCF Done:  E(RHF) =  -156.176783776     A.U. after    2 cycles

 The electronic state is 1-A.
 Alpha  occ. eigenvalues --  -11.24167 -11.23647 -11.22888 -11.22721  -1.07064
 Alpha  occ. eigenvalues --   -0.98383  -0.85497  -0.75571  -0.64509  -0.60945
 Alpha  occ. eigenvalues --   -0.58749  -0.53780  -0.51972  -0.48886  -0.47728
 Alpha  occ. eigenvalues --   -0.36222
 Alpha virt. eigenvalues --    0.03695   0.04490   0.04807   0.05270   0.06528
 Alpha virt. eigenvalues --    0.07058   0.07639   0.08913   0.10964   0.12611
 Alpha virt. eigenvalues --    0.13505   0.14535   0.15420   0.15934   0.16893

 Mulliken charges:
               1
     1  C    0.406871
     2  C    0.586353
     3  H   -0.280957
     4  H   -0.290541
     5  C    0.021188
     6  H   -0.403549
     7  C    0.282266
     8  H    0.006504
     9  H   -0.112255
    10  H   -0.063940
    11  H   -0.086199
    12  H   -0.065740
 Sum of Mulliken charges =  -0.00000

 Dipole moment (field-independent basis, Debye):
    X=              0.4078    Y=              0.0607    Z=              0.0993  Tot=              0.4241

 Test job not archived.
 1\1\GINC-SE339\SP\RHF\Aug-CC-pVDZ\C4H8\OHZDE\08-Apr-2025\0\\#t hf aug-
 cc-pvdz iop(5/13=1,5/36=2,99/5=2) pseudo=read geom=check guess=(read,t
 check) scf=(maxcycle=1)\\title\\0,1\C,0,-1.859505,0.018261,-0.278605\C
 ,0,-0.723635,-0.29646,0.336812\H,0,-1.956211,0.929737,-0.861507\H,0,-2
 .734867,-0.619083,-0.221621\C,0,0.53843,0.519332,0.30766\H,0,-0.673547
 ,-1.223221,0.908151\C,0,1.729292,-0.245308,-0.293154\H,0,0.793758,0.82
 0442,1.331971\H,0,0.364938,1.442045,-0.255406\H,0,1.930628,-1.164526,0
 .265123\H,0,2.637382,0.36317,-0.271586\H,0,1.530424,-0.523515,-1.33140

 Normal termination of Gaussian 16 at Tue Apr  8 23:04:48 2025.
