 Gaussian 16, Revision C.01,

 ----------------------------------------------------------------------
 #t hf aug-cc-pvdz symm=none int=(grid=ultrafine) guess=(read,tcheck) s
 table=(opt,rrhf)
 ----------------------------------------------------------------------
 -----
 title
 -----
 Symbolic Z-matrix:
 Charge =  0 Multiplicity = 1

 SCF Done:  E(RHF) =  -612.086313167     A.U. after   16 cycles
 Normal termination of Gaussian 16 at Tue Apr  8 22:40:32 2025.
 Gaussian 16:  ES64L-G16RevC.01  3-Jul-2019

 ----------------------------------------------------------------------
 #t hf aug-cc-pvdz iop(5/13=1,5/36=2,99/5=2) pseudo=read geom=check gue
 ss=(read,tcheck) scf=(maxcycle=1)
 ----------------------------------------------------------------------
 -----
 title
 -----
 Structure from the checkpoint file:  "BDE49_expt_1097_mol1.chk"
 Charge =  0 Multiplicity = 1

                         Standard orientation:
 ---------------------------------------------------------------------
 Center     Atomic      Atomic             Coordinates (Angstroms)
 Number     Number       Type             X           Y           Z
 ---------------------------------------------------------------------
      1          6           0        3.278489   -1.550364    0.140694
      2          6           0        2.249359   -0.984774    0.891547
      3          6           0        3.799779   -0.867429   -0.954665
      4          6           0        3.287771    0.384880   -1.290911
      5          6           0        2.261667    0.949425   -0.538978
      6          6           0        1.728500    0.269489    0.562341
      7          1           0        1.854857   -1.521367    1.748836
      8          1           0        3.689525    0.925258   -2.140850
      9          1           0        1.867093    1.924191   -0.803523
     10          1           0        3.671928   -2.523324    0.413606
     11          1           0        4.599498   -1.305617   -1.540926
     12          6           0       -0.566417    1.347259    0.542947
     13          8           0       -0.618684    2.494474    0.141549
     14          6           0       -1.645164    0.366205    0.194106
     15          6           0        0.624217    0.902029    1.396066
     16          1           0        0.997705    1.809201    1.877167
     17          1           0        0.310479    0.211742    2.181597
     18          6           0       -1.596187   -0.986177    0.553931
     19          6           0       -2.749062    0.837711   -0.530708
     20          6           0       -3.782283   -0.020594   -0.880847
     21          6           0       -2.629727   -1.848140    0.196976
     22          6           0       -3.724425   -1.366963   -0.517243
     23          1           0       -4.633152    0.355160   -1.437745
     24          1           0       -4.530119   -2.038748   -0.791734
     25          1           0       -2.769676    1.884909   -0.805550
     26          1           0       -0.747998   -1.377938    1.099885
     27          1           0       -2.579772   -2.894594    0.475323
 ---------------------------------------------------------------------

 SCF Done:  E(RHF) =  -612.264179798     A.U. after    2 cycles

 The electronic state is 1-A.
 Alpha  occ. eigenvalues --  -20.56199 -11.34944 -11.26411 -11.26230 -11.26208
 Alpha  occ. eigenvalues --  -11.25849 -11.25598 -11.25538 -11.25516 -11.25312
 Alpha  occ. eigenvalues --  -11.25029 -11.24909 -11.24842 -11.24661 -11.24384
 Alpha  occ. eigenvalues --   -1.35432  -1.15755  -1.15122  -1.06331  -1.03209
 Alpha  occ. eigenvalues --   -1.02257  -1.01357  -0.96348  -0.86967  -0.84063
 Alpha  occ. eigenvalues --   -0.83536  -0.81358  -0.76601  -0.72104  -0.70332
 Alpha  occ. eigenvalues --   -0.66820  -0.65982  -0.64770  -0.63898  -0.62727
 Alpha  occ. eigenvalues --   -0.60872  -0.60363  -0.59895  -0.59269  -0.55937
 Alpha  occ. eigenvalues --   -0.54601  -0.52978  -0.50899  -0.50800  -0.50519
 Alpha  occ. eigenvalues --   -0.49713  -0.49326  -0.43385  -0.35588  -0.35010
 Alpha  occ. eigenvalues --   -0.34418  -0.33494
 Alpha virt. eigenvalues --    0.02830   0.03450   0.03852   0.04175   0.04810
 Alpha virt. eigenvalues --    0.05357   0.05878   0.06086   0.06308   0.07191
 Alpha virt. eigenvalues --    0.07667   0.08244   0.08963   0.09692   0.10128

 Mulliken charges:
               1
     1  C    0.235554
     2  C    0.850485
     3  C    0.802236
     4  C    0.189067
     5  C    0.465396
     6  C    0.025076
     7  H   -0.638620
     8  H   -0.473076
     9  H   -0.623897
    10  H   -0.472777
    11  H   -0.442264
    12  C   -0.318885
    13  O   -0.579173
    14  C    0.955537
    15  C    0.815925
    16  H   -0.118286
    17  H   -0.160363
    18  C    0.746041
    19  C    0.129974
    20  C    0.466656
    21  C    0.178917
    22  C    0.646078
    23  H   -0.432867
    24  H   -0.438562
    25  H   -0.617774
    26  H   -0.718639
    27  H   -0.471757
 Sum of Mulliken charges =   0.00000

 Dipole moment (field-independent basis, Debye):
    X=             -0.3323    Y=             -3.2979    Z=              0.5840  Tot=              3.3657

 Test job not archived.
 1\1\GINC-SE177\SP\RHF\Aug-CC-pVDZ\C14H12O1\OHZDE\08-Apr-2025\0\\#t hf
 aug-cc-pvdz iop(5/13=1,5/36=2,99/5=2) pseudo=read geom=check guess=(re
 ad,tcheck) scf=(maxcycle=1)\\title\\0,1\C,0,-3.278489,-1.550364,-0.140
 694\C,0,-2.249359,-0.984774,-0.891547\C,0,-3.799779,-0.867429,0.954665
 \C,0,-3.287771,0.38488,1.290911\C,0,-2.261667,0.949425,0.538978\C,0,-1
 .7285,0.269489,-0.562341\H,0,-1.854857,-1.521367,-1.748836\H,0,-3.6895
 25,0.925258,2.14085\H,0,-1.867093,1.924191,0.803523\H,0,-3.671928,-2.5
 23324,-0.413606\H,0,-4.599498,-1.305617,1.540926\C,0,0.566417,1.347259

 Normal termination of Gaussian 16 at Tue Apr  8 22:41:03 2025.
