 Gaussian 16, Revision C.01,

 ----------------------------------------------------------------------
 #t hf aug-cc-pvdz symm=none int=(grid=ultrafine) guess=(read,tcheck) s
 table=(opt,rrhf)
 ----------------------------------------------------------------------
 -----
 title
 -----
 Symbolic Z-matrix:
 Charge =  0 Multiplicity = 1

 SCF Done:  E(RHF) =  -916.943966293     A.U. after   13 cycles
 Normal termination of Gaussian 16 at Wed Apr  9 00:19:41 2025.
 Gaussian 16:  ES64L-G16RevC.01  3-Jul-2019

 ----------------------------------------------------------------------
 #t hf aug-cc-pvdz iop(5/13=1,5/36=2,99/5=2) pseudo=read geom=check gue
 ss=(read,tcheck) scf=(maxcycle=1)
 ----------------------------------------------------------------------
 -----
 title
 -----
 Structure from the checkpoint file:  "BDE49_nonexpt_2629_mol1.chk"
 Charge =  0 Multiplicity = 1

                         Standard orientation:
 ---------------------------------------------------------------------
 Center     Atomic      Atomic             Coordinates (Angstroms)
 Number     Number       Type             X           Y           Z
 ---------------------------------------------------------------------
      1          9           0       -1.671166   -0.000000    1.067265
      2         16           0       -1.272199   -0.000000   -0.593130
      3         15           0        0.813602   -0.000000   -0.635627
      4          6           0        1.255922   -1.430894    0.454040
      5          6           0        1.255922    1.430894    0.454039
      6          1           0        0.989004   -2.360328   -0.050344
      7          1           0        0.735529   -1.376040    1.411292
      8          1           0        2.335762   -1.422481    0.624371
      9          1           0        0.989003    2.360328   -0.050345
     10          1           0        2.335761    1.422482    0.624370
     11          1           0        0.735529    1.376041    1.411291
 ---------------------------------------------------------------------

 SCF Done:  E(RHF) =  -917.051081959     A.U. after    2 cycles

 The electronic state is 1-A.
 Alpha  occ. eigenvalues --  -93.61305 -81.29351 -26.11550 -11.25267 -11.25265
 Alpha  occ. eigenvalues --   -8.90288  -7.79557  -6.24440  -6.24024  -6.23677
 Alpha  occ. eigenvalues --   -4.93525  -4.93404  -4.93136  -1.61957  -1.01692
 Alpha  occ. eigenvalues --   -0.95204  -0.95068  -0.74477  -0.71626  -0.70915
 Alpha  occ. eigenvalues --   -0.64726  -0.60227  -0.59700  -0.57968  -0.57404
 Alpha  occ. eigenvalues --   -0.49303  -0.45849  -0.38484  -0.36025
 Alpha virt. eigenvalues --    0.03138   0.04604   0.05303   0.05746   0.06379
 Alpha virt. eigenvalues --    0.07227   0.07950   0.08278   0.08703   0.11766
 Alpha virt. eigenvalues --    0.13408   0.13976   0.14684   0.15171   0.16307

 Mulliken charges:
               1
     1  F   -0.649814
     2  S    0.399012
     3  P    0.414695
     4  C    0.249022
     5  C    0.249025
     6  H   -0.120930
     7  H   -0.104707
     8  H   -0.105332
     9  H   -0.120929
    10  H   -0.105334
    11  H   -0.104707
 Sum of Mulliken charges =  -0.00000

 Dipole moment (field-independent basis, Debye):
    X=              2.8793    Y=              0.0000    Z=             -0.2793  Tot=              2.8928

 Test job not archived.
 1\1\GINC-SE247\SP\RHF\Aug-CC-pVDZ\C2H6F1P1S1\OHZDE\09-Apr-2025\0\\#t h
 f aug-cc-pvdz iop(5/13=1,5/36=2,99/5=2) pseudo=read geom=check guess=(
 read,tcheck) scf=(maxcycle=1)\\title\\0,1\F,0,-1.671166,0.,1.067265\S,
 0,-1.272199,0.,-0.59313\P,0,0.813602,0.,-0.635627\C,0,1.255922,-1.4308
 94,0.45404\C,0,1.255922,1.430894,0.454039\H,0,0.989004,-2.360328,-0.05
 0344\H,0,0.735529,-1.37604,1.411292\H,0,2.335762,-1.422481,0.624371\H,
 0,0.989003,2.360328,-0.050345\H,0,2.335761,1.422482,0.62437\H,0,0.7355
 29,1.376041,1.411291\\Version=ES64L-G16RevC.01\State=1-A\HF=-917.05108

 Normal termination of Gaussian 16 at Wed Apr  9 00:19:44 2025.
