 Gaussian 16, Revision C.01,

 ----------------------------------------------------------------------
 #t hf aug-cc-pvdz symm=none int=(grid=ultrafine) guess=(read,tcheck) s
 table=opt
 ----------------------------------------------------------------------
 -----
 title
 -----
 Symbolic Z-matrix:
 Charge =  0 Multiplicity = 2

 SCF Done:  E(UHF) =  -834.637025381     A.U. after   20 cycles
 Normal termination of Gaussian 16 at Tue Apr  8 23:51:17 2025.
 Gaussian 16:  ES64L-G16RevC.01  3-Jul-2019

 ----------------------------------------------------------------------
 #t hf aug-cc-pvdz iop(5/13=1,5/36=2,99/5=2) pseudo=read geom=check gue
 ss=(read,tcheck) scf=(maxcycle=1)
 ----------------------------------------------------------------------
 -----
 title
 -----
 Structure from the checkpoint file:  "BDE49_nonexpt_1927_mol2.chk"
 Charge =  0 Multiplicity = 2

                         Standard orientation:
 ---------------------------------------------------------------------
 Center     Atomic      Atomic             Coordinates (Angstroms)
 Number     Number       Type             X           Y           Z
 ---------------------------------------------------------------------
      1          6           0        1.633789    0.720331   -0.006067
      2         16           0        0.597766   -0.632902   -0.012914
      3         16           0       -1.366988    0.189587   -0.061692
      4          1           0       -1.444286    0.518461    1.243081
      5          1           0        1.395574    1.610262   -0.571892
      6          1           0        2.553528    0.642328    0.558897
 ---------------------------------------------------------------------

 SCF Done:  E(UHF) =  -834.691936663     A.U. after    2 cycles

 The electronic state is 2-A.
 Alpha  occ. eigenvalues --  -93.57819 -93.57091 -11.28276  -8.87376  -8.86666
 Alpha  occ. eigenvalues --   -6.21440  -6.21133  -6.21026  -6.20814  -6.20540
 Alpha  occ. eigenvalues --   -6.20163  -1.08087  -0.96362  -0.81703  -0.63954
 Alpha  occ. eigenvalues --   -0.58482  -0.53235  -0.50871  -0.42643  -0.38771
 Alpha  occ. eigenvalues --   -0.32784
 Alpha virt. eigenvalues --    0.03697   0.04856   0.05629   0.06806   0.09035
 Alpha virt. eigenvalues --    0.12099   0.12680   0.13112   0.13418   0.14662
 Alpha virt. eigenvalues --    0.15902   0.16851   0.17628   0.18712   0.20045

  Beta  occ. eigenvalues --  -93.57811 -93.57021 -11.25874  -8.87359  -8.86575
  Beta  occ. eigenvalues --   -6.21574  -6.21326  -6.20674  -6.20633  -6.20436
  Beta  occ. eigenvalues --   -6.20101  -1.05381  -0.92981  -0.78146  -0.62431
  Beta  occ. eigenvalues --   -0.57420  -0.52388  -0.46536  -0.38951  -0.37401
  Beta virt. eigenvalues --    0.03614   0.04241   0.05591   0.06504   0.08030
  Beta virt. eigenvalues --    0.09094   0.12280   0.13245   0.13492   0.14183
  Beta virt. eigenvalues --    0.15312   0.17183   0.17803   0.18724   0.18981

 Mulliken charges and spin densities:
               1          2
     1  C    0.139768   1.225674
     2  S    0.174370  -0.069824
     3  S   -0.116750   0.046117
     4  H    0.142417   0.000421
     5  H   -0.189260  -0.098654
     6  H   -0.150544  -0.103734
 Sum of Mulliken charges =  -0.00000   1.00000

 Dipole moment (field-independent basis, Debye):
    X=              0.7370    Y=              1.1614    Z=              0.8330  Tot=              1.6080
                          Isotropic Fermi Contact Couplings
        Atom                 a.u.       MegaHertz       Gauss      10(-4) cm-1
     1  C(13)              0.21044     236.57300      84.41513      78.91226
     2  S(33)              0.05108      17.54348       6.25995       5.85188
     3  S(33)              0.07036      24.16581       8.62296       8.06085
     4  H(1)               0.00136       6.09067       2.17330       2.03163
     5  H(1)              -0.02319    -103.65571     -36.98693     -34.57582
     6  H(1)              -0.02377    -106.26910     -37.91946     -35.44755
 --------------------------------------------------------
       Center         ----  Spin Dipole Couplings  ----

 Normal termination of Gaussian 16 at Tue Apr  8 23:51:19 2025.
