 Gaussian 16, Revision C.01,

 ----------------------------------------------------------------------
 #t hf aug-cc-pvdz symm=none int=(grid=ultrafine) guess=(read,tcheck) s
 table=opt
 ----------------------------------------------------------------------
 -----
 title
 -----
 Symbolic Z-matrix:
 Charge =  0 Multiplicity = 2

 SCF Done:  E(UHF) =  -848.540374636     A.U. after   15 cycles
 Normal termination of Gaussian 16 at Tue Apr  8 23:46:13 2025.
 Gaussian 16:  ES64L-G16RevC.01  3-Jul-2019

 ----------------------------------------------------------------------
 #t hf aug-cc-pvdz iop(5/13=1,5/36=2,99/5=2) pseudo=read geom=check gue
 ss=(read,tcheck) scf=(maxcycle=1)
 ----------------------------------------------------------------------
 -----
 title
 -----
 Structure from the checkpoint file:  "BDE49_nonexpt_1808_mol2.chk"
 Charge =  0 Multiplicity = 2

                         Standard orientation:
 ---------------------------------------------------------------------
 Center     Atomic      Atomic             Coordinates (Angstroms)
 Number     Number       Type             X           Y           Z
 ---------------------------------------------------------------------
      1         14           0       -0.572423    0.547547   -0.136852
      2          9           0       -1.594641   -0.678125    0.058755
      3         17           0        1.362487   -0.179516    0.023198
      4          1           0       -0.796581    1.489237    0.992754
 ---------------------------------------------------------------------

 SCF Done:  E(UHF) =  -848.625542951     A.U. after    2 cycles

 The electronic state is 2-A.
 Alpha  occ. eigenvalues -- -103.67126 -69.18294 -26.13319 -10.70594  -8.36387
 Alpha  occ. eigenvalues --   -8.36058  -8.36007  -6.92598  -4.03695  -4.03112
 Alpha  occ. eigenvalues --   -4.02926  -1.66174  -1.15816  -0.82783  -0.74994
 Alpha  occ. eigenvalues --   -0.74295  -0.66210  -0.55382  -0.51116  -0.49623
 Alpha  occ. eigenvalues --   -0.37938
 Alpha virt. eigenvalues --    0.04522   0.05115   0.05319   0.06413   0.10775
 Alpha virt. eigenvalues --    0.13384   0.13749   0.14422   0.16039   0.16573
 Alpha virt. eigenvalues --    0.20364   0.21516   0.24186   0.26249   0.29198

  Beta  occ. eigenvalues -- -103.67014 -69.17701 -26.12989 -10.70471  -8.36120
  Beta  occ. eigenvalues --   -8.35949  -8.35814  -6.91616  -4.02725  -4.02581
  Beta  occ. eigenvalues --   -4.01701  -1.65206  -1.14881  -0.81134  -0.74070
  Beta  occ. eigenvalues --   -0.72906  -0.62979  -0.53159  -0.49720  -0.48924
  Beta virt. eigenvalues --    0.01168   0.05088   0.05444   0.05673   0.07376
  Beta virt. eigenvalues --    0.12011   0.13902   0.15814   0.16172   0.16350
  Beta virt. eigenvalues --    0.17333   0.21551   0.22843   0.25811   0.26862

 Mulliken charges and spin densities:
               1          2
     1  Si   1.214509   0.855805
     2  F   -0.692730  -0.024575
     3  Cl  -0.450658   0.041683
     4  H   -0.071121   0.127087
 Sum of Mulliken charges =  -0.00000   1.00000

 Dipole moment (field-independent basis, Debye):
    X=             -0.3338    Y=              1.8022    Z=             -0.3223  Tot=              1.8610
                          Isotropic Fermi Contact Couplings
        Atom                 a.u.       MegaHertz       Gauss      10(-4) cm-1
     1  Si(29)             0.87743    -779.79300    -278.24953    -260.11095
     2  F(19)              0.05479     230.52530      82.25716      76.89496
     3  Cl(35)             0.06627      29.05620      10.36797       9.69210
     4  H(1)               0.03593     160.60819      57.30900      53.57313
 --------------------------------------------------------
       Center         ----  Spin Dipole Couplings  ----
                      3XX-RR        3YY-RR        3ZZ-RR
 --------------------------------------------------------

 Normal termination of Gaussian 16 at Tue Apr  8 23:46:14 2025.
