 Gaussian 16, Revision C.01,

 ----------------------------------------------------------------------
 #t hf aug-cc-pvdz symm=none int=(grid=ultrafine) guess=(read,tcheck) s
 table=(opt,rrhf)
 ----------------------------------------------------------------------
 -----
 title
 -----
 Symbolic Z-matrix:
 Charge =  0 Multiplicity = 1

 SCF Done:  E(RHF) =  -722.531975670     A.U. after   15 cycles
 Normal termination of Gaussian 16 at Tue Apr  8 23:15:48 2025.
 Gaussian 16:  ES64L-G16RevC.01  3-Jul-2019

 ----------------------------------------------------------------------
 #t hf aug-cc-pvdz iop(5/13=1,5/36=2,99/5=2) pseudo=read geom=check gue
 ss=(read,tcheck) scf=(maxcycle=1)
 ----------------------------------------------------------------------
 -----
 title
 -----
 Structure from the checkpoint file:  "BDE49_nonexpt_1042_mol1.chk"
 Charge =  0 Multiplicity = 1

                         Standard orientation:
 ---------------------------------------------------------------------
 Center     Atomic      Atomic             Coordinates (Angstroms)
 Number     Number       Type             X           Y           Z
 ---------------------------------------------------------------------
      1         17           0       -1.671615    0.366742   -0.000000
      2          8           0        0.000000    0.780116   -0.000000
      3          6           0        0.832233   -0.309720    0.000000
      4          8           0        0.523561   -1.460401    0.000000
      5          8           0        2.069999    0.202184    0.000000
      6          1           0        2.675574   -0.551495    0.000000
 ---------------------------------------------------------------------

 SCF Done:  E(RHF) =  -722.637867431     A.U. after    2 cycles

 The electronic state is 1-A'.
 Alpha  occ. eigenvalues -- -103.74560 -20.70080 -20.66240 -20.59752 -11.48602
 Alpha  occ. eigenvalues --  -10.77180  -8.42956  -8.42484  -8.42469  -1.49994
 Alpha  occ. eigenvalues --   -1.40130  -1.37422  -1.14781  -0.89461  -0.78653
 Alpha  occ. eigenvalues --   -0.75717  -0.73441  -0.66934  -0.63899  -0.62418
 Alpha  occ. eigenvalues --   -0.54064  -0.52856  -0.50628  -0.48853
 Alpha virt. eigenvalues --    0.02706   0.03889   0.08417   0.09206   0.10092
 Alpha virt. eigenvalues --    0.12608   0.14381   0.14988   0.15005   0.17537
 Alpha virt. eigenvalues --    0.19055   0.20834   0.21848   0.22160   0.25190

 Mulliken charges:
               1
     1  Cl   0.354121
     2  O   -0.631091
     3  C    0.795854
     4  O   -0.323030
     5  O   -0.361139
     6  H    0.165285
 Sum of Mulliken charges =  -0.00000

 Dipole moment (field-independent basis, Debye):
    X=              1.0520    Y=              0.0940    Z=             -0.0000  Tot=              1.0562

 Test job not archived.
 1\1\GINC-SE218\SP\RHF\Aug-CC-pVDZ\C1H1Cl1O3\OHZDE\08-Apr-2025\0\\#t hf
  aug-cc-pvdz iop(5/13=1,5/36=2,99/5=2) pseudo=read geom=check guess=(r
 ead,tcheck) scf=(maxcycle=1)\\title\\0,1\Cl,0,-1.671615,0.366743,0.\O,
 0,0.,0.780116,0.\C,0,0.832233,-0.30972,0.\O,0,0.52356,-1.460401,0.\O,0
 ,2.069999,0.202184,0.\H,0,2.675574,-0.551496,0.\\Version=ES64L-G16RevC
 .01\State=1-A'\HF=-722.6378674\RMSD=2.699e-03\Dipole=0.4139052,0.03697
 17,0.\Quadrupole=5.8995903,-5.0743163,-0.825274,-2.3778241,0.,0.\PG=CS
  [SG(C1H1Cl1O3)]\\@

 Normal termination of Gaussian 16 at Tue Apr  8 23:15:51 2025.
