 Gaussian 16, Revision C.01,

 ----------------------------------------------------------------------
 #t hf aug-cc-pvdz symm=none int=(grid=ultrafine) guess=(read,tcheck) s
 table=(opt,rrhf)
 ----------------------------------------------------------------------
 -----
 title
 -----
 Symbolic Z-matrix:
 Charge =  0 Multiplicity = 1

 SCF Done:  E(RHF) =  -659.438019601     A.U. after   10 cycles
 Normal termination of Gaussian 16 at Wed Apr  9 00:07:39 2025.
 Gaussian 16:  ES64L-G16RevC.01  3-Jul-2019

 ----------------------------------------------------------------------
 #t hf aug-cc-pvdz iop(5/13=1,5/36=2,99/5=2) pseudo=read geom=check gue
 ss=(read,tcheck) scf=(maxcycle=1)
 ----------------------------------------------------------------------
 -----
 title
 -----
 Structure from the checkpoint file:  "BDE49_nonexpt_2300_mol1.chk"
 Charge =  0 Multiplicity = 1

                         Standard orientation:
 ---------------------------------------------------------------------
 Center     Atomic      Atomic             Coordinates (Angstroms)
 Number     Number       Type             X           Y           Z
 ---------------------------------------------------------------------
      1         14           0        0.996361    0.633765    0.000000
      2         14           0       -0.996361   -0.633765    0.000001
      3          6           0        2.542990   -0.449589   -0.000001
      4          1           0        1.007873    1.520397    1.194699
      5          1           0        1.007870    1.520397   -1.194700
      6          1           0        2.570686   -1.091814    0.884190
      7          1           0        3.447334    0.164787   -0.000003
      8          1           0        2.570684   -1.091816   -0.884190
      9          6           0       -2.542990    0.449589   -0.000001
     10          1           0       -1.007872   -1.520396    1.194700
     11          1           0       -1.007871   -1.520397   -1.194698
     12          1           0       -2.570686    1.091815    0.884189
     13          1           0       -3.447334   -0.164787    0.000000
     14          1           0       -2.570685    1.091814   -0.884191
 ---------------------------------------------------------------------

 SCF Done:  E(RHF) =  -659.509839058     A.U. after    2 cycles

 The electronic state is 1-A.
 Alpha  occ. eigenvalues --  -69.05153 -69.05153 -11.22051 -11.22051  -6.80517
 Alpha  occ. eigenvalues --   -6.80510  -3.91284  -3.91283  -3.91277  -3.91274
 Alpha  occ. eigenvalues --   -3.91265  -3.91194  -0.94287  -0.93792  -0.70286
 Alpha  occ. eigenvalues --   -0.63616  -0.56639  -0.56263  -0.56232  -0.55792
 Alpha  occ. eigenvalues --   -0.47397  -0.46338  -0.45467  -0.44500  -0.37716
 Alpha virt. eigenvalues --    0.03674   0.04082   0.04700   0.05698   0.06264
 Alpha virt. eigenvalues --    0.06657   0.07064   0.07310   0.08162   0.08371
 Alpha virt. eigenvalues --    0.09114   0.10397   0.10811   0.10856   0.12418

 Mulliken charges:
               1
     1  Si   0.404784
     2  Si   0.404784
     3  C    0.187928
     4  H    0.013457
     5  H    0.013457
     6  H   -0.168976
     7  H   -0.281675
     8  H   -0.168977
     9  C    0.187930
    10  H    0.013458
    11  H    0.013458
    12  H   -0.168976
    13  H   -0.281675
    14  H   -0.168978
 Sum of Mulliken charges =  -0.00000

 Dipole moment (field-independent basis, Debye):
    X=             -0.0000    Y=             -0.0000    Z=              0.0000  Tot=              0.0000

 Test job not archived.
 1\1\GINC-SE103\SP\RHF\Aug-CC-pVDZ\C2H10Si2\OHZDE\09-Apr-2025\0\\#t hf
 aug-cc-pvdz iop(5/13=1,5/36=2,99/5=2) pseudo=read geom=check guess=(re
 ad,tcheck) scf=(maxcycle=1)\\title\\0,1\Si,0,0.996361,0.633765,0.\Si,0
 ,-0.996361,-0.633765,0.000001\C,0,2.54299,-0.449589,-0.000001\H,0,1.00
 7873,1.520397,1.194699\H,0,1.00787,1.520397,-1.1947\H,0,2.570686,-1.09
 1814,0.88419\H,0,3.447334,0.164787,-0.000003\H,0,2.570684,-1.091816,-0
 .88419\C,0,-2.54299,0.449589,-0.000001\H,0,-1.007872,-1.520396,1.1947\
 H,0,-1.007871,-1.520397,-1.194698\H,0,-2.570686,1.091815,0.884189\H,0,

 Normal termination of Gaussian 16 at Wed Apr  9 00:07:43 2025.
