 Gaussian 16, Revision C.01,

 ----------------------------------------------------------------------
 #t hf aug-cc-pvdz symm=none int=(grid=ultrafine) guess=(read,tcheck) s
 table=(opt,rrhf)
 ----------------------------------------------------------------------
 -----
 title
 -----
 Symbolic Z-matrix:
 Charge =  0 Multiplicity = 1

 SCF Done:  E(RHF) =  -710.040705658     A.U. after   17 cycles
 Normal termination of Gaussian 16 at Wed Apr  9 00:42:26 2025.
 Gaussian 16:  ES64L-G16RevC.01  3-Jul-2019

 ----------------------------------------------------------------------
 #t hf aug-cc-pvdz iop(5/13=1,5/36=2,99/5=2) pseudo=read geom=check gue
 ss=(read,tcheck) scf=(maxcycle=1)
 ----------------------------------------------------------------------
 -----
 title
 -----
 Structure from the checkpoint file:  "BDE49_nonexpt_712_mol1.chk"
 Charge =  0 Multiplicity = 1

                         Standard orientation:
 ---------------------------------------------------------------------
 Center     Atomic      Atomic             Coordinates (Angstroms)
 Number     Number       Type             X           Y           Z
 ---------------------------------------------------------------------
      1          6           0       -2.751302    0.711590    0.404405
      2          6           0       -1.444078    1.172865    0.329848
      3          6           0       -0.417051    0.315956   -0.090232
      4          6           0        0.966530    0.868544   -0.157754
      5          8           0        1.199894    2.054914   -0.127165
      6          5           0        2.584449   -1.450818    1.088470
      7          6           0       -3.048328   -0.605301    0.049193
      8          6           0       -2.034635   -1.458919   -0.380961
      9          6           0       -0.721801   -1.001855   -0.448283
     10          1           0        0.058979   -1.666363   -0.798290
     11          1           0       -3.541234    1.375795    0.735729
     12          1           0       -1.192350    2.193036    0.591841
     13          1           0       -4.070016   -0.963891    0.104566
     14          1           0       -2.266402   -2.478319   -0.666516
     15         15           0        2.428133   -0.304915   -0.357453
     16          1           0        1.625529   -2.000814    1.521455
     17          1           0        3.676280   -1.722194    1.472222
     18          1           0        3.469819    0.633961   -0.261545
 ---------------------------------------------------------------------

 SCF Done:  E(RHF) =  -710.169106653     A.U. after    2 cycles

 The electronic state is 1-A.
 Alpha  occ. eigenvalues --  -81.25522 -20.57581 -11.36533 -11.27069 -11.26830
 Alpha  occ. eigenvalues --  -11.26717 -11.26418 -11.26116 -11.25953  -7.76388
 Alpha  occ. eigenvalues --   -7.63916  -4.90500  -4.90454  -4.90142  -1.36809
 Alpha  occ. eigenvalues --   -1.16410  -1.04596  -1.03003  -0.90135  -0.85530
 Alpha  occ. eigenvalues --   -0.82981  -0.76817  -0.72360  -0.68588  -0.66578
 Alpha  occ. eigenvalues --   -0.64708  -0.63093  -0.61204  -0.59439  -0.57500
 Alpha  occ. eigenvalues --   -0.53784  -0.52577  -0.51502  -0.51344  -0.48706
 Alpha  occ. eigenvalues --   -0.41704  -0.36409  -0.35700  -0.34669
 Alpha virt. eigenvalues --    0.02861   0.03560   0.03721   0.04314   0.05053
 Alpha virt. eigenvalues --    0.05194   0.05487   0.06518   0.07059   0.07532
 Alpha virt. eigenvalues --    0.08631   0.08948   0.09730   0.09865   0.11037

 Mulliken charges:
               1
     1  C    0.601537
     2  C    0.119637
     3  C    0.892425
     4  C   -0.550664
     5  O   -0.519424
     6  B   -0.496326
     7  C    0.519516
     8  C    0.538620
     9  C    0.645460
    10  H   -0.615601
    11  H   -0.427756
    12  H   -0.588468
    13  H   -0.434154
    14  H   -0.450855
    15  P    0.049020
    16  H    0.341451
    17  H    0.325915
    18  H    0.049666
 Sum of Mulliken charges =  -0.00000

 Dipole moment (field-independent basis, Debye):
    X=             -1.8561    Y=             -2.6102    Z=              0.4618  Tot=              3.2360

 Test job not archived.
 1\1\GINC-SE419\SP\RHF\Aug-CC-pVDZ\C7H8B1O1P1\OHZDE\09-Apr-2025\0\\#t h
 f aug-cc-pvdz iop(5/13=1,5/36=2,99/5=2) pseudo=read geom=check guess=(
 read,tcheck) scf=(maxcycle=1)\\title\\0,1\C,0,-2.751302,0.71159,0.4044
 05\C,0,-1.444078,1.172865,0.329848\C,0,-0.417051,0.315956,-0.090232\C,
 0,0.96653,0.868544,-0.157754\O,0,1.199894,2.054914,-0.127165\B,0,2.584
 449,-1.450818,1.08847\C,0,-3.048328,-0.605301,0.049193\C,0,-2.034635,-
 1.458919,-0.380961\C,0,-0.721801,-1.001855,-0.448283\H,0,0.058979,-1.6
 66363,-0.79829\H,0,-3.541234,1.375795,0.735729\H,0,-1.19235,2.193036,0

 Normal termination of Gaussian 16 at Wed Apr  9 00:42:36 2025.
