 Gaussian 16, Revision C.01,

 ----------------------------------------------------------------------
 #t hf aug-cc-pvdz symm=none int=(grid=ultrafine) guess=(read,tcheck) s
 table=(opt,rrhf)
 ----------------------------------------------------------------------
 -----
 title
 -----
 Symbolic Z-matrix:
 Charge =  0 Multiplicity = 1

 SCF Done:  E(RHF) =  -1958.28547850     A.U. after   11 cycles
 Normal termination of Gaussian 16 at Wed Apr  9 00:07:31 2025.
 Gaussian 16:  ES64L-G16RevC.01  3-Jul-2019

 ----------------------------------------------------------------------
 #t hf aug-cc-pvdz iop(5/13=1,5/36=2,99/5=2) pseudo=read geom=check gue
 ss=(read,tcheck) scf=(maxcycle=1)
 ----------------------------------------------------------------------
 -----
 title
 -----
 Structure from the checkpoint file:  "BDE49_nonexpt_2319_mol1.chk"
 Charge =  0 Multiplicity = 1

                         Standard orientation:
 ---------------------------------------------------------------------
 Center     Atomic      Atomic             Coordinates (Angstroms)
 Number     Number       Type             X           Y           Z
 ---------------------------------------------------------------------
      1         14           0        2.303532   -0.000078   -0.000085
      2         14           0       -0.044068   -0.000003   -0.000008
      3         17           0       -0.783230   -1.493790   -1.226027
      4          1           0        2.768567    0.228487   -1.385027
      5         17           0       -0.783054    1.808739   -0.680617
      6          1           0        2.768607    1.085026    0.890326
      7         17           0       -0.783022   -0.314867    1.906737
      8          1           0        2.768534   -1.313782    0.494420
 ---------------------------------------------------------------------

 SCF Done:  E(RHF) =  -1958.38609518     A.U. after    2 cycles

 The electronic state is 1-A.
 Alpha  occ. eigenvalues -- -103.67551-103.67551-103.67551 -69.20378 -69.09306
 Alpha  occ. eigenvalues --  -10.71008 -10.70994 -10.70994  -8.36695  -8.36687
 Alpha  occ. eigenvalues --   -8.36687  -8.36453  -8.36453  -8.36449  -8.36447
 Alpha  occ. eigenvalues --   -8.36447  -8.36444  -6.94358  -6.84716  -4.05155
 Alpha  occ. eigenvalues --   -4.05155  -4.04945  -3.95470  -3.95459  -3.95459
 Alpha  occ. eigenvalues --   -1.18126  -1.14884  -1.14884  -0.75676  -0.68718
 Alpha  occ. eigenvalues --   -0.58521  -0.58521  -0.55088  -0.51759  -0.51759
 Alpha  occ. eigenvalues --   -0.50985  -0.50985  -0.48629  -0.48629  -0.47539
 Alpha  occ. eigenvalues --   -0.42385
 Alpha virt. eigenvalues --    0.03259   0.05076   0.05912   0.05912   0.06951
 Alpha virt. eigenvalues --    0.07387   0.07387   0.08345   0.08345   0.10116
 Alpha virt. eigenvalues --    0.11295   0.11295   0.12902   0.14002   0.14002

 Mulliken charges:
               1
     1  Si   0.129235
     2  Si   1.300082
     3  Cl  -0.490412
     4  H    0.013963
     5  Cl  -0.490410
     6  H    0.013977
     7  Cl  -0.490407
     8  H    0.013971
 Sum of Mulliken charges =  -0.00000

 Dipole moment (field-independent basis, Debye):
    X=              2.1628    Y=             -0.0001    Z=             -0.0001  Tot=              2.1628

 Test job not archived.
 1\1\GINC-SE332\SP\RHF\Aug-CC-pVDZ\Cl3H3Si2\OHZDE\09-Apr-2025\0\\#t hf
 aug-cc-pvdz iop(5/13=1,5/36=2,99/5=2) pseudo=read geom=check guess=(re
 ad,tcheck) scf=(maxcycle=1)\\title\\0,1\Si,0,2.303532,0.000078,0.00008
 5\Si,0,-0.044068,0.000003,0.000008\Cl,0,-0.78323,1.496125,1.223176\H,0
 ,2.768567,-0.225846,1.385461\Cl,0,-0.783055,-1.807438,0.684064\H,0,2.7
 68607,-1.086722,-0.888255\Cl,0,-0.783021,0.311231,-1.907334\H,0,2.7685
 35,1.312836,-0.496923\\Version=ES64L-G16RevC.01\State=1-A\HF=-1958.386
 0952\RMSD=4.391e-03\Dipole=0.8509215,0.0000372,0.0000437\Quadrupole=2.

 Normal termination of Gaussian 16 at Wed Apr  9 00:07:34 2025.
