 Gaussian 16, Revision C.01,

 ----------------------------------------------------------------------
 #t hf aug-cc-pvdz symm=none int=(grid=ultrafine) guess=(read,tcheck) s
 table=(opt,rrhf)
 ----------------------------------------------------------------------
 -----
 title
 -----
 Symbolic Z-matrix:
 Charge =  0 Multiplicity = 1

 SCF Done:  E(RHF) =  -1063.42637443     A.U. after   14 cycles
 Normal termination of Gaussian 16 at Tue Apr  8 23:29:03 2025.
 Gaussian 16:  ES64L-G16RevC.01  3-Jul-2019

 ----------------------------------------------------------------------
 #t hf aug-cc-pvdz iop(5/13=1,5/36=2,99/5=2) pseudo=read geom=check gue
 ss=(read,tcheck) scf=(maxcycle=1)
 ----------------------------------------------------------------------
 -----
 title
 -----
 Structure from the checkpoint file:  "BDE49_nonexpt_1374_mol1.chk"
 Charge =  0 Multiplicity = 1

                         Standard orientation:
 ---------------------------------------------------------------------
 Center     Atomic      Atomic             Coordinates (Angstroms)
 Number     Number       Type             X           Y           Z
 ---------------------------------------------------------------------
      1         16           0        0.755628   -0.058694    0.102687
      2          9           0       -2.065238    0.762828    0.027500
      3          8           0        0.881473    1.012581   -1.121685
      4          8           0        1.482962   -1.232094   -0.296932
      5          8           0        1.035849    0.657267    1.321865
      6         15           0       -1.354386   -0.696417    0.063963
      7          1           0        0.870763    1.901943   -0.735968
      8          1           0       -1.260145   -0.884068   -1.339958
 ---------------------------------------------------------------------

 SCF Done:  E(RHF) =  -1063.64079323     A.U. after    2 cycles

 The electronic state is 1-A.
 Alpha  occ. eigenvalues --  -93.84149 -81.39875 -26.16966 -20.66234 -20.59697
 Alpha  occ. eigenvalues --  -20.59655  -9.10405  -7.89299  -6.45031  -6.44928
 Alpha  occ. eigenvalues --   -6.44660  -5.03288  -5.02957  -5.02695  -1.69154
 Alpha  occ. eigenvalues --   -1.48806  -1.37298  -1.34872  -0.95631  -0.88003
 Alpha  occ. eigenvalues --   -0.80087  -0.78583  -0.77219  -0.75300  -0.71811
 Alpha  occ. eigenvalues --   -0.67651  -0.66065  -0.60846  -0.56792  -0.55624
 Alpha  occ. eigenvalues --   -0.53106  -0.49668  -0.43400
 Alpha virt. eigenvalues --    0.02758   0.04516   0.04726   0.06129   0.08356
 Alpha virt. eigenvalues --    0.09937   0.11069   0.11567   0.13484   0.14486
 Alpha virt. eigenvalues --    0.15354   0.17103   0.18095   0.18556   0.20446

 Mulliken charges:
               1
     1  S    2.079408
     2  F   -0.637178
     3  O   -0.742075
     4  O   -0.941719
     5  O   -0.966967
     6  P    0.885893
     7  H    0.181475
     8  H    0.141163
 Sum of Mulliken charges =  -0.00000

 Dipole moment (field-independent basis, Debye):
    X=             -3.0404    Y=              0.4270    Z=             -1.4794  Tot=              3.4081

 Test job not archived.
 1\1\GINC-SE166\SP\RHF\Aug-CC-pVDZ\F1H2O3P1S1\OHZDE\08-Apr-2025\0\\#t h
 f aug-cc-pvdz iop(5/13=1,5/36=2,99/5=2) pseudo=read geom=check guess=(
 read,tcheck) scf=(maxcycle=1)\\title\\0,1\S,0,0.755628,-0.058694,0.102
 687\F,0,-2.065238,0.762828,0.0275\O,0,0.881473,1.012581,-1.121685\O,0,
 1.482962,-1.232094,-0.296932\O,0,1.035849,0.657267,1.321865\P,0,-1.354
 386,-0.696417,0.063963\H,0,0.870763,1.901943,-0.735968\H,0,-1.260145,-
 0.884068,-1.339958\\Version=ES64L-G16RevC.01\State=1-A\HF=-1063.640793
 2\RMSD=5.850e-03\Dipole=-1.1961706,0.1680088,-0.5820508\Quadrupole=-1.

 Normal termination of Gaussian 16 at Tue Apr  8 23:29:07 2025.
