 Gaussian 16, Revision C.01,

 ----------------------------------------------------------------------
 #t hf aug-cc-pvdz symm=none int=(grid=ultrafine) guess=(read,tcheck) s
 table=opt
 ----------------------------------------------------------------------
 -----
 title
 -----
 Symbolic Z-matrix:
 Charge =  0 Multiplicity = 2

 SCF Done:  E(UHF) =  -1544.23533709     A.U. after   15 cycles
 Normal termination of Gaussian 16 at Tue Apr  8 23:44:26 2025.
 Gaussian 16:  ES64L-G16RevC.01  3-Jul-2019

 ----------------------------------------------------------------------
 #t hf aug-cc-pvdz iop(5/13=1,5/36=2,99/5=2) pseudo=read geom=check gue
 ss=(read,tcheck) scf=(maxcycle=1)
 ----------------------------------------------------------------------
 -----
 title
 -----
 Structure from the checkpoint file:  "BDE49_nonexpt_1764_mol2.chk"
 Charge =  0 Multiplicity = 2

                         Standard orientation:
 ---------------------------------------------------------------------
 Center     Atomic      Atomic             Coordinates (Angstroms)
 Number     Number       Type             X           Y           Z
 ---------------------------------------------------------------------
      1         14           0        0.702827   -0.420225    0.000000
      2          6           0       -0.230808    1.293776    0.000000
      3         17           0        0.109374   -1.428047    1.699882
      4         17           0        0.109374   -1.428047   -1.699882
      5          9           0        0.109374    2.013747   -1.089877
      6          9           0        0.109374    2.013747    1.089877
      7          9           0       -1.571351    1.158515   -0.000000
 ---------------------------------------------------------------------

 SCF Done:  E(UHF) =  -1544.41751348     A.U. after    2 cycles

 The electronic state is 2-A'.
 Alpha  occ. eigenvalues -- -103.69361-103.69361 -69.20796 -26.17990 -26.17982
 Alpha  occ. eigenvalues --  -26.17931 -11.53161 -10.72785 -10.72774  -8.38582
 Alpha  occ. eigenvalues --   -8.38578  -8.38241  -8.38239  -8.38189  -8.38185
 Alpha  occ. eigenvalues --   -6.95240  -4.06300  -4.05664  -4.05546  -1.77246
 Alpha  occ. eigenvalues --   -1.70385  -1.70320  -1.19103  -1.16921  -1.04065
 Alpha  occ. eigenvalues --   -0.88963  -0.88916  -0.88905  -0.78586  -0.78421
 Alpha  occ. eigenvalues --   -0.74239  -0.74238  -0.73039  -0.71926  -0.59527
 Alpha  occ. eigenvalues --   -0.58294  -0.55432  -0.51885  -0.51348  -0.50076
 Alpha  occ. eigenvalues --   -0.39851
 Alpha virt. eigenvalues --    0.04737   0.05090   0.05125   0.06182   0.09449
 Alpha virt. eigenvalues --    0.10543   0.11406   0.12023   0.12217   0.12384
 Alpha virt. eigenvalues --    0.13922   0.15431   0.16461   0.16608   0.18755

  Beta  occ. eigenvalues -- -103.69247-103.69247 -69.20177 -26.18009 -26.18000
  Beta  occ. eigenvalues --  -26.17805 -11.52833 -10.72661 -10.72651  -8.38310
  Beta  occ. eigenvalues --   -8.38306  -8.38131  -8.38127  -8.37996  -8.37994
  Beta  occ. eigenvalues --   -6.94211  -4.05257  -4.05169  -4.04280  -1.77123
  Beta  occ. eigenvalues --   -1.70372  -1.70144  -1.18115  -1.16007  -1.03522
  Beta  occ. eigenvalues --   -0.88824  -0.88771  -0.88018  -0.78472  -0.78137
  Beta  occ. eigenvalues --   -0.74244  -0.74188  -0.72987  -0.68782  -0.58168
  Beta  occ. eigenvalues --   -0.57024  -0.53034  -0.50823  -0.50475  -0.49856
  Beta virt. eigenvalues --   -0.01146   0.05260   0.05434   0.05773   0.06708
  Beta virt. eigenvalues --    0.10707   0.11006   0.11985   0.12286   0.12341
  Beta virt. eigenvalues --    0.14233   0.15472   0.15927   0.16894   0.16997

 Mulliken charges and spin densities:
               1          2
     1  Si   1.125426   0.856665
     2  C    0.731672   0.054903
     3  Cl  -0.424092   0.043322
     4  Cl  -0.424092   0.043322
     5  F   -0.323872  -0.002264
     6  F   -0.323872  -0.002264
     7  F   -0.361170   0.006315
 Sum of Mulliken charges =  -0.00000   1.00000

 Dipole moment (field-independent basis, Debye):
    X=              1.7067    Y=             -1.0914    Z=             -0.0000  Tot=              2.0259
                          Isotropic Fermi Contact Couplings
        Atom                 a.u.       MegaHertz       Gauss      10(-4) cm-1
     1  Si(29)             0.94844    -842.90561    -300.76968    -281.16305
     2  C(13)              0.08224      92.45769      32.99120      30.84056
     3  Cl(35)             0.06107      26.77698       9.55469       8.93184
     4  Cl(35)             0.06107      26.77698       9.55469       8.93184
     5  F(19)             -0.00454     -19.10452      -6.81697      -6.37258
     6  F(19)             -0.00454     -19.10452      -6.81697      -6.37258
     7  F(19)              0.02200      92.57999      33.03484      30.88136
 --------------------------------------------------------

 Normal termination of Gaussian 16 at Tue Apr  8 23:44:29 2025.
