 Gaussian 16, Revision C.01,

 ----------------------------------------------------------------------
 #t hf aug-cc-pvdz symm=none int=(grid=ultrafine) guess=(read,tcheck) s
 table=(opt,rrhf)
 ----------------------------------------------------------------------
 -----
 title
 -----
 Symbolic Z-matrix:
 Charge =  0 Multiplicity = 1

 SCF Done:  E(RHF) =  -967.946439017     A.U. after   17 cycles
 Normal termination of Gaussian 16 at Tue Apr  8 23:19:02 2025.
 Gaussian 16:  ES64L-G16RevC.01  3-Jul-2019

 ----------------------------------------------------------------------
 #t hf aug-cc-pvdz iop(5/13=1,5/36=2,99/5=2) pseudo=read geom=check gue
 ss=(read,tcheck) scf=(maxcycle=1)
 ----------------------------------------------------------------------
 -----
 title
 -----
 Structure from the checkpoint file:  "BDE49_nonexpt_1090_mol1.chk"
 Charge =  0 Multiplicity = 1

                         Standard orientation:
 ---------------------------------------------------------------------
 Center     Atomic      Atomic             Coordinates (Angstroms)
 Number     Number       Type             X           Y           Z
 ---------------------------------------------------------------------
      1         17           0        3.702736   -0.496463   -0.000000
      2          8           0        2.538446    0.781945    0.000003
      3          6           0        1.211836    0.416995    0.000005
      4          6           0        0.346704    1.520033   -0.000005
      5          6           0       -1.020819    1.311305   -0.000001
      6          6           0       -1.509418    0.005981    0.000011
      7          6           0        0.719499   -0.885086    0.000017
      8          1           0        1.395098   -1.727999    0.000024
      9          6           0       -0.656006   -1.088656    0.000020
     10          1           0       -1.072401   -2.086100    0.000030
     11          7           0       -2.965624   -0.216597    0.000015
     12          8           0       -3.689108    0.771171   -0.000037
     13          8           0       -3.362995   -1.374600   -0.000017
     14          1           0        0.763504    2.518684   -0.000015
     15          1           0       -1.714870    2.139891   -0.000009
 ---------------------------------------------------------------------

 SCF Done:  E(RHF) =  -968.117204819     A.U. after    2 cycles

 The electronic state is 1-A.
 Alpha  occ. eigenvalues -- -103.75124 -20.69826 -20.62113 -20.62084 -15.92497
 Alpha  occ. eigenvalues --  -11.36790 -11.32236 -11.30005 -11.29808 -11.28332
 Alpha  occ. eigenvalues --  -11.28268 -10.77750  -8.43519  -8.43090  -8.43055
 Alpha  occ. eigenvalues --   -1.55337  -1.42975  -1.36896  -1.20423  -1.15737
 Alpha  occ. eigenvalues --   -1.07772  -1.06113  -0.95045  -0.88986  -0.83919
 Alpha  occ. eigenvalues --   -0.79588  -0.76008  -0.74782  -0.73108  -0.70799
 Alpha  occ. eigenvalues --   -0.69075  -0.66984  -0.64380  -0.61902  -0.61507
 Alpha  occ. eigenvalues --   -0.54824  -0.54784  -0.51864  -0.51815  -0.50907
 Alpha  occ. eigenvalues --   -0.49942  -0.47905  -0.38773  -0.37374
 Alpha virt. eigenvalues --    0.02345   0.03097   0.03194   0.03882   0.05133
 Alpha virt. eigenvalues --    0.06472   0.07659   0.08384   0.10003   0.10348
 Alpha virt. eigenvalues --    0.12151   0.12507   0.12764   0.12776   0.13143

 Mulliken charges:
               1
     1  Cl   0.316084
     2  O   -0.739233
     3  C    0.217393
     4  C    0.272589
     5  C    0.530503
     6  C    1.244814
     7  C    0.780992
     8  H   -0.551841
     9  C    0.313245
    10  H   -0.453224
    11  N    0.118780
    12  O   -0.569076
    13  O   -0.568791
    14  H   -0.456809
    15  H   -0.455428
 Sum of Mulliken charges =  -0.00000

 Dipole moment (field-independent basis, Debye):
    X=              4.4558    Y=             -0.0167    Z=              0.0001  Tot=              4.4558

 Test job not archived.
 1\1\GINC-SE424\SP\RHF\Aug-CC-pVDZ\C6H4Cl1N1O3\OHZDE\08-Apr-2025\0\\#t
 hf aug-cc-pvdz iop(5/13=1,5/36=2,99/5=2) pseudo=read geom=check guess=
 (read,tcheck) scf=(maxcycle=1)\\title\\0,1\Cl,0,3.702736,-0.496463,0.\
 O,0,2.538446,0.781945,0.000003\C,0,1.211836,0.416995,0.000005\C,0,0.34
 6704,1.520033,-0.000005\C,0,-1.020819,1.311305,-0.000001\C,0,-1.509418
 ,0.005981,0.000011\C,0,0.719499,-0.885086,0.000017\H,0,1.395098,-1.727
 999,0.000024\C,0,-0.656006,-1.088656,0.00002\H,0,-1.072401,-2.0861,0.0
 0003\N,0,-2.965624,-0.216597,0.000015\O,0,-3.689108,0.771171,-0.000037

 Normal termination of Gaussian 16 at Tue Apr  8 23:19:10 2025.
