 Gaussian 16, Revision C.01,

 ----------------------------------------------------------------------
 #t hf aug-cc-pvdz symm=none int=(grid=ultrafine) guess=(read,tcheck) s
 table=opt
 ----------------------------------------------------------------------
 -----
 title
 -----
 Symbolic Z-matrix:
 Charge =  0 Multiplicity = 2

 SCF Done:  E(UHF) =  -510.828158725     A.U. after   19 cycles
 Normal termination of Gaussian 16 at Tue Apr  8 23:16:48 2025.
 Gaussian 16:  ES64L-G16RevC.01  3-Jul-2019

 ----------------------------------------------------------------------
 #t hf aug-cc-pvdz iop(5/13=1,5/36=2,99/5=2) pseudo=read geom=check gue
 ss=(read,tcheck) scf=(maxcycle=1)
 ----------------------------------------------------------------------
 -----
 title
 -----
 Structure from the checkpoint file:  "BDE49_nonexpt_1058_mol2.chk"
 Charge =  0 Multiplicity = 2

                         Standard orientation:
 ---------------------------------------------------------------------
 Center     Atomic      Atomic             Coordinates (Angstroms)
 Number     Number       Type             X           Y           Z
 ---------------------------------------------------------------------
      1          8           0       -1.516948   -0.364107   -0.000000
      2          6           0       -0.636897    0.456783   -0.000000
      3         16           0        1.047044   -0.086015   -0.000000
      4          1           0       -0.795737    1.548401    0.000001
 ---------------------------------------------------------------------

 SCF Done:  E(UHF) =  -510.882309003     A.U. after    2 cycles

 The electronic state is 2-A.
 Alpha  occ. eigenvalues --  -93.59475 -20.60029 -11.39863  -8.89348  -6.24680
 Alpha  occ. eigenvalues --   -6.22958  -6.22535  -1.39348  -1.04052  -0.82815
 Alpha  occ. eigenvalues --   -0.70490  -0.63944  -0.58980  -0.48288  -0.45524
 Alpha  occ. eigenvalues --   -0.41909
 Alpha virt. eigenvalues --    0.03409   0.06567   0.07979   0.09666   0.11153
 Alpha virt. eigenvalues --    0.11622   0.12495   0.15089   0.15603   0.21132
 Alpha virt. eigenvalues --    0.22735   0.24661   0.25556   0.29137   0.31779

  Beta  occ. eigenvalues --  -93.58541 -20.59967 -11.39957  -8.88307  -6.22432
  Beta  occ. eigenvalues --   -6.21928  -6.20603  -1.39021  -0.97813  -0.80167
  Beta  occ. eigenvalues --   -0.69378  -0.62057  -0.59019  -0.44701  -0.39610
  Beta virt. eigenvalues --   -0.01570   0.03520   0.06805   0.07939   0.10442
  Beta virt. eigenvalues --    0.11154   0.11904   0.14050   0.15197   0.15817
  Beta virt. eigenvalues --    0.22559   0.23435   0.25574   0.25911   0.29752

 Mulliken charges and spin densities:
               1          2
     1  O   -0.383774  -0.004166
     2  C    0.195022  -0.096621
     3  S    0.248945   1.096199
     4  H   -0.060194   0.004588
 Sum of Mulliken charges =  -0.00000   1.00000

 Dipole moment (field-independent basis, Debye):
    X=              1.7080    Y=              2.2063    Z=              0.0000  Tot=              2.7901
                          Isotropic Fermi Contact Couplings
        Atom                 a.u.       MegaHertz       Gauss      10(-4) cm-1
     1  O(17)              0.01610      -9.75958      -3.48246      -3.25544
     2  C(13)             -0.01890     -21.24883      -7.58211      -7.08785
     3  S(33)              0.21462      73.71510      26.30338      24.58871
     4  H(1)               0.00237      10.61491       3.78766       3.54075
 --------------------------------------------------------
       Center         ----  Spin Dipole Couplings  ----
                      3XX-RR        3YY-RR        3ZZ-RR
 --------------------------------------------------------

 Normal termination of Gaussian 16 at Tue Apr  8 23:16:50 2025.
