 Gaussian 16, Revision C.01,

 ----------------------------------------------------------------------
 #t hf aug-cc-pvdz symm=none int=(grid=ultrafine) guess=(read,tcheck) s
 table=(opt,rrhf)
 ----------------------------------------------------------------------
 -----
 title
 -----
 Symbolic Z-matrix:
 Charge =  0 Multiplicity = 1

 SCF Done:  E(RHF) =  -268.955835154     A.U. after   14 cycles
 Normal termination of Gaussian 16 at Wed Apr  9 00:33:48 2025.
 Gaussian 16:  ES64L-G16RevC.01  3-Jul-2019

 ----------------------------------------------------------------------
 #t hf aug-cc-pvdz iop(5/13=1,5/36=2,99/5=2) pseudo=read geom=check gue
 ss=(read,tcheck) scf=(maxcycle=1)
 ----------------------------------------------------------------------
 -----
 title
 -----
 Structure from the checkpoint file:  "BDE49_nonexpt_465_mol1.chk"
 Charge =  0 Multiplicity = 1

                         Standard orientation:
 ---------------------------------------------------------------------
 Center     Atomic      Atomic             Coordinates (Angstroms)
 Number     Number       Type             X           Y           Z
 ---------------------------------------------------------------------
      1          1           0        1.662334    0.000073   -1.641172
      2          1           0        3.065345   -0.000047   -0.122177
      3          5           0        1.933119    0.000023   -0.485814
      4          6           0        0.826522   -0.000038    0.618510
      5          7           0       -0.568374   -0.000000    0.067719
      6          1           0        0.924321    0.886884    1.251700
      7          1           0        0.924311   -0.887025    1.251610
      8          8           0       -1.076381    1.087652   -0.155973
      9          8           0       -1.076422   -1.087623   -0.156025
 ---------------------------------------------------------------------

 SCF Done:  E(RHF) =  -269.040049594     A.U. after    2 cycles

 The electronic state is 1-A.
 Alpha  occ. eigenvalues --  -20.62135 -20.62126 -15.91663 -11.30701  -7.66073
 Alpha  occ. eigenvalues --   -1.55193  -1.36991  -1.08722  -0.87003  -0.77388
 Alpha  occ. eigenvalues --   -0.75089  -0.74555  -0.67834  -0.62873  -0.55049
 Alpha  occ. eigenvalues --   -0.52697  -0.51558  -0.49669  -0.47783
 Alpha virt. eigenvalues --    0.02583   0.02966   0.04161   0.05406   0.05806
 Alpha virt. eigenvalues --    0.07589   0.08926   0.09847   0.09979   0.11028
 Alpha virt. eigenvalues --    0.13785   0.14406   0.14542   0.16722   0.17110

 Mulliken charges:
               1
     1  H    0.266095
     2  H    0.229724
     3  B   -0.163840
     4  C    0.756946
     5  N    0.439920
     6  H   -0.191128
     7  H   -0.191132
     8  O   -0.573293
     9  O   -0.573290
 Sum of Mulliken charges =  -0.00000

 Dipole moment (field-independent basis, Debye):
    X=              4.0496    Y=             -0.0001    Z=              1.7065  Tot=              4.3945

 Test job not archived.
 1\1\GINC-SE457\SP\RHF\Aug-CC-pVDZ\C1H4B1N1O2\OHZDE\09-Apr-2025\0\\#t h
 f aug-cc-pvdz iop(5/13=1,5/36=2,99/5=2) pseudo=read geom=check guess=(
 read,tcheck) scf=(maxcycle=1)\\title\\0,1\H,0,1.662334,0.000073,-1.641
 172\H,0,3.065345,-0.000047,-0.122177\B,0,1.933119,0.000023,-0.485814\C
 ,0,0.826522,-0.000038,0.61851\N,0,-0.568374,0.,0.067719\H,0,0.924321,0
 .886884,1.2517\H,0,0.924311,-0.887025,1.25161\O,0,-1.076381,1.087652,-
 0.155973\O,0,-1.076422,-1.087623,-0.156025\\Version=ES64L-G16RevC.01\S
 tate=1-A\HF=-269.0400496\RMSD=3.282e-03\Dipole=1.5932254,-0.0000232,0.

 Normal termination of Gaussian 16 at Wed Apr  9 00:33:51 2025.
