 Gaussian 16, Revision C.01,

 ----------------------------------------------------------------------
 #t hf aug-cc-pvdz symm=none int=(grid=ultrafine) guess=(read,tcheck) s
 table=(opt,rrhf)
 ----------------------------------------------------------------------
 -----
 title
 -----
 Symbolic Z-matrix:
 Charge =  0 Multiplicity = 1

 SCF Done:  E(RHF) =  -143.522273833     A.U. after   12 cycles
 Normal termination of Gaussian 16 at Wed Apr  9 00:21:44 2025.
 Gaussian 16:  ES64L-G16RevC.01  3-Jul-2019

 ----------------------------------------------------------------------
 #t hf aug-cc-pvdz iop(5/13=1,5/36=2,99/5=2) pseudo=read geom=check gue
 ss=(read,tcheck) scf=(maxcycle=1)
 ----------------------------------------------------------------------
 -----
 title
 -----
 Structure from the checkpoint file:  "BDE49_nonexpt_268_mol1.chk"
 Charge =  0 Multiplicity = 1

                         Standard orientation:
 ---------------------------------------------------------------------
 Center     Atomic      Atomic             Coordinates (Angstroms)
 Number     Number       Type             X           Y           Z
 ---------------------------------------------------------------------
      1          5           0       -1.744349   -0.611687   -0.129407
      2          6           0       -0.783101    0.542631    0.271127
      3          6           0        1.527063   -0.539554    0.177237
      4          6           0        0.622626    0.579119   -0.349230
      5          1           0       -0.737241    0.668969    1.361471
      6          1           0        1.096534    1.547145   -0.151134
      7          1           0        0.538512    0.494462   -1.438462
      8          1           0        1.105246   -1.525590   -0.043682
      9          1           0       -1.361846    1.430305   -0.058547
     10          1           0        2.522065   -0.496846   -0.273965
     11          1           0        1.650982   -0.468173    1.262715
     12          1           0       -2.746610   -0.801716    0.492784
     13          1           0       -1.545428   -1.283291   -1.098947
 ---------------------------------------------------------------------

 SCF Done:  E(RHF) =  -143.570201446     A.U. after    2 cycles

 The electronic state is 1-A.
 Alpha  occ. eigenvalues --  -11.22958 -11.22296 -11.21052  -7.60822  -1.04486
 Alpha  occ. eigenvalues --   -0.92751  -0.80737  -0.66783  -0.60802  -0.60200
 Alpha  occ. eigenvalues --   -0.55413  -0.51589  -0.49746  -0.47801  -0.45161
 Alpha  occ. eigenvalues --   -0.44467
 Alpha virt. eigenvalues --    0.03308   0.04374   0.04431   0.04794   0.06199
 Alpha virt. eigenvalues --    0.06568   0.06868   0.07253   0.08247   0.09551
 Alpha virt. eigenvalues --    0.10803   0.11893   0.13035   0.13067   0.14597

 Mulliken charges:
               1
     1  B   -0.510163
     2  C    0.281884
     3  C    0.312340
     4  C    0.070191
     5  H   -0.219744
     6  H   -0.072590
     7  H   -0.109353
     8  H   -0.081345
     9  H   -0.148894
    10  H   -0.083609
    11  H   -0.081289
    12  H    0.326105
    13  H    0.316469
 Sum of Mulliken charges =  -0.00000

 Dipole moment (field-independent basis, Debye):
    X=              0.3152    Y=              0.4746    Z=              0.1036  Tot=              0.5790

 Test job not archived.
 1\1\GINC-SE435\SP\RHF\Aug-CC-pVDZ\C3H9B1\OHZDE\09-Apr-2025\0\\#t hf au
 g-cc-pvdz iop(5/13=1,5/36=2,99/5=2) pseudo=read geom=check guess=(read
 ,tcheck) scf=(maxcycle=1)\\title\\0,1\B,0,-1.744349,-0.611687,-0.12940
 7\C,0,-0.783101,0.542631,0.271127\C,0,1.527063,-0.539554,0.177237\C,0,
 0.622626,0.579119,-0.34923\H,0,-0.737241,0.668969,1.361471\H,0,1.09653
 4,1.547145,-0.151134\H,0,0.538512,0.494462,-1.438462\H,0,1.105246,-1.5
 2559,-0.043682\H,0,-1.361846,1.430305,-0.058547\H,0,2.522065,-0.496846
 ,-0.273965\H,0,1.650982,-0.468173,1.262715\H,0,-2.74661,-0.801716,0.49

 Normal termination of Gaussian 16 at Wed Apr  9 00:21:47 2025.
