 Gaussian 16, Revision C.01,

 ----------------------------------------------------------------------
 #t hf aug-cc-pvdz symm=none int=(grid=ultrafine) guess=(read,tcheck) s
 table=(opt,rrhf)
 ----------------------------------------------------------------------
 -----
 title
 -----
 Symbolic Z-matrix:
 Charge =  0 Multiplicity = 1

 SCF Done:  E(RHF) =  -1020.44202627     A.U. after   17 cycles
 Normal termination of Gaussian 16 at Tue Apr  8 23:32:34 2025.
 Gaussian 16:  ES64L-G16RevC.01  3-Jul-2019

 ----------------------------------------------------------------------
 #t hf aug-cc-pvdz iop(5/13=1,5/36=2,99/5=2) pseudo=read geom=check gue
 ss=(read,tcheck) scf=(maxcycle=1)
 ----------------------------------------------------------------------
 -----
 title
 -----
 Structure from the checkpoint file:  "BDE49_nonexpt_1383_mol1.chk"
 Charge =  0 Multiplicity = 1

                         Standard orientation:
 ---------------------------------------------------------------------
 Center     Atomic      Atomic             Coordinates (Angstroms)
 Number     Number       Type             X           Y           Z
 ---------------------------------------------------------------------
      1          6           0        0.846930    0.433765   -0.375937
      2          6           0        1.557176   -0.488382   -1.151959
      3          1           0        1.136287   -0.853549   -2.082313
      4          6           0        2.805920   -0.938466   -0.729916
      5          1           0        3.350759   -1.657318   -1.330991
      6          6           0        3.358635   -0.452439    0.452557
      7          1           0        4.334863   -0.795962    0.775305
      8          6           0        2.660538    0.481573    1.218711
      9          1           0        3.092548    0.862942    2.136915
     10          6           0        1.405525    0.921333    0.812669
     11          1           0        0.861383    1.647073    1.405298
     12         15           0       -0.782710    1.014458   -0.980182
     13          9           0       -0.842997    2.482813   -0.278650
     14          6           0       -1.846439    0.155459    0.337915
     15          8           0       -2.474283    0.759336    1.164769
     16          6           0       -1.941148   -1.381807    0.265091
     17          9           0       -1.575012   -1.799092   -0.988089
     18          9           0       -1.068143   -1.921272    1.157903
     19          1           0       -2.948378   -1.743008    0.485088
 ---------------------------------------------------------------------

 SCF Done:  E(RHF) =  -1020.68907624     A.U. after    2 cycles

 The electronic state is 1-A.
 Alpha  occ. eigenvalues --  -81.35117 -26.16640 -26.16089 -26.12826 -20.61527
 Alpha  occ. eigenvalues --  -11.45226 -11.37863 -11.27254 -11.27120 -11.26842
 Alpha  occ. eigenvalues --  -11.26729 -11.26247 -11.26197  -7.84592  -4.98747
 Alpha  occ. eigenvalues --   -4.98470  -4.98201  -1.72606  -1.68160  -1.65060
 Alpha  occ. eigenvalues --   -1.40232  -1.16381  -1.05435  -1.03595  -1.03095
 Alpha  occ. eigenvalues --   -0.91689  -0.86479  -0.85010  -0.84319  -0.83833
 Alpha  occ. eigenvalues --   -0.82512  -0.77347  -0.75880  -0.74993  -0.74487
 Alpha  occ. eigenvalues --   -0.72257  -0.72069  -0.69858  -0.68466  -0.65232
 Alpha  occ. eigenvalues --   -0.64872  -0.62227  -0.61207  -0.60300  -0.57867
 Alpha  occ. eigenvalues --   -0.53261  -0.52873  -0.51812  -0.45370  -0.40115
 Alpha  occ. eigenvalues --   -0.35914  -0.35029
 Alpha virt. eigenvalues --    0.03073   0.03880   0.04086   0.04904   0.05834
 Alpha virt. eigenvalues --    0.06181   0.06307   0.07149   0.07932   0.08984
 Alpha virt. eigenvalues --    0.09283   0.09988   0.10487   0.10965   0.12251

 Mulliken charges:
               1
     1  C    0.459519
     2  C    0.205752
     3  H   -0.560277
     4  C    0.502907
     5  H   -0.437644
     6  C    0.658888
     7  H   -0.435545
     8  C    0.486150
     9  H   -0.438928
    10  C    0.279862
    11  H   -0.603849
    12  P    0.805370
    13  F   -0.654146
    14  C    0.032557
    15  O   -0.480756
    16  C    1.079682
    17  F   -0.360012
    18  F   -0.374775
    19  H   -0.164757
 Sum of Mulliken charges =   0.00000

 Dipole moment (field-independent basis, Debye):
    X=              1.7827    Y=             -2.1073    Z=             -1.0371  Tot=              2.9486

 Test job not archived.
 1\1\GINC-SE393\SP\RHF\Aug-CC-pVDZ\C8H6F3O1P1\OHZDE\08-Apr-2025\0\\#t h
 f aug-cc-pvdz iop(5/13=1,5/36=2,99/5=2) pseudo=read geom=check guess=(
 read,tcheck) scf=(maxcycle=1)\\title\\0,1\C,0,0.84693,0.433765,-0.3759
 37\C,0,1.557176,-0.488382,-1.151959\H,0,1.136287,-0.853549,-2.082313\C
 ,0,2.80592,-0.938465,-0.729916\H,0,3.350759,-1.657317,-1.330991\C,0,3.
 358635,-0.452438,0.452557\H,0,4.334863,-0.795961,0.775305\C,0,2.660538
 ,0.481573,1.218711\H,0,3.092548,0.862943,2.136915\C,0,1.405525,0.92133
 3,0.812669\H,0,0.861383,1.647073,1.405298\P,0,-0.78271,1.014458,-0.980

 Normal termination of Gaussian 16 at Tue Apr  8 23:32:48 2025.
