 Gaussian 16, Revision C.01,

 ----------------------------------------------------------------------
 #t hf aug-cc-pvdz symm=none int=(grid=ultrafine) guess=(read,tcheck) s
 table=(opt,rrhf)
 ----------------------------------------------------------------------
 -----
 title
 -----
 Symbolic Z-matrix:
 Charge =  0 Multiplicity = 1

 SCF Done:  E(RHF) =  -896.784078398     A.U. after   15 cycles
 Normal termination of Gaussian 16 at Tue Apr  8 23:20:58 2025.
 Gaussian 16:  ES64L-G16RevC.01  3-Jul-2019

 ----------------------------------------------------------------------
 #t hf aug-cc-pvdz iop(5/13=1,5/36=2,99/5=2) pseudo=read geom=check gue
 ss=(read,tcheck) scf=(maxcycle=1)
 ----------------------------------------------------------------------
 -----
 title
 -----
 Structure from the checkpoint file:  "BDE49_nonexpt_1202_mol1.chk"
 Charge =  0 Multiplicity = 1

                         Standard orientation:
 ---------------------------------------------------------------------
 Center     Atomic      Atomic             Coordinates (Angstroms)
 Number     Number       Type             X           Y           Z
 ---------------------------------------------------------------------
      1         16           0        0.646673   -1.114773    0.012715
      2          8           0       -0.839625   -0.610049   -0.626689
      3          6           0       -1.662856    0.084679    0.203533
      4          6           0        1.515064    0.422291   -0.136471
      5          9           0        2.781002    0.179862    0.267063
      6          8           0        1.119992    1.467182   -0.503308
      7          8           0       -1.489745    0.415873    1.319916
      8          9           0       -2.757112    0.332417   -0.503192
 ---------------------------------------------------------------------

 SCF Done:  E(RHF) =  -896.980784383     A.U. after    2 cycles

 The electronic state is 1-A.
 Alpha  occ. eigenvalues --  -93.67822 -26.20452 -26.20029 -20.70659 -20.64196
 Alpha  occ. eigenvalues --  -20.62705 -11.52811 -11.50237  -8.96916  -6.31102
 Alpha  occ. eigenvalues --   -6.30753  -6.30344  -1.75367  -1.74799  -1.48237
 Alpha  occ. eigenvalues --   -1.44932  -1.41067  -1.09182  -0.97419  -0.91933
 Alpha  occ. eigenvalues --   -0.86420  -0.82796  -0.82001  -0.80809  -0.80339
 Alpha  occ. eigenvalues --   -0.77018  -0.72040  -0.71216  -0.66679  -0.62752
 Alpha  occ. eigenvalues --   -0.62140  -0.57651  -0.56606  -0.52303  -0.45058
 Alpha virt. eigenvalues --    0.04070   0.05314   0.07672   0.08370   0.09089
 Alpha virt. eigenvalues --    0.09480   0.10354   0.11183   0.11826   0.12260
 Alpha virt. eigenvalues --    0.13024   0.14296   0.15763   0.17525   0.19536

 Mulliken charges:
               1
     1  S    0.872291
     2  O   -0.717546
     3  C    0.703535
     4  C    0.228879
     5  F   -0.280529
     6  O   -0.300766
     7  O   -0.269993
     8  F   -0.235871
 Sum of Mulliken charges =  -0.00000

 Dipole moment (field-independent basis, Debye):
    X=              0.7776    Y=             -2.8967    Z=             -0.4050  Tot=              3.0265

 Test job not archived.
 1\1\GINC-SE341\SP\RHF\Aug-CC-pVDZ\C2F2O3S1\OHZDE\08-Apr-2025\0\\#t hf
 aug-cc-pvdz iop(5/13=1,5/36=2,99/5=2) pseudo=read geom=check guess=(re
 ad,tcheck) scf=(maxcycle=1)\\title\\0,1\S,0,0.646673,-1.114773,0.01271
 5\O,0,-0.839625,-0.610049,-0.626689\C,0,-1.662856,0.084679,0.203533\C,
 0,1.515064,0.422291,-0.136471\F,0,2.781002,0.179862,0.267063\O,0,1.119
 992,1.467182,-0.503308\O,0,-1.489745,0.415873,1.319916\F,0,-2.757112,0
 .332417,-0.503192\\Version=ES64L-G16RevC.01\State=1-A\HF=-896.9807844\
 RMSD=4.303e-03\Dipole=0.3059274,-1.1396562,-0.1593242\Quadrupole=-0.77

 Normal termination of Gaussian 16 at Tue Apr  8 23:21:01 2025.
