 Gaussian 16, Revision C.01,

 ----------------------------------------------------------------------
 #t hf aug-cc-pvdz symm=none int=(grid=ultrafine) guess=(read,tcheck) s
 table=(opt,rrhf)
 ----------------------------------------------------------------------
 -----
 title
 -----
 Symbolic Z-matrix:
 Charge =  0 Multiplicity = 1

 SCF Done:  E(RHF) =  -704.773722542     A.U. after   12 cycles
 Normal termination of Gaussian 16 at Tue Apr  8 23:48:37 2025.
 Gaussian 16:  ES64L-G16RevC.01  3-Jul-2019

 ----------------------------------------------------------------------
 #t hf aug-cc-pvdz iop(5/13=1,5/36=2,99/5=2) pseudo=read geom=check gue
 ss=(read,tcheck) scf=(maxcycle=1)
 ----------------------------------------------------------------------
 -----
 title
 -----
 Structure from the checkpoint file:  "BDE49_nonexpt_1862_mol1.chk"
 Charge =  0 Multiplicity = 1

                         Standard orientation:
 ---------------------------------------------------------------------
 Center     Atomic      Atomic             Coordinates (Angstroms)
 Number     Number       Type             X           Y           Z
 ---------------------------------------------------------------------
      1          6           0        0.905504   -0.017545   -0.011441
      2         14           0       -0.952438   -0.005126    0.449066
      3          8           0        1.427262    1.282387   -0.184464
      4          1           0        0.734787    1.823884   -0.586324
      5          8           0       -1.696678   -1.353734   -0.105442
      6          1           0       -1.280116   -1.754601   -0.876402
      7          8           0        0.981297   -0.783424   -1.184196
      8          1           0        1.921531   -0.907660   -1.382324
      9          8           0       -1.435516    1.395009   -0.292717
     10          1           0       -2.355286    1.668424   -0.268272
     11          8           0        1.724596   -0.637688    0.953274
     12          1           0        2.082148    0.066523    1.506150
     13          1           0       -1.209646    0.060057    1.897257
 ---------------------------------------------------------------------

 SCF Done:  E(RHF) =  -704.947540910     A.U. after    2 cycles

 The electronic state is 1-A.
 Alpha  occ. eigenvalues --  -69.12381 -20.59461 -20.59378 -20.59175 -20.58797
 Alpha  occ. eigenvalues --  -20.57713 -11.39616  -6.86909  -3.97901  -3.97783
 Alpha  occ. eigenvalues --   -3.97700  -1.41780  -1.32491  -1.31852  -1.30915
 Alpha  occ. eigenvalues --   -1.30294  -0.90173  -0.80118  -0.76874  -0.74807
 Alpha  occ. eigenvalues --   -0.73173  -0.68925  -0.65018  -0.61415  -0.60115
 Alpha  occ. eigenvalues --   -0.58852  -0.58521  -0.56083  -0.54759  -0.53283
 Alpha  occ. eigenvalues --   -0.51245  -0.50847  -0.43553
 Alpha virt. eigenvalues --    0.02999   0.04451   0.04951   0.05724   0.06685
 Alpha virt. eigenvalues --    0.07091   0.07672   0.08261   0.08761   0.12736
 Alpha virt. eigenvalues --    0.14011   0.14353   0.15016   0.17284   0.18689

 Mulliken charges:
               1
     1  C    1.167314
     2  Si   1.513376
     3  O   -0.631029
     4  H    0.191154
     5  O   -0.826873
     6  H    0.182100
     7  O   -0.589986
     8  H    0.108717
     9  O   -0.775213
    10  H    0.113547
    11  O   -0.597974
    12  H    0.145668
    13  H   -0.000801
 Sum of Mulliken charges =  -0.00000

 Dipole moment (field-independent basis, Debye):
    X=             -0.7844    Y=              1.5567    Z=             -0.2205  Tot=              1.7571

 Test job not archived.
 1\1\GINC-SE071\SP\RHF\Aug-CC-pVDZ\C1H6O5Si1\OHZDE\08-Apr-2025\0\\#t hf
  aug-cc-pvdz iop(5/13=1,5/36=2,99/5=2) pseudo=read geom=check guess=(r
 ead,tcheck) scf=(maxcycle=1)\\title\\0,1\C,0,0.905504,-0.017545,-0.011
 441\Si,0,-0.952438,-0.005126,0.449066\O,0,1.427262,1.282388,-0.184464\
 H,0,0.734786,1.823884,-0.586324\O,0,-1.696677,-1.353735,-0.105442\H,0,
 -1.280115,-1.754601,-0.876402\O,0,0.981297,-0.783424,-1.184196\H,0,1.9
 21531,-0.907659,-1.382324\O,0,-1.435516,1.395009,-0.292717\H,0,-2.3552
 87,1.668423,-0.268272\O,0,1.724596,-0.637687,0.953274\H,0,2.082148,0.0

 Normal termination of Gaussian 16 at Tue Apr  8 23:48:42 2025.
