 Gaussian 16, Revision C.01,

 ----------------------------------------------------------------------
 #t hf aug-cc-pvdz symm=none int=(grid=ultrafine) guess=(read,tcheck) s
 table=opt
 ----------------------------------------------------------------------
 -----
 title
 -----
 Symbolic Z-matrix:
 Charge =  0 Multiplicity = 2

 SCF Done:  E(UHF) =  -917.417912076     A.U. after   20 cycles
 Normal termination of Gaussian 16 at Tue Apr  8 23:45:19 2025.
 Gaussian 16:  ES64L-G16RevC.01  3-Jul-2019

 ----------------------------------------------------------------------
 #t hf aug-cc-pvdz iop(5/13=1,5/36=2,99/5=2) pseudo=read geom=check gue
 ss=(read,tcheck) scf=(maxcycle=1)
 ----------------------------------------------------------------------
 -----
 title
 -----
 Structure from the checkpoint file:  "BDE49_nonexpt_1782_mol2.chk"
 Charge =  0 Multiplicity = 2

                         Standard orientation:
 ---------------------------------------------------------------------
 Center     Atomic      Atomic             Coordinates (Angstroms)
 Number     Number       Type             X           Y           Z
 ---------------------------------------------------------------------
      1         14           0        0.329945   -0.893352   -0.264888
      2          6           0       -1.328552    0.045792    0.007976
      3         17           0        1.982942    0.348484    0.122734
      4          7           0       -1.367517    1.396012   -0.117067
      5          1           0       -0.521367    1.938173   -0.186625
      6          1           0       -2.243690    1.874546    0.042103
      7          8           0       -2.300069   -0.657161    0.230328
      8          1           0        0.380293   -2.019573    0.695476
 ---------------------------------------------------------------------

 SCF Done:  E(UHF) =  -917.509291383     A.U. after    2 cycles

 The electronic state is 2-A.
 Alpha  occ. eigenvalues -- -103.67058 -69.14155 -20.56264 -15.66884 -11.37583
 Alpha  occ. eigenvalues --  -10.70453  -8.36190  -8.35958  -8.35893  -6.89086
 Alpha  occ. eigenvalues --   -4.00285  -3.99554  -3.99387  -1.36560  -1.19545
 Alpha  occ. eigenvalues --   -1.15256  -0.84829  -0.76820  -0.71091  -0.66714
 Alpha  occ. eigenvalues --   -0.60146  -0.59120  -0.54725  -0.51263  -0.49794
 Alpha  occ. eigenvalues --   -0.44224  -0.43425  -0.35905
 Alpha virt. eigenvalues --    0.03051   0.04693   0.05086   0.05922   0.06850
 Alpha virt. eigenvalues --    0.07273   0.09404   0.11582   0.12559   0.12794
 Alpha virt. eigenvalues --    0.13597   0.14166   0.15613   0.16182   0.16961

  Beta  occ. eigenvalues -- -103.66969 -69.13565 -20.55992 -15.66892 -11.37517
  Beta  occ. eigenvalues --  -10.70358  -8.36043  -8.35846  -8.35707  -6.88167
  Beta  occ. eigenvalues --   -3.99165  -3.99008  -3.98124  -1.36026  -1.19402
  Beta  occ. eigenvalues --   -1.14528  -0.83936  -0.75994  -0.69780  -0.65217
  Beta  occ. eigenvalues --   -0.59662  -0.57770  -0.53522  -0.49674  -0.48961
  Beta  occ. eigenvalues --   -0.43228  -0.42242
  Beta virt. eigenvalues --    0.00962   0.03130   0.05115   0.05540   0.06271
  Beta virt. eigenvalues --    0.07101   0.07507   0.10162   0.12521   0.12744
  Beta virt. eigenvalues --    0.13571   0.14837   0.15357   0.16351   0.17407

 Mulliken charges and spin densities:
               1          2
     1  Si   0.727431   0.847631
     2  C    0.406862  -0.013393
     3  Cl  -0.509652   0.032889
     4  N   -0.102953   0.003985
     5  H    0.006209   0.001150
     6  H   -0.009501   0.000649
     7  O   -0.523056   0.055876
     8  H    0.004661   0.071213
 Sum of Mulliken charges =  -0.00000   1.00000

 Dipole moment (field-independent basis, Debye):
    X=              1.1897    Y=              2.1700    Z=             -0.7714  Tot=              2.5922
                          Isotropic Fermi Contact Couplings
        Atom                 a.u.       MegaHertz       Gauss      10(-4) cm-1
     1  Si(29)             0.68246    -606.52282    -216.42243    -202.31424
     2  C(13)              0.02480      27.88324       9.94943       9.30085
     3  Cl(35)             0.05160      22.62339       8.07259       7.54635
     4  N(14)             -0.00245      -0.79073      -0.28215      -0.26376
     5  H(1)               0.00002       0.07386       0.02636       0.02464
     6  H(1)               0.00031       1.39666       0.49836       0.46588
     7  O(17)              0.02328     -14.11009      -5.03483      -4.70662
     8  H(1)               0.01372      61.33974      21.88754      20.46073

 Normal termination of Gaussian 16 at Tue Apr  8 23:45:22 2025.
