 Gaussian 16, Revision C.01,

 ----------------------------------------------------------------------
 #t hf aug-cc-pvdz symm=none int=(grid=ultrafine) guess=(read,tcheck) s
 table=(opt,rrhf)
 ----------------------------------------------------------------------
 -----
 title
 -----
 Symbolic Z-matrix:
 Charge =  0 Multiplicity = 1

 SCF Done:  E(RHF) =  -197.408083440     A.U. after   12 cycles
 Normal termination of Gaussian 16 at Wed Apr  9 00:36:59 2025.
 Gaussian 16:  ES64L-G16RevC.01  3-Jul-2019

 ----------------------------------------------------------------------
 #t hf aug-cc-pvdz iop(5/13=1,5/36=2,99/5=2) pseudo=read geom=check gue
 ss=(read,tcheck) scf=(maxcycle=1)
 ----------------------------------------------------------------------
 -----
 title
 -----
 Structure from the checkpoint file:  "BDE49_nonexpt_578_mol1.chk"
 Charge =  0 Multiplicity = 1

                         Standard orientation:
 ---------------------------------------------------------------------
 Center     Atomic      Atomic             Coordinates (Angstroms)
 Number     Number       Type             X           Y           Z
 ---------------------------------------------------------------------
      1          5           0        2.055401    0.382192   -0.159853
      2          6           0       -0.315118   -0.261866    0.531304
      3          6           0       -1.481645   -0.486712   -0.399425
      4          6           0       -1.076275    0.914721   -0.002707
      5          1           0       -0.586652    1.524359   -0.750511
      6          1           0       -1.707455    1.464346    0.684597
      7          1           0       -2.393764   -0.904270    0.009804
      8          1           0       -1.248781   -0.798791   -1.410565
      9          7           0        1.026899   -0.524874    0.069732
     10          1           0       -0.482008   -0.512538    1.575760
     11          1           0        1.863610    1.548881   -0.013832
     12          1           0        3.114034   -0.043369   -0.509196
     13          1           0        1.213947   -1.512314   -0.049953
 ---------------------------------------------------------------------

 SCF Done:  E(RHF) =  -197.472567106     A.U. after    2 cycles

 The electronic state is 1-A.
 Alpha  occ. eigenvalues --  -15.62268 -11.27661 -11.23880 -11.23784  -7.59368
 Alpha  occ. eigenvalues --   -1.18593  -1.08372  -0.83044  -0.81653  -0.70523
 Alpha  occ. eigenvalues --   -0.69211  -0.65111  -0.58076  -0.54036  -0.52207
 Alpha  occ. eigenvalues --   -0.46823  -0.45945  -0.42675  -0.38582
 Alpha virt. eigenvalues --    0.03415   0.04046   0.04435   0.04687   0.06465
 Alpha virt. eigenvalues --    0.06627   0.07063   0.07579   0.08002   0.10316
 Alpha virt. eigenvalues --    0.11718   0.12555   0.13113   0.14266   0.14626

 Mulliken charges:
               1
     1  B   -0.597246
     2  C    0.996211
     3  C    0.539883
     4  C    0.534398
     5  H   -0.367177
     6  H   -0.280229
     7  H   -0.328109
     8  H   -0.310775
     9  N   -0.425412
    10  H   -0.298900
    11  H    0.240862
    12  H    0.335174
    13  H   -0.038679
 Sum of Mulliken charges =  -0.00000

 Dipole moment (field-independent basis, Debye):
    X=             -1.2365    Y=             -1.0158    Z=              0.3084  Tot=              1.6297

 Test job not archived.
 1\1\GINC-SE162\SP\RHF\Aug-CC-pVDZ\C3H8B1N1\OHZDE\09-Apr-2025\0\\#t hf
 aug-cc-pvdz iop(5/13=1,5/36=2,99/5=2) pseudo=read geom=check guess=(re
 ad,tcheck) scf=(maxcycle=1)\\title\\0,1\B,0,2.055401,0.382192,-0.15985
 3\C,0,-0.315118,-0.261866,0.531304\C,0,-1.481645,-0.486712,-0.399425\C
 ,0,-1.076275,0.914721,-0.002707\H,0,-0.586652,1.524359,-0.750511\H,0,-
 1.707455,1.464346,0.684597\H,0,-2.393764,-0.90427,0.009804\H,0,-1.2487
 81,-0.798791,-1.410565\N,0,1.026899,-0.524874,0.069732\H,0,-0.482008,-
 0.512538,1.57576\H,0,1.86361,1.548881,-0.013832\H,0,3.114034,-0.043369

 Normal termination of Gaussian 16 at Wed Apr  9 00:37:02 2025.
