 Gaussian 16, Revision C.01,

 ----------------------------------------------------------------------
 #t hf aug-cc-pvdz symm=none int=(grid=ultrafine) guess=(read,tcheck) s
 table=(opt,rrhf)
 ----------------------------------------------------------------------
 -----
 title
 -----
 Symbolic Z-matrix:
 Charge =  0 Multiplicity = 1

 SCF Done:  E(RHF) =  -533.631805705     A.U. after   15 cycles
 Normal termination of Gaussian 16 at Wed Apr  9 00:36:30 2025.
 Gaussian 16:  ES64L-G16RevC.01  3-Jul-2019

 ----------------------------------------------------------------------
 #t hf aug-cc-pvdz iop(5/13=1,5/36=2,99/5=2) pseudo=read geom=check gue
 ss=(read,tcheck) scf=(maxcycle=1)
 ----------------------------------------------------------------------
 -----
 title
 -----
 Structure from the checkpoint file:  "BDE49_nonexpt_569_mol1.chk"
 Charge =  0 Multiplicity = 1

                         Standard orientation:
 ---------------------------------------------------------------------
 Center     Atomic      Atomic             Coordinates (Angstroms)
 Number     Number       Type             X           Y           Z
 ---------------------------------------------------------------------
      1          7           0        0.085483   -0.406079    0.277836
      2          5           0       -1.267796    0.171936    0.012941
      3          7           0        1.302570    0.243313    0.000322
      4          9           0        0.211544   -1.754878    0.069376
      5          8           0        2.268795   -0.431614   -0.232465
      6          8           0        1.244268    1.469803    0.084005
      7          8           0       -1.452544    1.502668   -0.054663
      8          8           0       -2.253871   -0.740224   -0.101676
      9          1           0       -3.113041   -0.325188   -0.229747
     10          1           0       -0.621441    1.993704    0.031939
 ---------------------------------------------------------------------

 SCF Done:  E(RHF) =  -533.809195567     A.U. after    2 cycles

 The electronic state is 1-A.
 Alpha  occ. eigenvalues --  -26.20347 -20.66761 -20.65279 -20.62048 -20.61580
 Alpha  occ. eigenvalues --  -15.99720 -15.80864  -7.73851  -1.73093  -1.60903
 Alpha  occ. eigenvalues --   -1.42392  -1.38626  -1.35286  -1.23380  -0.96350
 Alpha  occ. eigenvalues --   -0.86913  -0.84405  -0.82804  -0.80840  -0.78497
 Alpha  occ. eigenvalues --   -0.76889  -0.76262  -0.73221  -0.63992  -0.63217
 Alpha  occ. eigenvalues --   -0.62886  -0.56664  -0.56169  -0.55673  -0.52298
 Alpha  occ. eigenvalues --   -0.49885
 Alpha virt. eigenvalues --    0.03091   0.04246   0.05108   0.05785   0.06338
 Alpha virt. eigenvalues --    0.07925   0.08671   0.12953   0.14298   0.16253
 Alpha virt. eigenvalues --    0.17017   0.17503   0.17918   0.19421   0.20429

 Mulliken charges:
               1
     1  N    0.119408
     2  B    0.737867
     3  N    0.783049
     4  F   -0.332079
     5  O   -0.456590
     6  O   -0.573704
     7  O   -0.374761
     8  O   -0.380690
     9  H    0.186825
    10  H    0.290674
 Sum of Mulliken charges =  -0.00000

 Dipole moment (field-independent basis, Debye):
    X=             -2.7726    Y=              1.0036    Z=              0.0492  Tot=              2.9491

 Test job not archived.
 1\1\GINC-SE159\SP\RHF\Aug-CC-pVDZ\B1F1H2N2O4\OHZDE\09-Apr-2025\0\\#t h
 f aug-cc-pvdz iop(5/13=1,5/36=2,99/5=2) pseudo=read geom=check guess=(
 read,tcheck) scf=(maxcycle=1)\\title\\0,1\N,0,0.085483,-0.406079,0.277
 836\B,0,-1.267796,0.171936,0.012941\N,0,1.30257,0.243313,0.000322\F,0,
 0.211544,-1.754878,0.069376\O,0,2.268795,-0.431615,-0.232465\O,0,1.244
 269,1.469803,0.084005\O,0,-1.452543,1.502668,-0.054663\O,0,-2.253871,-
 0.740223,-0.101676\H,0,-3.113041,-0.325187,-0.229747\H,0,-0.62144,1.99
 3704,0.031939\\Version=ES64L-G16RevC.01\State=1-A\HF=-533.8091956\RMSD

 Normal termination of Gaussian 16 at Wed Apr  9 00:36:34 2025.
