 Gaussian 16, Revision C.01,

 ----------------------------------------------------------------------
 #t hf aug-cc-pvdz symm=none int=(grid=ultrafine) guess=(read,tcheck) s
 table=(opt,rrhf)
 ----------------------------------------------------------------------
 -----
 title
 -----
 Symbolic Z-matrix:
 Charge =  0 Multiplicity = 1

 SCF Done:  E(RHF) =  -482.691587546     A.U. after   16 cycles
 Normal termination of Gaussian 16 at Wed Apr  9 00:29:30 2025.
 Gaussian 16:  ES64L-G16RevC.01  3-Jul-2019

 ----------------------------------------------------------------------
 #t hf aug-cc-pvdz iop(5/13=1,5/36=2,99/5=2) pseudo=read geom=check gue
 ss=(read,tcheck) scf=(maxcycle=1)
 ----------------------------------------------------------------------
 -----
 title
 -----
 Structure from the checkpoint file:  "BDE49_nonexpt_345_mol1.chk"
 Charge =  0 Multiplicity = 1

                         Standard orientation:
 ---------------------------------------------------------------------
 Center     Atomic      Atomic             Coordinates (Angstroms)
 Number     Number       Type             X           Y           Z
 ---------------------------------------------------------------------
      1          6           0       -3.032706   -0.185525    0.107497
      2          6           0       -1.699792   -0.480512   -0.518943
      3          8           0       -3.460529   -0.690137    1.115050
      4          8           0       -3.722514    0.761995   -0.577727
      5          5           0       -0.586283    0.582293   -0.156205
      6          1           0       -1.802227   -0.408115   -1.611911
      7          1           0       -1.421392   -1.505472   -0.270345
      8          6           0        0.919614    0.254752   -0.065208
      9          1           0       -4.537414    0.917730   -0.077740
     10          6           0        1.838384    1.299041    0.169427
     11          6           0        1.441523   -1.047127   -0.212351
     12          6           0        2.806478   -1.293599   -0.132530
     13          6           0        3.690032   -0.238095    0.098849
     14          6           0        3.205960    1.060534    0.250375
     15          1           0        3.893857    1.878686    0.431926
     16          1           0        1.462117    2.309495    0.288700
     17          1           0        0.767480   -1.878329   -0.388552
     18          1           0        3.186451   -2.302596   -0.247136
     19          1           0        4.755695   -0.429723    0.163022
     20          1           0       -0.925761    1.715181    0.011783
 ---------------------------------------------------------------------

 SCF Done:  E(RHF) =  -482.837216896     A.U. after    2 cycles

 The electronic state is 1-A.
 Alpha  occ. eigenvalues --  -20.62177 -20.55987 -11.39848 -11.26575 -11.26271
 Alpha  occ. eigenvalues --  -11.26164 -11.25379 -11.25310 -11.23684 -11.23258
 Alpha  occ. eigenvalues --   -7.62144  -1.42131  -1.32271  -1.15105  -1.02877
 Alpha  occ. eigenvalues --   -1.02145  -1.00884  -0.84520  -0.83834  -0.82267
 Alpha  occ. eigenvalues --   -0.73161  -0.71588  -0.69057  -0.67760  -0.64913
 Alpha  occ. eigenvalues --   -0.64182  -0.61939  -0.60434  -0.59159  -0.58420
 Alpha  occ. eigenvalues --   -0.54664  -0.51509  -0.51414  -0.50387  -0.48389
 Alpha  occ. eigenvalues --   -0.46915  -0.45913  -0.35529  -0.35105
 Alpha virt. eigenvalues --    0.02912   0.03719   0.03836   0.04637   0.04901
 Alpha virt. eigenvalues --    0.05329   0.05828   0.06625   0.07488   0.08053
 Alpha virt. eigenvalues --    0.08372   0.09264   0.10055   0.10799   0.11286

 Mulliken charges:
               1
     1  C    0.516397
     2  C    0.285278
     3  O   -0.512746
     4  O   -0.509711
     5  B   -0.218073
     6  H   -0.012748
     7  H   -0.239720
     8  C   -0.420965
     9  H    0.191514
    10  C    0.359430
    11  C    0.750900
    12  C    0.632586
    13  C    0.810261
    14  C    0.589825
    15  H   -0.446327
    16  H   -0.611073
    17  H   -0.611975
    18  H   -0.480515
    19  H   -0.440862
    20  H    0.368525
 Sum of Mulliken charges =  -0.00000

 Dipole moment (field-independent basis, Debye):
    X=              2.3480    Y=              0.5255    Z=             -1.6683  Tot=              2.9279

 Test job not archived.
 1\1\GINC-SE461\SP\RHF\Aug-CC-pVDZ\C8H9B1O2\OHZDE\09-Apr-2025\0\\#t hf
 aug-cc-pvdz iop(5/13=1,5/36=2,99/5=2) pseudo=read geom=check guess=(re
 ad,tcheck) scf=(maxcycle=1)\\title\\0,1\C,0,-3.032706,-0.185525,0.1074
 97\C,0,-1.699792,-0.480512,-0.518943\O,0,-3.460529,-0.690137,1.11505\O
 ,0,-3.722514,0.761995,-0.577727\B,0,-0.586283,0.582293,-0.156205\H,0,-
 1.802227,-0.408115,-1.611911\H,0,-1.421392,-1.505472,-0.270345\C,0,0.9
 19614,0.254752,-0.065208\H,0,-4.537414,0.91773,-0.07774\C,0,1.838384,1
 .299041,0.169427\C,0,1.441523,-1.047127,-0.212351\C,0,2.806478,-1.2935

 Normal termination of Gaussian 16 at Wed Apr  9 00:29:41 2025.
