 Gaussian 16, Revision C.01,

 ----------------------------------------------------------------------
 #t hf aug-cc-pvdz symm=none int=(grid=ultrafine) guess=(read,tcheck) s
 table=(opt,rrhf)
 ----------------------------------------------------------------------
 -----
 title
 -----
 Symbolic Z-matrix:
 Charge =  0 Multiplicity = 1

 SCF Done:  E(RHF) =  -473.900867033     A.U. after   15 cycles
 Normal termination of Gaussian 16 at Wed Apr  9 00:36:48 2025.
 Gaussian 16:  ES64L-G16RevC.01  3-Jul-2019

 ----------------------------------------------------------------------
 #t hf aug-cc-pvdz iop(5/13=1,5/36=2,99/5=2) pseudo=read geom=check gue
 ss=(read,tcheck) scf=(maxcycle=1)
 ----------------------------------------------------------------------
 -----
 title
 -----
 Structure from the checkpoint file:  "BDE49_nonexpt_565_mol1.chk"
 Charge =  0 Multiplicity = 1

                         Standard orientation:
 ---------------------------------------------------------------------
 Center     Atomic      Atomic             Coordinates (Angstroms)
 Number     Number       Type             X           Y           Z
 ---------------------------------------------------------------------
      1          7           0        0.098905    0.438685    0.000096
      2          5           0       -1.250554   -0.166033    0.000039
      3          7           0        1.250602   -0.323694    0.000159
      4          8           0       -1.487876   -1.492817    0.000071
      5          8           0       -2.271235    0.739173   -0.000044
      6          8           0        2.315415    0.267268   -0.000169
      7          8           0        1.135568   -1.555492   -0.000176
      8          6           0        0.323087    1.885940    0.000057
      9          1           0        0.882538    2.188837   -0.886193
     10          1           0        0.882459    2.188892    0.886337
     11          1           0       -0.656781    2.354151   -0.000003
     12          1           0       -0.649610   -1.984375    0.000145
     13          1           0       -3.125880    0.297025   -0.000073
 ---------------------------------------------------------------------

 SCF Done:  E(RHF) =  -474.055425900     A.U. after    2 cycles

 The electronic state is 1-A.
 Alpha  occ. eigenvalues --  -20.63517 -20.62555 -20.60449 -20.59106 -15.96720
 Alpha  occ. eigenvalues --  -15.71618 -11.29451  -7.71004  -1.58092  -1.38760
 Alpha  occ. eigenvalues --   -1.36714  -1.32941  -1.25337  -1.00453  -0.88984
 Alpha  occ. eigenvalues --   -0.83428  -0.77724  -0.76787  -0.76403  -0.74628
 Alpha  occ. eigenvalues --   -0.68234  -0.63162  -0.62008  -0.60458  -0.59721
 Alpha  occ. eigenvalues --   -0.58137  -0.54331  -0.54254  -0.52136  -0.49899
 Alpha  occ. eigenvalues --   -0.44703
 Alpha virt. eigenvalues --    0.03042   0.04188   0.04254   0.05596   0.07036
 Alpha virt. eigenvalues --    0.07514   0.07518   0.07920   0.08897   0.10059
 Alpha virt. eigenvalues --    0.13114   0.15093   0.15176   0.16188   0.17335

 Mulliken charges:
               1
     1  N   -0.283071
     2  B    0.614946
     3  N    0.718248
     4  O   -0.404492
     5  O   -0.491328
     6  O   -0.527490
     7  O   -0.631815
     8  C    0.919356
     9  H   -0.068342
    10  H   -0.068376
    11  H   -0.242770
    12  H    0.296057
    13  H    0.169077
 Sum of Mulliken charges =  -0.00000

 Dipole moment (field-independent basis, Debye):
    X=             -2.5932    Y=              2.1535    Z=              0.0010  Tot=              3.3708

 Test job not archived.
 1\1\GINC-SE049\SP\RHF\Aug-CC-pVDZ\C1H5B1N2O4\OHZDE\09-Apr-2025\0\\#t h
 f aug-cc-pvdz iop(5/13=1,5/36=2,99/5=2) pseudo=read geom=check guess=(
 read,tcheck) scf=(maxcycle=1)\\title\\0,1\N,0,-0.098905,0.438685,-0.00
 0096\B,0,1.250554,-0.166033,-0.000039\N,0,-1.250602,-0.323694,-0.00015
 9\O,0,1.487876,-1.492817,-0.000071\O,0,2.271235,0.739173,0.000044\O,0,
 -2.315415,0.267268,0.000169\O,0,-1.135568,-1.555492,0.000176\C,0,-0.32
 3087,1.88594,-0.000057\H,0,-0.882538,2.188837,0.886193\H,0,-0.882459,2
 .188892,-0.886337\H,0,0.656781,2.354151,0.000003\H,0,0.64961,-1.984375

 Normal termination of Gaussian 16 at Wed Apr  9 00:36:52 2025.
