 Gaussian 16, Revision C.01,

 ----------------------------------------------------------------------
 #t hf aug-cc-pvdz symm=none int=(grid=ultrafine) guess=(read,tcheck) s
 table=(opt,rrhf)
 ----------------------------------------------------------------------
 -----
 title
 -----
 Symbolic Z-matrix:
 Charge =  0 Multiplicity = 1

 SCF Done:  E(RHF) =  -2166.15857424     A.U. after   12 cycles
 Normal termination of Gaussian 16 at Tue Apr  8 23:48:20 2025.
 Gaussian 16:  ES64L-G16RevC.01  3-Jul-2019

 ----------------------------------------------------------------------
 #t hf aug-cc-pvdz iop(5/13=1,5/36=2,99/5=2) pseudo=read geom=check gue
 ss=(read,tcheck) scf=(maxcycle=1)
 ----------------------------------------------------------------------
 -----
 title
 -----
 Structure from the checkpoint file:  "BDE49_nonexpt_1847_mol1.chk"
 Charge =  0 Multiplicity = 1

                         Standard orientation:
 ---------------------------------------------------------------------
 Center     Atomic      Atomic             Coordinates (Angstroms)
 Number     Number       Type             X           Y           Z
 ---------------------------------------------------------------------
      1          6           0        1.062825   -0.000000    1.235349
      2         14           0       -0.385214    0.000000    0.048120
      3         17           0       -2.097485   -0.000001    1.192444
      4         17           0       -0.365934   -1.674164   -1.132315
      5         17           0        2.650768   -0.000000    0.376815
      6         17           0       -0.365935    1.674165   -1.132314
      7          1           0        1.025992   -0.887485    1.867750
      8          1           0        1.025992    0.887486    1.867749
 ---------------------------------------------------------------------

 SCF Done:  E(RHF) =  -2166.27273670     A.U. after    2 cycles

 The electronic state is 1-A.
 Alpha  occ. eigenvalues -- -103.68451-103.68267-103.68266-103.67582 -69.21858
 Alpha  occ. eigenvalues --  -11.32462 -10.71905 -10.71731 -10.71721 -10.70803
 Alpha  occ. eigenvalues --   -8.37597  -8.37425  -8.37420  -8.37361  -8.37355
 Alpha  occ. eigenvalues --   -8.37181  -8.37178  -8.37175  -8.37173  -8.36528
 Alpha  occ. eigenvalues --   -8.36223  -8.36213  -6.95760  -4.06615  -4.06605
 Alpha  occ. eigenvalues --   -4.06457  -1.19598  -1.17559  -1.15857  -1.15801
 Alpha  occ. eigenvalues --   -0.94930  -0.71968  -0.65818  -0.61616  -0.59436
 Alpha  occ. eigenvalues --   -0.58716  -0.57206  -0.52226  -0.52144  -0.50962
 Alpha  occ. eigenvalues --   -0.49549  -0.49530  -0.48331  -0.46993  -0.44987
 Alpha virt. eigenvalues --    0.03474   0.05139   0.05642   0.05867   0.07510
 Alpha virt. eigenvalues --    0.08469   0.09012   0.11679   0.11854   0.12555
 Alpha virt. eigenvalues --    0.13231   0.14226   0.15259   0.16417   0.16462

 Mulliken charges:
               1
     1  C   -0.072559
     2  Si   1.732240
     3  Cl  -0.471641
     4  Cl  -0.467168
     5  Cl  -0.192425
     6  Cl  -0.467168
     7  H   -0.030640
     8  H   -0.030639
 Sum of Mulliken charges =  -0.00000

 Dipole moment (field-independent basis, Debye):
    X=             -0.2389    Y=             -0.0000    Z=              1.7409  Tot=              1.7573

 Test job not archived.
 1\1\GINC-SE402\SP\RHF\Aug-CC-pVDZ\C1H2Cl4Si1\OHZDE\08-Apr-2025\0\\#t h
 f aug-cc-pvdz iop(5/13=1,5/36=2,99/5=2) pseudo=read geom=check guess=(
 read,tcheck) scf=(maxcycle=1)\\title\\0,1\C,0,1.062825,0.,1.235349\Si,
 0,-0.385214,0.,0.04812\Cl,0,-2.097485,-0.000001,1.192444\Cl,0,-0.36593
 4,-1.674164,-1.132315\Cl,0,2.650768,0.,0.376815\Cl,0,-0.365935,1.67416
 5,-1.132314\H,0,1.025992,-0.887485,1.86775\H,0,1.025992,0.887486,1.867
 749\\Version=ES64L-G16RevC.01\State=1-A\HF=-2166.2727367\RMSD=3.842e-0
 3\Dipole=-0.0939818,0.,0.684941\Quadrupole=-3.1802268,0.5154987,2.6647

 Normal termination of Gaussian 16 at Tue Apr  8 23:48:24 2025.
