 Gaussian 16, Revision C.01,

 ----------------------------------------------------------------------
 #t hf aug-cc-pvdz symm=none int=(grid=ultrafine) guess=(read,tcheck) s
 table=(opt,rrhf)
 ----------------------------------------------------------------------
 -----
 title
 -----
 Symbolic Z-matrix:
 Charge =  0 Multiplicity = 1

 SCF Done:  E(RHF) =  -1117.63265545     A.U. after   14 cycles
 Normal termination of Gaussian 16 at Tue Apr  8 23:42:51 2025.
 Gaussian 16:  ES64L-G16RevC.01  3-Jul-2019

 ----------------------------------------------------------------------
 #t hf aug-cc-pvdz iop(5/13=1,5/36=2,99/5=2) pseudo=read geom=check gue
 ss=(read,tcheck) scf=(maxcycle=1)
 ----------------------------------------------------------------------
 -----
 title
 -----
 Structure from the checkpoint file:  "BDE49_nonexpt_1704_mol1.chk"
 Charge =  0 Multiplicity = 1

                         Standard orientation:
 ---------------------------------------------------------------------
 Center     Atomic      Atomic             Coordinates (Angstroms)
 Number     Number       Type             X           Y           Z
 ---------------------------------------------------------------------
      1         16           0        0.001660    1.402681   -0.109640
      2         15           0       -1.395619   -0.191114    0.035857
      3          8           0       -2.769536    0.299650   -0.046092
      4          8           0       -0.996828   -1.285071   -1.077409
      5          8           0        1.354713    0.530304    0.462659
      6          6           0        2.231426   -0.005485   -0.566406
      7          6           0        3.385796   -0.682061    0.145395
      8          1           0        2.577996    0.819388   -1.195652
      9          1           0        1.668130   -0.708877   -1.185604
     10          1           0        3.919629    0.028049    0.779969
     11          1           0        4.086829   -1.083773   -0.591154
     12          1           0        3.033902   -1.509142    0.766177
     13          8           0       -0.918854   -0.938042    1.352260
     14          1           0        0.011177   -0.736228    1.550950
     15          1           0       -1.449229   -1.115063   -1.913566
 ---------------------------------------------------------------------

 SCF Done:  E(RHF) =  -1117.84417253     A.U. after    2 cycles

 The electronic state is 1-A.
 Alpha  occ. eigenvalues --  -93.61084 -81.44632 -20.63604 -20.63084 -20.62600
 Alpha  occ. eigenvalues --  -20.54266 -11.31810 -11.25107  -8.90335  -7.92818
 Alpha  occ. eigenvalues --   -6.24512  -6.24183  -6.23836  -5.07466  -5.07314
 Alpha  occ. eigenvalues --   -5.07018  -1.39595  -1.36301  -1.35559  -1.27741
 Alpha  occ. eigenvalues --   -1.05106  -0.95412  -0.86771  -0.84405  -0.77347
 Alpha  occ. eigenvalues --   -0.72448  -0.69506  -0.66928  -0.66457  -0.62827
 Alpha  occ. eigenvalues --   -0.61719  -0.60837  -0.58533  -0.57705  -0.56063
 Alpha  occ. eigenvalues --   -0.53574  -0.51426  -0.50935  -0.50506  -0.44525
 Alpha  occ. eigenvalues --   -0.40071
 Alpha virt. eigenvalues --    0.02782   0.03893   0.04479   0.04828   0.06266
 Alpha virt. eigenvalues --    0.07096   0.07667   0.08082   0.08945   0.09815
 Alpha virt. eigenvalues --    0.11548   0.12187   0.12906   0.13949   0.14663

 Mulliken charges:
               1
     1  S    0.165293
     2  P    2.133440
     3  O   -0.849686
     4  O   -0.729139
     5  O   -0.935207
     6  C    0.803010
     7  C    0.157553
     8  H   -0.189717
     9  H   -0.163664
    10  H   -0.053442
    11  H   -0.021332
    12  H   -0.071905
    13  O   -0.706323
    14  H    0.269412
    15  H    0.191707
 Sum of Mulliken charges =   0.00000

 Dipole moment (field-independent basis, Debye):
    X=              4.9351    Y=             -0.7927    Z=             -2.4225  Tot=              5.5545

 Test job not archived.
 1\1\GINC-SE424\SP\RHF\Aug-CC-pVDZ\C2H7O4P1S1\OHZDE\08-Apr-2025\0\\#t h
 f aug-cc-pvdz iop(5/13=1,5/36=2,99/5=2) pseudo=read geom=check guess=(
 read,tcheck) scf=(maxcycle=1)\\title\\0,1\S,0,0.00166,1.402681,-0.1096
 4\P,0,-1.395619,-0.191114,0.035857\O,0,-2.769536,0.29965,-0.046092\O,0
 ,-0.996828,-1.285071,-1.077409\O,0,1.354713,0.530304,0.462659\C,0,2.23
 1426,-0.005485,-0.566406\C,0,3.385796,-0.682061,0.145395\H,0,2.577996,
 0.819388,-1.195652\H,0,1.66813,-0.708877,-1.185604\H,0,3.919629,0.0280
 49,0.779969\H,0,4.086829,-1.083773,-0.591154\H,0,3.033902,-1.509142,0.

 Normal termination of Gaussian 16 at Tue Apr  8 23:42:57 2025.
