 Gaussian 16, Revision C.01,

 ----------------------------------------------------------------------
 #t hf aug-cc-pvdz symm=none int=(grid=ultrafine) guess=(read,tcheck) s
 table=(opt,rrhf)
 ----------------------------------------------------------------------
 -----
 title
 -----
 Symbolic Z-matrix:
 Charge =  0 Multiplicity = 1

 SCF Done:  E(RHF) =  -394.572621922     A.U. after   12 cycles
 Normal termination of Gaussian 16 at Wed Apr  9 00:44:29 2025.
 Gaussian 16:  ES64L-G16RevC.01  3-Jul-2019

 ----------------------------------------------------------------------
 #t hf aug-cc-pvdz iop(5/13=1,5/36=2,99/5=2) pseudo=read geom=check gue
 ss=(read,tcheck) scf=(maxcycle=1)
 ----------------------------------------------------------------------
 -----
 title
 -----
 Structure from the checkpoint file:  "BDE49_nonexpt_815_mol1.chk"
 Charge =  0 Multiplicity = 1

                         Standard orientation:
 ---------------------------------------------------------------------
 Center     Atomic      Atomic             Coordinates (Angstroms)
 Number     Number       Type             X           Y           Z
 ---------------------------------------------------------------------
      1          6           0       -1.211545    0.445130   -0.136937
      2          5           0       -0.005837   -0.540144   -0.135292
      3         14           0        1.926844    0.038927    0.048556
      4          6           0       -2.616290   -0.113544    0.138297
      5          1           0       -1.162600    0.820292   -1.181734
      6          1           0       -1.019056    1.347251    0.456714
      7          1           0       -2.834865   -0.967090   -0.508717
      8          1           0       -3.393290    0.639245   -0.022404
      9          1           0       -2.703736   -0.458247    1.172400
     10          1           0       -0.211564   -1.710049   -0.295611
     11          1           0        2.124638    1.511572    0.024612
     12          1           0        2.781931   -0.556348   -1.011715
     13          1           0        2.438915   -0.460398    1.354967
 ---------------------------------------------------------------------

 SCF Done:  E(RHF) =  -394.627691342     A.U. after    2 cycles

 The electronic state is 1-A.
 Alpha  occ. eigenvalues --  -69.04337 -11.22906 -11.22082  -7.61482  -6.79856
 Alpha  occ. eigenvalues --   -3.90632  -3.90616  -3.90566  -1.01799  -0.85705
 Alpha  occ. eigenvalues --   -0.71367  -0.64196  -0.60181  -0.55782  -0.53275
 Alpha  occ. eigenvalues --   -0.49676  -0.47614  -0.47100  -0.45010  -0.39556
 Alpha virt. eigenvalues --    0.03215   0.04374   0.04535   0.04692   0.06029
 Alpha virt. eigenvalues --    0.06399   0.06833   0.07384   0.08208   0.08710
 Alpha virt. eigenvalues --    0.09070   0.09185   0.09899   0.11766   0.12198

 Mulliken charges:
               1
     1  C    0.195499
     2  B    0.051651
     3  Si  -0.233406
     4  C    0.250646
     5  H   -0.114290
     6  H   -0.233502
     7  H   -0.110451
     8  H   -0.062834
     9  H   -0.107059
    10  H    0.258425
    11  H    0.058032
    12  H    0.006511
    13  H    0.040777
 Sum of Mulliken charges =   0.00000

 Dipole moment (field-independent basis, Debye):
    X=             -1.0945    Y=              0.2235    Z=             -0.1764  Tot=              1.1310

 Test job not archived.
 1\1\GINC-SE367\SP\RHF\Aug-CC-pVDZ\C2H9B1Si1\OHZDE\09-Apr-2025\0\\#t hf
  aug-cc-pvdz iop(5/13=1,5/36=2,99/5=2) pseudo=read geom=check guess=(r
 ead,tcheck) scf=(maxcycle=1)\\title\\0,1\C,0,-1.211545,0.44513,-0.1369
 37\B,0,-0.005837,-0.540144,-0.135292\Si,0,1.926844,0.038927,0.048556\C
 ,0,-2.61629,-0.113544,0.138297\H,0,-1.1626,0.820292,-1.181734\H,0,-1.0
 19056,1.347251,0.456714\H,0,-2.834865,-0.96709,-0.508717\H,0,-3.39329,
 0.639245,-0.022404\H,0,-2.703736,-0.458247,1.1724\H,0,-0.211564,-1.710
 049,-0.295611\H,0,2.124638,1.511572,0.024612\H,0,2.781931,-0.556348,-1

 Normal termination of Gaussian 16 at Wed Apr  9 00:44:32 2025.
