 Gaussian 16, Revision C.01,

 ----------------------------------------------------------------------
 #t hf aug-cc-pvdz symm=none int=(grid=ultrafine) guess=(read,tcheck) s
 table=(opt,rrhf)
 ----------------------------------------------------------------------
 -----
 title
 -----
 Symbolic Z-matrix:
 Charge =  0 Multiplicity = 1

 SCF Done:  E(RHF) =  -639.432944546     A.U. after   12 cycles
 Normal termination of Gaussian 16 at Wed Apr  9 00:06:37 2025.
 Gaussian 16:  ES64L-G16RevC.01  3-Jul-2019

 ----------------------------------------------------------------------
 #t hf aug-cc-pvdz iop(5/13=1,5/36=2,99/5=2) pseudo=read geom=check gue
 ss=(read,tcheck) scf=(maxcycle=1)
 ----------------------------------------------------------------------
 -----
 title
 -----
 Structure from the checkpoint file:  "BDE49_nonexpt_2224_mol1.chk"
 Charge =  0 Multiplicity = 1

                         Standard orientation:
 ---------------------------------------------------------------------
 Center     Atomic      Atomic             Coordinates (Angstroms)
 Number     Number       Type             X           Y           Z
 ---------------------------------------------------------------------
      1          8           0       -0.359623    0.372274   -0.191237
      2         14           0        0.955160    1.374032   -0.134526
      3          6           0        2.534086    0.490858    0.375779
      4          6           0        2.970405   -0.658165   -0.552225
      5          1           0        2.417565    0.120528    1.403103
      6          1           0        3.325534    1.252130    0.427825
      7          6           0        4.266232   -1.341945   -0.103913
      8          1           0        3.098110   -0.273511   -1.570690
      9          1           0        2.168984   -1.402600   -0.612648
     10          1           0        5.096582   -0.629678   -0.071119
     11          1           0        4.547048   -2.150935   -0.784552
     12          1           0        4.159357   -1.770487    0.897568
     13          6           0       -1.026781   -0.199316    0.934792
     14          6           0       -2.327040   -0.850332    0.481879
     15          1           0       -1.234665    0.580982    1.681237
     16          1           0       -0.380171   -0.949340    1.408292
     17          6           0       -3.339678    0.135635   -0.108769
     18          1           0       -2.766949   -1.366063    1.345201
     19          1           0       -2.086463   -1.622005   -0.258490
     20          6           0       -4.626696   -0.543056   -0.585018
     21          1           0       -2.868784    0.665251   -0.941513
     22          1           0       -3.582720    0.895587    0.644490
     23          1           0       -4.417390   -1.283808   -1.363085
     24          1           0       -5.329428    0.183946   -1.000998
     25          1           0       -5.132568   -1.061073    0.236237
     26          1           0        0.700617    2.483693    0.824040
     27          1           0        1.086919    1.910672   -1.506792
 ---------------------------------------------------------------------

 SCF Done:  E(RHF) =  -639.578393505     A.U. after    2 cycles

 The electronic state is 1-A.
 Alpha  occ. eigenvalues --  -69.07770 -20.55337 -11.29091 -11.23417 -11.22744
 Alpha  occ. eigenvalues --  -11.22335 -11.22327 -11.22009 -11.21670  -6.82617
 Alpha  occ. eigenvalues --   -3.93520  -3.93389  -3.93355  -1.29899  -1.05729
 Alpha  occ. eigenvalues --   -1.04495  -0.97111  -0.92197  -0.85952  -0.80533
 Alpha  occ. eigenvalues --   -0.78982  -0.71726  -0.64962  -0.63503  -0.62408
 Alpha  occ. eigenvalues --   -0.61087  -0.60157  -0.56818  -0.56109  -0.54501
 Alpha  occ. eigenvalues --   -0.53906  -0.52364  -0.51696  -0.48955  -0.48339
 Alpha  occ. eigenvalues --   -0.47449  -0.46871  -0.46502  -0.45391  -0.44758
 Alpha  occ. eigenvalues --   -0.41144
 Alpha virt. eigenvalues --    0.03336   0.04098   0.04330   0.04379   0.05224
 Alpha virt. eigenvalues --    0.05393   0.05575   0.06514   0.06784   0.07270
 Alpha virt. eigenvalues --    0.07335   0.07773   0.08445   0.08849   0.09606

 Mulliken charges:
               1
     1  O   -0.933242
     2  Si   0.535129
     3  C    0.251694
     4  C    0.026989
     5  H   -0.196738
     6  H   -0.218460
     7  C    0.440358
     8  H   -0.144170
     9  H   -0.187040
    10  H   -0.075583
    11  H   -0.069869
    12  H   -0.069259
    13  C    0.892172
    14  C    0.063273
    15  H   -0.245637
    16  H   -0.196320
    17  C    0.156212
    18  H   -0.087676
    19  H   -0.140231
    20  C    0.414781
    21  H   -0.131416
    22  H   -0.152084
    23  H   -0.060095
    24  H   -0.061584
    25  H   -0.081808
    26  H    0.066559
    27  H    0.204045
 Sum of Mulliken charges =  -0.00000

 Dipole moment (field-independent basis, Debye):
    X=              0.3457    Y=             -0.5535    Z=              1.1964  Tot=              1.3628

 Test job not archived.
 1\1\GINC-SE336\SP\RHF\Aug-CC-pVDZ\C7H18O1Si1\OHZDE\09-Apr-2025\0\\#t h
 f aug-cc-pvdz iop(5/13=1,5/36=2,99/5=2) pseudo=read geom=check guess=(
 read,tcheck) scf=(maxcycle=1)\\title\\0,1\O,0,0.359623,-0.372274,-0.19
 1237\Si,0,-0.95516,-1.374032,-0.134526\C,0,-2.534086,-0.490858,0.37577
 9\C,0,-2.970405,0.658165,-0.552225\H,0,-2.417565,-0.120528,1.403103\H,
 0,-3.325534,-1.25213,0.427825\C,0,-4.266232,1.341945,-0.103913\H,0,-3.
 09811,0.273511,-1.57069\H,0,-2.168984,1.4026,-0.612648\H,0,-5.096582,0
 .629678,-0.071119\H,0,-4.547048,2.150935,-0.784552\H,0,-4.159357,1.770

 Normal termination of Gaussian 16 at Wed Apr  9 00:06:54 2025.
