 Gaussian 16, Revision C.01,

 ----------------------------------------------------------------------
 #t hf aug-cc-pvdz symm=none int=(grid=ultrafine) guess=(read,tcheck) s
 table=(opt,rrhf)
 ----------------------------------------------------------------------
 -----
 title
 -----
 Symbolic Z-matrix:
 Charge =  0 Multiplicity = 1

 SCF Done:  E(RHF) =  -935.355637804     A.U. after   13 cycles
 Normal termination of Gaussian 16 at Tue Apr  8 23:39:44 2025.
 Gaussian 16:  ES64L-G16RevC.01  3-Jul-2019

 ----------------------------------------------------------------------
 #t hf aug-cc-pvdz iop(5/13=1,5/36=2,99/5=2) pseudo=read geom=check gue
 ss=(read,tcheck) scf=(maxcycle=1)
 ----------------------------------------------------------------------
 -----
 title
 -----
 Structure from the checkpoint file:  "BDE49_nonexpt_1634_mol1.chk"
 Charge =  0 Multiplicity = 1

                         Standard orientation:
 ---------------------------------------------------------------------
 Center     Atomic      Atomic             Coordinates (Angstroms)
 Number     Number       Type             X           Y           Z
 ---------------------------------------------------------------------
      1         14           0        0.795220   -1.133038   -0.266278
      2         15           0       -1.026755    0.207732   -0.020962
      3          8           0       -0.898332    1.590775   -0.523106
      4          8           0       -1.328819    0.040767    1.553701
      5          6           0        2.302301   -0.282098    0.472387
      6          6           0        2.693077    1.034262   -0.225257
      7          1           0        1.868272    1.750079   -0.217279
      8          1           0        2.967081    0.861449   -1.269802
      9          1           0        3.551291    1.497965    0.268673
     10          1           0        3.132396   -0.997697    0.435952
     11          1           0        2.100317   -0.108207    1.535011
     12          8           0       -2.293015   -0.570519   -0.682206
     13          1           0       -2.570847   -0.131858   -1.496239
     14          1           0       -2.027009    0.628677    1.873768
     15          1           0        0.929508   -1.318428   -1.730562
     16          1           0        0.506304   -2.436598    0.372888
 ---------------------------------------------------------------------

 SCF Done:  E(RHF) =  -935.537874690     A.U. after    2 cycles

 The electronic state is 1-A.
 Alpha  occ. eigenvalues --  -81.40182 -69.08120 -20.61359 -20.60944 -20.52187
 Alpha  occ. eigenvalues --  -11.23747 -11.23236  -7.88697  -6.83477  -5.03305
 Alpha  occ. eigenvalues --   -5.03194  -5.02776  -3.94249  -3.94210  -3.94187
 Alpha  occ. eigenvalues --   -1.37156  -1.33941  -1.25165  -1.02126  -0.85928
 Alpha  occ. eigenvalues --   -0.84246  -0.75437  -0.71016  -0.67619  -0.64450
 Alpha  occ. eigenvalues --   -0.62402  -0.60898  -0.58349  -0.57213  -0.56813
 Alpha  occ. eigenvalues --   -0.52899  -0.51322  -0.50605  -0.48759  -0.48033
 Alpha  occ. eigenvalues --   -0.44764  -0.41941
 Alpha virt. eigenvalues --    0.03072   0.04102   0.04529   0.05126   0.05907
 Alpha virt. eigenvalues --    0.06414   0.07248   0.07535   0.08385   0.09291
 Alpha virt. eigenvalues --    0.09945   0.10837   0.11762   0.12285   0.12649

 Mulliken charges:
               1
     1  Si   0.223519
     2  P    2.025594
     3  O   -1.005454
     4  O   -0.681900
     5  C    0.067141
     6  C    0.318308
     7  H   -0.113688
     8  H   -0.102495
     9  H   -0.076437
    10  H   -0.223748
    11  H   -0.103615
    12  O   -0.728236
    13  H    0.136213
    14  H    0.134577
    15  H    0.084072
    16  H    0.046148
 Sum of Mulliken charges =  -0.00000

 Dipole moment (field-independent basis, Debye):
    X=              0.4579    Y=             -1.6390    Z=              0.4270  Tot=              1.7545

 Test job not archived.
 1\1\GINC-SE396\SP\RHF\Aug-CC-pVDZ\C2H9O3P1Si1\OHZDE\08-Apr-2025\0\\#t
 hf aug-cc-pvdz iop(5/13=1,5/36=2,99/5=2) pseudo=read geom=check guess=
 (read,tcheck) scf=(maxcycle=1)\\title\\0,1\Si,0,0.79522,-1.133038,-0.2
 66278\P,0,-1.026755,0.207732,-0.020962\O,0,-0.898332,1.590775,-0.52310
 6\O,0,-1.328819,0.040767,1.553701\C,0,2.302301,-0.282098,0.472387\C,0,
 2.693077,1.034262,-0.225257\H,0,1.868272,1.750079,-0.217279\H,0,2.9670
 81,0.861449,-1.269802\H,0,3.551291,1.497965,0.268673\H,0,3.132396,-0.9
 97697,0.435952\H,0,2.100317,-0.108207,1.535011\O,0,-2.293015,-0.570519

 Normal termination of Gaussian 16 at Tue Apr  8 23:39:50 2025.
