 Gaussian 16, Revision C.01,

 ----------------------------------------------------------------------
 #t hf aug-cc-pvdz symm=none int=(grid=ultrafine) guess=(read,tcheck) s
 table=(opt,rrhf)
 ----------------------------------------------------------------------
 -----
 title
 -----
 Symbolic Z-matrix:
 Charge =  0 Multiplicity = 1

 SCF Done:  E(RHF) =  -475.587559199     A.U. after   12 cycles
 Normal termination of Gaussian 16 at Tue Apr  8 23:36:09 2025.
 Gaussian 16:  ES64L-G16RevC.01  3-Jul-2019

 ----------------------------------------------------------------------
 #t hf aug-cc-pvdz iop(5/13=1,5/36=2,99/5=2) pseudo=read geom=check gue
 ss=(read,tcheck) scf=(maxcycle=1)
 ----------------------------------------------------------------------
 -----
 title
 -----
 Structure from the checkpoint file:  "BDE49_nonexpt_1540_mol1.chk"
 Charge =  0 Multiplicity = 1

                         Standard orientation:
 ---------------------------------------------------------------------
 Center     Atomic      Atomic             Coordinates (Angstroms)
 Number     Number       Type             X           Y           Z
 ---------------------------------------------------------------------
      1          6           0       -0.990953    0.514958   -0.094269
      2          7           0        0.080079   -0.477489    0.009404
      3         15           0        1.737217   -0.062508    0.019644
      4          6           0       -2.363829   -0.128650    0.079229
      5          1           0       -0.949321    1.058835   -1.051478
      6          1           0       -0.827340    1.257866    0.692912
      7          1           0       -2.556683   -0.863203   -0.709566
      8          1           0       -3.153753    0.625181    0.028211
      9          1           0       -2.431055   -0.639305    1.042665
     10          1           0        1.730461    0.798980    1.149206
     11          1           0        1.800501    1.039718   -0.895386
     12          1           0       -0.102920   -1.315880   -0.526818
 ---------------------------------------------------------------------

 SCF Done:  E(RHF) =  -475.657382351     A.U. after    2 cycles

 The electronic state is 1-A.
 Alpha  occ. eigenvalues --  -81.27143 -15.61619 -11.27041 -11.23200  -7.77151
 Alpha  occ. eigenvalues --   -4.91294  -4.90998  -4.90813  -1.15707  -0.99165
 Alpha  occ. eigenvalues --   -0.84025  -0.77882  -0.64941  -0.61481  -0.59262
 Alpha  occ. eigenvalues --   -0.54257  -0.52630  -0.50002  -0.49533  -0.37741
 Alpha  occ. eigenvalues --   -0.35130
 Alpha virt. eigenvalues --    0.03480   0.04391   0.04793   0.05138   0.07016
 Alpha virt. eigenvalues --    0.07755   0.07825   0.09043   0.10483   0.10987
 Alpha virt. eigenvalues --    0.12175   0.13066   0.15107   0.16027   0.16658

 Mulliken charges:
               1
     1  C    0.665890
     2  N   -0.771399
     3  P    0.350403
     4  C    0.268698
     5  H   -0.154576
     6  H   -0.185239
     7  H   -0.096423
     8  H   -0.054441
     9  H   -0.019057
    10  H    0.002387
    11  H    0.017415
    12  H   -0.023656
 Sum of Mulliken charges =   0.00000

 Dipole moment (field-independent basis, Debye):
    X=             -1.4444    Y=              0.4456    Z=             -0.6227  Tot=              1.6348

 Test job not archived.
 1\1\GINC-SE126\SP\RHF\Aug-CC-pVDZ\C2H8N1P1\OHZDE\08-Apr-2025\0\\#t hf
 aug-cc-pvdz iop(5/13=1,5/36=2,99/5=2) pseudo=read geom=check guess=(re
 ad,tcheck) scf=(maxcycle=1)\\title\\0,1\C,0,-0.990953,0.514958,-0.0942
 69\N,0,0.080079,-0.477489,0.009404\P,0,1.737217,-0.062508,0.019644\C,0
 ,-2.363829,-0.12865,0.079229\H,0,-0.949321,1.058835,-1.051478\H,0,-0.8
 2734,1.257866,0.692912\H,0,-2.556683,-0.863203,-0.709566\H,0,-3.153753
 ,0.625181,0.028211\H,0,-2.431055,-0.639305,1.042665\H,0,1.730461,0.798
 98,1.149206\H,0,1.800501,1.039718,-0.895386\H,0,-0.10292,-1.31588,-0.5

 Normal termination of Gaussian 16 at Tue Apr  8 23:36:13 2025.
