 Gaussian 16, Revision C.01,

 ----------------------------------------------------------------------
 #t hf aug-cc-pvdz symm=none int=(grid=ultrafine) guess=(read,tcheck) s
 table=(opt,rrhf)
 ----------------------------------------------------------------------
 -----
 title
 -----
 Symbolic Z-matrix:
 Charge =  0 Multiplicity = 1

 SCF Done:  E(RHF) =  -749.703521220     A.U. after   12 cycles
 Normal termination of Gaussian 16 at Tue Apr  8 23:41:34 2025.
 Gaussian 16:  ES64L-G16RevC.01  3-Jul-2019

 ----------------------------------------------------------------------
 #t hf aug-cc-pvdz iop(5/13=1,5/36=2,99/5=2) pseudo=read geom=check gue
 ss=(read,tcheck) scf=(maxcycle=1)
 ----------------------------------------------------------------------
 -----
 title
 -----
 Structure from the checkpoint file:  "BDE49_nonexpt_1667_mol1.chk"
 Charge =  0 Multiplicity = 1

                         Standard orientation:
 ---------------------------------------------------------------------
 Center     Atomic      Atomic             Coordinates (Angstroms)
 Number     Number       Type             X           Y           Z
 ---------------------------------------------------------------------
      1         15           0        0.830561    0.130263   -0.640708
      2          6           0        1.100236    1.640814    0.428447
      3          1           0        1.042225    1.429749    1.499585
      4          1           0        0.359665    2.403309    0.176429
      5          1           0        2.086825    2.055931    0.206661
      6         14           0       -1.097645   -0.653695    0.279475
      7          6           0        2.039810   -1.053799    0.153073
      8          1           0        3.056303   -0.728380   -0.082788
      9          1           0        1.903289   -2.049921   -0.273644
     10          1           0        1.935845   -1.116687    1.239505
     11          6           0       -2.568326    0.420178   -0.200205
     12          1           0       -2.455680    1.439333    0.179158
     13          1           0       -3.494311    0.010212    0.212488
     14          1           0       -2.674669    0.472074   -1.286746
     15          1           0       -0.987986   -0.723244    1.763777
     16          1           0       -1.293206   -2.037747   -0.224346
 ---------------------------------------------------------------------

 SCF Done:  E(RHF) =  -749.787971653     A.U. after    2 cycles

 The electronic state is 1-A.
 Alpha  occ. eigenvalues --  -81.23655 -69.05999 -11.23731 -11.23628 -11.22075
 Alpha  occ. eigenvalues --   -7.74063  -6.81249  -4.88027  -4.87970  -4.87701
 Alpha  occ. eigenvalues --   -3.91997  -3.91989  -3.91983  -0.97767  -0.94134
 Alpha  occ. eigenvalues --   -0.93163  -0.72312  -0.64206  -0.58642  -0.58258
 Alpha  occ. eigenvalues --   -0.56679  -0.56163  -0.55641  -0.55313  -0.47225
 Alpha  occ. eigenvalues --   -0.46428  -0.44647  -0.40114  -0.31374
 Alpha virt. eigenvalues --    0.03488   0.04256   0.04717   0.05250   0.06312
 Alpha virt. eigenvalues --    0.06390   0.07043   0.07309   0.08224   0.08751
 Alpha virt. eigenvalues --    0.09195   0.09563   0.10269   0.11502   0.11656

 Mulliken charges:
               1
     1  P    0.234768
     2  C    0.310399
     3  H   -0.165413
     4  H   -0.203412
     5  H   -0.188762
     6  Si   0.597744
     7  C    0.324103
     8  H   -0.190197
     9  H   -0.194451
    10  H   -0.173246
    11  C    0.213391
    12  H   -0.185664
    13  H   -0.293129
    14  H   -0.185851
    15  H    0.101385
    16  H   -0.001663
 Sum of Mulliken charges =  -0.00000

 Dipole moment (field-independent basis, Debye):
    X=             -0.0018    Y=              0.4587    Z=              0.9151  Tot=              1.0237

 Test job not archived.
 1\1\GINC-SE029\SP\RHF\Aug-CC-pVDZ\C3H11P1Si1\OHZDE\08-Apr-2025\0\\#t h
 f aug-cc-pvdz iop(5/13=1,5/36=2,99/5=2) pseudo=read geom=check guess=(
 read,tcheck) scf=(maxcycle=1)\\title\\0,1\P,0,0.830561,0.130263,-0.640
 708\C,0,1.100236,1.640814,0.428447\H,0,1.042225,1.429749,1.499585\H,0,
 0.359665,2.403309,0.176429\H,0,2.086825,2.055931,0.206661\Si,0,-1.0976
 45,-0.653695,0.279475\C,0,2.03981,-1.053799,0.153073\H,0,3.056303,-0.7
 2838,-0.082788\H,0,1.903289,-2.049921,-0.273644\H,0,1.935845,-1.116687
 ,1.239505\C,0,-2.568326,0.420178,-0.200205\H,0,-2.45568,1.439333,0.179

 Normal termination of Gaussian 16 at Tue Apr  8 23:41:40 2025.
