 Gaussian 16, Revision C.01,

 ----------------------------------------------------------------------
 #t hf aug-cc-pvdz symm=none int=(grid=ultrafine) guess=(read,tcheck) s
 table=(opt,rrhf)
 ----------------------------------------------------------------------
 -----
 title
 -----
 Symbolic Z-matrix:
 Charge =  0 Multiplicity = 1

 SCF Done:  E(RHF) =  -970.772473847     A.U. after   16 cycles
 Normal termination of Gaussian 16 at Wed Apr  9 00:53:04 2025.
 Gaussian 16:  ES64L-G16RevC.01  3-Jul-2019

 ----------------------------------------------------------------------
 #t hf aug-cc-pvdz iop(5/13=1,5/36=2,99/5=2) pseudo=read geom=check gue
 ss=(read,tcheck) scf=(maxcycle=1)
 ----------------------------------------------------------------------
 -----
 title
 -----
 Structure from the checkpoint file:  "BDE49_nonexpt_957_mol1.chk"
 Charge =  0 Multiplicity = 1

                         Standard orientation:
 ---------------------------------------------------------------------
 Center     Atomic      Atomic             Coordinates (Angstroms)
 Number     Number       Type             X           Y           Z
 ---------------------------------------------------------------------
      1          9           0        1.563216   -1.613705    0.921709
      2         16           0        1.089976    0.262017   -0.719571
      3          8           0        1.439497    1.658214   -0.803158
      4          8           0        1.402960   -0.689221   -1.746289
      5          7           0        1.974518   -0.265959    0.682622
      6          6           0       -0.637406    0.113416   -0.310088
      7          6           0       -1.254286   -1.135111   -0.406734
      8          1           0       -0.685876   -1.993242   -0.738340
      9          6           0       -2.602859   -1.243462   -0.083309
     10          1           0       -3.095843   -2.205700   -0.154963
     11          6           0       -3.319737   -0.117524    0.321944
     12          1           0       -4.371828   -0.208214    0.566678
     13          6           0       -2.693575    1.124901    0.405545
     14          1           0       -3.256488    1.999823    0.708572
     15          6           0       -1.342660    1.248088    0.091051
     16          1           0       -0.841187    2.206329    0.130337
     17          6           0        1.711025    0.461492    1.922594
     18          1           0        1.985443    1.500519    1.744617
     19          1           0        2.365323    0.042963    2.687255
     20          1           0        0.667587    0.387558    2.244807
 ---------------------------------------------------------------------

 SCF Done:  E(RHF) =  -971.026871458     A.U. after    2 cycles

 The electronic state is 1-A.
 Alpha  occ. eigenvalues --  -93.81858 -26.15534 -20.58056 -20.57542 -15.76303
 Alpha  occ. eigenvalues --  -11.30104 -11.29719 -11.28828 -11.28646 -11.28371
 Alpha  occ. eigenvalues --  -11.27608 -11.27517  -9.08251  -6.42916  -6.42739
 Alpha  occ. eigenvalues --   -6.42626  -1.67081  -1.44908  -1.33233  -1.19283
 Alpha  occ. eigenvalues --   -1.18128  -1.06284  -1.04748  -0.97097  -0.90285
 Alpha  occ. eigenvalues --   -0.86691  -0.83042  -0.78275  -0.76843  -0.75432
 Alpha  occ. eigenvalues --   -0.73282  -0.69611  -0.68295  -0.66976  -0.65487
 Alpha  occ. eigenvalues --   -0.65446  -0.62907  -0.61670  -0.59452  -0.56649
 Alpha  occ. eigenvalues --   -0.54625  -0.54301  -0.53544  -0.53324  -0.51545
 Alpha  occ. eigenvalues --   -0.50190  -0.44964  -0.38356  -0.37297
 Alpha virt. eigenvalues --    0.02436   0.03455   0.03848   0.04805   0.05725
 Alpha virt. eigenvalues --    0.05776   0.06423   0.07041   0.07601   0.08367
 Alpha virt. eigenvalues --    0.10105   0.10421   0.11520   0.12552   0.13226

 Mulliken charges:
               1
     1  F   -0.458977
     2  S    2.868575
     3  O   -1.027406
     4  O   -0.996575
     5  N   -0.736282
     6  C    0.498813
     7  C   -0.159384
     8  H   -0.544461
     9  C    0.687738
    10  H   -0.426132
    11  C    0.510718
    12  H   -0.438139
    13  C    0.604675
    14  H   -0.432402
    15  C    0.074952
    16  H   -0.576525
    17  C    0.879525
    18  H   -0.070783
    19  H   -0.192916
    20  H   -0.065016
 Sum of Mulliken charges =  -0.00000

 Dipole moment (field-independent basis, Debye):
    X=             -4.7260    Y=              0.9109    Z=              4.1537  Tot=              6.3575

 Test job not archived.
 1\1\GINC-SE009\SP\RHF\Aug-CC-pVDZ\C7H8F1N1O2S1\OHZDE\09-Apr-2025\0\\#t
  hf aug-cc-pvdz iop(5/13=1,5/36=2,99/5=2) pseudo=read geom=check guess
 =(read,tcheck) scf=(maxcycle=1)\\title\\0,1\F,0,1.563216,-1.613705,0.9
 21709\S,0,1.089976,0.262017,-0.719571\O,0,1.439497,1.658214,-0.803158\
 O,0,1.40296,-0.689221,-1.746289\N,0,1.974518,-0.265959,0.682622\C,0,-0
 .637406,0.113416,-0.310088\C,0,-1.254286,-1.135111,-0.406734\H,0,-0.68
 5876,-1.993242,-0.73834\C,0,-2.602859,-1.243462,-0.083309\H,0,-3.09584
 3,-2.2057,-0.154963\C,0,-3.319737,-0.117524,0.321944\H,0,-4.371828,-0.

 Normal termination of Gaussian 16 at Wed Apr  9 00:53:18 2025.
