 Gaussian 16, Revision C.01,

 ----------------------------------------------------------------------
 #t hf aug-cc-pvdz symm=none int=(grid=ultrafine) guess=(read,tcheck) s
 table=opt
 ----------------------------------------------------------------------
 -----
 title
 -----
 Symbolic Z-matrix:
 Charge =  0 Multiplicity = 2

 SCF Done:  E(UHF) =  -192.504751151     A.U. after   16 cycles
 Normal termination of Gaussian 16 at Tue Apr  8 22:49:37 2025.
 Gaussian 16:  ES64L-G16RevC.01  3-Jul-2019

 ----------------------------------------------------------------------
 #t hf aug-cc-pvdz iop(5/13=1,5/36=2,99/5=2) pseudo=read geom=check gue
 ss=(read,tcheck) scf=(maxcycle=1)
 ----------------------------------------------------------------------
 -----
 title
 -----
 Structure from the checkpoint file:  "BDE49_expt_175_mol2.chk"
 Charge =  0 Multiplicity = 2

                         Standard orientation:
 ---------------------------------------------------------------------
 Center     Atomic      Atomic             Coordinates (Angstroms)
 Number     Number       Type             X           Y           Z
 ---------------------------------------------------------------------
      1          6           0       -1.853667    0.032187    0.033039
      2          8           0       -0.589418   -0.457524    0.009273
      3          1           0       -2.024311    1.041562   -0.331752
      4          1           0       -2.613695   -0.731477   -0.056084
      5          6           0        0.451936    0.522554    0.049896
      6          6           0        1.784732   -0.194799   -0.034628
      7          1           0        0.368396    1.096552    0.980703
      8          1           0        0.323686    1.217840   -0.790661
      9          1           0        1.900757   -0.886916    0.802078
     10          1           0        2.605387    0.526590   -0.004160
     11          1           0        1.857123   -0.763611   -0.964151
 ---------------------------------------------------------------------

 SCF Done:  E(UHF) =  -192.569626775     A.U. after    2 cycles

 The electronic state is 2-A.
 Alpha  occ. eigenvalues --  -20.59064 -11.29401 -11.28426 -11.23041  -1.36231
 Alpha  occ. eigenvalues --   -1.03274  -0.91056  -0.83867  -0.68919  -0.67408
 Alpha  occ. eigenvalues --   -0.65789  -0.57375  -0.54728  -0.52769  -0.50164
 Alpha  occ. eigenvalues --   -0.48824  -0.33600
 Alpha virt. eigenvalues --    0.03591   0.04680   0.05014   0.05346   0.06641
 Alpha virt. eigenvalues --    0.07406   0.08030   0.12046   0.12510   0.13187
 Alpha virt. eigenvalues --    0.14179   0.16046   0.16734   0.16920   0.17484

  Beta  occ. eigenvalues --  -20.58411 -11.29434 -11.26030 -11.23045  -1.34267
  Beta  occ. eigenvalues --   -1.02582  -0.87330  -0.81473  -0.66943  -0.65561
  Beta  occ. eigenvalues --   -0.64472  -0.54739  -0.54032  -0.52202  -0.49570
  Beta  occ. eigenvalues --   -0.46186
  Beta virt. eigenvalues --    0.03638   0.04759   0.05028   0.05114   0.06658
  Beta virt. eigenvalues --    0.07421   0.07872   0.09779   0.12437   0.13002
  Beta virt. eigenvalues --    0.14194   0.16210   0.16379   0.16908   0.17637

 Mulliken charges and spin densities:
               1          2
     1  C    0.612583   1.164634
     2  O   -0.565794   0.029341
     3  H   -0.148738  -0.090706
     4  H   -0.279750  -0.089606
     5  C    0.617974  -0.011158
     6  C    0.189429   0.000119
     7  H   -0.162757  -0.005972
     8  H   -0.175891   0.002788
     9  H   -0.030933   0.000279
    10  H   -0.018008  -0.000743
    11  H   -0.038116   0.001024
 Sum of Mulliken charges =  -0.00000   1.00000

 Dipole moment (field-independent basis, Debye):
    X=              0.5359    Y=              1.3228    Z=             -0.3199  Tot=              1.4626
                          Isotropic Fermi Contact Couplings
        Atom                 a.u.       MegaHertz       Gauss      10(-4) cm-1
     1  C(13)              0.24615     276.71800      98.73986      92.30319
     2  O(17)              0.06523     -39.54293     -14.10990     -13.19010
     3  H(1)              -0.01911     -85.39800     -30.47213     -28.48571
     4  H(1)              -0.02047     -91.49188     -32.64658     -30.51841
     5  C(13)             -0.00334      -3.75176      -1.33872      -1.25145
     6  C(13)             -0.00123      -1.38204      -0.49315      -0.46100
     7  H(1)               0.00043       1.91517       0.68338       0.63883
     8  H(1)               0.00067       3.01268       1.07500       1.00492

 Normal termination of Gaussian 16 at Tue Apr  8 22:49:40 2025.
