 Gaussian 16, Revision C.01,

 ----------------------------------------------------------------------
 #t hf aug-cc-pvdz symm=none int=(grid=ultrafine) guess=(read,tcheck) s
 table=(opt,rrhf)
 ----------------------------------------------------------------------
 -----
 title
 -----
 Symbolic Z-matrix:
 Charge =  0 Multiplicity = 1

 SCF Done:  E(RHF) =  -1216.48559023     A.U. after   13 cycles
 Normal termination of Gaussian 16 at Wed Apr  9 00:19:11 2025.
 Gaussian 16:  ES64L-G16RevC.01  3-Jul-2019

 ----------------------------------------------------------------------
 #t hf aug-cc-pvdz iop(5/13=1,5/36=2,99/5=2) pseudo=read geom=check gue
 ss=(read,tcheck) scf=(maxcycle=1)
 ----------------------------------------------------------------------
 -----
 title
 -----
 Structure from the checkpoint file:  "BDE49_nonexpt_256_mol1.chk"
 Charge =  0 Multiplicity = 1

                         Standard orientation:
 ---------------------------------------------------------------------
 Center     Atomic      Atomic             Coordinates (Angstroms)
 Number     Number       Type             X           Y           Z
 ---------------------------------------------------------------------
      1          6           0        1.901264   -1.162313   -0.828681
      2          6           0        3.264948   -0.457121   -0.841466
      3          6           0        3.602190    0.144142    0.529757
      4          6           0        2.484005    1.073941    1.019971
      5          6           0        1.122152    0.364905    1.027314
      6          6           0       -0.581840   -0.974596   -0.312507
      7          6           0        0.770064   -0.234970   -0.347090
      8          5           0       -1.886506   -0.139633   -0.121680
      9         17           0       -2.048541    1.515674   -0.725583
     10         17           0       -3.314894   -0.856352    0.639518
     11          1           0        1.950958   -2.036737   -0.165386
     12          1           0        1.665521   -1.544519   -1.828287
     13          1           0        3.249743    0.343242   -1.592465
     14          1           0        4.046103   -1.158514   -1.151886
     15          1           0        4.552431    0.685631    0.483196
     16          1           0        3.740866   -0.667664    1.255644
     17          1           0        2.429291    1.951494    0.363198
     18          1           0        2.714402    1.450431    2.021746
     19          1           0        0.341015    1.064168    1.345136
     20          1           0        1.138738   -0.443831    1.770985
     21          1           0       -0.552976   -1.782518    0.427899
     22          1           0       -0.733227   -1.488081   -1.278406
     23          1           0        0.691354    0.592667   -1.063652
 ---------------------------------------------------------------------

 SCF Done:  E(RHF) =  -1216.60759360     A.U. after    2 cycles

 The electronic state is 1-A.
 Alpha  occ. eigenvalues -- -103.66627-103.66535 -11.24292 -11.23108 -11.23097
 Alpha  occ. eigenvalues --  -11.23054 -11.22918 -11.22907 -11.22806 -10.70105
 Alpha  occ. eigenvalues --  -10.69999  -8.35797  -8.35695  -8.35584  -8.35551
 Alpha  occ. eigenvalues --   -8.35482  -8.35446  -7.72673  -1.17935  -1.14084
 Alpha  occ. eigenvalues --   -1.11449  -1.03213  -0.99980  -0.93164  -0.83675
 Alpha  occ. eigenvalues --   -0.81270  -0.75889  -0.68325  -0.65337  -0.62216
 Alpha  occ. eigenvalues --   -0.61201  -0.60798  -0.58818  -0.58030  -0.54775
 Alpha  occ. eigenvalues --   -0.53211  -0.52507  -0.51775  -0.50247  -0.48910
 Alpha  occ. eigenvalues --   -0.47934  -0.47739  -0.46726  -0.46415  -0.45625
 Alpha  occ. eigenvalues --   -0.43449  -0.42768
 Alpha virt. eigenvalues --    0.03269   0.03952   0.04071   0.04267   0.05704
 Alpha virt. eigenvalues --    0.05869   0.06153   0.06381   0.06636   0.07945
 Alpha virt. eigenvalues --    0.08264   0.08535   0.08906   0.08988   0.09222

 Mulliken charges:
               1
     1  C    0.682038
     2  C    0.417089
     3  C    0.255122
     4  C    0.345525
     5  C    0.384776
     6  C    0.797754
     7  C   -1.098995
     8  B    0.633434
     9  Cl  -0.343048
    10  Cl  -0.427916
    11  H   -0.076819
    12  H   -0.185820
    13  H   -0.093306
    14  H   -0.104019
    15  H   -0.125198
    16  H   -0.094121
    17  H   -0.084731
    18  H   -0.108177
    19  H   -0.168296
    20  H   -0.099320
    21  H   -0.196531
    22  H    0.012481
    23  H   -0.321923
 Sum of Mulliken charges =   0.00000

 Dipole moment (field-independent basis, Debye):
    X=              1.9536    Y=             -0.7479    Z=             -0.2365  Tot=              2.1052

 Test job not archived.
 1\1\GINC-SE419\SP\RHF\Aug-CC-pVDZ\C7H13B1Cl2\OHZDE\09-Apr-2025\0\\#t h
 f aug-cc-pvdz iop(5/13=1,5/36=2,99/5=2) pseudo=read geom=check guess=(
 read,tcheck) scf=(maxcycle=1)\\title\\0,1\C,0,1.901264,-1.162313,-0.82
 8681\C,0,3.264948,-0.457121,-0.841466\C,0,3.60219,0.144142,0.529757\C,
 0,2.484005,1.073941,1.019971\C,0,1.122152,0.364905,1.027314\C,0,-0.581
 84,-0.974596,-0.312507\C,0,0.770064,-0.23497,-0.34709\B,0,-1.886506,-0
 .139633,-0.12168\Cl,0,-2.048541,1.515674,-0.725583\Cl,0,-3.314894,-0.8
 56352,0.639518\H,0,1.950958,-2.036737,-0.165386\H,0,1.665521,-1.544519

 Normal termination of Gaussian 16 at Wed Apr  9 00:19:26 2025.
