 Gaussian 16, Revision C.01,

 ----------------------------------------------------------------------
 #t hf aug-cc-pvdz symm=none int=(grid=ultrafine) guess=(read,tcheck) s
 table=(opt,rrhf)
 ----------------------------------------------------------------------
 -----
 title
 -----
 Symbolic Z-matrix:
 Charge =  0 Multiplicity = 1

 SCF Done:  E(RHF) =  -1561.44005971     A.U. after   16 cycles
 Normal termination of Gaussian 16 at Wed Apr  9 00:50:16 2025.
 Gaussian 16:  ES64L-G16RevC.01  3-Jul-2019

 ----------------------------------------------------------------------
 #t hf aug-cc-pvdz iop(5/13=1,5/36=2,99/5=2) pseudo=read geom=check gue
 ss=(read,tcheck) scf=(maxcycle=1)
 ----------------------------------------------------------------------
 -----
 title
 -----
 Structure from the checkpoint file:  "BDE49_nonexpt_902_mol1.chk"
 Charge =  0 Multiplicity = 1

                         Standard orientation:
 ---------------------------------------------------------------------
 Center     Atomic      Atomic             Coordinates (Angstroms)
 Number     Number       Type             X           Y           Z
 ---------------------------------------------------------------------
      1          6           0       -4.590846   -0.484482    0.000027
      2          6           0       -4.185670    0.850367   -0.000125
      3          6           0       -2.833822    1.165783   -0.000152
      4          6           0       -3.638857   -1.502053    0.000150
      5          6           0       -2.283149   -1.191385    0.000123
      6          6           0       -1.869518    0.146747   -0.000029
      7          1           0       -5.646595   -0.730932    0.000049
      8          1           0       -4.924469    1.643304   -0.000221
      9          1           0       -2.500425    2.195467   -0.000267
     10          1           0       -3.951569   -2.539543    0.000268
     11          1           0       -1.554595   -1.991437    0.000220
     12          6           0       -0.438491    0.573996   -0.000065
     13         16           0        0.761510   -0.805425    0.000021
     14          5           0        2.468182   -0.116407    0.000217
     15         16           0        3.016773    1.598345    0.000454
     16          8           0       -0.117856    1.739389   -0.000222
     17         16           0        3.699455   -1.463622   -0.000427
     18          1           0        1.784631    2.147909    0.000742
     19          1           0        4.793260   -0.680466   -0.000446
 ---------------------------------------------------------------------

 SCF Done:  E(RHF) =  -1561.60149567     A.U. after    2 cycles

 The electronic state is 1-A.
 Alpha  occ. eigenvalues --  -93.55744 -93.54533 -93.53634 -20.59441 -11.40412
 Alpha  occ. eigenvalues --  -11.27881 -11.27733 -11.27552 -11.27263 -11.26623
 Alpha  occ. eigenvalues --  -11.26530  -8.85784  -8.84489  -8.83668  -7.70579
 Alpha  occ. eigenvalues --   -6.19965  -6.19691  -6.19451  -6.18676  -6.18430
 Alpha  occ. eigenvalues --   -6.18164  -6.17848  -6.17636  -6.17377  -1.39305
 Alpha  occ. eigenvalues --   -1.17214  -1.06353  -1.03753  -1.02194  -0.97675
 Alpha  occ. eigenvalues --   -0.94971  -0.88562  -0.85322  -0.78825  -0.73329
 Alpha  occ. eigenvalues --   -0.70064  -0.68039  -0.64802  -0.64129  -0.61729
 Alpha  occ. eigenvalues --   -0.60640  -0.59335  -0.58173  -0.54565  -0.52504
 Alpha  occ. eigenvalues --   -0.52442  -0.52212  -0.46510  -0.45309  -0.44211
 Alpha  occ. eigenvalues --   -0.42594  -0.38940  -0.36832  -0.36409  -0.36250
 Alpha virt. eigenvalues --    0.02747   0.03765   0.03834   0.04185   0.05134
 Alpha virt. eigenvalues --    0.05708   0.06410   0.06612   0.07476   0.07779
 Alpha virt. eigenvalues --    0.08664   0.09051   0.10026   0.10098   0.10606

 Mulliken charges:
               1
     1  C    0.543027
     2  C    0.606398
     3  C   -0.031992
     4  C    0.559866
     5  C    0.252320
     6  C    1.541493
     7  H   -0.429552
     8  H   -0.425724
     9  H   -0.646806
    10  H   -0.456803
    11  H   -0.481927
    12  C   -1.099343
    13  S    0.293319
    14  B    0.629525
    15  S   -0.189829
    16  O   -0.517912
    17  S   -0.257792
    18  H    0.112650
    19  H   -0.000918
 Sum of Mulliken charges =  -0.00000

 Dipole moment (field-independent basis, Debye):
    X=             -3.3402    Y=             -1.0360    Z=              0.0006  Tot=              3.4972

 Test job not archived.
 1\1\GINC-SE250\SP\RHF\Aug-CC-pVDZ\C7H7B1O1S3\OHZDE\09-Apr-2025\0\\#t h
 f aug-cc-pvdz iop(5/13=1,5/36=2,99/5=2) pseudo=read geom=check guess=(
 read,tcheck) scf=(maxcycle=1)\\title\\0,1\C,0,-4.590846,-0.484482,0.00
 0027\C,0,-4.18567,0.850367,-0.000125\C,0,-2.833822,1.165783,-0.000152\
 C,0,-3.638857,-1.502053,0.00015\C,0,-2.283149,-1.191385,0.000123\C,0,-
 1.869518,0.146747,-0.000029\H,0,-5.646595,-0.730932,0.000049\H,0,-4.92
 4469,1.643304,-0.000221\H,0,-2.500425,2.195467,-0.000267\H,0,-3.951569
 ,-2.539543,0.000268\H,0,-1.554595,-1.991437,0.00022\C,0,-0.438491,0.57

 Normal termination of Gaussian 16 at Wed Apr  9 00:50:28 2025.
