 Gaussian 16, Revision C.01,

 ----------------------------------------------------------------------
 #t hf aug-cc-pvdz symm=none int=(grid=ultrafine) guess=(read,tcheck) s
 table=(opt,rrhf)
 ----------------------------------------------------------------------
 -----
 title
 -----
 Symbolic Z-matrix:
 Charge =  0 Multiplicity = 1

 SCF Done:  E(RHF) =  -434.231130919     A.U. after   18 cycles
 Normal termination of Gaussian 16 at Tue Apr  8 22:51:13 2025.
 Gaussian 16:  ES64L-G16RevC.01  3-Jul-2019

 ----------------------------------------------------------------------
 #t hf aug-cc-pvdz iop(5/13=1,5/36=2,99/5=2) pseudo=read geom=check gue
 ss=(read,tcheck) scf=(maxcycle=1)
 ----------------------------------------------------------------------
 -----
 title
 -----
 Structure from the checkpoint file:  "BDE49_expt_1786_mol1.chk"
 Charge =  0 Multiplicity = 1

                         Standard orientation:
 ---------------------------------------------------------------------
 Center     Atomic      Atomic             Coordinates (Angstroms)
 Number     Number       Type             X           Y           Z
 ---------------------------------------------------------------------
      1          6           0        2.636516    0.271979   -0.168839
      2          6           0        1.750961    1.332223    0.012392
      3          6           0        0.394145    1.091600    0.214821
      4          6           0        2.159869   -1.038730   -0.154694
      5          6           0        0.803780   -1.291048    0.026214
      6          6           0       -0.072454   -0.222442    0.211337
      7          1           0        3.692848    0.464921   -0.314516
      8          1           0        2.116796    2.352619    0.009778
      9          1           0       -0.297990    1.907510    0.380486
     10          1           0        2.844296   -1.867975   -0.292403
     11          1           0        0.409288   -2.299661    0.030589
     12          8           0       -1.402422   -0.517926    0.436191
     13          7           0       -2.317951    0.303768   -0.418127
     14          8           0       -3.419639    0.074766   -0.152996
 ---------------------------------------------------------------------

 SCF Done:  E(RHF) =  -434.361547023     A.U. after    2 cycles

 The electronic state is 1-A.
 Alpha  occ. eigenvalues --  -20.70331 -20.64238 -15.87739 -11.31875 -11.25896
 Alpha  occ. eigenvalues --  -11.25833 -11.25560 -11.25366 -11.25145  -1.57760
 Alpha  occ. eigenvalues --   -1.37114  -1.15039  -1.02690  -1.01989  -0.94561
 Alpha  occ. eigenvalues --   -0.85068  -0.83915  -0.77580  -0.74695  -0.70872
 Alpha  occ. eigenvalues --   -0.70281  -0.65998  -0.64575  -0.61337  -0.60583
 Alpha  occ. eigenvalues --   -0.56629  -0.53367  -0.52050  -0.49697  -0.46849
 Alpha  occ. eigenvalues --   -0.35371  -0.33917
 Alpha virt. eigenvalues --    0.03348   0.03893   0.04639   0.05734   0.06416
 Alpha virt. eigenvalues --    0.06788   0.09731   0.10023   0.10707   0.11118
 Alpha virt. eigenvalues --    0.11924   0.13040   0.13522   0.13977   0.14213

 Mulliken charges:
               1
     1  C    0.425728
     2  C    0.521099
     3  C    0.438827
     4  C    0.688317
     5  C    0.252157
     6  C    0.527530
     7  H   -0.435795
     8  H   -0.431499
     9  H   -0.475453
    10  H   -0.424864
    11  H   -0.458966
    12  O   -0.731526
    13  N    0.392172
    14  O   -0.287727
 Sum of Mulliken charges =  -0.00000

 Dipole moment (field-independent basis, Debye):
    X=              1.8267    Y=              0.6951    Z=             -0.6546  Tot=              2.0612

 Test job not archived.
 1\1\GINC-SE362\SP\RHF\Aug-CC-pVDZ\C6H5N1O2\OHZDE\08-Apr-2025\0\\#t hf
 aug-cc-pvdz iop(5/13=1,5/36=2,99/5=2) pseudo=read geom=check guess=(re
 ad,tcheck) scf=(maxcycle=1)\\title\\0,1\C,0,2.636516,0.271979,-0.16883
 9\C,0,1.750961,1.332223,0.012392\C,0,0.394145,1.0916,0.214821\C,0,2.15
 9869,-1.03873,-0.154694\C,0,0.80378,-1.291048,0.026214\C,0,-0.072454,-
 0.222442,0.211337\H,0,3.692848,0.464921,-0.314516\H,0,2.116796,2.35261
 9,0.009778\H,0,-0.29799,1.90751,0.380486\H,0,2.844296,-1.867975,-0.292
 403\H,0,0.409288,-2.299661,0.030589\O,0,-1.402422,-0.517926,0.436191\N

 Normal termination of Gaussian 16 at Tue Apr  8 22:51:18 2025.
