 Gaussian 16, Revision C.01,

 ----------------------------------------------------------------------
 #t hf aug-cc-pvdz symm=none int=(grid=ultrafine) guess=(read,tcheck) s
 table=(opt,rrhf)
 ----------------------------------------------------------------------
 -----
 title
 -----
 Symbolic Z-matrix:
 Charge =  0 Multiplicity = 1

 SCF Done:  E(RHF) =  -459.488077952     A.U. after   16 cycles
 Normal termination of Gaussian 16 at Wed Apr  9 00:36:07 2025.
 Gaussian 16:  ES64L-G16RevC.01  3-Jul-2019

 ----------------------------------------------------------------------
 #t hf aug-cc-pvdz iop(5/13=1,5/36=2,99/5=2) pseudo=read geom=check gue
 ss=(read,tcheck) scf=(maxcycle=1)
 ----------------------------------------------------------------------
 -----
 title
 -----
 Structure from the checkpoint file:  "BDE49_nonexpt_533_mol1.chk"
 Charge =  0 Multiplicity = 1

                         Standard orientation:
 ---------------------------------------------------------------------
 Center     Atomic      Atomic             Coordinates (Angstroms)
 Number     Number       Type             X           Y           Z
 ---------------------------------------------------------------------
      1          1           0       -0.000073   -4.311569    1.030422
      2          1           0       -0.000073   -4.311569   -1.030422
      3          5           0        0.000011   -3.713115   -0.000000
      4          6           0        0.000004   -2.169129   -0.000000
      5          6           0        0.000002   -1.441173    1.207950
      6          6           0        0.000000   -0.052295    1.220162
      7          6           0        0.000000    0.615083    0.000000
      8          6           0        0.000002   -1.441173   -1.207950
      9          1           0        0.000003   -1.979363   -2.148989
     10          6           0        0.000000   -0.052295   -1.220162
     11          1           0        0.000000    0.517758   -2.138549
     12          7           0        0.000000    2.101886    0.000000
     13          8           0        0.000002    2.665289    1.084664
     14          8           0        0.000002    2.665289   -1.084664
     15          1           0        0.000003   -1.979363    2.148989
     16          1           0        0.000000    0.517758    2.138549
 ---------------------------------------------------------------------

 SCF Done:  E(RHF) =  -459.623696544     A.U. after    2 cycles

 The electronic state is 1-A'.
 Alpha  occ. eigenvalues --  -20.62641 -20.62631 -15.92809 -11.33512 -11.28677
 Alpha  occ. eigenvalues --  -11.28673 -11.28448 -11.28442 -11.26009  -7.63211
 Alpha  occ. eigenvalues --   -1.55877  -1.37496  -1.19287  -1.08492  -1.05181
 Alpha  occ. eigenvalues --   -0.95859  -0.87102  -0.83900  -0.79436  -0.74703
 Alpha  occ. eigenvalues --   -0.73726  -0.73467  -0.67167  -0.66206  -0.63366
 Alpha  occ. eigenvalues --   -0.63042  -0.54375  -0.53756  -0.52451  -0.52257
 Alpha  occ. eigenvalues --   -0.50429  -0.49781  -0.48219  -0.38910  -0.37564
 Alpha virt. eigenvalues --    0.00108   0.02749   0.03467   0.04259   0.04599
 Alpha virt. eigenvalues --    0.05492   0.06215   0.07405   0.08092   0.08108
 Alpha virt. eigenvalues --    0.08997   0.10206   0.11944   0.12107   0.12235

 Mulliken charges:
               1
     1  H    0.421645
     2  H    0.421645
     3  B   -1.153632
     4  C   -0.198374
     5  C    0.843388
     6  C    0.302653
     7  C    1.163249
     8  C    0.843388
     9  H   -0.513965
    10  C    0.302653
    11  H   -0.454282
    12  N    0.095371
    13  O   -0.552746
    14  O   -0.552746
    15  H   -0.513965
    16  H   -0.454282
 Sum of Mulliken charges =  -0.00000

 Dipole moment (field-independent basis, Debye):
    X=              0.0001    Y=             -4.2083    Z=             -0.0000  Tot=              4.2083

 Test job not archived.
 1\1\GINC-SE125\SP\RHF\Aug-CC-pVDZ\C6H6B1N1O2\OHZDE\09-Apr-2025\0\\#t h
 f aug-cc-pvdz iop(5/13=1,5/36=2,99/5=2) pseudo=read geom=check guess=(
 read,tcheck) scf=(maxcycle=1)\\title\\0,1\H,0,0.000073,4.311569,1.0304
 22\H,0,0.000073,4.311569,-1.030422\B,0,-0.000011,3.713115,0.\C,0,-0.00
 0004,2.169129,0.\C,0,-0.000002,1.441173,1.20795\C,0,0.,0.052295,1.2201
 62\C,0,0.,-0.615083,0.\C,0,-0.000002,1.441173,-1.20795\H,0,-0.000003,1
 .979363,-2.148989\C,0,0.,0.052295,-1.220162\H,0,0.,-0.517758,-2.138549
 \N,0,0.,-2.101886,0.\O,0,-0.000002,-2.665289,1.084664\O,0,-0.000002,-2

 Normal termination of Gaussian 16 at Wed Apr  9 00:36:13 2025.
