 Gaussian 16, Revision C.01,

 ----------------------------------------------------------------------
 #t hf aug-cc-pvdz symm=none int=(grid=ultrafine) guess=(read,tcheck) s
 table=(opt,rrhf)
 ----------------------------------------------------------------------
 -----
 title
 -----
 Symbolic Z-matrix:
 Charge =  0 Multiplicity = 1

 SCF Done:  E(RHF) =  -663.519185848     A.U. after   16 cycles

 1\1\GINC-SE074\Stability\RHF\Aug-CC-pVDZ\Cl1N1O2\OHZDE\08-Apr-2025\0\\
 #t hf aug-cc-pvdz symm=none int=(grid=ultrafine) guess=(read,tcheck) s
 table=(opt,rrhf)\\title\\0,1\Cl,0,-1.264201,-0.380414,0.\O,0,0.,0.9237
 43,0.\N,0,1.285086,0.544546,0.\O,0,1.561978,-0.591841,0.\\Version=ES64
 L-G16RevC.01\HF=-663.5191858\RMSD=2.489e-09\Dipole=-0.2314934,-0.05656
 75,0.\Quadrupole=0.2118955,-0.594078,0.3821825,1.4001597,0.,0.\PG=Unkn
 own\\@
 The archive entry for this job was punched.

 Normal termination of Gaussian 16 at Tue Apr  8 23:15:47 2025.
 Gaussian 16:  ES64L-G16RevC.01  3-Jul-2019

 ----------------------------------------------------------------------
 #t hf aug-cc-pvdz iop(5/13=1,5/36=2,99/5=2) pseudo=read geom=check gue
 ss=(read,tcheck) scf=(maxcycle=1)
 ----------------------------------------------------------------------
 -----
 title
 -----
 Structure from the checkpoint file:  "BDE49_nonexpt_1055_mol1.chk"
 Charge =  0 Multiplicity = 1

                         Standard orientation:
 ---------------------------------------------------------------------
 Center     Atomic      Atomic             Coordinates (Angstroms)
 Number     Number       Type             X           Y           Z
 ---------------------------------------------------------------------
      1         17           0       -1.264201   -0.380414    0.000000
      2          8           0        0.000000    0.923743    0.000000
      3          7           0        1.285086    0.544546    0.000000
      4          8           0        1.561978   -0.591841    0.000000
 ---------------------------------------------------------------------

 SCF Done:  E(RHF) =  -663.599985856     A.U. after    2 cycles

 The electronic state is 1-A'.
 Alpha  occ. eigenvalues -- -103.74769 -20.73717 -20.69655 -15.88680 -10.77362
 Alpha  occ. eigenvalues --   -8.43101  -8.42667  -8.42655  -1.59031  -1.41658
 Alpha  occ. eigenvalues --   -1.16698  -0.93484  -0.80263  -0.77119  -0.74766
 Alpha  occ. eigenvalues --   -0.60824  -0.60130  -0.51749  -0.50229  -0.49001
 Alpha virt. eigenvalues --    0.00099   0.07133   0.09790   0.11052   0.12136
 Alpha virt. eigenvalues --    0.12313   0.14520   0.15250   0.17066   0.22707
 Alpha virt. eigenvalues --    0.23568   0.24315   0.26333   0.28513   0.29578

 Mulliken charges:
               1
     1  Cl   0.308766
     2  O   -0.503652
     3  N    0.501609
     4  O   -0.306724
 Sum of Mulliken charges =   0.00000

 Dipole moment (field-independent basis, Debye):
    X=             -0.6235    Y=             -0.0571    Z=              0.0000  Tot=              0.6261

 Test job not archived.
 1\1\GINC-SE074\SP\RHF\Aug-CC-pVDZ\Cl1N1O2\OHZDE\08-Apr-2025\0\\#t hf a
 ug-cc-pvdz iop(5/13=1,5/36=2,99/5=2) pseudo=read geom=check guess=(rea
 d,tcheck) scf=(maxcycle=1)\\title\\0,1\Cl,0,-1.264201,-0.380414,0.\O,0
 ,0.,0.923743,0.\N,0,1.285086,0.544546,0.\O,0,1.561978,-0.591841,0.\\Ve
 rsion=ES64L-G16RevC.01\State=1-A'\HF=-663.5999859\RMSD=3.378e-03\Dipol
 e=-0.2453044,-0.0224594,0.\Quadrupole=0.2693825,-0.6707678,0.4013853,1
 .7150967,0.,0.\PG=CS [SG(Cl1N1O2)]\\@

 Normal termination of Gaussian 16 at Tue Apr  8 23:15:48 2025.
