 Gaussian 16, Revision C.01,

 ----------------------------------------------------------------------
 #t hf aug-cc-pvdz symm=none int=(grid=ultrafine) guess=(read,tcheck) s
 table=(opt,rrhf)
 ----------------------------------------------------------------------
 -----
 title
 -----
 Symbolic Z-matrix:
 Charge =  0 Multiplicity = 1

 SCF Done:  E(RHF) =  -1087.17704865     A.U. after   17 cycles
 Normal termination of Gaussian 16 at Tue Apr  8 23:13:29 2025.
 Gaussian 16:  ES64L-G16RevC.01  3-Jul-2019

 ----------------------------------------------------------------------
 #t hf aug-cc-pvdz iop(5/13=1,5/36=2,99/5=2) pseudo=read geom=check gue
 ss=(read,tcheck) scf=(maxcycle=1)
 ----------------------------------------------------------------------
 -----
 title
 -----
 Structure from the checkpoint file:  "BDE49_expt_851_mol1.chk"
 Charge =  0 Multiplicity = 1

                         Standard orientation:
 ---------------------------------------------------------------------
 Center     Atomic      Atomic             Coordinates (Angstroms)
 Number     Number       Type             X           Y           Z
 ---------------------------------------------------------------------
      1          6           0        2.423258    0.623939    0.000005
      2          6           0        1.241623    1.354255    0.000006
      3          6           0        0.013689    0.696881    0.000002
      4          6           0        2.370120   -0.769023    0.000000
      5          6           0        1.144710   -1.419597   -0.000004
      6          6           0       -0.061160   -0.702660   -0.000002
      7          1           0        3.374988    1.141026    0.000007
      8          1           0        1.257407    2.436558    0.000009
      9         17           0       -1.439150    1.688029    0.000004
     10          1           0        3.283698   -1.351666   -0.000001
     11          1           0        1.108414   -2.503148   -0.000008
     12         16           0       -1.558802   -1.656323   -0.000007
     13          1           0       -2.411553   -0.620881   -0.000008
 ---------------------------------------------------------------------

 SCF Done:  E(RHF) =  -1087.28247389     A.U. after    2 cycles

 The electronic state is 1-A.
 Alpha  occ. eigenvalues -- -103.67703 -93.55547 -11.32387 -11.30549 -11.26974
 Alpha  occ. eigenvalues --  -11.26586 -11.26440 -11.26153 -10.70987  -8.85347
 Alpha  occ. eigenvalues --   -8.36717  -8.36432  -8.36395  -6.19562  -6.19359
 Alpha  occ. eigenvalues --   -6.18934  -1.21087  -1.14515  -1.06369  -1.01610
 Alpha  occ. eigenvalues --   -0.95287  -0.84864  -0.82210  -0.71039  -0.67647
 Alpha  occ. eigenvalues --   -0.64874  -0.60814  -0.59499  -0.56678  -0.54603
 Alpha  occ. eigenvalues --   -0.52260  -0.49019  -0.48653  -0.47193  -0.42728
 Alpha  occ. eigenvalues --   -0.35531  -0.32052
 Alpha virt. eigenvalues --    0.03260   0.04131   0.04657   0.05841   0.06354
 Alpha virt. eigenvalues --    0.08445   0.09049   0.09240   0.10909   0.11379
 Alpha virt. eigenvalues --    0.11386   0.12959   0.13171   0.13405   0.14169

 Mulliken charges:
               1
     1  C    0.559077
     2  C    0.694073
     3  C   -0.159588
     4  C    0.268966
     5  C    0.042880
     6  C    0.524978
     7  H   -0.420076
     8  H   -0.432101
     9  Cl  -0.464394
    10  H   -0.428703
    11  H   -0.496667
    12  S    0.266433
    13  H    0.045123
 Sum of Mulliken charges =   0.00000

 Dipole moment (field-independent basis, Debye):
    X=              1.8882    Y=              0.0400    Z=             -0.0000  Tot=              1.8886

 Test job not archived.
 1\1\GINC-SE128\SP\RHF\Aug-CC-pVDZ\C6H5Cl1S1\OHZDE\08-Apr-2025\0\\#t hf
  aug-cc-pvdz iop(5/13=1,5/36=2,99/5=2) pseudo=read geom=check guess=(r
 ead,tcheck) scf=(maxcycle=1)\\title\\0,1\C,0,2.423258,0.62394,0.000005
 \C,0,1.241623,1.354255,0.000006\C,0,0.013689,0.696881,0.000002\C,0,2.3
 7012,-0.769022,0.\C,0,1.14471,-1.419597,-0.000004\C,0,-0.06116,-0.7026
 6,-0.000002\H,0,3.374988,1.141027,0.000007\H,0,1.257406,2.436558,0.000
 009\Cl,0,-1.439151,1.688029,0.000004\H,0,3.283698,-1.351665,-0.000001\
 H,0,1.108415,-2.503148,-0.000008\S,0,-1.558802,-1.656323,-0.000007\H,0

 Normal termination of Gaussian 16 at Tue Apr  8 23:13:35 2025.
