 Gaussian 16, Revision C.01,

 ----------------------------------------------------------------------
 #t hf aug-cc-pvdz symm=none int=(grid=ultrafine) guess=(read,tcheck) s
 table=(opt,rrhf)
 ----------------------------------------------------------------------
 -----
 title
 -----
 Symbolic Z-matrix:
 Charge =  0 Multiplicity = 1

 SCF Done:  E(RHF) =  -689.313349719     A.U. after   15 cycles
 Normal termination of Gaussian 16 at Wed Apr  9 00:53:17 2025.
 Gaussian 16:  ES64L-G16RevC.01  3-Jul-2019

 ----------------------------------------------------------------------
 #t hf aug-cc-pvdz iop(5/13=1,5/36=2,99/5=2) pseudo=read geom=check gue
 ss=(read,tcheck) scf=(maxcycle=1)
 ----------------------------------------------------------------------
 -----
 title
 -----
 Structure from the checkpoint file:  "BDE49_nonexpt_976_mol1.chk"
 Charge =  0 Multiplicity = 1

                         Standard orientation:
 ---------------------------------------------------------------------
 Center     Atomic      Atomic             Coordinates (Angstroms)
 Number     Number       Type             X           Y           Z
 ---------------------------------------------------------------------
      1          9           0       -2.788416   -1.018013    0.197457
      2          9           0        0.403823    2.253399   -0.412498
      3          8           0       -2.195877    1.755489    0.445829
      4          8           0       -0.406191   -2.359460   -0.636230
      5          7           0       -1.596210   -0.439621   -0.091669
      6          7           0        0.025993    1.025975    0.149336
      7          6           0       -1.385191    0.920961    0.198471
      8          6           0       -0.481342   -1.179069   -0.456859
      9          6           0        0.619189   -0.110892   -0.579933
     10          1           0        0.688157    0.157867   -1.641786
     11          6           0        1.987907   -0.566556   -0.052388
     12          1           0        2.215764   -1.475016   -0.621399
     13          6           0        3.064254    0.485005   -0.354807
     14          1           0        4.046148    0.116168   -0.049491
     15          1           0        2.871345    1.415522    0.184579
     16          1           0        3.110543    0.718925   -1.422182
     17          6           0        1.945586   -0.926781    1.437933
     18          1           0        2.927502   -1.276085    1.764836
     19          1           0        1.678190   -0.057920    2.044225
     20          1           0        1.229326   -1.726651    1.641621
 ---------------------------------------------------------------------

 SCF Done:  E(RHF) =  -689.532409396     A.U. after    2 cycles

 The electronic state is 1-A.
 Alpha  occ. eigenvalues --  -26.21713 -26.18755 -20.60959 -20.60858 -15.80487
 Alpha  occ. eigenvalues --  -15.78408 -11.46459 -11.43702 -11.34666 -11.27934
 Alpha  occ. eigenvalues --  -11.24938 -11.24681  -1.74075  -1.70517  -1.43661
 Alpha  occ. eigenvalues --   -1.41819  -1.31640  -1.19146  -1.10779  -1.01529
 Alpha  occ. eigenvalues --   -0.95512  -0.93085  -0.90817  -0.84303  -0.83276
 Alpha  occ. eigenvalues --   -0.80786  -0.79625  -0.78865  -0.75506  -0.74067
 Alpha  occ. eigenvalues --   -0.71070  -0.70385  -0.68866  -0.66155  -0.64115
 Alpha  occ. eigenvalues --   -0.62835  -0.60321  -0.57574  -0.56120  -0.53758
 Alpha  occ. eigenvalues --   -0.53329  -0.51817  -0.50449  -0.49231  -0.47975
 Alpha  occ. eigenvalues --   -0.46272
 Alpha virt. eigenvalues --    0.02682   0.03474   0.04470   0.04760   0.06258
 Alpha virt. eigenvalues --    0.06823   0.06904   0.07374   0.08729   0.09245
 Alpha virt. eigenvalues --    0.09671   0.11074   0.11787   0.12342   0.12736

 Mulliken charges:
               1
     1  F   -0.379624
     2  F   -0.431167
     3  O   -0.334698
     4  O   -0.411569
     5  N   -0.109222
     6  N   -0.449718
     7  C    0.731492
     8  C    0.419658
     9  C    0.785877
    10  H   -0.115489
    11  C   -1.084853
    12  H   -0.173681
    13  C    0.922487
    14  H   -0.035778
    15  H    0.003025
    16  H   -0.048109
    17  C    0.857606
    18  H   -0.075950
    19  H    0.003659
    20  H   -0.073943
 Sum of Mulliken charges =  -0.00000

 Dipole moment (field-independent basis, Debye):
    X=              3.9217    Y=             -0.6362    Z=             -0.7234  Tot=              4.0383

 Test job not archived.
 1\1\GINC-SE071\SP\RHF\Aug-CC-pVDZ\C6H8F2N2O2\OHZDE\09-Apr-2025\0\\#t h
 f aug-cc-pvdz iop(5/13=1,5/36=2,99/5=2) pseudo=read geom=check guess=(
 read,tcheck) scf=(maxcycle=1)\\title\\0,1\F,0,-2.788416,-1.018013,0.19
 7457\F,0,0.403823,2.253399,-0.412498\O,0,-2.195877,1.755489,0.445829\O
 ,0,-0.406191,-2.35946,-0.63623\N,0,-1.59621,-0.439621,-0.091669\N,0,0.
 025993,1.025975,0.149336\C,0,-1.385191,0.920961,0.198471\C,0,-0.481342
 ,-1.179069,-0.456859\C,0,0.619189,-0.110892,-0.579933\H,0,0.688157,0.1
 57867,-1.641786\C,0,1.987907,-0.566556,-0.052388\H,0,2.215764,-1.47501

 Normal termination of Gaussian 16 at Wed Apr  9 00:53:30 2025.
