 Gaussian 16, Revision C.01,

 ----------------------------------------------------------------------
 #t hf aug-cc-pvdz symm=none int=(grid=ultrafine) guess=(read,tcheck) s
 table=(opt,rrhf)
 ----------------------------------------------------------------------
 -----
 title
 -----
 Symbolic Z-matrix:
 Charge =  0 Multiplicity = 1

 SCF Done:  E(RHF) =  -1138.87669834     A.U. after   15 cycles
 Normal termination of Gaussian 16 at Tue Apr  8 23:41:26 2025.
 Gaussian 16:  ES64L-G16RevC.01  3-Jul-2019

 ----------------------------------------------------------------------
 #t hf aug-cc-pvdz iop(5/13=1,5/36=2,99/5=2) pseudo=read geom=check gue
 ss=(read,tcheck) scf=(maxcycle=1)
 ----------------------------------------------------------------------
 -----
 title
 -----
 Structure from the checkpoint file:  "BDE49_nonexpt_1645_mol1.chk"
 Charge =  0 Multiplicity = 1

                         Standard orientation:
 ---------------------------------------------------------------------
 Center     Atomic      Atomic             Coordinates (Angstroms)
 Number     Number       Type             X           Y           Z
 ---------------------------------------------------------------------
      1         14           0        0.531500    0.167309   -0.857703
      2          7           0        1.477302   -1.240514   -0.003346
      3         15           0       -1.510398    0.063736    0.144513
      4          8           0        0.853263   -2.156317    0.547079
      5          8           0        2.696554   -1.193764   -0.061433
      6          8           0       -1.556537    0.813395    1.411635
      7          8           0       -1.871543   -1.489536    0.151893
      8          6           0        1.487195    1.741149   -0.572888
      9          6           0        1.716434    2.107716    0.906480
     10          1           0        0.930665    2.535851   -1.086120
     11          1           0        2.439090    1.641604   -1.104819
     12          1           0        0.774480    2.169548    1.454295
     13          1           0        2.223986    3.072037    0.983440
     14          1           0        2.347033    1.363764    1.398205
     15          8           0       -2.543486    0.591016   -0.971184
     16          1           0       -3.086273    1.312467   -0.628087
     17          1           0       -1.112755   -2.012572    0.475846
     18          1           0        0.509864   -0.309016   -2.254650
 ---------------------------------------------------------------------

 SCF Done:  E(RHF) =  -1139.12352738     A.U. after    2 cycles

 The electronic state is 1-A.
 Alpha  occ. eigenvalues --  -81.42863 -69.14889 -20.64499 -20.63778 -20.63178
 Alpha  occ. eigenvalues --  -20.61883 -20.54106 -15.90460 -11.26765 -11.25036
 Alpha  occ. eigenvalues --   -7.91269  -6.90001  -5.05908  -5.05820  -5.05423
 Alpha  occ. eigenvalues --   -4.00826  -4.00640  -4.00612  -1.55373  -1.39103
 Alpha  occ. eigenvalues --   -1.37675  -1.35557  -1.27208  -1.04863  -0.95872
 Alpha  occ. eigenvalues --   -0.87873  -0.86158  -0.82104  -0.75651  -0.74900
 Alpha  occ. eigenvalues --   -0.72903  -0.71574  -0.68310  -0.66179  -0.63871
 Alpha  occ. eigenvalues --   -0.61806  -0.60859  -0.60465  -0.58818  -0.54746
 Alpha  occ. eigenvalues --   -0.54212  -0.53389  -0.52560  -0.50025  -0.49991
 Alpha  occ. eigenvalues --   -0.49317  -0.48097  -0.44117
 Alpha virt. eigenvalues --    0.02218   0.03726   0.04053   0.04744   0.05129
 Alpha virt. eigenvalues --    0.05999   0.06668   0.07033   0.07281   0.08192
 Alpha virt. eigenvalues --    0.09109   0.09237   0.10237   0.11061   0.12157

 Mulliken charges:
               1
     1  Si   0.833698
     2  N    0.416467
     3  P    2.198568
     4  O   -0.628789
     5  O   -0.566930
     6  O   -1.026768
     7  O   -0.805378
     8  C    0.050005
     9  C    0.401389
    10  H   -0.142163
    11  H   -0.146678
    12  H   -0.103882
    13  H   -0.075843
    14  H   -0.116388
    15  O   -0.706204
    16  H    0.134347
    17  H    0.245787
    18  H    0.038762
 Sum of Mulliken charges =  -0.00000

 Dipole moment (field-independent basis, Debye):
    X=              0.1512    Y=              3.4702    Z=             -3.5727  Tot=              4.9829

 Test job not archived.
 1\1\GINC-SE058\SP\RHF\Aug-CC-pVDZ\C2H8N1O5P1Si1\OHZDE\08-Apr-2025\0\\#
 t hf aug-cc-pvdz iop(5/13=1,5/36=2,99/5=2) pseudo=read geom=check gues
 s=(read,tcheck) scf=(maxcycle=1)\\title\\0,1\Si,0,0.5315,0.167309,-0.8
 57703\N,0,1.477302,-1.240514,-0.003346\P,0,-1.510398,0.063736,0.144513
 \O,0,0.853263,-2.156317,0.547079\O,0,2.696554,-1.193764,-0.061433\O,0,
 -1.556537,0.813395,1.411635\O,0,-1.871543,-1.489536,0.151893\C,0,1.487
 195,1.741149,-0.572888\C,0,1.716434,2.107716,0.90648\H,0,0.930665,2.53
 5851,-1.08612\H,0,2.43909,1.641604,-1.104819\H,0,0.77448,2.169548,1.45

 Normal termination of Gaussian 16 at Tue Apr  8 23:41:37 2025.
