 Gaussian 16, Revision C.01,

 ----------------------------------------------------------------------
 #t hf aug-cc-pvdz symm=none int=(grid=ultrafine) guess=(read,tcheck) s
 table=(opt,rrhf)
 ----------------------------------------------------------------------
 -----
 title
 -----
 Symbolic Z-matrix:
 Charge =  0 Multiplicity = 1

 SCF Done:  E(RHF) =  -1046.82270683     A.U. after   15 cycles
 Normal termination of Gaussian 16 at Wed Apr  9 00:21:02 2025.
 Gaussian 16:  ES64L-G16RevC.01  3-Jul-2019

 ----------------------------------------------------------------------
 #t hf aug-cc-pvdz iop(5/13=1,5/36=2,99/5=2) pseudo=read geom=check gue
 ss=(read,tcheck) scf=(maxcycle=1)
 ----------------------------------------------------------------------
 -----
 title
 -----
 Structure from the checkpoint file:  "BDE49_nonexpt_2669_mol1.chk"
 Charge =  0 Multiplicity = 1

                         Standard orientation:
 ---------------------------------------------------------------------
 Center     Atomic      Atomic             Coordinates (Angstroms)
 Number     Number       Type             X           Y           Z
 ---------------------------------------------------------------------
      1          9           0        2.263064    0.902719    0.000156
      2         16           0        1.425447   -0.551278   -0.000022
      3          6           0       -0.234114   -0.100964   -0.000254
      4         16           0       -1.222181   -1.421031    0.000128
      5          8           0       -0.513437    1.182745   -0.000182
      6          6           0       -1.904530    1.583132   -0.000025
      7          1           0       -1.877039    2.669314    0.000009
      8          1           0       -2.401628    1.204068    0.892958
      9          1           0       -2.401806    1.204126   -0.892933
 ---------------------------------------------------------------------

 SCF Done:  E(RHF) =  -1046.95001878     A.U. after    2 cycles

 The electronic state is 1-A.
 Alpha  occ. eigenvalues --  -93.65952 -93.52704 -26.14271 -20.67108 -11.43881
 Alpha  occ. eigenvalues --  -11.32935  -8.94829  -8.82656  -6.28990  -6.28612
 Alpha  occ. eigenvalues --   -6.28166  -6.16859  -6.16336  -6.16269  -1.65169
 Alpha  occ. eigenvalues --   -1.44609  -1.11983  -0.99993  -0.96967  -0.80777
 Alpha  occ. eigenvalues --   -0.77375  -0.74636  -0.73183  -0.71140  -0.68539
 Alpha  occ. eigenvalues --   -0.60865  -0.57015  -0.57005  -0.51022  -0.45811
 Alpha  occ. eigenvalues --   -0.37251  -0.36289
 Alpha virt. eigenvalues --    0.03170   0.05180   0.05333   0.05857   0.05995
 Alpha virt. eigenvalues --    0.07395   0.08712   0.09340   0.12505   0.13090
 Alpha virt. eigenvalues --    0.13445   0.14333   0.15775   0.16328   0.16603

 Mulliken charges:
               1
     1  F   -0.643485
     2  S    1.036485
     3  C   -0.300101
     4  S   -0.002896
     5  O   -0.518672
     6  C    0.728103
     7  H   -0.207349
     8  H   -0.046025
     9  H   -0.046061
 Sum of Mulliken charges =  -0.00000

 Dipole moment (field-independent basis, Debye):
    X=             -2.2618    Y=              1.1133    Z=             -0.0002  Tot=              2.5209

 Test job not archived.
 1\1\GINC-SE116\SP\RHF\Aug-CC-pVDZ\C2H3F1O1S2\OHZDE\09-Apr-2025\0\\#t h
 f aug-cc-pvdz iop(5/13=1,5/36=2,99/5=2) pseudo=read geom=check guess=(
 read,tcheck) scf=(maxcycle=1)\\title\\0,1\F,0,2.263065,0.902718,0.0001
 56\S,0,1.425447,-0.551279,-0.000022\C,0,-0.234114,-0.100964,-0.000254\
 S,0,-1.222182,-1.42103,0.000128\O,0,-0.513436,1.182745,-0.000182\C,0,-
 1.904529,1.583133,-0.000025\H,0,-1.877037,2.669315,0.000009\H,0,-2.401
 627,1.20407,0.892958\H,0,-2.401805,1.204128,-0.892933\\Version=ES64L-G
 16RevC.01\State=1-A\HF=-1046.9500188\RMSD=4.727e-03\Dipole=-0.8898464,

 Normal termination of Gaussian 16 at Wed Apr  9 00:21:06 2025.
