 Gaussian 16, Revision C.01,

 ----------------------------------------------------------------------
 #t hf aug-cc-pvdz symm=none int=(grid=ultrafine) guess=(read,tcheck) s
 table=(opt,rrhf)
 ----------------------------------------------------------------------
 -----
 title
 -----
 Symbolic Z-matrix:
 Charge =  0 Multiplicity = 1

 SCF Done:  E(RHF) =  -616.242388907     A.U. after   12 cycles

 1\1\GINC-SE082\Stability\RHF\Aug-CC-pVDZ\C4H9Cl1\OHZDE\08-Apr-2025\0\\
 #t hf aug-cc-pvdz symm=none int=(grid=ultrafine) guess=(read,tcheck) s
 table=(opt,rrhf)\\title\\0,1\C,0,2.771986,-0.374411,-0.147601\C,0,1.34
 7418,-0.283057,0.405977\C,0,0.505507,0.782483,-0.303026\C,0,-0.91025,0
 .938261,0.229694\H,0,0.464211,0.576308,-1.377743\H,0,0.99034,1.762307,
 -0.192753\Cl,0,-1.943526,-0.532587,-0.0892\H,0,-1.432878,1.764336,-0.2
 49014\H,0,-0.927588,1.078747,1.310282\H,0,3.3509,-1.139308,0.376093\H,
 0,3.304012,0.576179,-0.040535\H,0,2.766603,-0.63321,-1.210811\H,0,1.38

 Normal termination of Gaussian 16 at Tue Apr  8 22:29:32 2025.
 Gaussian 16:  ES64L-G16RevC.01  3-Jul-2019

 ----------------------------------------------------------------------
 #t hf aug-cc-pvdz iop(5/13=1,5/36=2,99/5=2) pseudo=read geom=check gue
 ss=(read,tcheck) scf=(maxcycle=1)
 ----------------------------------------------------------------------
 -----
 title
 -----
 Structure from the checkpoint file:  "BDE49_expt_1034_mol1.chk"
 Charge =  0 Multiplicity = 1

                         Standard orientation:
 ---------------------------------------------------------------------
 Center     Atomic      Atomic             Coordinates (Angstroms)
 Number     Number       Type             X           Y           Z
 ---------------------------------------------------------------------
      1          6           0        2.771986   -0.374411   -0.147601
      2          6           0        1.347418   -0.283057    0.405977
      3          6           0        0.505507    0.782483   -0.303026
      4          6           0       -0.910250    0.938261    0.229694
      5          1           0        0.464211    0.576308   -1.377743
      6          1           0        0.990340    1.762307   -0.192753
      7         17           0       -1.943526   -0.532587   -0.089200
      8          1           0       -1.432878    1.764336   -0.249014
      9          1           0       -0.927588    1.078747    1.310282
     10          1           0        3.350900   -1.139308    0.376093
     11          1           0        3.304012    0.576179   -0.040535
     12          1           0        2.766603   -0.633210   -1.210811
     13          1           0        1.383475   -0.056833    1.478586
     14          1           0        0.852896   -1.254202    0.312033
 ---------------------------------------------------------------------

 SCF Done:  E(RHF) =  -616.311453153     A.U. after    2 cycles

 The electronic state is 1-A.
 Alpha  occ. eigenvalues -- -103.64215 -11.30459 -11.24737 -11.23547 -11.22878
 Alpha  occ. eigenvalues --  -10.67492  -8.33205  -8.32931  -8.32922  -1.15534
 Alpha  occ. eigenvalues --   -1.06255  -0.97619  -0.86575  -0.79961  -0.65527
 Alpha  occ. eigenvalues --   -0.63216  -0.60659  -0.57935  -0.54559  -0.51427
 Alpha  occ. eigenvalues --   -0.49995  -0.48458  -0.47799  -0.44014  -0.43759
 Alpha virt. eigenvalues --    0.03405   0.04198   0.04656   0.05348   0.06498
 Alpha virt. eigenvalues --    0.06945   0.07289   0.07975   0.09400   0.10874
 Alpha virt. eigenvalues --    0.11802   0.13001   0.14655   0.15590   0.15929

 Mulliken charges:
               1
     1  C    0.394883
     2  C    0.142611
     3  C    0.080343
     4  C    0.188982
     5  H   -0.138062
     6  H   -0.077573
     7  Cl  -0.168406
     8  H    0.017420
     9  H    0.000388
    10  H   -0.067141
    11  H   -0.077558
    12  H   -0.066201
    13  H   -0.117607
    14  H   -0.112080
 Sum of Mulliken charges =  -0.00000

 Dipole moment (field-independent basis, Debye):
    X=              1.7016    Y=              1.7790    Z=              0.3622  Tot=              2.4882

 Test job not archived.
 1\1\GINC-SE082\SP\RHF\Aug-CC-pVDZ\C4H9Cl1\OHZDE\08-Apr-2025\0\\#t hf a
 ug-cc-pvdz iop(5/13=1,5/36=2,99/5=2) pseudo=read geom=check guess=(rea
 d,tcheck) scf=(maxcycle=1)\\title\\0,1\C,0,2.771986,-0.374411,-0.14760
 1\C,0,1.347418,-0.283057,0.405977\C,0,0.505507,0.782483,-0.303026\C,0,
 -0.91025,0.938261,0.229694\H,0,0.464211,0.576308,-1.377743\H,0,0.99034
 ,1.762307,-0.192753\Cl,0,-1.943526,-0.532587,-0.0892\H,0,-1.432878,1.7
 64336,-0.249014\H,0,-0.927588,1.078747,1.310282\H,0,3.3509,-1.139308,0
 .376093\H,0,3.304012,0.576179,-0.040535\H,0,2.766603,-0.63321,-1.21081

 Normal termination of Gaussian 16 at Tue Apr  8 22:29:36 2025.
