 Gaussian 16, Revision C.01,

 ----------------------------------------------------------------------
 #t hf aug-cc-pvdz symm=none int=(grid=ultrafine) guess=(read,tcheck) s
 table=(opt,rrhf)
 ----------------------------------------------------------------------
 -----
 title
 -----
 Symbolic Z-matrix:
 Charge =  0 Multiplicity = 1

 SCF Done:  E(RHF) =  -1074.92277904     A.U. after   14 cycles

 1\1\GINC-SE332\Stability\RHF\Aug-CC-pVDZ\C5F6Si1\OHZDE\08-Apr-2025\0\\
 #t hf aug-cc-pvdz symm=none int=(grid=ultrafine) guess=(read,tcheck) s
 table=(opt,rrhf)\\title\\0,1\C,0,1.496836,0.,0.000001\C,0,0.852445,1.2
 38144,0.000001\C,0,-0.530613,1.433516,0.000002\C,0,0.852445,-1.238144,
 0.000001\C,0,-0.530613,-1.433516,0.000002\Si,0,-1.556777,0.,-0.000008\
 F,0,2.840651,0.000001,-0.000002\F,0,1.632266,2.325313,0.\F,0,-0.984858
 ,2.705283,0.000003\F,0,-3.140816,-0.000001,0.000004\F,0,1.632267,-2.32
 5313,0.\F,0,-0.984857,-2.705284,0.000003\\Version=ES64L-G16RevC.01\HF=

 Normal termination of Gaussian 16 at Tue Apr  8 23:54:56 2025.
 Gaussian 16:  ES64L-G16RevC.01  3-Jul-2019

 ----------------------------------------------------------------------
 #t hf aug-cc-pvdz iop(5/13=1,5/36=2,99/5=2) pseudo=read geom=check gue
 ss=(read,tcheck) scf=(maxcycle=1)
 ----------------------------------------------------------------------
 -----
 title
 -----
 Structure from the checkpoint file:  "BDE49_nonexpt_1994_mol1.chk"
 Charge =  0 Multiplicity = 1

                         Standard orientation:
 ---------------------------------------------------------------------
 Center     Atomic      Atomic             Coordinates (Angstroms)
 Number     Number       Type             X           Y           Z
 ---------------------------------------------------------------------
      1          6           0       -1.496836    0.000002    0.000001
      2          6           0       -0.852447   -1.238143    0.000001
      3          6           0        0.530611   -1.433517    0.000002
      4          6           0       -0.852443    1.238145    0.000001
      5          6           0        0.530615    1.433515    0.000002
      6         14           0        1.556777   -0.000002   -0.000008
      7          9           0       -2.840651    0.000002   -0.000002
      8          9           0       -1.632269   -2.325311   -0.000000
      9          9           0        0.984855   -2.705284    0.000003
     10          9           0        3.140816   -0.000003    0.000004
     11          9           0       -1.632264    2.325315   -0.000000
     12          9           0        0.984860    2.705283    0.000003
 ---------------------------------------------------------------------

 SCF Done:  E(RHF) =  -1075.22457325     A.U. after    2 cycles

 The electronic state is 1-A.
 Alpha  occ. eigenvalues --  -69.18352 -26.18907 -26.18094 -26.18092 -26.17048
 Alpha  occ. eigenvalues --  -26.17047 -26.16562 -11.40756 -11.40755 -11.37543
 Alpha  occ. eigenvalues --  -11.37354 -11.37350  -6.93467  -4.04385  -4.04188
 Alpha  occ. eigenvalues --   -4.04166  -1.72579  -1.72260  -1.71476  -1.70600
 Alpha  occ. eigenvalues --   -1.70368  -1.70035  -1.18033  -1.08937  -1.02119
 Alpha  occ. eigenvalues --   -0.94625  -0.90692  -0.86314  -0.86086  -0.85749
 Alpha  occ. eigenvalues --   -0.82125  -0.81020  -0.80960  -0.79896  -0.79754
 Alpha  occ. eigenvalues --   -0.79434  -0.78129  -0.78070  -0.77749  -0.77623
 Alpha  occ. eigenvalues --   -0.76915  -0.74674  -0.74398  -0.65839  -0.64192
 Alpha  occ. eigenvalues --   -0.57642  -0.53046  -0.40622  -0.34214
 Alpha virt. eigenvalues --    0.01477   0.03747   0.04687   0.05071   0.06104
 Alpha virt. eigenvalues --    0.07671   0.08244   0.08728   0.08948   0.09577
 Alpha virt. eigenvalues --    0.11566   0.11758   0.12206   0.12304   0.14653

 Mulliken charges:
               1
     1  C    0.063313
     2  C    0.102604
     3  C    0.384678
     4  C    0.102606
     5  C    0.384678
     6  Si   1.417818
     7  F   -0.287250
     8  F   -0.298841
     9  F   -0.362463
    10  F   -0.845837
    11  F   -0.298842
    12  F   -0.362464
 Sum of Mulliken charges =  -0.00000

 Dipole moment (field-independent basis, Debye):
    X=              2.5008    Y=             -0.0000    Z=             -0.0000  Tot=              2.5008

 Test job not archived.
 1\1\GINC-SE332\SP\RHF\Aug-CC-pVDZ\C5F6Si1\OHZDE\08-Apr-2025\0\\#t hf a
 ug-cc-pvdz iop(5/13=1,5/36=2,99/5=2) pseudo=read geom=check guess=(rea
 d,tcheck) scf=(maxcycle=1)\\title\\0,1\C,0,1.496836,0.,0.000001\C,0,0.
 852445,1.238144,0.000001\C,0,-0.530613,1.433516,0.000002\C,0,0.852445,
 -1.238144,0.000001\C,0,-0.530613,-1.433516,0.000002\Si,0,-1.556777,0.,
 -0.000008\F,0,2.840651,0.000001,-0.000002\F,0,1.632266,2.325313,0.\F,0
 ,-0.984858,2.705283,0.000003\F,0,-3.140816,-0.000001,0.000004\F,0,1.63
 2267,-2.325313,0.\F,0,-0.984857,-2.705284,0.000003\\Version=ES64L-G16R

 Normal termination of Gaussian 16 at Tue Apr  8 23:55:04 2025.
