 Gaussian 16, Revision C.01,

 ----------------------------------------------------------------------
 #t hf aug-cc-pvdz symm=none int=(grid=ultrafine) guess=(read,tcheck) s
 table=(opt,rrhf)
 ----------------------------------------------------------------------
 -----
 title
 -----
 Symbolic Z-matrix:
 Charge =  0 Multiplicity = 1

 SCF Done:  E(RHF) =  -532.237611328     A.U. after   16 cycles
 Normal termination of Gaussian 16 at Tue Apr  8 22:42:35 2025.
 Gaussian 16:  ES64L-G16RevC.01  3-Jul-2019

 ----------------------------------------------------------------------
 #t hf aug-cc-pvdz iop(5/13=1,5/36=2,99/5=2) pseudo=read geom=check gue
 ss=(read,tcheck) scf=(maxcycle=1)
 ----------------------------------------------------------------------
 -----
 title
 -----
 Structure from the checkpoint file:  "BDE49_expt_1425_mol1.chk"
 Charge =  0 Multiplicity = 1

                         Standard orientation:
 ---------------------------------------------------------------------
 Center     Atomic      Atomic             Coordinates (Angstroms)
 Number     Number       Type             X           Y           Z
 ---------------------------------------------------------------------
      1          6           0        1.917727   -0.623520    0.000001
      2          6           0        1.341716    0.638393   -0.000027
      3          6           0       -0.048358    0.795894   -0.000037
      4          6           0        1.088699   -1.748242    0.000020
      5          6           0       -0.294659   -1.611973    0.000011
      6          6           0       -0.880418   -0.341113   -0.000016
      7          1           0        1.543807   -2.731359    0.000041
      8          1           0       -0.906320   -2.503487    0.000026
      9          8           0       -2.225478   -0.118704   -0.000026
     10          6           0       -3.105202   -1.235687   -0.000006
     11          1           0       -4.110830   -0.819267   -0.000018
     12          1           0       -2.968826   -1.852523    0.894750
     13          1           0       -2.968820   -1.852559   -0.894737
     14          1           0        1.944156    1.541866   -0.000044
     15          8           0        3.269360   -0.835412    0.000010
     16          1           0        3.721934    0.014325   -0.000005
     17          6           0       -0.606417    2.167316   -0.000073
     18          8           0        0.077873    3.169716    0.000099
     19          1           0       -1.707669    2.231807    0.000093
 ---------------------------------------------------------------------

 SCF Done:  E(RHF) =  -532.401043568     A.U. after    2 cycles

 The electronic state is 1-A.
 Alpha  occ. eigenvalues --  -20.61577 -20.60948 -20.56540 -11.34178 -11.33140
 Alpha  occ. eigenvalues --  -11.31756 -11.31137 -11.26629 -11.26225 -11.26167
 Alpha  occ. eigenvalues --  -11.25922  -1.38662  -1.37218  -1.35052  -1.15569
 Alpha  occ. eigenvalues --   -1.05046  -1.02587  -0.95866  -0.90602  -0.84251
 Alpha  occ. eigenvalues --   -0.80098  -0.76429  -0.73760  -0.70354  -0.68234
 Alpha  occ. eigenvalues --   -0.66522  -0.64394  -0.63599  -0.62883  -0.61379
 Alpha  occ. eigenvalues --   -0.59595  -0.56818  -0.56198  -0.54581  -0.53100
 Alpha  occ. eigenvalues --   -0.51668  -0.47467  -0.43741  -0.36355  -0.31828
 Alpha virt. eigenvalues --    0.02744   0.03671   0.04055   0.05177   0.05306
 Alpha virt. eigenvalues --    0.05430   0.06011   0.07625   0.08066   0.09292
 Alpha virt. eigenvalues --    0.09946   0.11553   0.11574   0.12758   0.13290

 Mulliken charges:
               1
     1  C    0.458420
     2  C    0.252197
     3  C    0.767800
     4  C    0.170470
     5  C    0.940714
     6  C    0.205871
     7  H   -0.466696
     8  H   -0.737223
     9  O   -0.704947
    10  C    0.873173
    11  H   -0.313139
    12  H   -0.075874
    13  H   -0.075875
    14  H   -0.626521
    15  O   -0.600672
    16  H    0.142288
    17  C    0.678007
    18  O   -0.540760
    19  H   -0.347234
 Sum of Mulliken charges =  -0.00000

 Dipole moment (field-independent basis, Debye):
    X=             -1.8743    Y=             -3.8186    Z=             -0.0003  Tot=              4.2538

 Test job not archived.
 1\1\GINC-SE127\SP\RHF\Aug-CC-pVDZ\C8H8O3\OHZDE\08-Apr-2025\0\\#t hf au
 g-cc-pvdz iop(5/13=1,5/36=2,99/5=2) pseudo=read geom=check guess=(read
 ,tcheck) scf=(maxcycle=1)\\title\\0,1\C,0,1.917727,-0.62352,0.000001\C
 ,0,1.341716,0.638393,-0.000027\C,0,-0.048358,0.795894,-0.000037\C,0,1.
 088699,-1.748242,0.00002\C,0,-0.294659,-1.611973,0.000011\C,0,-0.88041
 8,-0.341113,-0.000016\H,0,1.543807,-2.731359,0.000041\H,0,-0.90632,-2.
 503487,0.000026\O,0,-2.225478,-0.118704,-0.000026\C,0,-3.105202,-1.235
 687,-0.000006\H,0,-4.11083,-0.819267,-0.000018\H,0,-2.968826,-1.852523

 Normal termination of Gaussian 16 at Tue Apr  8 22:42:47 2025.
