 Gaussian 16, Revision C.01,

 ----------------------------------------------------------------------
 #t hf aug-cc-pvdz symm=none int=(grid=ultrafine) guess=(read,tcheck) s
 table=(opt,rrhf)
 ----------------------------------------------------------------------
 -----
 title
 -----
 Symbolic Z-matrix:
 Charge =  0 Multiplicity = 1

 SCF Done:  E(RHF) =  -341.417244649     A.U. after   12 cycles
 Normal termination of Gaussian 16 at Wed Apr  9 00:29:56 2025.
 Gaussian 16:  ES64L-G16RevC.01  3-Jul-2019

 ----------------------------------------------------------------------
 #t hf aug-cc-pvdz iop(5/13=1,5/36=2,99/5=2) pseudo=read geom=check gue
 ss=(read,tcheck) scf=(maxcycle=1)
 ----------------------------------------------------------------------
 -----
 title
 -----
 Structure from the checkpoint file:  "BDE49_nonexpt_373_mol1.chk"
 Charge =  0 Multiplicity = 1

                         Standard orientation:
 ---------------------------------------------------------------------
 Center     Atomic      Atomic             Coordinates (Angstroms)
 Number     Number       Type             X           Y           Z
 ---------------------------------------------------------------------
      1          9           0        2.175946   -0.398326    0.490299
      2          9           0        0.966487    1.257438   -0.437678
      3          5           0        1.020086   -0.012389   -0.042945
      4          6           0       -0.172986   -1.000773   -0.224038
      5          6           0       -1.542770   -0.364769   -0.519937
      6          1           0        0.113374   -1.673837   -1.046493
      7          6           0       -2.091584    0.454910    0.652159
      8          1           0       -2.257991   -1.153098   -0.775981
      9          1           0       -1.462337    0.275997   -1.403871
     10          1           0       -2.200273   -0.162858    1.549343
     11          1           0       -3.073702    0.873333    0.417265
     12          1           0       -0.228567   -1.655657    0.654436
     13          1           0       -1.428796    1.289847    0.897331
 ---------------------------------------------------------------------

 SCF Done:  E(RHF) =  -341.546311955     A.U. after    2 cycles

 The electronic state is 1-A.
 Alpha  occ. eigenvalues --  -26.13240 -26.13130 -11.24222 -11.23019 -11.23009
 Alpha  occ. eigenvalues --   -7.73007  -1.68508  -1.66144  -1.05956  -0.94542
 Alpha  occ. eigenvalues --   -0.86988  -0.82480  -0.80958  -0.76348  -0.76186
 Alpha  occ. eigenvalues --   -0.71560  -0.70907  -0.62931  -0.61268  -0.56357
 Alpha  occ. eigenvalues --   -0.53801  -0.49316  -0.48977  -0.47592
 Alpha virt. eigenvalues --    0.03175   0.04431   0.04682   0.04869   0.06673
 Alpha virt. eigenvalues --    0.06854   0.07146   0.07474   0.08276   0.09802
 Alpha virt. eigenvalues --    0.11623   0.13735   0.14497   0.15146   0.15491

 Mulliken charges:
               1
     1  F   -0.489890
     2  F   -0.480084
     3  B    1.015759
     4  C    0.294663
     5  C    0.096536
     6  H   -0.087075
     7  C    0.335078
     8  H   -0.080773
     9  H   -0.107649
    10  H   -0.069267
    11  H   -0.097956
    12  H   -0.223802
    13  H   -0.105541
 Sum of Mulliken charges =  -0.00000

 Dipole moment (field-independent basis, Debye):
    X=             -1.7434    Y=             -1.2196    Z=             -0.3050  Tot=              2.1494

 Test job not archived.
 1\1\GINC-SE435\SP\RHF\Aug-CC-pVDZ\C3H7B1F2\OHZDE\09-Apr-2025\0\\#t hf
 aug-cc-pvdz iop(5/13=1,5/36=2,99/5=2) pseudo=read geom=check guess=(re
 ad,tcheck) scf=(maxcycle=1)\\title\\0,1\F,0,2.175946,-0.398326,0.49029
 9\F,0,0.966487,1.257438,-0.437678\B,0,1.020086,-0.012389,-0.042945\C,0
 ,-0.172986,-1.000773,-0.224038\C,0,-1.54277,-0.364769,-0.519937\H,0,0.
 113374,-1.673837,-1.046493\C,0,-2.091584,0.45491,0.652159\H,0,-2.25799
 1,-1.153098,-0.775981\H,0,-1.462337,0.275997,-1.403871\H,0,-2.200273,-
 0.162858,1.549343\H,0,-3.073702,0.873333,0.417265\H,0,-0.228567,-1.655

 Normal termination of Gaussian 16 at Wed Apr  9 00:29:59 2025.
