 Gaussian 16, Revision C.01,

 ----------------------------------------------------------------------
 #t hf aug-cc-pvdz symm=none int=(grid=ultrafine) guess=(read,tcheck) s
 table=(opt,rrhf)
 ----------------------------------------------------------------------
 -----
 title
 -----
 Symbolic Z-matrix:
 Charge =  0 Multiplicity = 1

 SCF Done:  E(RHF) =  -1120.88073280     A.U. after   13 cycles
 Normal termination of Gaussian 16 at Tue Apr  8 23:43:33 2025.
 Gaussian 16:  ES64L-G16RevC.01  3-Jul-2019

 ----------------------------------------------------------------------
 #t hf aug-cc-pvdz iop(5/13=1,5/36=2,99/5=2) pseudo=read geom=check gue
 ss=(read,tcheck) scf=(maxcycle=1)
 ----------------------------------------------------------------------
 -----
 title
 -----
 Structure from the checkpoint file:  "BDE49_nonexpt_1708_mol1.chk"
 Charge =  0 Multiplicity = 1

                         Standard orientation:
 ---------------------------------------------------------------------
 Center     Atomic      Atomic             Coordinates (Angstroms)
 Number     Number       Type             X           Y           Z
 ---------------------------------------------------------------------
      1         16           0       -0.220718   -1.216932   -0.519068
      2         15           0       -1.580053    0.266882    0.044510
      3          8           0       -1.498007    1.531985   -0.698356
      4          6           0        1.229292   -0.145287   -0.945103
      5          6           0        2.136143    0.230411    0.234837
      6          6           0        2.804192   -0.993840    0.870303
      7          1           0        2.064055   -1.711602    1.230697
      8          1           0        3.425459   -0.698484    1.719917
      9          1           0        3.450218   -1.504622    0.147373
     10          6           0        3.181097    1.251086   -0.242842
     11          1           0        1.511228    0.713509    0.994218
     12          1           0        3.824252    0.822452   -1.019018
     13          1           0        3.824235    1.561021    0.585184
     14          1           0        2.707255    2.146432   -0.654262
     15          1           0        0.823196    0.739348   -1.435512
     16          1           0        1.779638   -0.727873   -1.689485
     17          8           0       -1.402223    0.393887    1.631944
     18          1           0       -1.813833    1.201291    1.968795
     19          8           0       -2.991011   -0.501733   -0.031270
     20          1           0       -3.337818   -0.521112   -0.932165
 ---------------------------------------------------------------------

 SCF Done:  E(RHF) =  -1121.08769967     A.U. after    2 cycles

 The electronic state is 1-A.
 Alpha  occ. eigenvalues --  -93.54840 -81.43726 -20.62292 -20.62148 -20.53497
 Alpha  occ. eigenvalues --  -11.28014 -11.25001 -11.23113 -11.22721  -8.84740
 Alpha  occ. eigenvalues --   -7.91893  -6.18879  -6.18666  -6.18368  -5.06523
 Alpha  occ. eigenvalues --   -5.06413  -5.06115  -1.38632  -1.35275  -1.26806
 Alpha  occ. eigenvalues --   -1.09798  -1.00800  -0.93376  -0.89700  -0.83255
 Alpha  occ. eigenvalues --   -0.78110  -0.75937  -0.68836  -0.66676  -0.65421
 Alpha  occ. eigenvalues --   -0.63109  -0.61169  -0.59683  -0.59380  -0.57495
 Alpha  occ. eigenvalues --   -0.56030  -0.54378  -0.52366  -0.50940  -0.49615
 Alpha  occ. eigenvalues --   -0.49268  -0.47964  -0.47049  -0.43585  -0.37824
 Alpha virt. eigenvalues --    0.03264   0.04093   0.04419   0.05074   0.05288
 Alpha virt. eigenvalues --    0.06634   0.06981   0.07337   0.07826   0.08656
 Alpha virt. eigenvalues --    0.09739   0.10200   0.11167   0.11696   0.12921

 Mulliken charges:
               1
     1  S   -0.048231
     2  P    2.149127
     3  O   -0.963723
     4  C    0.548175
     5  C   -1.394514
     6  C    0.641044
     7  H   -0.072663
     8  H   -0.058524
     9  H   -0.025350
    10  C    0.810583
    11  H   -0.148579
    12  H   -0.007049
    13  H   -0.072622
    14  H   -0.078366
    15  H   -0.195958
    16  H   -0.059914
    17  O   -0.653085
    18  H    0.160300
    19  O   -0.683163
    20  H    0.152512
 Sum of Mulliken charges =   0.00000

 Dipole moment (field-independent basis, Debye):
    X=              0.8059    Y=             -0.4683    Z=              0.2009  Tot=              0.9535

 Test job not archived.
 1\1\GINC-SE333\SP\RHF\Aug-CC-pVDZ\C4H11O3P1S1\OHZDE\08-Apr-2025\0\\#t
 hf aug-cc-pvdz iop(5/13=1,5/36=2,99/5=2) pseudo=read geom=check guess=
 (read,tcheck) scf=(maxcycle=1)\\title\\0,1\S,0,-0.220718,-1.216932,-0.
 519068\P,0,-1.580053,0.266882,0.04451\O,0,-1.498007,1.531985,-0.698356
 \C,0,1.229292,-0.145287,-0.945103\C,0,2.136143,0.230411,0.234837\C,0,2
 .804192,-0.99384,0.870303\H,0,2.064055,-1.711602,1.230697\H,0,3.425459
 ,-0.698484,1.719917\H,0,3.450218,-1.504622,0.147373\C,0,3.181097,1.251
 086,-0.242842\H,0,1.511228,0.713509,0.994218\H,0,3.824252,0.822452,-1.

 Normal termination of Gaussian 16 at Tue Apr  8 23:43:44 2025.
