 Gaussian 16, Revision C.01,

 ----------------------------------------------------------------------
 #t hf aug-cc-pvdz symm=none int=(grid=ultrafine) guess=(read,tcheck) s
 table=(opt,rrhf)
 ----------------------------------------------------------------------
 -----
 title
 -----
 Symbolic Z-matrix:
 Charge =  0 Multiplicity = 1

 SCF Done:  E(RHF) =  -356.220666786     A.U. after   13 cycles
 Normal termination of Gaussian 16 at Wed Apr  9 00:32:16 2025.
 Gaussian 16:  ES64L-G16RevC.01  3-Jul-2019

 ----------------------------------------------------------------------
 #t hf aug-cc-pvdz iop(5/13=1,5/36=2,99/5=2) pseudo=read geom=check gue
 ss=(read,tcheck) scf=(maxcycle=1)
 ----------------------------------------------------------------------
 -----
 title
 -----
 Structure from the checkpoint file:  "BDE49_nonexpt_407_mol1.chk"
 Charge =  0 Multiplicity = 1

                         Standard orientation:
 ---------------------------------------------------------------------
 Center     Atomic      Atomic             Coordinates (Angstroms)
 Number     Number       Type             X           Y           Z
 ---------------------------------------------------------------------
      1          9           0        1.462523    1.248913    0.000072
      2          9           0        2.082126   -0.924785    0.000066
      3          5           0        1.107982   -0.021684   -0.000113
      4          6           0       -0.383368   -0.485884   -0.000062
      5          7           0       -1.316558    0.381322   -0.000036
      6          1           0       -0.604657   -1.566851   -0.000059
      7          6           0       -2.689364   -0.081111   -0.000002
      8          1           0       -3.196651    0.333615   -0.876564
      9          1           0       -3.196604    0.333611    0.876590
     10          1           0       -2.791548   -1.176396   -0.000002
 ---------------------------------------------------------------------

 SCF Done:  E(RHF) =  -356.352271265     A.U. after    2 cycles

 The electronic state is 1-A.
 Alpha  occ. eigenvalues --  -26.14203 -26.13693 -15.66330 -11.28525 -11.27562
 Alpha  occ. eigenvalues --   -7.74331  -1.69308  -1.67033  -1.21693  -0.97778
 Alpha  occ. eigenvalues --   -0.88135  -0.83183  -0.81283  -0.76972  -0.75803
 Alpha  occ. eigenvalues --   -0.72184  -0.71668  -0.65666  -0.63782  -0.60659
 Alpha  occ. eigenvalues --   -0.53619  -0.43850  -0.42166
 Alpha virt. eigenvalues --    0.03180   0.04312   0.04358   0.05350   0.06880
 Alpha virt. eigenvalues --    0.07111   0.07288   0.07790   0.09688   0.12294
 Alpha virt. eigenvalues --    0.13309   0.14531   0.15892   0.16486   0.18137

 Mulliken charges:
               1
     1  F   -0.383459
     2  F   -0.441429
     3  B    1.008954
     4  C    0.312224
     5  N   -0.471071
     6  H   -0.370027
     7  C    0.654027
     8  H   -0.116536
     9  H   -0.116533
    10  H   -0.076150
 Sum of Mulliken charges =  -0.00000

 Dipole moment (field-independent basis, Debye):
    X=             -2.4754    Y=             -1.8363    Z=             -0.0007  Tot=              3.0821

 Test job not archived.
 1\1\GINC-SE090\SP\RHF\Aug-CC-pVDZ\C2H4B1F2N1\OHZDE\09-Apr-2025\0\\#t h
 f aug-cc-pvdz iop(5/13=1,5/36=2,99/5=2) pseudo=read geom=check guess=(
 read,tcheck) scf=(maxcycle=1)\\title\\0,1\F,0,1.462523,1.248913,0.0000
 72\F,0,2.082126,-0.924785,0.000066\B,0,1.107982,-0.021684,-0.000113\C,
 0,-0.383368,-0.485884,-0.000062\N,0,-1.316558,0.381322,-0.000036\H,0,-
 0.604657,-1.566851,-0.000059\C,0,-2.689364,-0.081111,-0.000002\H,0,-3.
 196651,0.333615,-0.876564\H,0,-3.196604,0.333611,0.87659\H,0,-2.791548
 ,-1.176396,-0.000002\\Version=ES64L-G16RevC.01\State=1-A\HF=-356.35227

 Normal termination of Gaussian 16 at Wed Apr  9 00:32:19 2025.
