 Gaussian 16, Revision C.01,

 ----------------------------------------------------------------------
 #t hf aug-cc-pvdz symm=none int=(grid=ultrafine) guess=(read,tcheck) s
 table=(opt,rrhf)
 ----------------------------------------------------------------------
 -----
 title
 -----
 Symbolic Z-matrix:
 Charge =  0 Multiplicity = 1

 SCF Done:  E(RHF) =  -1248.12882281     A.U. after   12 cycles
 Normal termination of Gaussian 16 at Tue Apr  8 23:55:20 2025.
 Gaussian 16:  ES64L-G16RevC.01  3-Jul-2019

 ----------------------------------------------------------------------
 #t hf aug-cc-pvdz iop(5/13=1,5/36=2,99/5=2) pseudo=read geom=check gue
 ss=(read,tcheck) scf=(maxcycle=1)
 ----------------------------------------------------------------------
 -----
 title
 -----
 Structure from the checkpoint file:  "BDE49_nonexpt_2025_mol1.chk"
 Charge =  0 Multiplicity = 1

                         Standard orientation:
 ---------------------------------------------------------------------
 Center     Atomic      Atomic             Coordinates (Angstroms)
 Number     Number       Type             X           Y           Z
 ---------------------------------------------------------------------
      1         14           0       -1.755265   -0.000002   -0.070596
      2          6           0        0.064464    0.000000    0.498471
      3         17           0        0.899543    1.490772   -0.087772
      4         17           0        0.899547   -1.490769   -0.087772
      5          1           0        0.180984    0.000000    1.578987
      6          1           0       -1.777444   -0.000002   -1.544678
      7          1           0       -2.400578    1.213440    0.473739
      8          1           0       -2.400574   -1.213445    0.473738
 ---------------------------------------------------------------------

 SCF Done:  E(RHF) =  -1248.20090835     A.U. after    2 cycles

 The electronic state is 1-A.
 Alpha  occ. eigenvalues -- -103.67562-103.67562 -69.09242 -11.36620 -10.70820
 Alpha  occ. eigenvalues --  -10.70815  -8.36535  -8.36532  -8.36228  -8.36227
 Alpha  occ. eigenvalues --   -8.36219  -8.36217  -6.84519  -3.95315  -3.95275
 Alpha  occ. eigenvalues --   -3.95263  -1.20974  -1.13996  -0.90157  -0.72932
 Alpha  occ. eigenvalues --   -0.63978  -0.59669  -0.56947  -0.50736  -0.50287
 Alpha  occ. eigenvalues --   -0.48291  -0.47701  -0.45952  -0.43354
 Alpha virt. eigenvalues --    0.03234   0.04417   0.06036   0.06112   0.07338
 Alpha virt. eigenvalues --    0.07921   0.08648   0.09836   0.09947   0.12964
 Alpha virt. eigenvalues --    0.14568   0.15367   0.15758   0.16322   0.16891

 Mulliken charges:
               1
     1  Si   0.670385
     2  C   -0.442172
     3  Cl  -0.112091
     4  Cl  -0.112091
     5  H    0.072354
     6  H   -0.029668
     7  H   -0.023358
     8  H   -0.023358
 Sum of Mulliken charges =  -0.00000

 Dipole moment (field-independent basis, Debye):
    X=             -1.8016    Y=             -0.0000    Z=              1.0752  Tot=              2.0981

 Test job not archived.
 1\1\GINC-SE082\SP\RHF\Aug-CC-pVDZ\C1H4Cl2Si1\OHZDE\08-Apr-2025\0\\#t h
 f aug-cc-pvdz iop(5/13=1,5/36=2,99/5=2) pseudo=read geom=check guess=(
 read,tcheck) scf=(maxcycle=1)\\title\\0,1\Si,0,-1.755265,-0.000001,-0.
 070596\C,0,0.064464,0.,0.498471\Cl,0,0.899544,1.490771,-0.087772\Cl,0,
 0.899546,-1.49077,-0.087772\H,0,0.180984,0.,1.578987\H,0,-1.777444,-0.
 000001,-1.544678\H,0,-2.400577,1.213441,0.473739\H,0,-2.400575,-1.2134
 44,0.473738\\Version=ES64L-G16RevC.01\State=1-A\HF=-1248.2009084\RMSD=
 4.380e-03\Dipole=-0.70881,-0.0000002,0.4230187\Quadrupole=0.432573,-1.

 Normal termination of Gaussian 16 at Tue Apr  8 23:55:23 2025.
