 Gaussian 16, Revision C.01,

 ----------------------------------------------------------------------
 #t hf aug-cc-pvdz symm=none int=(grid=ultrafine) guess=(read,tcheck) s
 table=opt
 ----------------------------------------------------------------------
 -----
 title
 -----
 Symbolic Z-matrix:
 Charge =  0 Multiplicity = 2

 SCF Done:  E(UHF) =  -622.616397172     A.U. after   20 cycles
 Normal termination of Gaussian 16 at Tue Apr  8 22:45:28 2025.
 Gaussian 16:  ES64L-G16RevC.01  3-Jul-2019

 ----------------------------------------------------------------------
 #t hf aug-cc-pvdz iop(5/13=1,5/36=2,99/5=2) pseudo=read geom=check gue
 ss=(read,tcheck) scf=(maxcycle=1)
 ----------------------------------------------------------------------
 -----
 title
 -----
 Structure from the checkpoint file:  "BDE49_expt_1596_mol2.chk"
 Charge =  0 Multiplicity = 2

                         Standard orientation:
 ---------------------------------------------------------------------
 Center     Atomic      Atomic             Coordinates (Angstroms)
 Number     Number       Type             X           Y           Z
 ---------------------------------------------------------------------
      1         16           0       -0.142855    0.066672    0.253968
      2          8           0        1.220510   -0.799481   -0.108017
      3          8           0        0.069803    1.437927   -0.188172
      4          8           0       -1.250024   -0.749911   -0.197072
      5          1           0        1.963374   -0.175029   -0.117400
 ---------------------------------------------------------------------

 SCF Done:  E(UHF) =  -622.760707535     A.U. after    2 cycles

 The electronic state is 2-A.
 Alpha  occ. eigenvalues --  -93.83397 -20.67895 -20.63654 -20.63604  -9.10125
 Alpha  occ. eigenvalues --   -6.44806  -6.44314  -6.44161  -1.50290  -1.39315
 Alpha  occ. eigenvalues --   -1.38239  -0.93801  -0.79955  -0.74764  -0.74234
 Alpha  occ. eigenvalues --   -0.69921  -0.63433  -0.60123  -0.58578  -0.56227
 Alpha  occ. eigenvalues --   -0.48185
 Alpha virt. eigenvalues --    0.03029   0.08203   0.08886   0.09156   0.12935
 Alpha virt. eigenvalues --    0.16153   0.18370   0.19198   0.20370   0.21238
 Alpha virt. eigenvalues --    0.21796   0.24439   0.25538   0.26867   0.27666

  Beta  occ. eigenvalues --  -93.82971 -20.67135 -20.62245 -20.62175  -9.09540
  Beta  occ. eigenvalues --   -6.44326  -6.44146  -6.42897  -1.47261  -1.36366
  Beta  occ. eigenvalues --   -1.33951  -0.88870  -0.76948  -0.71757  -0.68701
  Beta  occ. eigenvalues --   -0.66096  -0.57873  -0.57395  -0.54906  -0.51009
  Beta virt. eigenvalues --   -0.03203   0.03490   0.08704   0.09110   0.09409
  Beta virt. eigenvalues --    0.13950   0.17060   0.18751   0.20164   0.20954
  Beta virt. eigenvalues --    0.21734   0.22817   0.24942   0.26946   0.27398

 Mulliken charges and spin densities:
               1          2
     1  S    1.961571   0.359822
     2  O   -0.650728   0.121690
     3  O   -0.776913   0.254915
     4  O   -0.722122   0.282786
     5  H    0.188193  -0.019213
 Sum of Mulliken charges =  -0.00000   1.00000

 Dipole moment (field-independent basis, Debye):
    X=              2.6951    Y=              0.1739    Z=              1.4646  Tot=              3.0723
                          Isotropic Fermi Contact Couplings
        Atom                 a.u.       MegaHertz       Gauss      10(-4) cm-1
     1  S(33)              0.79975     274.69351      98.01747      91.62789
     2  O(17)              0.09477     -57.44864     -20.49910     -19.16280
     3  O(17)              0.09011     -54.62187     -19.49044     -18.21990
     4  O(17)              0.09569     -58.00823     -20.69878     -19.34946
     5  H(1)              -0.00355     -15.87335      -5.66400      -5.29478
 --------------------------------------------------------
       Center         ----  Spin Dipole Couplings  ----
                      3XX-RR        3YY-RR        3ZZ-RR

 Normal termination of Gaussian 16 at Tue Apr  8 22:45:30 2025.
