 Gaussian 16, Revision C.01,

 ----------------------------------------------------------------------
 #t hf aug-cc-pvdz symm=none int=(grid=ultrafine) guess=(read,tcheck) s
 table=(opt,rrhf)
 ----------------------------------------------------------------------
 -----
 title
 -----
 Symbolic Z-matrix:
 Charge =  0 Multiplicity = 1

 SCF Done:  E(RHF) =  -1585.34007347     A.U. after   12 cycles
 Normal termination of Gaussian 16 at Tue Apr  8 23:51:30 2025.
 Gaussian 16:  ES64L-G16RevC.01  3-Jul-2019

 ----------------------------------------------------------------------
 #t hf aug-cc-pvdz iop(5/13=1,5/36=2,99/5=2) pseudo=read geom=check gue
 ss=(read,tcheck) scf=(maxcycle=1)
 ----------------------------------------------------------------------
 -----
 title
 -----
 Structure from the checkpoint file:  "BDE49_nonexpt_191_mol1.chk"
 Charge =  0 Multiplicity = 1

                         Standard orientation:
 ---------------------------------------------------------------------
 Center     Atomic      Atomic             Coordinates (Angstroms)
 Number     Number       Type             X           Y           Z
 ---------------------------------------------------------------------
      1         17           0        2.613832   -1.151598   -0.000955
      2         17           0        1.418865    1.646658    0.004940
      3          5           0        1.199125   -0.110217    0.008051
      4         15           0       -1.528545   -0.115250    0.113480
      5          8           0       -1.892433    0.468482    1.398574
      6          8           0       -1.680218    0.844783   -1.150195
      7          1           0       -1.583540    1.774803   -0.909179
      8          8           0       -2.263384   -1.434433   -0.357477
      9          1           0       -3.189048   -1.456502   -0.087357
     10          8           0       -0.020302   -0.685641    0.007390
 ---------------------------------------------------------------------

 SCF Done:  E(RHF) =  -1585.56057658     A.U. after    2 cycles

 The electronic state is 1-A.
 Alpha  occ. eigenvalues -- -103.68740-103.68055 -81.48027 -20.64443 -20.64247
 Alpha  occ. eigenvalues --  -20.64043 -20.55288 -10.72226 -10.71532  -8.37921
 Alpha  occ. eigenvalues --   -8.37688  -8.37674  -8.37233  -8.36999  -8.36970
 Alpha  occ. eigenvalues --   -7.95852  -7.79109  -5.10564  -5.10443  -5.10426
 Alpha  occ. eigenvalues --   -1.42924  -1.38622  -1.37783  -1.29013  -1.19321
 Alpha  occ. eigenvalues --   -1.16206  -0.92013  -0.82179  -0.78197  -0.71892
 Alpha  occ. eigenvalues --   -0.70523  -0.67782  -0.66347  -0.65922  -0.62808
 Alpha  occ. eigenvalues --   -0.59877  -0.59428  -0.55665  -0.53055  -0.52257
 Alpha  occ. eigenvalues --   -0.51470  -0.51277  -0.49440  -0.48259
 Alpha virt. eigenvalues --    0.02895   0.04362   0.05380   0.06269   0.06620
 Alpha virt. eigenvalues --    0.08264   0.09542   0.09713   0.10296   0.12111
 Alpha virt. eigenvalues --    0.13257   0.14237   0.14489   0.15639   0.17157

 Mulliken charges:
               1
     1  Cl  -0.321783
     2  Cl  -0.293532
     3  B    0.564836
     4  P    2.479508
     5  O   -0.814692
     6  O   -0.687021
     7  H    0.175616
     8  O   -0.599374
     9  H    0.165376
    10  O   -0.668934
 Sum of Mulliken charges =  -0.00000

 Dipole moment (field-independent basis, Debye):
    X=             -1.4425    Y=              0.4173    Z=             -1.7262  Tot=              2.2879

 Test job not archived.
 1\1\GINC-SE398\SP\RHF\Aug-CC-pVDZ\B1Cl2H2O4P1\OHZDE\08-Apr-2025\0\\#t
 hf aug-cc-pvdz iop(5/13=1,5/36=2,99/5=2) pseudo=read geom=check guess=
 (read,tcheck) scf=(maxcycle=1)\\title\\0,1\Cl,0,2.613832,-1.151598,-0.
 000955\Cl,0,1.418865,1.646658,0.00494\B,0,1.199125,-0.110217,0.008051\
 P,0,-1.528545,-0.11525,0.11348\O,0,-1.892433,0.468482,1.398574\O,0,-1.
 680218,0.844783,-1.150195\H,0,-1.58354,1.774803,-0.909179\O,0,-2.26338
 4,-1.434433,-0.357477\H,0,-3.189048,-1.456502,-0.087357\O,0,-0.020302,
 -0.685641,0.00739\\Version=ES64L-G16RevC.01\State=1-A\HF=-1585.5605766

 Normal termination of Gaussian 16 at Tue Apr  8 23:51:35 2025.
