 Gaussian 16, Revision C.01,

 ----------------------------------------------------------------------
 #t hf aug-cc-pvdz symm=none int=(grid=ultrafine) guess=(read,tcheck) s
 table=opt
 ----------------------------------------------------------------------
 -----
 title
 -----
 Symbolic Z-matrix:
 Charge =  0 Multiplicity = 2

 SCF Done:  E(UHF) =  -802.019061238     A.U. after   19 cycles
 Normal termination of Gaussian 16 at Tue Apr  8 23:53:24 2025.
 Gaussian 16:  ES64L-G16RevC.01  3-Jul-2019

 ----------------------------------------------------------------------
 #t hf aug-cc-pvdz iop(5/13=1,5/36=2,99/5=2) pseudo=read geom=check gue
 ss=(read,tcheck) scf=(maxcycle=1)
 ----------------------------------------------------------------------
 -----
 title
 -----
 Structure from the checkpoint file:  "BDE49_nonexpt_1967_mol2.chk"
 Charge =  0 Multiplicity = 2

                         Standard orientation:
 ---------------------------------------------------------------------
 Center     Atomic      Atomic             Coordinates (Angstroms)
 Number     Number       Type             X           Y           Z
 ---------------------------------------------------------------------
      1         14           0        1.624007   -0.329368    0.040841
      2         16           0       -0.503942    0.258945   -0.481570
      3          1           0        2.417765    0.768933   -0.579352
      4          1           0        1.646705   -0.120088    1.518415
      5          8           0       -0.718830    1.413995    0.479400
      6          6           0       -1.382897   -1.188546    0.219894
      7          1           0       -1.151690   -2.069178   -0.382341
      8          1           0       -2.447942   -0.959666    0.162172
      9          1           0       -1.089849   -1.332652    1.259877
 ---------------------------------------------------------------------

 SCF Done:  E(UHF) =  -802.111669022     A.U. after    2 cycles

 The electronic state is 2-A.
 Alpha  occ. eigenvalues --  -93.64496 -69.11473 -20.52260 -11.28269  -8.93120
 Alpha  occ. eigenvalues --   -6.86639  -6.27331  -6.27197  -6.26917  -3.97889
 Alpha  occ. eigenvalues --   -3.97026  -3.96983  -1.29254  -1.02411  -0.85499
 Alpha  occ. eigenvalues --   -0.71713  -0.62512  -0.61891  -0.59087  -0.55016
 Alpha  occ. eigenvalues --   -0.53941  -0.50300  -0.43131  -0.39429  -0.35045
 Alpha virt. eigenvalues --    0.02962   0.03964   0.04730   0.05505   0.06323
 Alpha virt. eigenvalues --    0.07641   0.07963   0.08629   0.10830   0.11526
 Alpha virt. eigenvalues --    0.12023   0.13582   0.13934   0.14749   0.16089

  Beta  occ. eigenvalues --  -93.64445 -69.10932 -20.51808 -11.28283  -8.93066
  Beta  occ. eigenvalues --   -6.85812  -6.27314  -6.27045  -6.26805  -3.96715
  Beta  occ. eigenvalues --   -3.96625  -3.95787  -1.28234  -1.02155  -0.84549
  Beta  occ. eigenvalues --   -0.68548  -0.62387  -0.61245  -0.58528  -0.53574
  Beta  occ. eigenvalues --   -0.52775  -0.49092  -0.41281  -0.35966
  Beta virt. eigenvalues --   -0.00188   0.03597   0.04284   0.05037   0.05794
  Beta virt. eigenvalues --    0.06489   0.08046   0.08466   0.08964   0.11158
  Beta virt. eigenvalues --    0.12440   0.12741   0.13800   0.14496   0.16261

 Mulliken charges and spin densities:
               1          2
     1  Si   0.377737   0.803999
     2  S    0.682701   0.044232
     3  H   -0.026698   0.047901
     4  H    0.069071   0.054619
     5  O   -1.023398   0.057374
     6  C    0.080701  -0.002842
     7  H   -0.051675  -0.003803
     8  H   -0.037344  -0.003153
     9  H   -0.071097   0.001673
 Sum of Mulliken charges =  -0.00000   1.00000

 Dipole moment (field-independent basis, Debye):
    X=              1.3053    Y=             -4.6538    Z=             -1.1288  Tot=              4.9635
                          Isotropic Fermi Contact Couplings
        Atom                 a.u.       MegaHertz       Gauss      10(-4) cm-1
     1  Si(29)             0.55570    -493.86611    -176.22371    -164.73600
     2  S(33)              0.00927       3.18538       1.13662       1.06253
     3  H(1)               0.00881      39.38002      14.05177      13.13576
     4  H(1)               0.01209      54.04657      19.28516      18.02800
     5  O(17)              0.03935     -23.85615      -8.51247      -7.95755
     6  C(13)             -0.00287      -3.23000      -1.15254      -1.07741
     7  H(1)               0.00023       1.04924       0.37440       0.34999
     8  H(1)              -0.00058      -2.60562      -0.92975      -0.86914

 1\1\GINC-SE367\SP\UHF\Aug-CC-pVDZ\C1H5O1S1Si1(2)\OHZDE\08-Apr-2025\0\\
 #t hf aug-cc-pvdz iop(5/13=1,5/36=2,99/5=2) pseudo=read geom=check gue
 ss=(read,tcheck) scf=(maxcycle=1)\\title\\0,2\Si,0,-1.624007,0.329368,
 0.040841\S,0,0.503942,-0.258945,-0.48157\H,0,-2.417765,-0.768933,-0.57
 9352\H,0,-1.646705,0.120088,1.518415\O,0,0.71883,-1.413995,0.4794\C,0,
 1.382897,1.188546,0.219894\H,0,1.15169,2.069178,-0.382341\H,0,2.447942
 ,0.959666,0.162172\H,0,1.089849,1.332652,1.259877\\Version=ES64L-G16Re
 vC.01\State=2-A\HF=-802.111669\S2=0.758407\S2-1=0.\S2A=0.750027\RMSD=5

 Normal termination of Gaussian 16 at Tue Apr  8 23:53:27 2025.
