 Gaussian 16, Revision C.01,

 ----------------------------------------------------------------------
 #t hf aug-cc-pvdz symm=none int=(grid=ultrafine) guess=(read,tcheck) s
 table=(opt,rrhf)
 ----------------------------------------------------------------------
 -----
 title
 -----
 Symbolic Z-matrix:
 Charge =  0 Multiplicity = 1

 SCF Done:  E(RHF) =  -932.851027347     A.U. after   16 cycles
 Normal termination of Gaussian 16 at Tue Apr  8 23:29:45 2025.
 Gaussian 16:  ES64L-G16RevC.01  3-Jul-2019

 ----------------------------------------------------------------------
 #t hf aug-cc-pvdz iop(5/13=1,5/36=2,99/5=2) pseudo=read geom=check gue
 ss=(read,tcheck) scf=(maxcycle=1)
 ----------------------------------------------------------------------
 -----
 title
 -----
 Structure from the checkpoint file:  "BDE49_nonexpt_1388_mol1.chk"
 Charge =  0 Multiplicity = 1

                         Standard orientation:
 ---------------------------------------------------------------------
 Center     Atomic      Atomic             Coordinates (Angstroms)
 Number     Number       Type             X           Y           Z
 ---------------------------------------------------------------------
      1          6           0       -1.862141   -0.823202    0.063075
      2          6           0       -1.895659    0.480570   -0.747130
      3         15           0       -0.129428   -1.507979    0.264986
      4          1           0       -2.458817   -1.605214   -0.415047
      5          1           0       -2.286872   -0.679461    1.061686
      6          6           0        0.813200    0.065911    0.222445
      7          6           0        0.050884    1.218200    0.823533
      8          6           0       -1.159991    1.648221   -0.055198
      9          1           0        0.718101    2.064751    0.990274
     10          1           0       -0.325712    0.896702    1.803690
     11          1           0       -0.809719    2.350827   -0.815340
     12          1           0       -1.852452    2.200256    0.587121
     13          1           0       -2.932570    0.775109   -0.940031
     14          1           0       -1.442670    0.290188   -1.725058
     15         16           0        2.346551    0.167976   -0.330710
     16          1           0        0.109560   -1.899298   -1.071078
 ---------------------------------------------------------------------

 SCF Done:  E(RHF) =  -932.947449147     A.U. after    2 cycles

 The electronic state is 1-A.
 Alpha  occ. eigenvalues --  -93.51249 -81.26924 -11.32805 -11.26046 -11.25823
 Alpha  occ. eigenvalues --  -11.25509 -11.25284  -8.81112  -7.77341  -6.15280
 Alpha  occ. eigenvalues --   -6.14918  -6.14673  -4.91371  -4.91308  -4.91015
 Alpha  occ. eigenvalues --   -1.11766  -1.04619  -0.98643  -0.91225  -0.81106
 Alpha  occ. eigenvalues --   -0.80313  -0.68202  -0.66671  -0.63544  -0.58410
 Alpha  occ. eigenvalues --   -0.57508  -0.55122  -0.53298  -0.51477  -0.49539
 Alpha  occ. eigenvalues --   -0.47827  -0.45340  -0.41447  -0.34124  -0.32124
 Alpha virt. eigenvalues --    0.02801   0.03805   0.04405   0.04951   0.05323
 Alpha virt. eigenvalues --    0.06317   0.06690   0.06962   0.07641   0.08224
 Alpha virt. eigenvalues --    0.09420   0.10336   0.11115   0.11665   0.13135

 Mulliken charges:
               1
     1  C    0.089044
     2  C    0.235956
     3  P    0.272965
     4  H   -0.135494
     5  H   -0.093812
     6  C   -0.281145
     7  C    0.113379
     8  C    0.005172
     9  H   -0.096234
    10  H    0.054888
    11  H   -0.066356
    12  H   -0.067095
    13  H   -0.092387
    14  H   -0.120921
    15  S   -0.016589
    16  H    0.198630
 Sum of Mulliken charges =  -0.00000

 Dipole moment (field-independent basis, Debye):
    X=             -3.9540    Y=              0.7211    Z=              0.2274  Tot=              4.0257

 Test job not archived.
 1\1\GINC-SE342\SP\RHF\Aug-CC-pVDZ\C5H9P1S1\OHZDE\08-Apr-2025\0\\#t hf
 aug-cc-pvdz iop(5/13=1,5/36=2,99/5=2) pseudo=read geom=check guess=(re
 ad,tcheck) scf=(maxcycle=1)\\title\\0,1\C,0,-1.862141,-0.823202,0.0630
 75\C,0,-1.895659,0.48057,-0.74713\P,0,-0.129428,-1.507979,0.264986\H,0
 ,-2.458817,-1.605214,-0.415047\H,0,-2.286872,-0.679461,1.061686\C,0,0.
 8132,0.065911,0.222445\C,0,0.050884,1.2182,0.823533\C,0,-1.159991,1.64
 8221,-0.055198\H,0,0.718101,2.064751,0.990274\H,0,-0.325712,0.896702,1
 .80369\H,0,-0.809719,2.350827,-0.81534\H,0,-1.852452,2.200256,0.587121

 Normal termination of Gaussian 16 at Tue Apr  8 23:29:52 2025.
