 Gaussian 16, Revision C.01,

 ----------------------------------------------------------------------
 #t hf aug-cc-pvdz symm=none int=(grid=ultrafine) guess=(read,tcheck) s
 table=(opt,rrhf)
 ----------------------------------------------------------------------
 -----
 title
 -----
 Symbolic Z-matrix:
 Charge =  0 Multiplicity = 1

 SCF Done:  E(RHF) =  -411.927197965     A.U. after   13 cycles
 Normal termination of Gaussian 16 at Wed Apr  9 00:30:00 2025.
 Gaussian 16:  ES64L-G16RevC.01  3-Jul-2019

 ----------------------------------------------------------------------
 #t hf aug-cc-pvdz iop(5/13=1,5/36=2,99/5=2) pseudo=read geom=check gue
 ss=(read,tcheck) scf=(maxcycle=1)
 ----------------------------------------------------------------------
 -----
 title
 -----
 Structure from the checkpoint file:  "BDE49_nonexpt_377_mol1.chk"
 Charge =  0 Multiplicity = 1

                         Standard orientation:
 ---------------------------------------------------------------------
 Center     Atomic      Atomic             Coordinates (Angstroms)
 Number     Number       Type             X           Y           Z
 ---------------------------------------------------------------------
      1          9           0       -1.536244   -1.055271    0.000088
      2          9           0       -1.358676    1.201269    0.000032
      3          5           0       -0.782718    0.019426   -0.000104
      4          6           0        0.811374   -0.145235   -0.000131
      5          8           0        1.372934   -1.211522    0.000002
      6          8           0        1.462776    1.038849    0.000013
      7          1           0        2.413946    0.841688    0.000101
 ---------------------------------------------------------------------

 SCF Done:  E(RHF) =  -412.079732976     A.U. after    2 cycles

 The electronic state is 1-A.
 Alpha  occ. eigenvalues --  -26.16919 -26.16604 -20.64881 -20.60043 -11.41372
 Alpha  occ. eigenvalues --   -7.78186  -1.72215  -1.70055  -1.44788  -1.35372
 Alpha  occ. eigenvalues --   -0.93506  -0.89290  -0.85310  -0.81032  -0.79738
 Alpha  occ. eigenvalues --   -0.74840  -0.74760  -0.73689  -0.71565  -0.66436
 Alpha  occ. eigenvalues --   -0.61811  -0.52588  -0.49727
 Alpha virt. eigenvalues --    0.03472   0.03858   0.05326   0.05821   0.06440
 Alpha virt. eigenvalues --    0.06936   0.11642   0.12239   0.14284   0.17718
 Alpha virt. eigenvalues --    0.19065   0.20931   0.20949   0.22259   0.24403

 Mulliken charges:
               1
     1  F   -0.369400
     2  F   -0.379282
     3  B    0.958522
     4  C    0.507346
     5  O   -0.436895
     6  O   -0.430454
     7  H    0.150164
 Sum of Mulliken charges =  -0.00000

 Dipole moment (field-independent basis, Debye):
    X=              1.0084    Y=              1.4870    Z=             -0.0007  Tot=              1.7967

 Test job not archived.
 1\1\GINC-SE083\SP\RHF\Aug-CC-pVDZ\C1H1B1F2O2\OHZDE\09-Apr-2025\0\\#t h
 f aug-cc-pvdz iop(5/13=1,5/36=2,99/5=2) pseudo=read geom=check guess=(
 read,tcheck) scf=(maxcycle=1)\\title\\0,1\F,0,1.536244,-1.055271,-0.00
 0088\F,0,1.358676,1.201269,-0.000032\B,0,0.782718,0.019426,0.000104\C,
 0,-0.811374,-0.145235,0.000131\O,0,-1.372934,-1.211522,-0.000002\O,0,-
 1.462776,1.038849,-0.000013\H,0,-2.413946,0.841688,-0.000101\\Version=
 ES64L-G16RevC.01\State=1-A\HF=-412.079733\RMSD=5.116e-03\Dipole=-0.396
 7291,0.5850381,0.0002875\Quadrupole=2.0129047,-4.8362653,2.8233606,-2.

 Normal termination of Gaussian 16 at Wed Apr  9 00:30:03 2025.
