 Gaussian 16, Revision C.01,

 ----------------------------------------------------------------------
 #t hf aug-cc-pvdz symm=none int=(grid=ultrafine) guess=(read,tcheck) s
 table=(opt,rrhf)
 ----------------------------------------------------------------------
 -----
 title
 -----
 Symbolic Z-matrix:
 Charge =  0 Multiplicity = 1

 SCF Done:  E(RHF) =  -380.453115245     A.U. after   12 cycles
 Normal termination of Gaussian 16 at Wed Apr  9 00:30:09 2025.
 Gaussian 16:  ES64L-G16RevC.01  3-Jul-2019

 ----------------------------------------------------------------------
 #t hf aug-cc-pvdz iop(5/13=1,5/36=2,99/5=2) pseudo=read geom=check gue
 ss=(read,tcheck) scf=(maxcycle=1)
 ----------------------------------------------------------------------
 -----
 title
 -----
 Structure from the checkpoint file:  "BDE49_nonexpt_371_mol1.chk"
 Charge =  0 Multiplicity = 1

                         Standard orientation:
 ---------------------------------------------------------------------
 Center     Atomic      Atomic             Coordinates (Angstroms)
 Number     Number       Type             X           Y           Z
 ---------------------------------------------------------------------
      1          9           0       -2.038326   -0.510500   -0.759888
      2          9           0       -0.850207   -1.256091    0.999824
      3          5           0       -0.933171   -0.410581   -0.025215
      4          6           0        0.156738    0.673819   -0.316363
      5          6           0        1.552860    0.315820    0.226950
      6          6           0       -0.345390    2.026117    0.255329
      7          1           0       -0.438501    1.986525    1.344991
      8          1           0       -1.319417    2.303905   -0.155497
      9          1           0        0.360156    2.826099    0.013498
     10          1           0        0.221553    0.791217   -1.406432
     11          6           0        2.162237   -0.936100   -0.411981
     12          1           0        1.492528    0.178476    1.312322
     13          1           0        2.221876    1.168777    0.063113
     14          1           0        1.556102   -1.823992   -0.208860
     15          1           0        3.164770   -1.130317   -0.022153
     16          1           0        2.244918   -0.826407   -1.497941
 ---------------------------------------------------------------------

 SCF Done:  E(RHF) =  -380.593621013     A.U. after    2 cycles

 The electronic state is 1-A.
 Alpha  occ. eigenvalues --  -26.13152 -26.13071 -11.24205 -11.23883 -11.23220
 Alpha  occ. eigenvalues --  -11.23007  -7.72631  -1.68397  -1.66025  -1.07590
 Alpha  occ. eigenvalues --   -0.98981  -0.88181  -0.86568  -0.81958  -0.80761
 Alpha  occ. eigenvalues --   -0.76256  -0.75366  -0.71478  -0.70818  -0.64159
 Alpha  occ. eigenvalues --   -0.59883  -0.59010  -0.58204  -0.52937  -0.50774
 Alpha  occ. eigenvalues --   -0.48312  -0.47386  -0.46490
 Alpha virt. eigenvalues --    0.03193   0.04263   0.04613   0.04769   0.06506
 Alpha virt. eigenvalues --    0.06643   0.06805   0.07067   0.07492   0.09071
 Alpha virt. eigenvalues --    0.09502   0.09899   0.12187   0.13272   0.13674

 Mulliken charges:
               1
     1  F   -0.492952
     2  F   -0.443000
     3  B    1.045172
     4  C   -0.237882
     5  C    0.228083
     6  C    0.559147
     7  H   -0.106515
     8  H   -0.134130
     9  H   -0.080379
    10  H   -0.249547
    11  C    0.412460
    12  H   -0.137199
    13  H   -0.112568
    14  H   -0.102131
    15  H   -0.082558
    16  H   -0.066002
 Sum of Mulliken charges =  -0.00000

 Dipole moment (field-independent basis, Debye):
    X=              1.5842    Y=              1.4588    Z=             -0.3296  Tot=              2.1787

 Test job not archived.
 1\1\GINC-SE329\SP\RHF\Aug-CC-pVDZ\C4H9B1F2\OHZDE\09-Apr-2025\0\\#t hf
 aug-cc-pvdz iop(5/13=1,5/36=2,99/5=2) pseudo=read geom=check guess=(re
 ad,tcheck) scf=(maxcycle=1)\\title\\0,1\F,0,-2.038326,-0.510501,-0.759
 888\F,0,-0.850206,-1.256091,0.999824\B,0,-0.933171,-0.410581,-0.025215
 \C,0,0.156738,0.673819,-0.316363\C,0,1.55286,0.315821,0.22695\C,0,-0.3
 45391,2.026117,0.255329\H,0,-0.438502,1.986525,1.344991\H,0,-1.319418,
 2.303905,-0.155497\H,0,0.360155,2.826099,0.013498\H,0,0.221553,0.79121
 7,-1.406432\C,0,2.162237,-0.936099,-0.411981\H,0,1.492528,0.178477,1.3

 Normal termination of Gaussian 16 at Wed Apr  9 00:30:14 2025.
