 Gaussian 16, Revision C.01,

 ----------------------------------------------------------------------
 #t hf aug-cc-pvdz symm=none int=(grid=ultrafine) guess=(read,tcheck) s
 table=(opt,rrhf)
 ----------------------------------------------------------------------
 -----
 title
 -----
 Symbolic Z-matrix:
 Charge =  0 Multiplicity = 1

 SCF Done:  E(RHF) =  -646.930085753     A.U. after   15 cycles
 Normal termination of Gaussian 16 at Tue Apr  8 23:33:43 2025.
 Gaussian 16:  ES64L-G16RevC.01  3-Jul-2019

 ----------------------------------------------------------------------
 #t hf aug-cc-pvdz iop(5/13=1,5/36=2,99/5=2) pseudo=read geom=check gue
 ss=(read,tcheck) scf=(maxcycle=1)
 ----------------------------------------------------------------------
 -----
 title
 -----
 Structure from the checkpoint file:  "BDE49_nonexpt_1484_mol1.chk"
 Charge =  0 Multiplicity = 1

                         Standard orientation:
 ---------------------------------------------------------------------
 Center     Atomic      Atomic             Coordinates (Angstroms)
 Number     Number       Type             X           Y           Z
 ---------------------------------------------------------------------
      1          6           0        2.179226   -1.011172   -0.105180
      2          6           0        0.810274   -1.271027   -0.081617
      3          6           0        2.639811    0.301406   -0.029724
      4          6           0        1.728131    1.352087    0.072260
      5          6           0        0.360953    1.092892    0.112514
      6          6           0       -0.108545   -0.223328    0.043696
      7         15           0       -1.905646   -0.627755    0.074681
      8          8           0       -2.594610    0.877362   -0.190707
      9          1           0       -3.038610    0.883778   -1.043768
     10          1           0        2.883239   -1.830879   -0.196476
     11          1           0        0.456046   -2.294079   -0.167510
     12          1           0        3.704195    0.506180   -0.058588
     13          1           0        2.084095    2.375264    0.125126
     14          1           0       -0.352287    1.905186    0.189708
     15          1           0       -2.054213   -0.593170    1.485256
 ---------------------------------------------------------------------

 SCF Done:  E(RHF) =  -647.049948570     A.U. after    2 cycles

 The electronic state is 1-A.
 Alpha  occ. eigenvalues --  -81.30068 -20.59016 -11.25296 -11.25091 -11.25040
 Alpha  occ. eigenvalues --  -11.24940 -11.24888 -11.24780  -7.79783  -4.93971
 Alpha  occ. eigenvalues --   -4.93710  -4.93454  -1.31752  -1.14625  -1.01747
 Alpha  occ. eigenvalues --   -1.01417  -0.84920  -0.83277  -0.78642  -0.70908
 Alpha  occ. eigenvalues --   -0.66942  -0.63461  -0.62729  -0.59892  -0.59556
 Alpha  occ. eigenvalues --   -0.58956  -0.53094  -0.51118  -0.50144  -0.46263
 Alpha  occ. eigenvalues --   -0.37585  -0.34461  -0.32633
 Alpha virt. eigenvalues --    0.03351   0.03994   0.04302   0.05401   0.06021
 Alpha virt. eigenvalues --    0.06448   0.07743   0.08447   0.09290   0.09719
 Alpha virt. eigenvalues --    0.10905   0.11498   0.12824   0.13761   0.14060

 Mulliken charges:
               1
     1  C    0.681446
     2  C    0.214329
     3  C    0.477664
     4  C    0.584113
     5  C    0.314990
     6  C    0.067536
     7  P    0.474730
     8  O   -0.752233
     9  H    0.202696
    10  H   -0.434589
    11  H   -0.511884
    12  H   -0.429704
    13  H   -0.443496
    14  H   -0.557914
    15  H    0.112317
 Sum of Mulliken charges =  -0.00000

 Dipole moment (field-independent basis, Debye):
    X=              0.6195    Y=             -0.1116    Z=             -0.7725  Tot=              0.9965

 Test job not archived.
 1\1\GINC-SE071\SP\RHF\Aug-CC-pVDZ\C6H7O1P1\OHZDE\08-Apr-2025\0\\#t hf
 aug-cc-pvdz iop(5/13=1,5/36=2,99/5=2) pseudo=read geom=check guess=(re
 ad,tcheck) scf=(maxcycle=1)\\title\\0,1\C,0,2.179226,-1.011172,-0.1051
 8\C,0,0.810274,-1.271027,-0.081617\C,0,2.639811,0.301405,-0.029724\C,0
 ,1.728131,1.352087,0.07226\C,0,0.360953,1.092892,0.112514\C,0,-0.10854
 5,-0.223328,0.043696\P,0,-1.905646,-0.627755,0.074681\O,0,-2.59461,0.8
 77363,-0.190707\H,0,-3.03861,0.883779,-1.043768\H,0,2.883239,-1.83088,
 -0.196476\H,0,0.456045,-2.294079,-0.16751\H,0,3.704195,0.506179,-0.058

 Normal termination of Gaussian 16 at Tue Apr  8 23:33:50 2025.
