 Gaussian 16, Revision C.01,

 ----------------------------------------------------------------------
 #t hf aug-cc-pvdz symm=none int=(grid=ultrafine) guess=(read,tcheck) s
 table=(opt,rrhf)
 ----------------------------------------------------------------------
 -----
 title
 -----
 Symbolic Z-matrix:
 Charge =  0 Multiplicity = 1

 SCF Done:  E(RHF) =  -755.068987614     A.U. after   14 cycles
 Normal termination of Gaussian 16 at Tue Apr  8 23:17:50 2025.
 Gaussian 16:  ES64L-G16RevC.01  3-Jul-2019

 ----------------------------------------------------------------------
 #t hf aug-cc-pvdz iop(5/13=1,5/36=2,99/5=2) pseudo=read geom=check gue
 ss=(read,tcheck) scf=(maxcycle=1)
 ----------------------------------------------------------------------
 -----
 title
 -----
 Structure from the checkpoint file:  "BDE49_expt_808_mol1.chk"
 Charge =  0 Multiplicity = 1

                         Standard orientation:
 ---------------------------------------------------------------------
 Center     Atomic      Atomic             Coordinates (Angstroms)
 Number     Number       Type             X           Y           Z
 ---------------------------------------------------------------------
      1         14           0        0.237616    1.304496    0.328877
      2          1           0        0.496007    1.386963    1.790127
      3          6           0        1.707636    0.539834   -0.597263
      4          6           0       -0.018077    3.048505   -0.339043
      5          6           0       -1.351560    0.308908    0.125451
      6          1           0        0.868418    3.667784   -0.172066
      7          1           0       -0.866946    3.532699    0.151169
      8          1           0       -0.219097    3.035481   -1.414735
      9          6           0       -1.847521   -0.029652   -1.144812
     10          6           0       -3.035908   -0.740200   -1.293758
     11          6           0       -3.760475   -1.130404   -0.168514
     12          6           0       -3.290242   -0.805048    1.101232
     13          6           0       -2.099751   -0.093355    1.242875
     14          1           0       -1.747065    0.150776    2.240204
     15          1           0       -1.301370    0.263637   -2.037011
     16          1           0       -3.397349   -0.989844   -2.285571
     17          1           0       -4.685680   -1.684650   -0.281962
     18          1           0       -3.849293   -1.105364    1.980936
     19          6           0        2.476594   -0.686279   -0.029566
     20          1           0        2.426706    1.355229   -0.755229
     21          1           0        1.338029    0.288552   -1.601581
     22          6           0        3.191115   -0.310593    1.282305
     23          1           0        3.882415    0.524290    1.128411
     24          1           0        3.771717   -1.157477    1.661074
     25          1           0        2.481765   -0.018586    2.060377
     26          6           0        1.524052   -1.868790    0.224191
     27          1           0        0.779790   -1.634878    0.989975
     28          1           0        2.083527   -2.746686    0.562427
     29          1           0        0.983798   -2.145881   -0.685854
     30          6           0        3.537864   -1.116877   -1.062579
     31          1           0        4.236208   -0.300978   -1.273639
     32          1           0        3.070422   -1.410686   -2.007589
     33          1           0        4.119014   -1.969614   -0.696869
 ---------------------------------------------------------------------

 SCF Done:  E(RHF) =  -755.233605879     A.U. after    2 cycles

 The electronic state is 1-A.
 Alpha  occ. eigenvalues --  -69.04948 -11.24673 -11.24645 -11.24522 -11.24430
 Alpha  occ. eigenvalues --  -11.24399 -11.24319 -11.22784 -11.21713 -11.21673
 Alpha  occ. eigenvalues --  -11.21514 -11.21245 -11.20960  -6.80228  -3.90993
 Alpha  occ. eigenvalues --   -3.90970  -3.90925  -1.13762  -1.08762  -1.00756
 Alpha  occ. eigenvalues --   -1.00539  -0.93952  -0.92279  -0.92225  -0.90975
 Alpha  occ. eigenvalues --   -0.82407  -0.81915  -0.73417  -0.70990  -0.65347
 Alpha  occ. eigenvalues --   -0.62794  -0.62284  -0.61413  -0.61231  -0.59038
 Alpha  occ. eigenvalues --   -0.58895  -0.56657  -0.55215  -0.55039  -0.54175
 Alpha  occ. eigenvalues --   -0.53265  -0.51130  -0.51038  -0.50351  -0.49394
 Alpha  occ. eigenvalues --   -0.47778  -0.46414  -0.45581  -0.44038  -0.43049
 Alpha  occ. eigenvalues --   -0.41140  -0.33912  -0.33489
 Alpha virt. eigenvalues --    0.02995   0.03796   0.03936   0.04312   0.05081
 Alpha virt. eigenvalues --    0.05257   0.05731   0.06178   0.06185   0.06926
 Alpha virt. eigenvalues --    0.07139   0.07741   0.08201   0.08435   0.08832

 Mulliken charges:
               1
     1  Si   0.494515
     2  H    0.179850
     3  C    1.149417
     4  C    0.548040
     5  C   -0.283645
     6  H   -0.322953
     7  H   -0.389407
     8  H   -0.176988
     9  C    0.545956
    10  C    0.451091
    11  C    0.924145
    12  C    0.557201
    13  C    0.527143
    14  H   -0.736739
    15  H   -0.790016
    16  H   -0.481157
    17  H   -0.463093
    18  H   -0.472696
    19  C   -4.422796
    20  H   -0.286514
    21  H   -0.193783
    22  C    1.233592
    23  H   -0.041717
    24  H   -0.010529
    25  H   -0.104290
    26  C    1.317439
    27  H   -0.035857
    28  H   -0.096158
    29  H   -0.039385
    30  C    1.480566
    31  H    0.004077
    32  H   -0.020220
    33  H   -0.045087
 Sum of Mulliken charges =  -0.00000

 Dipole moment (field-independent basis, Debye):
    X=             -0.0829    Y=             -0.1333    Z=             -0.4774  Tot=              0.5025

 Test job not archived.
 1\1\GINC-SE457\SP\RHF\Aug-CC-pVDZ\C12H20Si1\OHZDE\08-Apr-2025\0\\#t hf
  aug-cc-pvdz iop(5/13=1,5/36=2,99/5=2) pseudo=read geom=check guess=(r
 ead,tcheck) scf=(maxcycle=1)\\title\\0,1\Si,0,0.237616,1.304496,0.3288
 77\H,0,0.496007,1.386963,1.790127\C,0,1.707636,0.539834,-0.597263\C,0,
 -0.018077,3.048505,-0.339043\C,0,-1.35156,0.308908,0.125451\H,0,0.8684
 18,3.667784,-0.172066\H,0,-0.866946,3.532699,0.151169\H,0,-0.219097,3.
 035481,-1.414735\C,0,-1.847521,-0.029652,-1.144812\C,0,-3.035908,-0.74
 02,-1.293758\C,0,-3.760475,-1.130404,-0.168514\C,0,-3.290242,-0.805048

 Normal termination of Gaussian 16 at Tue Apr  8 23:18:30 2025.
