 Gaussian 16, Revision C.01,

 ----------------------------------------------------------------------
 #t hf aug-cc-pvdz symm=none int=(grid=ultrafine) guess=(read,tcheck) s
 table=(opt,rrhf)
 ----------------------------------------------------------------------
 -----
 title
 -----
 Symbolic Z-matrix:
 Charge =  0 Multiplicity = 1

 SCF Done:  E(RHF) =  -689.164380149     A.U. after   14 cycles

 1\1\GINC-SE455\Stability\RHF\Aug-CC-pVDZ\C9H13P1\OHZDE\08-Apr-2025\0\\
 #t hf aug-cc-pvdz symm=none int=(grid=ultrafine) guess=(read,tcheck) s
 table=(opt,rrhf)\\title\\0,1\C,0,0.557433,-0.000001,0.691956\C,0,1.206
 846,-1.200726,0.37497\C,0,1.206845,1.200724,0.374972\C,0,2.45464,1.202
 625,-0.243627\C,0,3.083434,0.,-0.558583\C,0,2.454641,-1.202626,-0.2436
 28\H,0,4.056269,0.000001,-1.036835\H,0,2.939103,-2.145352,-0.473424\H,
 0,0.734218,-2.144259,0.627639\H,0,0.734217,2.144257,0.627643\H,0,2.939
 102,2.145352,-0.473421\C,0,-0.797096,-0.000002,1.347638\P,0,-2.337267,

 Normal termination of Gaussian 16 at Tue Apr  8 23:26:56 2025.
 Gaussian 16:  ES64L-G16RevC.01  3-Jul-2019

 ----------------------------------------------------------------------
 #t hf aug-cc-pvdz iop(5/13=1,5/36=2,99/5=2) pseudo=read geom=check gue
 ss=(read,tcheck) scf=(maxcycle=1)
 ----------------------------------------------------------------------
 -----
 title
 -----
 Structure from the checkpoint file:  "BDE49_nonexpt_1303_mol1.chk"
 Charge =  0 Multiplicity = 1

                         Standard orientation:
 ---------------------------------------------------------------------
 Center     Atomic      Atomic             Coordinates (Angstroms)
 Number     Number       Type             X           Y           Z
 ---------------------------------------------------------------------
      1          6           0       -0.557433    0.000001    0.691956
      2          6           0       -1.206846    1.200726    0.374970
      3          6           0       -1.206845   -1.200724    0.374972
      4          6           0       -2.454640   -1.202625   -0.243627
      5          6           0       -3.083434   -0.000000   -0.558583
      6          6           0       -2.454641    1.202626   -0.243628
      7          1           0       -4.056269   -0.000001   -1.036835
      8          1           0       -2.939103    2.145352   -0.473424
      9          1           0       -0.734218    2.144259    0.627639
     10          1           0       -0.734217   -2.144257    0.627643
     11          1           0       -2.939102   -2.145352   -0.473421
     12          6           0        0.797096    0.000002    1.347638
     13         15           0        2.337267   -0.000002    0.251806
     14          1           0        0.910261   -0.875296    1.994497
     15          1           0        0.910262    0.875303    1.994494
     16          6           0        1.988955    1.416816   -0.894211
     17          6           0        1.988948   -1.416817   -0.894211
     18          1           0        2.041423    2.357987   -0.341059
     19          1           0        1.015730    1.345624   -1.386132
     20          1           0        2.771072    1.440241   -1.657481
     21          1           0        2.041411   -2.357988   -0.341058
     22          1           0        2.771065   -1.440247   -1.657480
     23          1           0        1.015724   -1.345622   -1.386131
 ---------------------------------------------------------------------

 SCF Done:  E(RHF) =  -689.292827160     A.U. after    2 cycles

 The electronic state is 1-A.
 Alpha  occ. eigenvalues --  -81.24733 -11.25494 -11.24663 -11.24649 -11.24278
 Alpha  occ. eigenvalues --  -11.24255 -11.24251 -11.24235 -11.22823 -11.22822
 Alpha  occ. eigenvalues --   -7.74922  -4.88919  -4.88902  -4.88558  -1.14630
 Alpha  occ. eigenvalues --   -1.04472  -1.01001  -0.97780  -0.92859  -0.92704
 Alpha  occ. eigenvalues --   -0.83011  -0.80531  -0.70732  -0.67728  -0.64480
 Alpha  occ. eigenvalues --   -0.63910  -0.59545  -0.59174  -0.58261  -0.57190
 Alpha  occ. eigenvalues --   -0.56798  -0.55125  -0.53836  -0.51244  -0.49880
 Alpha  occ. eigenvalues --   -0.49215  -0.45091  -0.44966  -0.34159  -0.33653
 Alpha  occ. eigenvalues --   -0.30876
 Alpha virt. eigenvalues --    0.03295   0.03967   0.04128   0.04631   0.05445
 Alpha virt. eigenvalues --    0.05623   0.06422   0.06967   0.07466   0.07920
 Alpha virt. eigenvalues --    0.08232   0.08760   0.09390   0.09770   0.11161

 Mulliken charges:
               1
     1  C    0.394889
     2  C    0.794056
     3  C    0.794049
     4  C    0.105052
     5  C    0.757618
     6  C    0.105055
     7  H   -0.439981
     8  H   -0.462930
     9  H   -0.687163
    10  H   -0.687161
    11  H   -0.462930
    12  C   -0.027888
    13  P    0.465552
    14  H   -0.190015
    15  H   -0.190014
    16  C    0.403855
    17  C    0.403860
    18  H   -0.175749
    19  H   -0.157031
    20  H   -0.205170
    21  H   -0.175747
    22  H   -0.205172
    23  H   -0.157035
 Sum of Mulliken charges =   0.00000

 Dipole moment (field-independent basis, Debye):
    X=             -0.8602    Y=              0.0000    Z=             -0.6420  Tot=              1.0733

 Test job not archived.
 1\1\GINC-SE455\SP\RHF\Aug-CC-pVDZ\C9H13P1\OHZDE\08-Apr-2025\0\\#t hf a
 ug-cc-pvdz iop(5/13=1,5/36=2,99/5=2) pseudo=read geom=check guess=(rea
 d,tcheck) scf=(maxcycle=1)\\title\\0,1\C,0,0.557433,-0.000001,0.691956
 \C,0,1.206846,-1.200726,0.37497\C,0,1.206845,1.200724,0.374972\C,0,2.4
 5464,1.202625,-0.243627\C,0,3.083434,0.,-0.558583\C,0,2.454641,-1.2026
 26,-0.243628\H,0,4.056269,0.000001,-1.036835\H,0,2.939103,-2.145352,-0
 .473424\H,0,0.734218,-2.144259,0.627639\H,0,0.734217,2.144257,0.627643
 \H,0,2.939102,2.145352,-0.473421\C,0,-0.797096,-0.000002,1.347638\P,0,

 Normal termination of Gaussian 16 at Tue Apr  8 23:27:11 2025.
