 Gaussian 16, Revision C.01,

 ----------------------------------------------------------------------
 #t hf aug-cc-pvdz symm=none int=(grid=ultrafine) guess=(read,tcheck) s
 table=(opt,rrhf)
 ----------------------------------------------------------------------
 -----
 title
 -----
 Symbolic Z-matrix:
 Charge =  0 Multiplicity = 1

 SCF Done:  E(RHF) =  -420.553762887     A.U. after   11 cycles
 Normal termination of Gaussian 16 at Tue Apr  8 23:24:56 2025.
 Gaussian 16:  ES64L-G16RevC.01  3-Jul-2019

 ----------------------------------------------------------------------
 #t hf aug-cc-pvdz iop(5/13=1,5/36=2,99/5=2) pseudo=read geom=check gue
 ss=(read,tcheck) scf=(maxcycle=1)
 ----------------------------------------------------------------------
 -----
 title
 -----
 Structure from the checkpoint file:  "BDE49_nonexpt_1301_mol1.chk"
 Charge =  0 Multiplicity = 1

                         Standard orientation:
 ---------------------------------------------------------------------
 Center     Atomic      Atomic             Coordinates (Angstroms)
 Number     Number       Type             X           Y           Z
 ---------------------------------------------------------------------
      1         15           0        0.037772   -0.664218    0.000000
      2          6           0        0.037772    0.527759    1.430724
      3          1           0       -0.700979    1.325796    1.326418
      4          1           0        1.030521    0.976036    1.519965
      5          1           0       -0.160887   -0.020774    2.354443
      6          6           0        0.037772    0.527759   -1.430724
      7          1           0       -1.357167   -0.931945   -0.000000
      8          1           0        1.030521    0.976036   -1.519965
      9          1           0       -0.700979    1.325796   -1.326418
     10          1           0       -0.160887   -0.020774   -2.354443
 ---------------------------------------------------------------------

 SCF Done:  E(RHF) =  -420.605096023     A.U. after    2 cycles

 The electronic state is 1-A'.
 Alpha  occ. eigenvalues --  -81.24799 -11.23456 -11.23455  -7.75074  -4.89028
 Alpha  occ. eigenvalues --   -4.89015  -4.88683  -0.97825  -0.93162  -0.71782
 Alpha  occ. eigenvalues --   -0.59086  -0.58481  -0.55763  -0.55513  -0.46966
 Alpha  occ. eigenvalues --   -0.45795  -0.33155
 Alpha virt. eigenvalues --    0.03603   0.04625   0.05131   0.05779   0.07439
 Alpha virt. eigenvalues --    0.07524   0.07936   0.09829   0.11637   0.11898
 Alpha virt. eigenvalues --    0.15134   0.15948   0.16366   0.17064   0.17330

 Mulliken charges:
               1
     1  P    0.312125
     2  C    0.193836
     3  H   -0.162253
     4  H   -0.099847
     5  H   -0.164513
     6  C    0.193836
     7  H    0.153429
     8  H   -0.099847
     9  H   -0.162253
    10  H   -0.164513
 Sum of Mulliken charges =   0.00000

 Dipole moment (field-independent basis, Debye):
    X=             -0.4310    Y=              1.2240    Z=             -0.0000  Tot=              1.2976

 Test job not archived.
 1\1\GINC-SE344\SP\RHF\Aug-CC-pVDZ\C2H7P1\OHZDE\08-Apr-2025\0\\#t hf au
 g-cc-pvdz iop(5/13=1,5/36=2,99/5=2) pseudo=read geom=check guess=(read
 ,tcheck) scf=(maxcycle=1)\\title\\0,1\P,0,0.037772,-0.664218,0.\C,0,0.
 037772,0.527759,1.430724\H,0,-0.700979,1.325796,1.326418\H,0,1.030521,
 0.976036,1.519965\H,0,-0.160887,-0.020774,2.354443\C,0,0.037772,0.5277
 59,-1.430724\H,0,-1.357167,-0.931945,0.\H,0,1.030521,0.976036,-1.51996
 5\H,0,-0.700979,1.325796,-1.326418\H,0,-0.160887,-0.020774,-2.354443\\
 Version=ES64L-G16RevC.01\State=1-A'\HF=-420.605096\RMSD=8.408e-03\Dipo

 Normal termination of Gaussian 16 at Tue Apr  8 23:24:59 2025.
