 Gaussian 16, Revision C.01,

 ----------------------------------------------------------------------
 #t hf aug-cc-pvdz symm=none int=(grid=ultrafine) guess=(read,tcheck) s
 table=(opt,rrhf)
 ----------------------------------------------------------------------
 -----
 title
 -----
 Symbolic Z-matrix:
 Charge =  0 Multiplicity = 1

 SCF Done:  E(RHF) =  -1146.98674581     A.U. after   16 cycles
 Normal termination of Gaussian 16 at Wed Apr  9 00:20:30 2025.
 Gaussian 16:  ES64L-G16RevC.01  3-Jul-2019

 ----------------------------------------------------------------------
 #t hf aug-cc-pvdz iop(5/13=1,5/36=2,99/5=2) pseudo=read geom=check gue
 ss=(read,tcheck) scf=(maxcycle=1)
 ----------------------------------------------------------------------
 -----
 title
 -----
 Structure from the checkpoint file:  "BDE49_nonexpt_2634_mol1.chk"
 Charge =  0 Multiplicity = 1

                         Standard orientation:
 ---------------------------------------------------------------------
 Center     Atomic      Atomic             Coordinates (Angstroms)
 Number     Number       Type             X           Y           Z
 ---------------------------------------------------------------------
      1          9           0        2.500059   -0.231018   -0.209858
      2         16           0        1.215859   -1.252384   -0.431857
      3          6           0       -0.068265   -0.068017   -0.026841
      4          7           0       -1.322611   -0.916228    0.162258
      5          8           0       -2.237822   -0.463658    0.794795
      6          8           0       -1.241638   -2.009972   -0.381148
      7          7           0        0.153535    0.735263    1.306022
      8          8           0        0.657043    0.105187    2.203356
      9          8           0       -0.250313    1.872659    1.304964
     10          7           0       -0.331138    0.972145   -1.150593
     11          8           0       -1.425610    0.948262   -1.666481
     12          8           0        0.617940    1.670916   -1.413525
 ---------------------------------------------------------------------

 SCF Done:  E(RHF) =  -1147.24086271     A.U. after    2 cycles

 The electronic state is 1-A.
 Alpha  occ. eigenvalues --  -93.71591 -26.19269 -20.71173 -20.70126 -20.69394
 Alpha  occ. eigenvalues --  -20.69221 -20.69129 -20.68790 -16.00918 -15.99937
 Alpha  occ. eigenvalues --  -15.99622 -11.52859  -9.00252  -6.34417  -6.34137
 Alpha  occ. eigenvalues --   -6.33563  -1.70575  -1.65112  -1.62916  -1.62200
 Alpha  occ. eigenvalues --   -1.46352  -1.45387  -1.44870  -1.24573  -1.04898
 Alpha  occ. eigenvalues --   -1.02613  -1.01246  -0.89529  -0.87670  -0.87199
 Alpha  occ. eigenvalues --   -0.83859  -0.81446  -0.80693  -0.80284  -0.80057
 Alpha  occ. eigenvalues --   -0.79084  -0.78618  -0.78029  -0.75625  -0.66494
 Alpha  occ. eigenvalues --   -0.60462  -0.60459  -0.59665  -0.57419  -0.56730
 Alpha  occ. eigenvalues --   -0.56380  -0.55245  -0.53899  -0.52987  -0.46174
 Alpha virt. eigenvalues --   -0.01046   0.00530   0.01381   0.03365   0.05165
 Alpha virt. eigenvalues --    0.08185   0.08912   0.09886   0.10439   0.11417
 Alpha virt. eigenvalues --    0.11641   0.13475   0.14250   0.14990   0.16172

 Mulliken charges:
               1
     1  F   -0.645562
     2  S    1.042162
     3  C    1.927162
     4  N    0.309849
     5  O   -0.486686
     6  O   -0.548540
     7  N    0.208950
     8  O   -0.527354
     9  O   -0.496106
    10  N    0.261606
    11  O   -0.519593
    12  O   -0.525887
 Sum of Mulliken charges =  -0.00000

 Dipole moment (field-independent basis, Debye):
    X=              0.8024    Y=             -2.4746    Z=             -0.5903  Tot=              2.6676

 Test job not archived.
 1\1\GINC-SE435\SP\RHF\Aug-CC-pVDZ\C1F1N3O6S1\OHZDE\09-Apr-2025\0\\#t h
 f aug-cc-pvdz iop(5/13=1,5/36=2,99/5=2) pseudo=read geom=check guess=(
 read,tcheck) scf=(maxcycle=1)\\title\\0,1\F,0,2.500059,-0.231018,-0.20
 9858\S,0,1.215859,-1.252384,-0.431857\C,0,-0.068265,-0.068017,-0.02684
 1\N,0,-1.322611,-0.916228,0.162258\O,0,-2.237822,-0.463658,0.794795\O,
 0,-1.241638,-2.009972,-0.381148\N,0,0.153535,0.735263,1.306022\O,0,0.6
 57043,0.105187,2.203356\O,0,-0.250313,1.872659,1.304964\N,0,-0.331138,
 0.972145,-1.150593\O,0,-1.42561,0.948262,-1.666481\O,0,0.61794,1.67091

 Normal termination of Gaussian 16 at Wed Apr  9 00:20:39 2025.
