 Gaussian 16, Revision C.01,

 ----------------------------------------------------------------------
 #t hf aug-cc-pvdz symm=none int=(grid=ultrafine) guess=(read,tcheck) s
 table=(opt,rrhf)
 ----------------------------------------------------------------------
 -----
 title
 -----
 Symbolic Z-matrix:
 Charge =  0 Multiplicity = 1

 SCF Done:  E(RHF) =  -1075.16874798     A.U. after   12 cycles

 1\1\GINC-SE364\Stability\RHF\Aug-CC-pVDZ\C4H8Cl2\OHZDE\08-Apr-2025\0\\
 #t hf aug-cc-pvdz symm=none int=(grid=ultrafine) guess=(read,tcheck) s
 table=(opt,rrhf)\\title\\0,1\C,0,0.21467,1.556059,-0.197546\Cl,0,2.029
 181,1.624583,-0.388554\H,0,-0.106322,2.591473,-0.103385\H,0,-0.165631,
 1.154802,-1.135416\C,0,-0.21467,0.736338,1.009526\C,0,0.21467,-0.73633
 8,1.009526\H,0,-1.308148,0.796634,1.054232\H,0,0.165046,1.211733,1.918
 111\C,0,-0.21467,-1.556059,-0.197546\H,0,-0.165046,-1.211733,1.918111\
 H,0,1.308148,-0.796634,1.054232\Cl,0,-2.029181,-1.624583,-0.388554\H,0

 Normal termination of Gaussian 16 at Tue Apr  8 22:29:45 2025.
 Gaussian 16:  ES64L-G16RevC.01  3-Jul-2019

 ----------------------------------------------------------------------
 #t hf aug-cc-pvdz iop(5/13=1,5/36=2,99/5=2) pseudo=read geom=check gue
 ss=(read,tcheck) scf=(maxcycle=1)
 ----------------------------------------------------------------------
 -----
 title
 -----
 Structure from the checkpoint file:  "BDE49_expt_1032_mol1.chk"
 Charge =  0 Multiplicity = 1

                         Standard orientation:
 ---------------------------------------------------------------------
 Center     Atomic      Atomic             Coordinates (Angstroms)
 Number     Number       Type             X           Y           Z
 ---------------------------------------------------------------------
      1          6           0        0.214670    1.556059   -0.197546
      2         17           0        2.029181    1.624583   -0.388554
      3          1           0       -0.106322    2.591473   -0.103385
      4          1           0       -0.165631    1.154802   -1.135416
      5          6           0       -0.214670    0.736338    1.009526
      6          6           0        0.214670   -0.736338    1.009526
      7          1           0       -1.308148    0.796634    1.054232
      8          1           0        0.165046    1.211733    1.918111
      9          6           0       -0.214670   -1.556059   -0.197546
     10          1           0       -0.165046   -1.211733    1.918111
     11          1           0        1.308148   -0.796634    1.054232
     12         17           0       -2.029181   -1.624583   -0.388554
     13          1           0        0.106322   -2.591473   -0.103385
     14          1           0        0.165631   -1.154802   -1.135416
 ---------------------------------------------------------------------

 SCF Done:  E(RHF) =  -1075.25356600     A.U. after    2 cycles

 The electronic state is 1-A.
 Alpha  occ. eigenvalues -- -103.65055-103.65055 -11.31178 -11.31177 -11.25741
 Alpha  occ. eigenvalues --  -11.25688 -10.68329 -10.68329  -8.34043  -8.34041
 Alpha  occ. eigenvalues --   -8.33770  -8.33770  -8.33762  -8.33760  -1.16998
 Alpha  occ. eigenvalues --   -1.15715  -1.06318  -0.97735  -0.88459  -0.79532
 Alpha  occ. eigenvalues --   -0.68111  -0.66238  -0.61303  -0.60229  -0.58765
 Alpha  occ. eigenvalues --   -0.53459  -0.52034  -0.51758  -0.49153  -0.45424
 Alpha  occ. eigenvalues --   -0.45163  -0.44464  -0.44364
 Alpha virt. eigenvalues --    0.03544   0.04048   0.04675   0.05678   0.06504
 Alpha virt. eigenvalues --    0.06716   0.07383   0.08600   0.09401   0.10326
 Alpha virt. eigenvalues --    0.13932   0.14268   0.14480   0.14545   0.14801

 Mulliken charges:
               1
     1  C    0.034180
     2  Cl  -0.167245
     3  H    0.010278
     4  H    0.030415
     5  C    0.164476
     6  C    0.164476
     7  H   -0.018650
     8  H   -0.053454
     9  C    0.034180
    10  H   -0.053454
    11  H   -0.018650
    12  Cl  -0.167245
    13  H    0.010278
    14  H    0.030415
 Sum of Mulliken charges =  -0.00000

 Dipole moment (field-independent basis, Debye):
    X=              0.0000    Y=              0.0000    Z=              0.9466  Tot=              0.9466

 Test job not archived.
 1\1\GINC-SE364\SP\RHF\Aug-CC-pVDZ\C4H8Cl2\OHZDE\08-Apr-2025\0\\#t hf a
 ug-cc-pvdz iop(5/13=1,5/36=2,99/5=2) pseudo=read geom=check guess=(rea
 d,tcheck) scf=(maxcycle=1)\\title\\0,1\C,0,0.21467,1.556059,-0.197546\
 Cl,0,2.029181,1.624583,-0.388554\H,0,-0.106322,2.591473,-0.103385\H,0,
 -0.165631,1.154802,-1.135416\C,0,-0.21467,0.736338,1.009526\C,0,0.2146
 7,-0.736338,1.009526\H,0,-1.308148,0.796634,1.054232\H,0,0.165046,1.21
 1733,1.918111\C,0,-0.21467,-1.556059,-0.197546\H,0,-0.165046,-1.211733
 ,1.918111\H,0,1.308148,-0.796634,1.054232\Cl,0,-2.029181,-1.624583,-0.

 Normal termination of Gaussian 16 at Tue Apr  8 22:29:48 2025.
