 Gaussian 16, Revision C.01,

 ----------------------------------------------------------------------
 #t hf aug-cc-pvdz symm=none int=(grid=ultrafine) guess=(read,tcheck) s
 table=(opt,rrhf)
 ----------------------------------------------------------------------
 -----
 title
 -----
 Symbolic Z-matrix:
 Charge =  0 Multiplicity = 1

 SCF Done:  E(RHF) =  -524.439852892     A.U. after   13 cycles
 Normal termination of Gaussian 16 at Tue Apr  8 22:32:24 2025.
 Gaussian 16:  ES64L-G16RevC.01  3-Jul-2019

 ----------------------------------------------------------------------
 #t hf aug-cc-pvdz iop(5/13=1,5/36=2,99/5=2) pseudo=read geom=check gue
 ss=(read,tcheck) scf=(maxcycle=1)
 ----------------------------------------------------------------------
 -----
 title
 -----
 Structure from the checkpoint file:  "BDE49_expt_1108_mol1.chk"
 Charge =  0 Multiplicity = 1

                         Standard orientation:
 ---------------------------------------------------------------------
 Center     Atomic      Atomic             Coordinates (Angstroms)
 Number     Number       Type             X           Y           Z
 ---------------------------------------------------------------------
      1          6           0        0.578598   -0.012509   -0.000039
      2          6           0       -0.970410   -0.156707   -0.000878
      3          8           0       -1.478047   -1.233200    0.000008
      4          8           0       -1.647812    0.997774   -0.000012
      5          1           0       -1.036353    1.747763    0.000080
      6          9           0        0.951516    1.297994    0.000301
      7          9           0        1.102233   -0.584917   -1.085229
      8          9           0        1.101151   -0.585195    1.085534
 ---------------------------------------------------------------------

 SCF Done:  E(RHF) =  -524.622533648     A.U. after    2 cycles

 The electronic state is 1-A.
 Alpha  occ. eigenvalues --  -26.21063 -26.20280 -26.20270 -20.67254 -20.61374
 Alpha  occ. eigenvalues --  -11.57295 -11.45619  -1.80123  -1.73162  -1.72953
 Alpha  occ. eigenvalues --   -1.47230  -1.38738  -1.08953  -0.95348  -0.91951
 Alpha  occ. eigenvalues --   -0.91842  -0.88887  -0.81265  -0.81072  -0.76862
 Alpha  occ. eigenvalues --   -0.76816  -0.75798  -0.75431  -0.71890  -0.68584
 Alpha  occ. eigenvalues --   -0.64376  -0.54394  -0.52395
 Alpha virt. eigenvalues --    0.03172   0.07424   0.07946   0.08802   0.10677
 Alpha virt. eigenvalues --    0.11135   0.11769   0.11992   0.12802   0.18487
 Alpha virt. eigenvalues --    0.19268   0.20111   0.23702   0.24541   0.25989

 Mulliken charges:
               1
     1  C    1.007168
     2  C    0.424800
     3  O   -0.352227
     4  O   -0.429908
     5  H    0.225005
     6  F   -0.323957
     7  F   -0.275447
     8  F   -0.275434
 Sum of Mulliken charges =  -0.00000

 Dipole moment (field-independent basis, Debye):
    X=              0.8931    Y=              2.9663    Z=             -0.0026  Tot=              3.0979

 Test job not archived.
 1\1\GINC-SE072\SP\RHF\Aug-CC-pVDZ\C2H1F3O2\OHZDE\08-Apr-2025\0\\#t hf
 aug-cc-pvdz iop(5/13=1,5/36=2,99/5=2) pseudo=read geom=check guess=(re
 ad,tcheck) scf=(maxcycle=1)\\title\\0,1\C,0,0.578598,-0.012509,-0.0000
 39\C,0,-0.97041,-0.156707,-0.000878\O,0,-1.478047,-1.2332,0.000008\O,0
 ,-1.647812,0.997774,-0.000012\H,0,-1.036353,1.747763,0.00008\F,0,0.951
 516,1.297994,0.000301\F,0,1.102233,-0.584917,-1.085229\F,0,1.101151,-0
 .585195,1.085534\\Version=ES64L-G16RevC.01\State=1-A\HF=-524.6225336\R
 MSD=5.996e-03\Dipole=0.3513647,1.1670426,-0.0010352\Quadrupole=-3.0802

 Normal termination of Gaussian 16 at Tue Apr  8 22:32:27 2025.
