 Gaussian 16, Revision C.01,

 ----------------------------------------------------------------------
 #t hf aug-cc-pvdz symm=none int=(grid=ultrafine) guess=(read,tcheck) s
 table=(opt,rrhf)
 ----------------------------------------------------------------------
 -----
 title
 -----
 Symbolic Z-matrix:
 Charge =  0 Multiplicity = 1

 SCF Done:  E(RHF) =  -1193.76553956     A.U. after   12 cycles
 Normal termination of Gaussian 16 at Tue Apr  8 23:11:44 2025.
 Gaussian 16:  ES64L-G16RevC.01  3-Jul-2019

 ----------------------------------------------------------------------
 #t hf aug-cc-pvdz iop(5/13=1,5/36=2,99/5=2) pseudo=read geom=check gue
 ss=(read,tcheck) scf=(maxcycle=1)
 ----------------------------------------------------------------------
 -----
 title
 -----
 Structure from the checkpoint file:  "BDE49_expt_845_mol1.chk"
 Charge =  0 Multiplicity = 1

                         Standard orientation:
 ---------------------------------------------------------------------
 Center     Atomic      Atomic             Coordinates (Angstroms)
 Number     Number       Type             X           Y           Z
 ---------------------------------------------------------------------
      1         16           0       -0.000000    1.697366   -0.386156
      2         16           0        0.000000    0.000000    0.842569
      3          1           0       -1.332044    1.805597   -0.562052
      4         16           0       -0.000000   -1.697366   -0.386156
      5          1           0        1.332044   -1.805597   -0.562052
 ---------------------------------------------------------------------

 SCF Done:  E(RHF) =  -1193.82738584     A.U. after    2 cycles

 The electronic state is 1-A.
 Alpha  occ. eigenvalues --  -93.59935 -93.57781 -93.57781  -8.89293  -8.87410
 Alpha  occ. eigenvalues --   -8.87395  -6.23338  -6.23063  -6.22707  -6.21514
 Alpha  occ. eigenvalues --   -6.21465  -6.21275  -6.21259  -6.20921  -6.20900
 Alpha  occ. eigenvalues --   -1.06709  -0.96960  -0.82922  -0.60470  -0.55125
 Alpha  occ. eigenvalues --   -0.51343  -0.49122  -0.38682  -0.38609  -0.38049
 Alpha virt. eigenvalues --    0.03789   0.04821   0.05131   0.07824   0.10985
 Alpha virt. eigenvalues --    0.11476   0.12151   0.12476   0.13088   0.14343
 Alpha virt. eigenvalues --    0.15022   0.15394   0.18056   0.19252   0.19542

 Mulliken charges:
               1
     1  S   -0.083682
     2  S   -0.128390
     3  H    0.147877
     4  S   -0.083682
     5  H    0.147877
 Sum of Mulliken charges =  -0.00000

 Dipole moment (field-independent basis, Debye):
    X=             -0.0000    Y=              0.0000    Z=             -0.6231  Tot=              0.6231

 Test job not archived.
 1\1\GINC-SE367\SP\RHF\Aug-CC-pVDZ\H2S3\OHZDE\08-Apr-2025\0\\#t hf aug-
 cc-pvdz iop(5/13=1,5/36=2,99/5=2) pseudo=read geom=check guess=(read,t
 check) scf=(maxcycle=1)\\title\\0,1\S,0,0.,1.697366,-0.386156\S,0,0.,0
 .,0.842569\H,0,-1.332044,1.805597,-0.562052\S,0,0.,-1.697366,-0.386156
 \H,0,1.332044,-1.805597,-0.562052\\Version=ES64L-G16RevC.01\State=1-A\
 HF=-1193.8273858\RMSD=7.113e-03\Dipole=0.,0.,-0.2451594\Quadrupole=1.5
 006805,0.2451677,-1.7458482,-2.9492669,0.,0.\PG=C02 [C2(S1),X(H2S2)]\\
 @

 Normal termination of Gaussian 16 at Tue Apr  8 23:11:45 2025.
