 Gaussian 16, Revision C.01,

 ----------------------------------------------------------------------
 #t hf aug-cc-pvdz symm=none int=(grid=ultrafine) guess=(read,tcheck) s
 table=(opt,rrhf)
 ----------------------------------------------------------------------
 -----
 title
 -----
 Symbolic Z-matrix:
 Charge =  0 Multiplicity = 1

 SCF Done:  E(RHF) =  -1140.19991367     A.U. after   14 cycles
 Normal termination of Gaussian 16 at Tue Apr  8 23:23:08 2025.
 Gaussian 16:  ES64L-G16RevC.01  3-Jul-2019

 ----------------------------------------------------------------------
 #t hf aug-cc-pvdz iop(5/13=1,5/36=2,99/5=2) pseudo=read geom=check gue
 ss=(read,tcheck) scf=(maxcycle=1)
 ----------------------------------------------------------------------
 -----
 title
 -----
 Structure from the checkpoint file:  "BDE49_nonexpt_1238_mol1.chk"
 Charge =  0 Multiplicity = 1

                         Standard orientation:
 ---------------------------------------------------------------------
 Center     Atomic      Atomic             Coordinates (Angstroms)
 Number     Number       Type             X           Y           Z
 ---------------------------------------------------------------------
      1         17           0       -2.920231   -0.585311   -0.208353
      2          8           0        2.306084   -2.277652    0.192534
      3         15           0       -1.439339    0.707224    0.612786
      4          7           0        0.490765   -1.039578   -0.517196
      5          7           0        1.116327    1.060881    0.160150
      6          6           0        0.032335    0.324795   -0.505154
      7          6           0        1.738273   -1.225729    0.017179
      8          6           0        2.272120    0.174520    0.311814
      9          6           0        1.399007    2.379266   -0.388776
     10          1           0       -0.115890   -1.816579   -0.733558
     11          1           0        2.701401    0.213893    1.315399
     12          1           0        3.071637    0.398666   -0.411084
     13          1           0        2.094465    2.905025    0.268071
     14          1           0        1.839157    2.330545   -1.398848
     15          1           0        0.480934    2.968181   -0.436139
     16          1           0       -1.009632   -0.191741    1.616932
     17          1           0       -0.176782    0.688920   -1.521876
 ---------------------------------------------------------------------

 SCF Done:  E(RHF) =  -1140.34158879     A.U. after    2 cycles

 The electronic state is 1-A.
 Alpha  occ. eigenvalues -- -103.66040 -81.32236 -20.55146 -15.66942 -15.65786
 Alpha  occ. eigenvalues --  -11.38037 -11.34719 -11.29646 -11.28840 -10.69338
 Alpha  occ. eigenvalues --   -8.35036  -8.34776  -8.34760  -7.82163  -4.96072
 Alpha  occ. eigenvalues --   -4.95919  -4.95661  -1.36663  -1.28300  -1.17575
 Alpha  occ. eigenvalues --   -1.13823  -1.02249  -0.97280  -0.84917  -0.82326
 Alpha  occ. eigenvalues --   -0.79011  -0.72292  -0.68840  -0.65159  -0.64604
 Alpha  occ. eigenvalues --   -0.62286  -0.60588  -0.59241  -0.57808  -0.55386
 Alpha  occ. eigenvalues --   -0.54279  -0.53020  -0.49621  -0.46996  -0.44907
 Alpha  occ. eigenvalues --   -0.42727  -0.39220  -0.35884
 Alpha virt. eigenvalues --    0.02676   0.03483   0.04358   0.04562   0.06426
 Alpha virt. eigenvalues --    0.06672   0.07397   0.07560   0.07755   0.08814
 Alpha virt. eigenvalues --    0.10777   0.11435   0.11718   0.12611   0.13697

 Mulliken charges:
               1
     1  Cl  -0.515664
     2  O   -0.501629
     3  P    0.416664
     4  N   -0.506438
     5  N   -0.753955
     6  C    1.085407
     7  C    0.299121
     8  C    0.603249
     9  C    0.654191
    10  H   -0.118664
    11  H   -0.139697
    12  H   -0.041052
    13  H   -0.194277
    14  H   -0.044545
    15  H   -0.211545
    16  H    0.265896
    17  H   -0.297061
 Sum of Mulliken charges =  -0.00000

 Dipole moment (field-independent basis, Debye):
    X=              0.5167    Y=              4.2116    Z=             -0.8385  Tot=              4.3253

 Test job not archived.
 1\1\GINC-SE344\SP\RHF\Aug-CC-pVDZ\C4H8Cl1N2O1P1\OHZDE\08-Apr-2025\0\\#
 t hf aug-cc-pvdz iop(5/13=1,5/36=2,99/5=2) pseudo=read geom=check gues
 s=(read,tcheck) scf=(maxcycle=1)\\title\\0,1\Cl,0,-2.920231,-0.585311,
 -0.208353\O,0,2.306084,-2.277652,0.192534\P,0,-1.439339,0.707224,0.612
 786\N,0,0.490765,-1.039578,-0.517196\N,0,1.116327,1.060881,0.16015\C,0
 ,0.032335,0.324795,-0.505154\C,0,1.738273,-1.225729,0.017179\C,0,2.272
 12,0.17452,0.311814\C,0,1.399007,2.379266,-0.388776\H,0,-0.11589,-1.81
 6579,-0.733558\H,0,2.701401,0.213893,1.315399\H,0,3.071637,0.398666,-0

 Normal termination of Gaussian 16 at Tue Apr  8 23:23:17 2025.
