 Gaussian 16, Revision C.01,

 ----------------------------------------------------------------------
 #t hf aug-cc-pvdz symm=none int=(grid=ultrafine) guess=(read,tcheck) s
 table=(opt,rrhf)
 ----------------------------------------------------------------------
 -----
 title
 -----
 Symbolic Z-matrix:
 Charge =  0 Multiplicity = 1

 SCF Done:  E(RHF) =  -1064.83088270     A.U. after   16 cycles
 Normal termination of Gaussian 16 at Tue Apr  8 22:58:45 2025.
 Gaussian 16:  ES64L-G16RevC.01  3-Jul-2019

 ----------------------------------------------------------------------
 #t hf aug-cc-pvdz iop(5/13=1,5/36=2,99/5=2) pseudo=read geom=check gue
 ss=(read,tcheck) scf=(maxcycle=1)
 ----------------------------------------------------------------------
 -----
 title
 -----
 Structure from the checkpoint file:  "BDE49_expt_1960_mol1.chk"
 Charge =  0 Multiplicity = 1

                         Standard orientation:
 ---------------------------------------------------------------------
 Center     Atomic      Atomic             Coordinates (Angstroms)
 Number     Number       Type             X           Y           Z
 ---------------------------------------------------------------------
      1         16           0       -2.356366   -0.531322   -0.397333
      2         16           0       -1.070367   -0.195276    1.216320
      3          6           0       -2.590442    1.142334   -1.093795
      4          1           0       -3.292417    1.025416   -1.923252
      5          1           0       -1.648077    1.536350   -1.473137
      6          1           0       -3.015942    1.812840   -0.348250
      7          6           0        0.560860   -0.088931    0.470409
      8          6           0        1.255847    1.121645    0.539586
      9          6           0        1.165096   -1.206549   -0.114583
     10          6           0        2.449912   -1.105689   -0.636932
     11          6           0        2.550158    1.211791    0.028529
     12          6           0        3.146083    0.101715   -0.563546
     13          1           0        4.150231    0.173977   -0.965585
     14          1           0        2.913809   -1.973253   -1.092608
     15          1           0        0.625527   -2.144649   -0.159023
     16          1           0        0.783113    1.984729    0.993109
     17          1           0        3.086402    2.152269    0.086949
 ---------------------------------------------------------------------

 SCF Done:  E(RHF) =  -1064.95218095     A.U. after    2 cycles

 The electronic state is 1-A.
 Alpha  occ. eigenvalues --  -93.56079 -93.55572 -11.28150 -11.27009 -11.25920
 Alpha  occ. eigenvalues --  -11.25752 -11.25726 -11.25515 -11.25465  -8.85583
 Alpha  occ. eigenvalues --   -8.85109  -6.19749  -6.19492  -6.19226  -6.19166
 Alpha  occ. eigenvalues --   -6.18961  -6.18642  -1.15842  -1.06574  -1.02263
 Alpha  occ. eigenvalues --   -1.02144  -0.94005  -0.84369  -0.83801  -0.78344
 Alpha  occ. eigenvalues --   -0.70607  -0.64510  -0.64144  -0.60369  -0.60124
 Alpha  occ. eigenvalues --   -0.59818  -0.56970  -0.52971  -0.51643  -0.50969
 Alpha  occ. eigenvalues --   -0.48198  -0.44960  -0.37280  -0.35882  -0.35003
 Alpha  occ. eigenvalues --   -0.33265
 Alpha virt. eigenvalues --    0.03266   0.03988   0.04234   0.05044   0.05750
 Alpha virt. eigenvalues --    0.06275   0.07086   0.07418   0.07738   0.09201
 Alpha virt. eigenvalues --    0.09393   0.10193   0.11971   0.12488   0.13069

 Mulliken charges:
               1
     1  S    0.120472
     2  S   -0.103064
     3  C    0.109302
     4  H   -0.064751
     5  H   -0.086385
     6  H   -0.056954
     7  C    0.730714
     8  C    0.101667
     9  C   -0.064025
    10  C    0.634902
    11  C    0.552692
    12  C    0.384986
    13  H   -0.436516
    14  H   -0.438033
    15  H   -0.454069
    16  H   -0.492710
    17  H   -0.438228
 Sum of Mulliken charges =  -0.00000

 Dipole moment (field-independent basis, Debye):
    X=              1.3484    Y=              1.4941    Z=             -1.5335  Tot=              2.5303

 Test job not archived.
 1\1\GINC-SE453\SP\RHF\Aug-CC-pVDZ\C7H8S2\OHZDE\08-Apr-2025\0\\#t hf au
 g-cc-pvdz iop(5/13=1,5/36=2,99/5=2) pseudo=read geom=check guess=(read
 ,tcheck) scf=(maxcycle=1)\\title\\0,1\S,0,-2.356366,0.531322,0.397333\
 S,0,-1.070367,0.195276,-1.21632\C,0,-2.590442,-1.142334,1.093795\H,0,-
 3.292417,-1.025416,1.923252\H,0,-1.648077,-1.53635,1.473137\H,0,-3.015
 942,-1.81284,0.34825\C,0,0.56086,0.088931,-0.470409\C,0,1.255847,-1.12
 1645,-0.539586\C,0,1.165096,1.206549,0.114583\C,0,2.449912,1.105689,0.
 636932\C,0,2.550158,-1.211791,-0.028529\C,0,3.146083,-0.101715,0.56354

 Normal termination of Gaussian 16 at Tue Apr  8 22:58:53 2025.
