 Gaussian 16, Revision C.01,

 ----------------------------------------------------------------------
 #t hf aug-cc-pvdz symm=none int=(grid=ultrafine) guess=(read,tcheck) s
 table=opt
 ----------------------------------------------------------------------
 -----
 title
 -----
 Symbolic Z-matrix:
 Charge =  0 Multiplicity = 2

 SCF Done:  E(UHF) =  -563.921239611     A.U. after   16 cycles
 Normal termination of Gaussian 16 at Tue Apr  8 23:06:47 2025.
 Gaussian 16:  ES64L-G16RevC.01  3-Jul-2019

 ----------------------------------------------------------------------
 #t hf aug-cc-pvdz iop(5/13=1,5/36=2,99/5=2) pseudo=read geom=check gue
 ss=(read,tcheck) scf=(maxcycle=1)
 ----------------------------------------------------------------------
 -----
 title
 -----
 Structure from the checkpoint file:  "BDE49_expt_397_mol2.chk"
 Charge =  0 Multiplicity = 2

                         Standard orientation:
 ---------------------------------------------------------------------
 Center     Atomic      Atomic             Coordinates (Angstroms)
 Number     Number       Type             X           Y           Z
 ---------------------------------------------------------------------
      1          6           0       -1.161714   -0.000000   -0.080179
      2         14           0        0.783228   -0.000000    0.014080
      3          6           0        1.467562    1.536963   -0.837343
      4          1           0        1.172834    1.577724   -1.889422
      5          1           0        2.561679    1.535177   -0.799291
      6          1           0        1.125875    2.457875   -0.356015
      7          6           0        1.357493   -0.000001    1.815143
      8          1           0        1.008899    0.884150    2.356386
      9          1           0        2.451838    0.000000    1.859016
     10          1           0        1.008901   -0.884152    2.356385
     11          6           0        1.467562   -1.536962   -0.837344
     12          1           0        1.172835   -1.577722   -1.889424
     13          1           0        1.125874   -2.457874   -0.356018
     14          1           0        2.561680   -1.535177   -0.799291
     15          6           0       -1.710514    1.263345    0.621209
     16          1           0       -1.413877    1.303402    1.673286
     17          1           0       -2.805750    1.268260    0.584671
     18          1           0       -1.362347    2.180537    0.138122
     19          6           0       -1.514577   -0.000000   -1.521607
     20          1           0       -1.581726    0.927120   -2.079065
     21          1           0       -1.581726   -0.927120   -2.079065
     22          6           0       -1.710514   -1.263345    0.621209
     23          1           0       -1.413877   -1.303402    1.673286
     24          1           0       -1.362347   -2.180537    0.138122
     25          1           0       -2.805750   -1.268260    0.584671
 ---------------------------------------------------------------------

 SCF Done:  E(UHF) =  -564.033874587     A.U. after    2 cycles

 The electronic state is 2-A.
 Alpha  occ. eigenvalues --  -69.04163 -11.23295 -11.22624 -11.22453 -11.22440
 Alpha  occ. eigenvalues --  -11.20546 -11.20490 -11.20487  -6.79385  -3.90167
 Alpha  occ. eigenvalues --   -3.90096  -3.90085  -1.07403  -0.95323  -0.92742
 Alpha  occ. eigenvalues --   -0.92736  -0.91318  -0.91315  -0.75240  -0.64172
 Alpha  occ. eigenvalues --   -0.61249  -0.60044  -0.58586  -0.56590  -0.56300
 Alpha  occ. eigenvalues --   -0.54615  -0.54262  -0.53644  -0.53482  -0.52725
 Alpha  occ. eigenvalues --   -0.51752  -0.49560  -0.47088  -0.43715  -0.42496
 Alpha  occ. eigenvalues --   -0.42379  -0.31015
 Alpha virt. eigenvalues --    0.02936   0.04203   0.04483   0.04493   0.06195
 Alpha virt. eigenvalues --    0.06217   0.06339   0.06390   0.06498   0.08037
 Alpha virt. eigenvalues --    0.08410   0.08667   0.08772   0.08912   0.09485

  Beta  occ. eigenvalues --  -69.04098 -11.22897 -11.22360 -11.22352 -11.20938
  Beta  occ. eigenvalues --  -11.20500 -11.20494 -11.20492  -6.79278  -3.90058
  Beta  occ. eigenvalues --   -3.90042  -3.89946  -1.05894  -0.95214  -0.92588
  Beta  occ. eigenvalues --   -0.91446  -0.91292  -0.87178  -0.73268  -0.63107
  Beta  occ. eigenvalues --   -0.60332  -0.59692  -0.58473  -0.56541  -0.56126
  Beta  occ. eigenvalues --   -0.54564  -0.54149  -0.53498  -0.53373  -0.52725
  Beta  occ. eigenvalues --   -0.51469  -0.48426  -0.46845  -0.42491  -0.42355
  Beta  occ. eigenvalues --   -0.39014
  Beta virt. eigenvalues --    0.02941   0.04120   0.04491   0.04504   0.06203
  Beta virt. eigenvalues --    0.06206   0.06259   0.06347   0.06486   0.08044
  Beta virt. eigenvalues --    0.08360   0.08677   0.08766   0.08917   0.09241

 Mulliken charges and spin densities:
               1          2
     1  C   -1.425427  -0.298975
     2  Si   0.305665   0.011807
     3  C    0.678855  -0.001753
     4  H   -0.212973  -0.001265
     5  H   -0.333297  -0.002895
     6  H   -0.253194   0.002314
     7  C    0.718750   0.017265
     8  H   -0.249583  -0.000476
     9  H   -0.319184   0.001998
    10  H   -0.249589  -0.000476
    11  C    0.678852  -0.001753
    12  H   -0.212971  -0.001265
    13  H   -0.253196   0.002314
    14  H   -0.333293  -0.002895
    15  C    0.941612   0.021034
    16  H   -0.117335   0.000404
    17  H   -0.010740   0.004481
    18  H   -0.116736  -0.007159
    19  C    0.935059   1.478724
    20  H   -0.434038  -0.120094
    21  H   -0.434038  -0.120094
    22  C    0.941612   0.021034
    23  H   -0.117335   0.000404
    24  H   -0.116736  -0.007159
    25  H   -0.010740   0.004481
 Sum of Mulliken charges =  -0.00000   1.00000

 Dipole moment (field-independent basis, Debye):
    X=              0.2692    Y=             -0.0000    Z=              0.1184  Tot=              0.2940
                          Isotropic Fermi Contact Couplings
        Atom                 a.u.       MegaHertz       Gauss      10(-4) cm-1
     1  C(13)             -0.05505     -61.89021     -22.08396     -20.64435
     2  Si(29)             0.09011     -80.07909     -28.57421     -26.71151
     3  C(13)             -0.00192      -2.16082      -0.77104      -0.72077
     4  H(1)              -0.00002      -0.08505      -0.03035      -0.02837
     5  H(1)              -0.00026      -1.14729      -0.40938      -0.38269
     6  H(1)               0.00016       0.73288       0.26151       0.24446
     7  C(13)              0.00973      10.93534       3.90200       3.64764
     8  H(1)              -0.00027      -1.22371      -0.43665      -0.40819

 Normal termination of Gaussian 16 at Tue Apr  8 23:07:05 2025.
