 Gaussian 16, Revision C.01,

 ----------------------------------------------------------------------
 #t hf aug-cc-pvdz symm=none int=(grid=ultrafine) guess=(read,tcheck) s
 table=opt
 ----------------------------------------------------------------------
 -----
 title
 -----
 Symbolic Z-matrix:
 Charge =  0 Multiplicity = 2

 SCF Done:  E(UHF) =  -458.453558944     A.U. after   18 cycles
 Normal termination of Gaussian 16 at Tue Apr  8 23:50:20 2025.
 Gaussian 16:  ES64L-G16RevC.01  3-Jul-2019

 ----------------------------------------------------------------------
 #t hf aug-cc-pvdz iop(5/13=1,5/36=2,99/5=2) pseudo=read geom=check gue
 ss=(read,tcheck) scf=(maxcycle=1)
 ----------------------------------------------------------------------
 -----
 title
 -----
 Structure from the checkpoint file:  "BDE49_nonexpt_1908_mol2.chk"
 Charge =  0 Multiplicity = 2

                         Standard orientation:
 ---------------------------------------------------------------------
 Center     Atomic      Atomic             Coordinates (Angstroms)
 Number     Number       Type             X           Y           Z
 ---------------------------------------------------------------------
      1         14           0        1.634368    0.066927   -0.100179
      2          7           0       -0.041514   -0.443092    0.011112
      3          1           0        1.665639    1.470777    0.382141
      4          1           0        2.434131   -0.833113    0.771571
      5          6           0       -1.173412    0.350568    0.023806
      6          8           0       -2.304472   -0.071905   -0.000156
      7          1           0       -0.935920    1.428750    0.070311
      8          1           0       -0.278154   -1.429909   -0.040892
 ---------------------------------------------------------------------

 SCF Done:  E(UHF) =  -458.532064763     A.U. after    2 cycles

 The electronic state is 2-A.
 Alpha  occ. eigenvalues --  -69.11476 -20.55867 -15.65540 -11.37801  -6.86567
 Alpha  occ. eigenvalues --   -3.97788  -3.97110  -3.96984  -1.36470  -1.17837
 Alpha  occ. eigenvalues --   -0.85032  -0.76803  -0.68211  -0.65978  -0.59568
 Alpha  occ. eigenvalues --   -0.57317  -0.51462  -0.46630  -0.45637  -0.33653
 Alpha virt. eigenvalues --    0.03187   0.04065   0.04771   0.05637   0.07088
 Alpha virt. eigenvalues --    0.07927   0.08456   0.11358   0.12383   0.13044
 Alpha virt. eigenvalues --    0.13661   0.15285   0.15797   0.16552   0.18549

  Beta  occ. eigenvalues --  -69.10931 -20.55698 -15.65224 -11.37861  -6.85717
  Beta  occ. eigenvalues --   -3.96763  -3.96641  -3.95769  -1.36129  -1.16973
  Beta  occ. eigenvalues --   -0.84825  -0.74857  -0.68012  -0.64461  -0.58259
  Beta  occ. eigenvalues --   -0.56080  -0.49986  -0.45656  -0.42994
  Beta virt. eigenvalues --    0.01911   0.03643   0.04181   0.04932   0.07164
  Beta virt. eigenvalues --    0.07597   0.08568   0.08670   0.12001   0.12614
  Beta virt. eigenvalues --    0.13356   0.14545   0.16063   0.16366   0.17137

 Mulliken charges and spin densities:
               1          2
     1  Si   0.505545   0.879474
     2  N   -0.453379   0.024986
     3  H   -0.057344   0.042092
     4  H    0.002882   0.056092
     5  C    0.699307  -0.031882
     6  O   -0.444163   0.036030
     7  H   -0.187253   0.004098
     8  H   -0.065594  -0.010890
 Sum of Mulliken charges =  -0.00000   1.00000

 Dipole moment (field-independent basis, Debye):
    X=              3.6945    Y=              0.2356    Z=             -0.1068  Tot=              3.7035
                          Isotropic Fermi Contact Couplings
        Atom                 a.u.       MegaHertz       Gauss      10(-4) cm-1
     1  Si(29)             0.61783    -549.08631    -195.92765    -183.15548
     2  N(14)              0.04378      14.14393       5.04690       4.71791
     3  H(1)               0.01068      47.72318      17.02882      15.91874
     4  H(1)               0.01704      76.16555      27.17776      25.40609
     5  C(13)             -0.00599      -6.73850      -2.40446      -2.24772
     6  O(17)              0.01466      -8.88808      -3.17149      -2.96475
     7  H(1)               0.00024       1.09509       0.39076       0.36528
     8  H(1)              -0.00217      -9.68884      -3.45722      -3.23185

 1\1\GINC-SE435\SP\UHF\Aug-CC-pVDZ\C1H4N1O1Si1(2)\OHZDE\08-Apr-2025\0\\
 #t hf aug-cc-pvdz iop(5/13=1,5/36=2,99/5=2) pseudo=read geom=check gue
 ss=(read,tcheck) scf=(maxcycle=1)\\title\\0,2\Si,0,1.634368,0.066927,-
 0.100179\N,0,-0.041514,-0.443092,0.011112\H,0,1.665639,1.470777,0.3821
 41\H,0,2.434131,-0.833113,0.771571\C,0,-1.173412,0.350568,0.023806\O,0
 ,-2.304472,-0.071905,-0.000156\H,0,-0.93592,1.42875,0.070311\H,0,-0.27
 8154,-1.429909,-0.040892\\Version=ES64L-G16RevC.01\State=2-A\HF=-458.5
 320648\S2=0.755152\S2-1=0.\S2A=0.750016\RMSD=4.178e-03\Dipole=1.453528

 Normal termination of Gaussian 16 at Tue Apr  8 23:50:22 2025.
