 Gaussian 16, Revision C.01,

 ----------------------------------------------------------------------
 #t hf aug-cc-pvdz symm=none int=(grid=ultrafine) guess=(read,tcheck) s
 table=(opt,rrhf)
 ----------------------------------------------------------------------
 -----
 title
 -----
 Symbolic Z-matrix:
 Charge =  0 Multiplicity = 1

 SCF Done:  E(RHF) =  -2166.09249019     A.U. after   12 cycles
 Normal termination of Gaussian 16 at Tue Apr  8 23:47:20 2025.
 Gaussian 16:  ES64L-G16RevC.01  3-Jul-2019

 ----------------------------------------------------------------------
 #t hf aug-cc-pvdz iop(5/13=1,5/36=2,99/5=2) pseudo=read geom=check gue
 ss=(read,tcheck) scf=(maxcycle=1)
 ----------------------------------------------------------------------
 -----
 title
 -----
 Structure from the checkpoint file:  "BDE49_nonexpt_1821_mol1.chk"
 Charge =  0 Multiplicity = 1

                         Standard orientation:
 ---------------------------------------------------------------------
 Center     Atomic      Atomic             Coordinates (Angstroms)
 Number     Number       Type             X           Y           Z
 ---------------------------------------------------------------------
      1          6           0        0.967759    0.000000   -0.441542
      2         14           0       -0.713101    0.000000    0.440256
      3         17           0        1.874494    1.486134    0.019959
      4         17           0        1.874494   -1.486134    0.019961
      5         17           0       -1.762506    1.674740   -0.134103
      6         17           0       -1.762506   -1.674740   -0.134105
      7          1           0        0.891769   -0.000001   -1.525665
      8          1           0       -0.522497   -0.000001    1.892228
 ---------------------------------------------------------------------

 SCF Done:  E(RHF) =  -2166.20361008     A.U. after    2 cycles

 The electronic state is 1-A.
 Alpha  occ. eigenvalues -- -103.68999-103.68999-103.67952-103.67952 -69.18727
 Alpha  occ. eigenvalues --  -11.38439 -10.72252 -10.72248 -10.71415 -10.71403
 Alpha  occ. eigenvalues --   -8.37970  -8.37967  -8.37653  -8.37653  -8.37645
 Alpha  occ. eigenvalues --   -8.37643  -8.37105  -8.37099  -8.36868  -8.36866
 Alpha  occ. eigenvalues --   -8.36862  -8.36858  -6.93040  -4.03913  -4.03814
 Alpha  occ. eigenvalues --   -4.03707  -1.22789  -1.17520  -1.15706  -1.15137
 Alpha  occ. eigenvalues --   -0.91759  -0.73843  -0.65764  -0.61672  -0.60914
 Alpha  occ. eigenvalues --   -0.57534  -0.57236  -0.51499  -0.50578  -0.50250
 Alpha  occ. eigenvalues --   -0.49973  -0.48840  -0.48668  -0.46919  -0.44688
 Alpha virt. eigenvalues --    0.03984   0.05087   0.05699   0.05754   0.07700
 Alpha virt. eigenvalues --    0.08117   0.09377   0.09825   0.11987   0.12218
 Alpha virt. eigenvalues --    0.13022   0.13506   0.14519   0.15265   0.15924

 Mulliken charges:
               1
     1  C   -0.346683
     2  Si   1.401140
     3  Cl  -0.108088
     4  Cl  -0.108088
     5  Cl  -0.481239
     6  Cl  -0.481239
     7  H    0.081981
     8  H    0.042216
 Sum of Mulliken charges =  -0.00000

 Dipole moment (field-independent basis, Debye):
    X=             -0.1489    Y=              0.0000    Z=             -0.1863  Tot=              0.2385

 Test job not archived.
 1\1\GINC-SE345\SP\RHF\Aug-CC-pVDZ\C1H2Cl4Si1\OHZDE\08-Apr-2025\0\\#t h
 f aug-cc-pvdz iop(5/13=1,5/36=2,99/5=2) pseudo=read geom=check guess=(
 read,tcheck) scf=(maxcycle=1)\\title\\0,1\C,0,0.967759,0.,-0.441542\Si
 ,0,-0.713101,0.,0.440256\Cl,0,1.874494,1.486134,0.019959\Cl,0,1.874494
 ,-1.486134,0.019961\Cl,0,-1.762506,1.67474,-0.134103\Cl,0,-1.762506,-1
 .67474,-0.134105\H,0,0.891769,-0.000001,-1.525665\H,0,-0.522497,-0.000
 001,1.892228\\Version=ES64L-G16RevC.01\State=1-A\HF=-2166.2036101\RMSD
 =4.140e-03\Dipole=-0.0585769,0.0000015,-0.0732787\Quadrupole=-2.252042

 Normal termination of Gaussian 16 at Tue Apr  8 23:47:23 2025.
