 Gaussian 16, Revision C.01,

 ----------------------------------------------------------------------
 #t hf aug-cc-pvdz symm=none int=(grid=ultrafine) guess=(read,tcheck) s
 table=(opt,rrhf)
 ----------------------------------------------------------------------
 -----
 title
 -----
 Symbolic Z-matrix:
 Charge =  0 Multiplicity = 1

 SCF Done:  E(RHF) =  -799.049967772     A.U. after   15 cycles
 Normal termination of Gaussian 16 at Wed Apr  9 00:21:45 2025.
 Gaussian 16:  ES64L-G16RevC.01  3-Jul-2019

 ----------------------------------------------------------------------
 #t hf aug-cc-pvdz iop(5/13=1,5/36=2,99/5=2) pseudo=read geom=check gue
 ss=(read,tcheck) scf=(maxcycle=1)
 ----------------------------------------------------------------------
 -----
 title
 -----
 Structure from the checkpoint file:  "BDE49_nonexpt_2683_mol1.chk"
 Charge =  0 Multiplicity = 1

                         Standard orientation:
 ---------------------------------------------------------------------
 Center     Atomic      Atomic             Coordinates (Angstroms)
 Number     Number       Type             X           Y           Z
 ---------------------------------------------------------------------
      1          9           0       -2.305787    0.614458    0.860156
      2         16           0       -1.835043   -0.310817   -0.428452
      3          8           0       -0.338701   -0.811934    0.072733
      4          6           0        0.742099    0.048077   -0.127206
      5          8           0        0.686819    1.153080   -0.568652
      6          8           0        1.808610   -0.622323    0.281244
      7          6           0        3.054696    0.101956    0.183166
      8          1           0        3.012284    1.006715    0.789984
      9          1           0        3.255531    0.366999   -0.855171
     10          1           0        3.810367   -0.581547    0.560660
 ---------------------------------------------------------------------

 SCF Done:  E(RHF) =  -799.214151298     A.U. after    2 cycles

 The electronic state is 1-A.
 Alpha  occ. eigenvalues --  -93.68943 -26.14824 -20.67537 -20.65154 -20.59386
 Alpha  occ. eigenvalues --  -11.47737 -11.32207  -8.97108  -6.31291  -6.30985
 Alpha  occ. eigenvalues --   -6.30375  -1.66261  -1.48943  -1.39085  -1.36883
 Alpha  occ. eigenvalues --   -1.03690  -0.96361  -0.83877  -0.79351  -0.75904
 Alpha  occ. eigenvalues --   -0.75636  -0.74580  -0.72718  -0.69422  -0.65163
 Alpha  occ. eigenvalues --   -0.63752  -0.58506  -0.57290  -0.55219  -0.52372
 Alpha  occ. eigenvalues --   -0.51379  -0.40196
 Alpha virt. eigenvalues --    0.03193   0.05288   0.05538   0.06105   0.06636
 Alpha virt. eigenvalues --    0.07681   0.10446   0.12413   0.12613   0.13725
 Alpha virt. eigenvalues --    0.14089   0.15279   0.15872   0.16825   0.17161

 Mulliken charges:
               1
     1  F   -0.605260
     2  S    1.067218
     3  O   -0.778298
     4  C    0.656023
     5  O   -0.300266
     6  O   -0.459323
     7  C    0.730408
     8  H   -0.043394
     9  H   -0.043674
    10  H   -0.223434
 Sum of Mulliken charges =  -0.00000

 Dipole moment (field-independent basis, Debye):
    X=              2.6400    Y=             -1.1961    Z=             -0.9871  Tot=              3.0618

 Test job not archived.
 1\1\GINC-SE339\SP\RHF\Aug-CC-pVDZ\C2H3F1O3S1\OHZDE\09-Apr-2025\0\\#t h
 f aug-cc-pvdz iop(5/13=1,5/36=2,99/5=2) pseudo=read geom=check guess=(
 read,tcheck) scf=(maxcycle=1)\\title\\0,1\F,0,-2.305787,0.614458,0.860
 156\S,0,-1.835043,-0.310817,-0.428452\O,0,-0.338701,-0.811934,0.072733
 \C,0,0.742099,0.048077,-0.127206\O,0,0.686819,1.15308,-0.568652\O,0,1.
 80861,-0.622323,0.281244\C,0,3.054696,0.101956,0.183166\H,0,3.012284,1
 .006715,0.789984\H,0,3.255531,0.366999,-0.855171\H,0,3.810367,-0.58154
 7,0.56066\\Version=ES64L-G16RevC.01\State=1-A\HF=-799.2141513\RMSD=3.2

 Normal termination of Gaussian 16 at Wed Apr  9 00:21:49 2025.
