 Gaussian 16, Revision C.01,

 ----------------------------------------------------------------------
 #t hf aug-cc-pvdz symm=none int=(grid=ultrafine) guess=(read,tcheck) s
 table=(opt,rrhf)
 ----------------------------------------------------------------------
 -----
 title
 -----
 Symbolic Z-matrix:
 Charge =  0 Multiplicity = 1

 SCF Done:  E(RHF) =  -769.639390618     A.U. after   14 cycles
 Normal termination of Gaussian 16 at Wed Apr  9 00:24:27 2025.
 Gaussian 16:  ES64L-G16RevC.01  3-Jul-2019

 ----------------------------------------------------------------------
 #t hf aug-cc-pvdz iop(5/13=1,5/36=2,99/5=2) pseudo=read geom=check gue
 ss=(read,tcheck) scf=(maxcycle=1)
 ----------------------------------------------------------------------
 -----
 title
 -----
 Structure from the checkpoint file:  "BDE49_nonexpt_2705_mol1.chk"
 Charge =  0 Multiplicity = 1

                         Standard orientation:
 ---------------------------------------------------------------------
 Center     Atomic      Atomic             Coordinates (Angstroms)
 Number     Number       Type             X           Y           Z
 ---------------------------------------------------------------------
      1          6           0       -0.431483    0.989759    0.163995
      2          6           0       -1.794677    1.487843   -0.335823
      3          6           0       -2.943174    0.602054    0.164740
      4          6           0       -2.710392   -0.869810   -0.201834
      5          6           0       -1.345823   -1.367749    0.296353
      6          6           0        1.148686   -1.017268    0.319583
      7          6           0       -0.188363   -0.483392   -0.209309
      8         16           0        2.657795   -0.313763   -0.380014
      9          9           0        2.690128    1.160165    0.427451
     10          1           0       -0.385219    1.089176    1.257168
     11          1           0        0.371837    1.613428   -0.234044
     12          1           0       -1.795608    1.495144   -1.433474
     13          1           0       -1.948797    2.524315   -0.019843
     14          1           0       -3.897331    0.947109   -0.246103
     15          1           0       -3.021585    0.694317    1.255786
     16          1           0       -2.757794   -0.982480   -1.292518
     17          1           0       -3.507948   -1.496416    0.209972
     18          1           0       -1.187934   -2.405974   -0.017458
     19          1           0       -1.340421   -1.369050    1.394786
     20          1           0        1.265334   -2.081014    0.068237
     21          1           0        1.220686   -0.942626    1.409202
     22          1           0       -0.159739   -0.555822   -1.304787
 ---------------------------------------------------------------------

 SCF Done:  E(RHF) =  -769.778238550     A.U. after    2 cycles

 The electronic state is 1-A.
 Alpha  occ. eigenvalues --  -93.61134 -26.11641 -11.28271 -11.24717 -11.23635
 Alpha  occ. eigenvalues --  -11.23234 -11.22882 -11.22788 -11.22661  -8.89997
 Alpha  occ. eigenvalues --   -6.24210  -6.23814  -6.23415  -1.62609  -1.12268
 Alpha  occ. eigenvalues --   -1.05991  -1.00114  -0.98384  -0.88100  -0.83778
 Alpha  occ. eigenvalues --   -0.80872  -0.76199  -0.72283  -0.71900  -0.68219
 Alpha  occ. eigenvalues --   -0.65395  -0.61884  -0.61465  -0.60012  -0.57534
 Alpha  occ. eigenvalues --   -0.54880  -0.53254  -0.51944  -0.49235  -0.48789
 Alpha  occ. eigenvalues --   -0.47667  -0.45993  -0.44191  -0.43103  -0.36835
 Alpha virt. eigenvalues --    0.03272   0.03904   0.04185   0.04756   0.05871
 Alpha virt. eigenvalues --    0.06102   0.06339   0.06792   0.07014   0.08035
 Alpha virt. eigenvalues --    0.08797   0.09025   0.09245   0.09740   0.10395

 Mulliken charges:
               1
     1  C    0.411546
     2  C    0.323428
     3  C    0.262426
     4  C    0.304843
     5  C    0.556603
     6  C    0.435986
     7  C   -1.110904
     8  S    0.887778
     9  F   -0.660611
    10  H   -0.094112
    11  H   -0.143076
    12  H   -0.081056
    13  H   -0.094449
    14  H   -0.116035
    15  H   -0.095285
    16  H   -0.089095
    17  H   -0.104052
    18  H   -0.182280
    19  H   -0.075171
    20  H   -0.004962
    21  H   -0.074180
    22  H   -0.257342
 Sum of Mulliken charges =  -0.00000

 Dipole moment (field-independent basis, Debye):
    X=             -2.1416    Y=             -2.2224    Z=             -0.2396  Tot=              3.0956

 Test job not archived.
 1\1\GINC-SE090\SP\RHF\Aug-CC-pVDZ\C7H13F1S1\OHZDE\09-Apr-2025\0\\#t hf
  aug-cc-pvdz iop(5/13=1,5/36=2,99/5=2) pseudo=read geom=check guess=(r
 ead,tcheck) scf=(maxcycle=1)\\title\\0,1\C,0,-0.431483,0.989759,0.1639
 95\C,0,-1.794677,1.487843,-0.335823\C,0,-2.943174,0.602054,0.16474\C,0
 ,-2.710392,-0.86981,-0.201834\C,0,-1.345823,-1.367749,0.296353\C,0,1.1
 48686,-1.017268,0.319583\C,0,-0.188363,-0.483392,-0.209309\S,0,2.65779
 5,-0.313763,-0.380014\F,0,2.690128,1.160165,0.427451\H,0,-0.385219,1.0
 89176,1.257168\H,0,0.371837,1.613428,-0.234044\H,0,-1.795608,1.495144,

 Normal termination of Gaussian 16 at Wed Apr  9 00:24:40 2025.
