 Gaussian 16, Revision C.01,

 ----------------------------------------------------------------------
 #t hf aug-cc-pvdz symm=none int=(grid=ultrafine) guess=(read,tcheck) s
 table=opt
 ----------------------------------------------------------------------
 -----
 title
 -----
 Symbolic Z-matrix:
 Charge =  0 Multiplicity = 2

 SCF Done:  E(UHF) =  -124.692941818     A.U. after   13 cycles
 Normal termination of Gaussian 16 at Tue Apr  8 23:17:47 2025.
 Gaussian 16:  ES64L-G16RevC.01  3-Jul-2019

 ----------------------------------------------------------------------
 #t hf aug-cc-pvdz iop(5/13=1,5/36=2,99/5=2) pseudo=read geom=check gue
 ss=(read,tcheck) scf=(maxcycle=1)
 ----------------------------------------------------------------------
 -----
 title
 -----
 Structure from the checkpoint file:  "BDE49_nonexpt_10_mol2.chk"
 Charge =  0 Multiplicity = 2

                         Standard orientation:
 ---------------------------------------------------------------------
 Center     Atomic      Atomic             Coordinates (Angstroms)
 Number     Number       Type             X           Y           Z
 ---------------------------------------------------------------------
      1          5           0        0.068721    0.742923    0.000000
      2          9           0        0.068721   -0.564267    0.000000
      3          1           0       -0.962094    1.363786    0.000000
 ---------------------------------------------------------------------

 SCF Done:  E(UHF) =  -124.745612336     A.U. after    2 cycles

 The electronic state is 2-A'.
 Alpha  occ. eigenvalues --  -26.15359  -7.71722  -1.69842  -0.86678  -0.78771
 Alpha  occ. eigenvalues --   -0.75351  -0.62231  -0.36998
 Alpha virt. eigenvalues --    0.03822   0.05112   0.05803   0.06145   0.11209
 Alpha virt. eigenvalues --    0.11702   0.21752   0.25222   0.25875   0.26404
 Alpha virt. eigenvalues --    0.28103   0.28664   0.31101   0.35238   0.38251

  Beta  occ. eigenvalues --  -26.15019  -7.69813  -1.68882  -0.85431  -0.75551
  Beta  occ. eigenvalues --   -0.75472  -0.57585
  Beta virt. eigenvalues --    0.04093   0.04595   0.05727   0.05902   0.08786
  Beta virt. eigenvalues --    0.13830   0.15993   0.22872   0.26395   0.27254
  Beta virt. eigenvalues --    0.27777   0.28186   0.29218   0.32643   0.35818

 Mulliken charges and spin densities:
               1          2
     1  B    0.101859   0.988180
     2  F   -0.330348  -0.051276
     3  H    0.228489   0.063096
 Sum of Mulliken charges =  -0.00000   1.00000

 Dipole moment (field-independent basis, Debye):
    X=             -0.4411    Y=              0.8708    Z=              0.0000  Tot=              0.9762
                          Isotropic Fermi Contact Couplings
        Atom                 a.u.       MegaHertz       Gauss      10(-4) cm-1
     1  B(11)              0.34527     495.24952     176.71734     165.19746
     2  F(19)              0.06532     274.83962      98.06961      91.67663
     3  H(1)               0.03657     163.44551      58.32142      54.51956
 --------------------------------------------------------
       Center         ----  Spin Dipole Couplings  ----
                      3XX-RR        3YY-RR        3ZZ-RR
 --------------------------------------------------------
     1   Atom        0.301320     -0.110951     -0.190369

 Normal termination of Gaussian 16 at Tue Apr  8 23:17:48 2025.
