 Gaussian 16, Revision C.01,

 ----------------------------------------------------------------------
 #t hf aug-cc-pvdz symm=none int=(grid=ultrafine) guess=(read,tcheck) s
 table=opt
 ----------------------------------------------------------------------
 -----
 title
 -----
 Symbolic Z-matrix:
 Charge =  0 Multiplicity = 2

 SCF Done:  E(UHF) =  -172.692899517     A.U. after   16 cycles
 Normal termination of Gaussian 16 at Tue Apr  8 22:36:30 2025.
 Gaussian 16:  ES64L-G16RevC.01  3-Jul-2019

 ----------------------------------------------------------------------
 #t hf aug-cc-pvdz iop(5/13=1,5/36=2,99/5=2) pseudo=read geom=check gue
 ss=(read,tcheck) scf=(maxcycle=1)
 ----------------------------------------------------------------------
 -----
 title
 -----
 Structure from the checkpoint file:  "BDE49_expt_1196_mol2.chk"
 Charge =  0 Multiplicity = 2

                         Standard orientation:
 ---------------------------------------------------------------------
 Center     Atomic      Atomic             Coordinates (Angstroms)
 Number     Number       Type             X           Y           Z
 ---------------------------------------------------------------------
      1          6           0        0.000000    0.009477   -0.185695
      2          6           0       -1.300187   -0.689714    0.031002
      3          1           0       -2.120837   -0.177708   -0.484851
      4          1           0       -1.582524   -0.746607    1.100910
      5          1           0       -1.265709   -1.715021   -0.345250
      6          7           0        0.000000    1.409354   -0.066768
      7          1           0       -0.835575    1.816454    0.333949
      8          1           0        0.835575    1.816454    0.333949
      9          6           0        1.300187   -0.689714    0.031002
     10          1           0        1.265709   -1.715021   -0.345250
     11          1           0        1.582524   -0.746607    1.100911
     12          1           0        2.120837   -0.177708   -0.484851
 ---------------------------------------------------------------------

 SCF Done:  E(UHF) =  -172.748487094     A.U. after    2 cycles

 The electronic state is 2-A.
 Alpha  occ. eigenvalues --  -15.61524 -11.25198 -11.22577 -11.22572  -1.17262
 Alpha  occ. eigenvalues --   -1.00682  -0.93741  -0.77470  -0.67320  -0.62734
 Alpha  occ. eigenvalues --   -0.61361  -0.54666  -0.53499  -0.52838  -0.49914
 Alpha  occ. eigenvalues --   -0.45839  -0.26759
 Alpha virt. eigenvalues --    0.03456   0.04482   0.04590   0.05664   0.07023
 Alpha virt. eigenvalues --    0.07344   0.07519   0.10070   0.10834   0.13308
 Alpha virt. eigenvalues --    0.15317   0.15822   0.16281   0.16714   0.16919

  Beta  occ. eigenvalues --  -15.61209 -11.22880 -11.22875 -11.22655  -1.14989
  Beta  occ. eigenvalues --   -0.98811  -0.93722  -0.73727  -0.66893  -0.61447
  Beta  occ. eigenvalues --   -0.56900  -0.53849  -0.53099  -0.52258  -0.49125
  Beta  occ. eigenvalues --   -0.40635
  Beta virt. eigenvalues --    0.03394   0.04505   0.04622   0.05591   0.07030
  Beta virt. eigenvalues --    0.07355   0.07548   0.10079   0.10808   0.13306
  Beta virt. eigenvalues --    0.15087   0.15364   0.15937   0.16391   0.16763

 Mulliken charges and spin densities:
               1          2
     1  C   -0.079035   1.265661
     2  C    0.416692  -0.232929
     3  H   -0.104049   0.006650
     4  H    0.048566   0.056836
     5  H   -0.074306   0.004034
     6  N   -0.447723   0.047647
     7  H   -0.023524   0.008755
     8  H   -0.023524   0.008755
     9  C    0.416690  -0.232929
    10  H   -0.074306   0.004034
    11  H    0.048568   0.056836
    12  H   -0.104049   0.006650
 Sum of Mulliken charges =  -0.00000   1.00000

 Dipole moment (field-independent basis, Debye):
    X=             -0.0000    Y=              0.0597    Z=              1.1991  Tot=              1.2006
                          Isotropic Fermi Contact Couplings
        Atom                 a.u.       MegaHertz       Gauss      10(-4) cm-1
     1  C(13)              0.27391     307.92256     109.87443     102.71191
     2  C(13)             -0.05019     -56.42273     -20.13303     -18.82060
     3  H(1)               0.00812      36.30642      12.95504      12.11052
     4  H(1)               0.02274     101.64850      36.27071      33.90629
     5  H(1)               0.00397      17.73467       6.32817       5.91565
     6  N(14)              0.06531      21.10201       7.52972       7.03887
     7  H(1)               0.00296      13.22917       4.72050       4.41278
     8  H(1)               0.00296      13.22917       4.72050       4.41277

 Normal termination of Gaussian 16 at Tue Apr  8 22:36:33 2025.
