 Gaussian 16, Revision C.01,

 ----------------------------------------------------------------------
 #t hf aug-cc-pvdz symm=none int=(grid=ultrafine) guess=(read,tcheck) s
 table=(opt,rrhf)
 ----------------------------------------------------------------------
 -----
 title
 -----
 Symbolic Z-matrix:
 Charge =  0 Multiplicity = 1

 SCF Done:  E(RHF) =  -815.755645990     A.U. after   16 cycles
 Normal termination of Gaussian 16 at Tue Apr  8 23:38:57 2025.
 Gaussian 16:  ES64L-G16RevC.01  3-Jul-2019

 ----------------------------------------------------------------------
 #t hf aug-cc-pvdz iop(5/13=1,5/36=2,99/5=2) pseudo=read geom=check gue
 ss=(read,tcheck) scf=(maxcycle=1)
 ----------------------------------------------------------------------
 -----
 title
 -----
 Structure from the checkpoint file:  "BDE49_nonexpt_1578_mol1.chk"
 Charge =  0 Multiplicity = 1

                         Standard orientation:
 ---------------------------------------------------------------------
 Center     Atomic      Atomic             Coordinates (Angstroms)
 Number     Number       Type             X           Y           Z
 ---------------------------------------------------------------------
      1          6           0       -3.299787   -1.110632    0.094787
      2          6           0       -1.977969   -1.103191    0.532389
      3          6           0       -3.870785    0.047370   -0.428830
      4          6           0       -3.109730    1.211398   -0.511919
      5          6           0       -1.787842    1.216424   -0.074051
      6          6           0       -1.203918    0.061352    0.459096
      7          1           0       -1.541439   -2.009064    0.940661
      8          7           0        2.907439   -0.147635    0.244428
      9          8           0        3.858080   -0.487554   -0.774954
     10          8           0        2.972247    1.269402    0.411931
     11          1           0       -3.884504   -2.021152    0.165037
     12          1           0       -3.545918    2.118387   -0.915676
     13          1           0       -4.900531    0.043051   -0.767712
     14          1           0       -1.201701    2.127346   -0.139907
     15          6           0        0.235274    0.067507    0.914826
     16          1           0        3.517515    1.374128    1.201612
     17          1           0        4.554765   -0.936262   -0.281564
     18         15           0        1.332858   -0.615400   -0.436805
     19          1           0        0.367643   -0.575617    1.788980
     20          1           0        0.568897    1.072505    1.172294
     21          1           0        1.166255    0.474969   -1.336261
 ---------------------------------------------------------------------

 SCF Done:  E(RHF) =  -815.921443066     A.U. after    2 cycles

 The electronic state is 1-A.
 Alpha  occ. eigenvalues --  -81.28117 -20.61962 -20.61815 -15.73881 -11.25921
 Alpha  occ. eigenvalues --  -11.24890 -11.24762 -11.24743 -11.24490 -11.24483
 Alpha  occ. eigenvalues --  -11.24425  -7.78168  -4.92294  -4.92027  -4.91752
 Alpha  occ. eigenvalues --   -1.41238  -1.31469  -1.14903  -1.05048  -1.01634
 Alpha  occ. eigenvalues --   -1.01174  -0.93790  -0.83254  -0.80998  -0.75500
 Alpha  occ. eigenvalues --   -0.72889  -0.72249  -0.69958  -0.64910  -0.64788
 Alpha  occ. eigenvalues --   -0.63636  -0.62207  -0.59344  -0.57875  -0.56757
 Alpha  occ. eigenvalues --   -0.52957  -0.51952  -0.51501  -0.49685  -0.49421
 Alpha  occ. eigenvalues --   -0.47239  -0.41606  -0.36168  -0.34101  -0.32734
 Alpha virt. eigenvalues --    0.03122   0.03575   0.04220   0.04677   0.05226
 Alpha virt. eigenvalues --    0.05708   0.06983   0.07167   0.08050   0.08656
 Alpha virt. eigenvalues --    0.10197   0.10490   0.10699   0.11050   0.11481

 Mulliken charges:
               1
     1  C    0.266558
     2  C    0.425969
     3  C    0.623232
     4  C    0.209876
     5  C    0.619930
     6  C    0.618614
     7  H   -0.589383
     8  N   -0.245036
     9  O   -0.401020
    10  O   -0.445348
    11  H   -0.450536
    12  H   -0.446722
    13  H   -0.436635
    14  H   -0.592855
    15  C   -0.014667
    16  H    0.213308
    17  H    0.194311
    18  P    0.812513
    19  H   -0.207281
    20  H   -0.280043
    21  H    0.125217
 Sum of Mulliken charges =   0.00000

 Dipole moment (field-independent basis, Debye):
    X=              0.4120    Y=             -0.0911    Z=              2.3097  Tot=              2.3479

 Test job not archived.
 1\1\GINC-SE398\SP\RHF\Aug-CC-pVDZ\C7H10N1O2P1\OHZDE\08-Apr-2025\0\\#t
 hf aug-cc-pvdz iop(5/13=1,5/36=2,99/5=2) pseudo=read geom=check guess=
 (read,tcheck) scf=(maxcycle=1)\\title\\0,1\C,0,-3.299787,-1.110632,0.0
 94787\C,0,-1.977969,-1.103191,0.532389\C,0,-3.870785,0.04737,-0.42883\
 C,0,-3.10973,1.211398,-0.511919\C,0,-1.787842,1.216424,-0.074051\C,0,-
 1.203918,0.061352,0.459096\H,0,-1.541439,-2.009064,0.940661\N,0,2.9074
 39,-0.147635,0.244428\O,0,3.85808,-0.487554,-0.774954\O,0,2.972247,1.2
 69402,0.411931\H,0,-3.884504,-2.021152,0.165037\H,0,-3.545918,2.118387

 Normal termination of Gaussian 16 at Tue Apr  8 23:39:09 2025.
