 Gaussian 16, Revision C.01,

 ----------------------------------------------------------------------
 #t hf aug-cc-pvdz symm=none int=(grid=ultrafine) guess=(read,tcheck) s
 table=(opt,rrhf)
 ----------------------------------------------------------------------
 -----
 title
 -----
 Symbolic Z-matrix:
 Charge =  0 Multiplicity = 1

 SCF Done:  E(RHF) =  -120.559907027     A.U. after   11 cycles
 Normal termination of Gaussian 16 at Wed Apr  9 00:25:57 2025.
 Gaussian 16:  ES64L-G16RevC.01  3-Jul-2019

 ----------------------------------------------------------------------
 #t hf aug-cc-pvdz iop(5/13=1,5/36=2,99/5=2) pseudo=read geom=check gue
 ss=(read,tcheck) scf=(maxcycle=1)
 ----------------------------------------------------------------------
 -----
 title
 -----
 Structure from the checkpoint file:  "BDE49_nonexpt_311_mol1.chk"
 Charge =  0 Multiplicity = 1

                         Standard orientation:
 ---------------------------------------------------------------------
 Center     Atomic      Atomic             Coordinates (Angstroms)
 Number     Number       Type             X           Y           Z
 ---------------------------------------------------------------------
      1          6           0        1.324730   -0.164904    0.000001
      2          5           0       -0.089315    0.528516   -0.000006
      3          1           0        1.908055    0.152258   -0.872735
      4          1           0        1.289110   -1.259605    0.000000
      5          7           0       -1.275687   -0.204323    0.000000
      6          1           0       -1.300103   -1.213436    0.000001
      7          1           0       -2.188510    0.222885    0.000007
      8          1           0        1.908047    0.152256    0.872744
      9          1           0       -0.188590    1.722746    0.000007
 ---------------------------------------------------------------------

 SCF Done:  E(RHF) =  -120.601830322     A.U. after    2 cycles

 The electronic state is 1-A.
 Alpha  occ. eigenvalues --  -15.61315 -11.19622  -7.59314  -1.11898  -0.92782
 Alpha  occ. eigenvalues --   -0.69358  -0.67452  -0.56524  -0.53900  -0.50436
 Alpha  occ. eigenvalues --   -0.44948  -0.42392
 Alpha virt. eigenvalues --    0.03436   0.04404   0.04861   0.05332   0.07311
 Alpha virt. eigenvalues --    0.07909   0.08552   0.09463   0.11109   0.12852
 Alpha virt. eigenvalues --    0.16237   0.16477   0.16806   0.17618   0.19072

 Mulliken charges:
               1
     1  C    0.469758
     2  B    0.220176
     3  H   -0.204437
     4  H   -0.302996
     5  N   -0.160594
     6  H    0.008750
     7  H   -0.011341
     8  H   -0.204437
     9  H    0.185122
 Sum of Mulliken charges =  -0.00000

 Dipole moment (field-independent basis, Debye):
    X=             -1.0382    Y=             -0.9008    Z=             -0.0000  Tot=              1.3745

 Test job not archived.
 1\1\GINC-SE128\SP\RHF\Aug-CC-pVDZ\C1H6B1N1\OHZDE\09-Apr-2025\0\\#t hf
 aug-cc-pvdz iop(5/13=1,5/36=2,99/5=2) pseudo=read geom=check guess=(re
 ad,tcheck) scf=(maxcycle=1)\\title\\0,1\C,0,-1.32473,-0.164904,-0.0000
 01\B,0,0.089315,0.528516,0.000006\H,0,-1.908055,0.152258,0.872735\H,0,
 -1.28911,-1.259605,0.\N,0,1.275687,-0.204323,0.\H,0,1.300103,-1.213436
 ,-0.000001\H,0,2.18851,0.222885,-0.000007\H,0,-1.908047,0.152256,-0.87
 2744\H,0,0.18859,1.722746,-0.000007\\Version=ES64L-G16RevC.01\State=1-
 A\HF=-120.6018303\RMSD=1.888e-03\Dipole=0.4084415,-0.3544156,0.0000009

 Normal termination of Gaussian 16 at Wed Apr  9 00:25:59 2025.
