 Gaussian 16, Revision C.01,

 ----------------------------------------------------------------------
 #t hf aug-cc-pvdz symm=none int=(grid=ultrafine) guess=(read,tcheck) s
 table=(opt,rrhf)
 ----------------------------------------------------------------------
 -----
 title
 -----
 Symbolic Z-matrix:
 Charge =  0 Multiplicity = 1

 SCF Done:  E(RHF) =  -2152.40944696     A.U. after   12 cycles
 Normal termination of Gaussian 16 at Tue Apr  8 23:42:16 2025.
 Gaussian 16:  ES64L-G16RevC.01  3-Jul-2019

 ----------------------------------------------------------------------
 #t hf aug-cc-pvdz iop(5/13=1,5/36=2,99/5=2) pseudo=read geom=check gue
 ss=(read,tcheck) scf=(maxcycle=1)
 ----------------------------------------------------------------------
 -----
 title
 -----
 Structure from the checkpoint file:  "BDE49_nonexpt_170_mol1.chk"
 Charge =  0 Multiplicity = 1

                         Standard orientation:
 ---------------------------------------------------------------------
 Center     Atomic      Atomic             Coordinates (Angstroms)
 Number     Number       Type             X           Y           Z
 ---------------------------------------------------------------------
      1         17           0       -1.480476   -0.113290    1.703785
      2         17           0       -2.415438    0.075422   -1.175327
      3          5           0       -1.112363   -0.003207   -0.001824
      4         14           0        0.803764    0.036878   -0.651915
      5         17           0        1.746682    1.693887    0.159941
      6         17           0        1.758629   -1.692384   -0.026709
      7          1           0        0.949363    0.117949   -2.112818
 ---------------------------------------------------------------------

 SCF Done:  E(RHF) =  -2152.51144379     A.U. after    2 cycles

 The electronic state is 1-A.
 Alpha  occ. eigenvalues -- -103.69451-103.69151-103.67326-103.67324 -69.16900
 Alpha  occ. eigenvalues --  -10.72926 -10.72629 -10.70777 -10.70767  -8.38610
 Alpha  occ. eigenvalues --   -8.38393  -8.38351  -8.38320  -8.38096  -8.38057
 Alpha  occ. eigenvalues --   -8.36466  -8.36460  -8.36232  -8.36228  -8.36223
 Alpha  occ. eigenvalues --   -8.36222  -7.75593  -6.91398  -4.02253  -4.02147
 Alpha  occ. eigenvalues --   -4.02006  -1.20520  -1.16919  -1.16678  -1.14656
 Alpha  occ. eigenvalues --   -0.75617  -0.68945  -0.61263  -0.59020  -0.57418
 Alpha  occ. eigenvalues --   -0.56621  -0.54663  -0.52016  -0.50374  -0.49486
 Alpha  occ. eigenvalues --   -0.49103  -0.48618  -0.48295  -0.43441
 Alpha virt. eigenvalues --    0.02247   0.04255   0.04724   0.05528   0.05921
 Alpha virt. eigenvalues --    0.07292   0.07517   0.07540   0.10127   0.11209
 Alpha virt. eigenvalues --    0.12358   0.12567   0.14557   0.14886   0.15325

 Mulliken charges:
               1
     1  Cl  -0.299485
     2  Cl  -0.292320
     3  B    0.469281
     4  Si   1.024512
     5  Cl  -0.498512
     6  Cl  -0.499072
     7  H    0.095597
 Sum of Mulliken charges =  -0.00000

 Dipole moment (field-independent basis, Debye):
    X=             -0.7981    Y=              0.0487    Z=             -1.0169  Tot=              1.2936

 Test job not archived.
 1\1\GINC-SE367\SP\RHF\Aug-CC-pVDZ\B1Cl4H1Si1\OHZDE\08-Apr-2025\0\\#t h
 f aug-cc-pvdz iop(5/13=1,5/36=2,99/5=2) pseudo=read geom=check guess=(
 read,tcheck) scf=(maxcycle=1)\\title\\0,1\Cl,0,1.480476,0.11329,1.7037
 85\Cl,0,2.415438,-0.075422,-1.175327\B,0,1.112363,0.003207,-0.001824\S
 i,0,-0.803764,-0.036878,-0.651915\Cl,0,-1.746682,-1.693887,0.159941\Cl
 ,0,-1.758629,1.692384,-0.026709\H,0,-0.949363,-0.117949,-2.112818\\Ver
 sion=ES64L-G16RevC.01\State=1-A\HF=-2152.5114438\RMSD=4.186e-03\Dipole
 =0.3139815,-0.0191597,-0.40007\Quadrupole=-1.7374091,0.1417852,1.59562

 Normal termination of Gaussian 16 at Tue Apr  8 23:42:19 2025.
