 Gaussian 16, Revision C.01,

 ----------------------------------------------------------------------
 #t hf aug-cc-pvdz symm=none int=(grid=ultrafine) guess=(read,tcheck) s
 table=opt
 ----------------------------------------------------------------------
 -----
 title
 -----
 Symbolic Z-matrix:
 Charge =  0 Multiplicity = 2

 SCF Done:  E(UHF) =  -800.907321273     A.U. after   22 cycles
 Normal termination of Gaussian 16 at Tue Apr  8 23:52:23 2025.
 Gaussian 16:  ES64L-G16RevC.01  3-Jul-2019

 ----------------------------------------------------------------------
 #t hf aug-cc-pvdz iop(5/13=1,5/36=2,99/5=2) pseudo=read geom=check gue
 ss=(read,tcheck) scf=(maxcycle=1)
 ----------------------------------------------------------------------
 -----
 title
 -----
 Structure from the checkpoint file:  "BDE49_nonexpt_1941_mol2.chk"
 Charge =  0 Multiplicity = 2

                         Standard orientation:
 ---------------------------------------------------------------------
 Center     Atomic      Atomic             Coordinates (Angstroms)
 Number     Number       Type             X           Y           Z
 ---------------------------------------------------------------------
      1         14           0       -1.648688   -0.431925   -0.088140
      2          6           0        0.024416    0.490398    0.004544
      3          1           0       -1.572029   -1.800039    0.475270
      4          1           0       -2.710351    0.395758    0.523621
      5          8           0        0.101356    1.691105    0.013913
      6         16           0        1.501962   -0.590804    0.007819
      7          1           0        2.375266    0.432861   -0.028603
 ---------------------------------------------------------------------

 SCF Done:  E(UHF) =  -800.981387847     A.U. after    2 cycles

 The electronic state is 2-A.
 Alpha  occ. eigenvalues --  -93.56289 -69.10447 -20.60185 -11.38099  -8.86170
 Alpha  occ. eigenvalues --   -6.85892  -6.20302  -6.20087  -6.19741  -3.97242
 Alpha  occ. eigenvalues --   -3.96366  -3.96314  -1.39398  -1.00872  -0.82449
 Alpha  occ. eigenvalues --   -0.71994  -0.65048  -0.62571  -0.60276  -0.52525
 Alpha  occ. eigenvalues --   -0.51062  -0.41459  -0.40161  -0.34821
 Alpha virt. eigenvalues --    0.03715   0.04906   0.05860   0.05976   0.06316
 Alpha virt. eigenvalues --    0.08224   0.08649   0.08872   0.11853   0.12631
 Alpha virt. eigenvalues --    0.13472   0.14245   0.14900   0.15770   0.16946

  Beta  occ. eigenvalues --  -93.56286 -69.09860 -20.59539 -11.38383  -8.86167
  Beta  occ. eigenvalues --   -6.85019  -6.20291  -6.20072  -6.19753  -3.95940
  Beta  occ. eigenvalues --   -3.95894  -3.95003  -1.38091  -1.00758  -0.80968
  Beta  occ. eigenvalues --   -0.69933  -0.64785  -0.61107  -0.56992  -0.52329
  Beta  occ. eigenvalues --   -0.50495  -0.40484  -0.39162
  Beta virt. eigenvalues --    0.00778   0.03952   0.05043   0.05978   0.06597
  Beta virt. eigenvalues --    0.06852   0.08687   0.09214   0.10926   0.12658
  Beta virt. eigenvalues --    0.13199   0.13955   0.14766   0.15927   0.16443

 Mulliken charges and spin densities:
               1          2
     1  Si   0.440838   0.993699
     2  C   -0.189767  -0.142037
     3  H   -0.061061  -0.005410
     4  H   -0.031812  -0.001774
     5  O   -0.456971   0.150384
     6  S    0.183574   0.004824
     7  H    0.115199   0.000314
 Sum of Mulliken charges =  -0.00000   1.00000

 Dipole moment (field-independent basis, Debye):
    X=             -0.6420    Y=             -1.9131    Z=             -0.0492  Tot=              2.0185
                          Isotropic Fermi Contact Couplings
        Atom                 a.u.       MegaHertz       Gauss      10(-4) cm-1
     1  Si(29)             0.53610    -476.44956    -170.00905    -158.92647
     2  C(13)             -0.02612     -29.36869     -10.47948      -9.79634
     3  H(1)              -0.00063      -2.82631      -1.00850      -0.94276
     4  H(1)              -0.00071      -3.16807      -1.13045      -1.05675
     5  O(17)              0.05277     -31.99183     -11.41548     -10.67133
     6  S(33)             -0.00020      -0.07029      -0.02508      -0.02345
     7  H(1)              -0.00016      -0.72130      -0.25738      -0.24060
 --------------------------------------------------------

 1\1\GINC-SE273\SP\UHF\Aug-CC-pVDZ\C1H3O1S1Si1(2)\OHZDE\08-Apr-2025\0\\
 #t hf aug-cc-pvdz iop(5/13=1,5/36=2,99/5=2) pseudo=read geom=check gue
 ss=(read,tcheck) scf=(maxcycle=1)\\title\\0,2\Si,0,-1.648688,-0.431925
 ,-0.08814\C,0,0.024416,0.490398,0.004544\H,0,-1.572029,-1.800039,0.475
 27\H,0,-2.710351,0.395758,0.523621\O,0,0.101356,1.691105,0.013913\S,0,
 1.501962,-0.590804,0.007819\H,0,2.375266,0.432861,-0.028603\\Version=E
 S64L-G16RevC.01\State=2-A\HF=-800.9813878\S2=0.774103\S2-1=0.\S2A=0.75
 0232\RMSD=5.848e-03\Dipole=-0.2525807,-0.7526605,-0.0193666\Quadrupole

 Normal termination of Gaussian 16 at Tue Apr  8 23:52:26 2025.
