 Gaussian 16, Revision C.01,

 ----------------------------------------------------------------------
 #t hf aug-cc-pvdz symm=none int=(grid=ultrafine) guess=(read,tcheck) s
 table=(opt,rrhf)
 ----------------------------------------------------------------------
 -----
 title
 -----
 Symbolic Z-matrix:
 Charge =  0 Multiplicity = 1

 SCF Done:  E(RHF) =  -696.853768348     A.U. after   12 cycles
 Normal termination of Gaussian 16 at Tue Apr  8 22:35:36 2025.
 Gaussian 16:  ES64L-G16RevC.01  3-Jul-2019

 ----------------------------------------------------------------------
 #t hf aug-cc-pvdz iop(5/13=1,5/36=2,99/5=2) pseudo=read geom=check gue
 ss=(read,tcheck) scf=(maxcycle=1)
 ----------------------------------------------------------------------
 -----
 title
 -----
 Structure from the checkpoint file:  "BDE49_expt_114_mol1.chk"
 Charge =  0 Multiplicity = 1

                         Standard orientation:
 ---------------------------------------------------------------------
 Center     Atomic      Atomic             Coordinates (Angstroms)
 Number     Number       Type             X           Y           Z
 ---------------------------------------------------------------------
      1          6           0        0.451484   -0.000005    0.366463
      2         17           0       -1.289692   -0.000024   -0.050501
      3          1           0        0.549921   -0.000001    1.449927
      4          9           0        1.036947    1.089774   -0.155023
      5          9           0        1.037047   -1.089724   -0.154998
 ---------------------------------------------------------------------

 SCF Done:  E(RHF) =  -696.960453721     A.U. after    2 cycles

 The electronic state is 1-A.
 Alpha  occ. eigenvalues -- -103.68918 -26.17523 -26.17513 -11.50675 -10.72292
 Alpha  occ. eigenvalues --   -8.38007  -8.37682  -8.37680  -1.74676  -1.69853
 Alpha  occ. eigenvalues --   -1.20008  -1.00497  -0.86517  -0.85860  -0.82482
 Alpha  occ. eigenvalues --   -0.76570  -0.73339  -0.69451  -0.57706  -0.50309
 Alpha  occ. eigenvalues --   -0.49758
 Alpha virt. eigenvalues --    0.03532   0.07478   0.09344   0.09386   0.12019
 Alpha virt. eigenvalues --    0.15016   0.15301   0.15705   0.20490   0.23416
 Alpha virt. eigenvalues --    0.24621   0.27021   0.27099   0.30578   0.30594

 Mulliken charges:
               1
     1  C    0.751319
     2  Cl  -0.134784
     3  H   -0.051536
     4  F   -0.282508
     5  F   -0.282491
 Sum of Mulliken charges =  -0.00000

 Dipole moment (field-independent basis, Debye):
    X=             -0.1637    Y=             -0.0001    Z=              1.8339  Tot=              1.8412

 Test job not archived.
 1\1\GINC-SE044\SP\RHF\Aug-CC-pVDZ\C1H1Cl1F2\OHZDE\08-Apr-2025\0\\#t hf
  aug-cc-pvdz iop(5/13=1,5/36=2,99/5=2) pseudo=read geom=check guess=(r
 ead,tcheck) scf=(maxcycle=1)\\title\\0,1\C,0,-0.451484,0.000005,0.3664
 63\Cl,0,1.289692,0.000024,-0.050501\H,0,-0.549921,0.000001,1.449927\F,
 0,-1.036947,-1.089774,-0.155023\F,0,-1.037047,1.089724,-0.154998\\Vers
 ion=ES64L-G16RevC.01\State=1-A\HF=-696.9604537\RMSD=5.150e-03\Dipole=0
 .0643857,0.000037,0.7214994\Quadrupole=-0.3104957,-1.5682657,1.8787614
 ,-0.0000362,-1.2562701,-0.0000289\PG=C01 [X(C1H1Cl1F2)]\\@

 Normal termination of Gaussian 16 at Tue Apr  8 22:35:38 2025.
