 Gaussian 16, Revision C.01,

 ----------------------------------------------------------------------
 #t hf aug-cc-pvdz symm=none int=(grid=ultrafine) guess=(read,tcheck) s
 table=(opt,rrhf)
 ----------------------------------------------------------------------
 -----
 title
 -----
 Symbolic Z-matrix:
 Charge =  0 Multiplicity = 1

 SCF Done:  E(RHF) =  -815.753354467     A.U. after   16 cycles
 Normal termination of Gaussian 16 at Tue Apr  8 23:38:36 2025.
 Gaussian 16:  ES64L-G16RevC.01  3-Jul-2019

 ----------------------------------------------------------------------
 #t hf aug-cc-pvdz iop(5/13=1,5/36=2,99/5=2) pseudo=read geom=check gue
 ss=(read,tcheck) scf=(maxcycle=1)
 ----------------------------------------------------------------------
 -----
 title
 -----
 Structure from the checkpoint file:  "BDE49_nonexpt_1559_mol1.chk"
 Charge =  0 Multiplicity = 1

                         Standard orientation:
 ---------------------------------------------------------------------
 Center     Atomic      Atomic             Coordinates (Angstroms)
 Number     Number       Type             X           Y           Z
 ---------------------------------------------------------------------
      1          6           0        2.381068   -1.484661   -0.083624
      2          6           0        1.081612   -1.398824    0.409108
      3          6           0        3.029205   -0.326543   -0.499282
      4          6           0        2.377773    0.902235   -0.419806
      5          6           0        1.075381    1.011628    0.074951
      6          6           0        0.415833   -0.165878    0.501321
      7          1           0        2.877943   -2.446255   -0.142583
      8          1           0        0.574578   -2.300835    0.732567
      9          7           0       -2.342825   -0.402457   -0.191234
     10          8           0       -2.409377    0.823037   -0.939309
     11          8           0       -1.883737   -1.409718   -1.057971
     12          1           0        2.891812    1.800222   -0.746341
     13          1           0        4.041570   -0.375814   -0.884822
     14          6           0        0.409823    2.366667    0.136279
     15          1           0        1.091058    3.147342   -0.206602
     16          1           0        0.098713    2.610957    1.156209
     17          1           0       -0.487230    2.392626   -0.486769
     18          1           0       -0.982082   -1.155084   -1.325219
     19          1           0       -3.314962    0.821588   -1.272760
     20         15           0       -1.288918   -0.066925    1.208715
     21          1           0       -1.337121   -1.407976    1.648793
 ---------------------------------------------------------------------

 SCF Done:  E(RHF) =  -815.918921764     A.U. after    2 cycles

 The electronic state is 1-A.
 Alpha  occ. eigenvalues --  -81.28723 -20.61649 -20.61302 -15.73490 -11.27011
 Alpha  occ. eigenvalues --  -11.26295 -11.26071 -11.25651 -11.25209 -11.25004
 Alpha  occ. eigenvalues --  -11.23520  -7.78784  -4.92905  -4.92775  -4.92495
 Alpha  occ. eigenvalues --   -1.41324  -1.30917  -1.15702  -1.05052  -1.02753
 Alpha  occ. eigenvalues --   -1.00453  -0.93907  -0.84938  -0.82197  -0.77848
 Alpha  occ. eigenvalues --   -0.75178  -0.69819  -0.66394  -0.65771  -0.64573
 Alpha  occ. eigenvalues --   -0.64016  -0.62458  -0.58684  -0.58014  -0.56348
 Alpha  occ. eigenvalues --   -0.54291  -0.51653  -0.50810  -0.50336  -0.50068
 Alpha  occ. eigenvalues --   -0.49100  -0.40975  -0.37527  -0.34808  -0.33804
 Alpha virt. eigenvalues --    0.03104   0.03883   0.04193   0.05105   0.05633
 Alpha virt. eigenvalues --    0.05906   0.06793   0.07473   0.07806   0.08087
 Alpha virt. eigenvalues --    0.08636   0.09252   0.10367   0.11197   0.12197

 Mulliken charges:
               1
     1  C    0.442434
     2  C    0.516697
     3  C    0.379912
     4  C    1.092018
     5  C   -0.665601
     6  C   -0.330996
     7  H   -0.443976
     8  H   -0.677037
     9  N   -0.166544
    10  O   -0.490788
    11  O   -0.448314
    12  H   -0.586461
    13  H   -0.443739
    14  C    0.663936
    15  H   -0.249949
    16  H    0.069115
    17  H    0.126229
    18  H    0.245660
    19  H    0.230436
    20  P    0.661823
    21  H    0.075145
 Sum of Mulliken charges =  -0.00000

 Dipole moment (field-independent basis, Debye):
    X=              1.9562    Y=              0.6339    Z=             -0.2782  Tot=              2.0751

 Test job not archived.
 1\1\GINC-SE073\SP\RHF\Aug-CC-pVDZ\C7H10N1O2P1\OHZDE\08-Apr-2025\0\\#t
 hf aug-cc-pvdz iop(5/13=1,5/36=2,99/5=2) pseudo=read geom=check guess=
 (read,tcheck) scf=(maxcycle=1)\\title\\0,1\C,0,2.381068,-1.484661,-0.0
 83624\C,0,1.081612,-1.398824,0.409108\C,0,3.029205,-0.326543,-0.499282
 \C,0,2.377773,0.902235,-0.419806\C,0,1.075381,1.011628,0.074951\C,0,0.
 415833,-0.165878,0.501321\H,0,2.877943,-2.446255,-0.142583\H,0,0.57457
 8,-2.300835,0.732567\N,0,-2.342825,-0.402457,-0.191234\O,0,-2.409377,0
 .823037,-0.939309\O,0,-1.883737,-1.409718,-1.057971\H,0,2.891812,1.800

 Normal termination of Gaussian 16 at Tue Apr  8 23:38:50 2025.
