 Gaussian 16, Revision C.01,

 ----------------------------------------------------------------------
 #t hf aug-cc-pvdz symm=none int=(grid=ultrafine) guess=(read,tcheck) s
 table=(opt,rrhf)
 ----------------------------------------------------------------------
 -----
 title
 -----
 Symbolic Z-matrix:
 Charge =  0 Multiplicity = 1

 SCF Done:  E(RHF) =  -1187.61444872     A.U. after   15 cycles

 1\1\GINC-SE393\Stability\RHF\Aug-CC-pVDZ\C7H6Cl2\OHZDE\08-Apr-2025\0\\
 #t hf aug-cc-pvdz symm=none int=(grid=ultrafine) guess=(read,tcheck) s
 table=(opt,rrhf)\\title\\0,1\C,0,0.579697,1.666473,0.160505\C,0,-0.672
 816,2.13959,-0.217329\C,0,-1.761357,1.274306,-0.296261\C,0,-1.572282,-
 0.069791,0.008707\C,0,-0.327725,-0.55853,0.386533\C,0,0.760755,0.31448
 8,0.465264\H,0,1.422243,2.346637,0.215901\H,0,-0.808571,3.189044,-0.45
 1081\C,0,2.105588,-0.201053,0.876392\Cl,0,-2.935451,-1.172984,-0.08052
 3\H,0,-2.740317,1.632234,-0.586967\H,0,-0.207651,-1.610514,0.614127\H,

 Normal termination of Gaussian 16 at Tue Apr  8 22:48:23 2025.
 Gaussian 16:  ES64L-G16RevC.01  3-Jul-2019

 ----------------------------------------------------------------------
 #t hf aug-cc-pvdz iop(5/13=1,5/36=2,99/5=2) pseudo=read geom=check gue
 ss=(read,tcheck) scf=(maxcycle=1)
 ----------------------------------------------------------------------
 -----
 title
 -----
 Structure from the checkpoint file:  "BDE49_expt_1689_mol1.chk"
 Charge =  0 Multiplicity = 1

                         Standard orientation:
 ---------------------------------------------------------------------
 Center     Atomic      Atomic             Coordinates (Angstroms)
 Number     Number       Type             X           Y           Z
 ---------------------------------------------------------------------
      1          6           0        0.579697    1.666473    0.160505
      2          6           0       -0.672816    2.139590   -0.217329
      3          6           0       -1.761357    1.274306   -0.296261
      4          6           0       -1.572282   -0.069791    0.008707
      5          6           0       -0.327725   -0.558530    0.386533
      6          6           0        0.760755    0.314488    0.465264
      7          1           0        1.422243    2.346637    0.215901
      8          1           0       -0.808572    3.189044   -0.451081
      9          6           0        2.105588   -0.201053    0.876392
     10         17           0       -2.935451   -1.172985   -0.080523
     11          1           0       -2.740317    1.632233   -0.586967
     12          1           0       -0.207651   -1.610514    0.614127
     13          1           0        2.700992    0.562798    1.371007
     14         17           0        3.107845   -0.734927   -0.565368
     15          1           0        2.031443   -1.078600    1.514281
 ---------------------------------------------------------------------

 SCF Done:  E(RHF) =  -1187.72919408     A.U. after    2 cycles

 The electronic state is 1-A.
 Alpha  occ. eigenvalues -- -103.67252-103.65327 -11.32355 -11.32241 -11.27986
 Alpha  occ. eigenvalues --  -11.27103 -11.27048 -11.26918 -11.26630 -10.70519
 Alpha  occ. eigenvalues --  -10.68564  -8.36256  -8.35949  -8.35931  -8.34278
 Alpha  occ. eigenvalues --   -8.33991  -8.33985  -1.20842  -1.17062  -1.13703
 Alpha  occ. eigenvalues --   -1.05128  -1.01736  -0.93912  -0.85140  -0.81904
 Alpha  occ. eigenvalues --   -0.72078  -0.68814  -0.65851  -0.61854  -0.61076
 Alpha  occ. eigenvalues --   -0.60385  -0.58178  -0.54784  -0.53530  -0.52514
 Alpha  occ. eigenvalues --   -0.48196  -0.47535  -0.45311  -0.45177  -0.36195
 Alpha  occ. eigenvalues --   -0.35114
 Alpha virt. eigenvalues --    0.03104   0.03732   0.04431   0.05565   0.06089
 Alpha virt. eigenvalues --    0.07022   0.07977   0.08323   0.09071   0.09594
 Alpha virt. eigenvalues --    0.10416   0.11767   0.12947   0.13340   0.13568

 Mulliken charges:
               1
     1  C    0.229526
     2  C    0.486525
     3  C    0.503216
     4  C   -0.452565
     5  C    0.623464
     6  C    1.089550
     7  H   -0.558275
     8  H   -0.422083
     9  C    0.216420
    10  Cl  -0.374650
    11  H   -0.417434
    12  H   -0.486443
    13  H   -0.150938
    14  Cl  -0.151161
    15  H   -0.135153
 Sum of Mulliken charges =  -0.00000

 Dipole moment (field-independent basis, Debye):
    X=             -0.0030    Y=              2.0871    Z=              1.6833  Tot=              2.6813

 Test job not archived.
 1\1\GINC-SE393\SP\RHF\Aug-CC-pVDZ\C7H6Cl2\OHZDE\08-Apr-2025\0\\#t hf a
 ug-cc-pvdz iop(5/13=1,5/36=2,99/5=2) pseudo=read geom=check guess=(rea
 d,tcheck) scf=(maxcycle=1)\\title\\0,1\C,0,0.579697,1.666473,0.160505\
 C,0,-0.672816,2.13959,-0.217329\C,0,-1.761357,1.274306,-0.296261\C,0,-
 1.572282,-0.069791,0.008707\C,0,-0.327725,-0.55853,0.386533\C,0,0.7607
 55,0.314488,0.465264\H,0,1.422243,2.346637,0.215901\H,0,-0.808571,3.18
 9044,-0.451081\C,0,2.105588,-0.201053,0.876392\Cl,0,-2.935451,-1.17298
 4,-0.080523\H,0,-2.740317,1.632234,-0.586967\H,0,-0.207651,-1.610514,0

 Normal termination of Gaussian 16 at Tue Apr  8 22:48:30 2025.
