 Gaussian 16, Revision C.01,

 ----------------------------------------------------------------------
 #t hf aug-cc-pvdz symm=none int=(grid=ultrafine) guess=(read,tcheck) s
 table=opt
 ----------------------------------------------------------------------
 -----
 title
 -----
 Symbolic Z-matrix:
 Charge =  0 Multiplicity = 2

 SCF Done:  E(UHF) =  -276.346489513     A.U. after   15 cycles
 Normal termination of Gaussian 16 at Tue Apr  8 22:30:19 2025.
 Gaussian 16:  ES64L-G16RevC.01  3-Jul-2019

 ----------------------------------------------------------------------
 #t hf aug-cc-pvdz iop(5/13=1,5/36=2,99/5=2) pseudo=read geom=check gue
 ss=(read,tcheck) scf=(maxcycle=1)
 ----------------------------------------------------------------------
 -----
 title
 -----
 Structure from the checkpoint file:  "BDE49_expt_1046_mol3.chk"
 Charge =  0 Multiplicity = 2

                         Standard orientation:
 ---------------------------------------------------------------------
 Center     Atomic      Atomic             Coordinates (Angstroms)
 Number     Number       Type             X           Y           Z
 ---------------------------------------------------------------------
      1          6           0       -1.396591   -0.106197   -0.087878
      2          6           0        0.006296    0.005861    0.357342
      3          1           0       -2.187076    0.365044    0.479435
      4          1           0       -1.599688   -0.515207   -1.068467
      5          9           0        0.596892    1.139290   -0.177180
      6          9           0        0.736423   -1.062867   -0.097206
      7          1           0        0.128695    0.064382    1.441719
 ---------------------------------------------------------------------

 SCF Done:  E(UHF) =  -276.443870351     A.U. after    2 cycles

 The electronic state is 2-A.
 Alpha  occ. eigenvalues --  -26.13435 -26.13037 -11.42789 -11.27910  -1.69385
 Alpha  occ. eigenvalues --   -1.64996  -1.07633  -0.92103  -0.81588  -0.81060
 Alpha  occ. eigenvalues --   -0.77430  -0.72626  -0.69068  -0.66796  -0.61066
 Alpha  occ. eigenvalues --   -0.56134  -0.42713
 Alpha virt. eigenvalues --    0.03384   0.04610   0.05506   0.09712   0.10950
 Alpha virt. eigenvalues --    0.11832   0.12248   0.14885   0.16344   0.17820
 Alpha virt. eigenvalues --    0.20856   0.22846   0.25065   0.27273   0.28860

  Beta  occ. eigenvalues --  -26.13370 -26.12719 -11.43071 -11.25433  -1.68912
  Beta  occ. eigenvalues --   -1.64305  -1.03748  -0.88089  -0.81367  -0.79761
  Beta  occ. eigenvalues --   -0.75721  -0.72243  -0.68791  -0.65598  -0.59616
  Beta  occ. eigenvalues --   -0.55252
  Beta virt. eigenvalues --    0.03477   0.04651   0.04978   0.05584   0.10753
  Beta virt. eigenvalues --    0.11575   0.11916   0.14774   0.15634   0.16693
  Beta virt. eigenvalues --    0.18118   0.21208   0.23680   0.25407   0.27445

 Mulliken charges and spin densities:
               1          2
     1  C    0.271461   1.308078
     2  C    0.970546  -0.127678
     3  H   -0.144345  -0.105684
     4  H   -0.152631  -0.097777
     5  F   -0.389222   0.016026
     6  F   -0.356712   0.003055
     7  H   -0.199098   0.003981
 Sum of Mulliken charges =   0.00000   1.00000

 Dipole moment (field-independent basis, Debye):
    X=             -2.4379    Y=             -0.0590    Z=              1.3515  Tot=              2.7880
                          Isotropic Fermi Contact Couplings
        Atom                 a.u.       MegaHertz       Gauss      10(-4) cm-1
     1  C(13)              0.21491     241.60346      86.21012      80.59024
     2  C(13)             -0.05078     -57.08290     -20.36860     -19.04081
     3  H(1)              -0.02545    -113.75876     -40.59196     -37.94584
     4  H(1)              -0.02484    -111.02482     -39.61642     -37.03389
     5  F(19)              0.06365     267.79288      95.55516      89.32609
     6  F(19)              0.00910      38.27916      13.65896      12.76855
     7  H(1)               0.00299      13.37922       4.77404       4.46283
 --------------------------------------------------------

 Normal termination of Gaussian 16 at Tue Apr  8 22:30:21 2025.
