 Gaussian 16, Revision C.01,

 ----------------------------------------------------------------------
 #t hf aug-cc-pvdz symm=none int=(grid=ultrafine) guess=(read,tcheck) s
 table=(opt,rrhf)
 ----------------------------------------------------------------------
 -----
 title
 -----
 Symbolic Z-matrix:
 Charge =  0 Multiplicity = 1

 SCF Done:  E(RHF) =  -1002.59202972     A.U. after   13 cycles
 Normal termination of Gaussian 16 at Tue Apr  8 23:39:40 2025.
 Gaussian 16:  ES64L-G16RevC.01  3-Jul-2019

 ----------------------------------------------------------------------
 #t hf aug-cc-pvdz iop(5/13=1,5/36=2,99/5=2) pseudo=read geom=check gue
 ss=(read,tcheck) scf=(maxcycle=1)
 ----------------------------------------------------------------------
 -----
 title
 -----
 Structure from the checkpoint file:  "BDE49_nonexpt_1621_mol1.chk"
 Charge =  0 Multiplicity = 1

                         Standard orientation:
 ---------------------------------------------------------------------
 Center     Atomic      Atomic             Coordinates (Angstroms)
 Number     Number       Type             X           Y           Z
 ---------------------------------------------------------------------
      1          7           0        1.900085   -1.296879    0.229928
      2         15           0        1.197355   -0.042208   -0.693754
      3          1           0        1.921580   -2.193321   -0.237405
      4          1           0        1.611180   -1.395229    1.196970
      5          6           0        1.718756    1.434119    0.289434
      6         15           0       -0.925616   -0.120589   -0.044110
      7          1           0        2.786880    1.588216    0.122739
      8          1           0        1.528955    1.314915    1.357565
      9          1           0        1.174082    2.308882   -0.071808
     10          8           0       -1.718301   -1.262601   -0.535360
     11          8           0       -1.557816    1.315884   -0.464471
     12          1           0       -2.185519    1.206222   -1.189863
     13          8           0       -0.834495   -0.003249    1.567803
     14          1           0       -1.641468   -0.314577    1.999895
 ---------------------------------------------------------------------

 SCF Done:  E(RHF) =  -1002.78344775     A.U. after    2 cycles

 The electronic state is 1-A.
 Alpha  occ. eigenvalues --  -81.40810 -81.29560 -20.61724 -20.61391 -20.52464
 Alpha  occ. eigenvalues --  -15.63319 -11.24744  -7.89303  -7.79583  -5.03892
 Alpha  occ. eigenvalues --   -5.03784  -5.03372  -4.93628  -4.93430  -4.93178
 Alpha  occ. eigenvalues --   -1.37441  -1.34402  -1.25466  -1.13655  -0.97360
 Alpha  occ. eigenvalues --   -0.85333  -0.75746  -0.74696  -0.68343  -0.67917
 Alpha  occ. eigenvalues --   -0.65988  -0.63968  -0.59162  -0.58581  -0.57394
 Alpha  occ. eigenvalues --   -0.56468  -0.53912  -0.52227  -0.48632  -0.47407
 Alpha  occ. eigenvalues --   -0.40342  -0.35258
 Alpha virt. eigenvalues --    0.03159   0.04330   0.04601   0.05067   0.06452
 Alpha virt. eigenvalues --    0.07133   0.07741   0.08728   0.10016   0.11220
 Alpha virt. eigenvalues --    0.11948   0.12294   0.13603   0.14456   0.15290

 Mulliken charges:
               1
     1  N   -0.471478
     2  P    0.649648
     3  H    0.014961
     4  H    0.009688
     5  C    0.201108
     6  P    2.139627
     7  H   -0.135524
     8  H   -0.148365
     9  H   -0.113252
    10  O   -0.939732
    11  O   -0.745325
    12  H    0.148409
    13  O   -0.762831
    14  H    0.153066
 Sum of Mulliken charges =  -0.00000

 Dipole moment (field-independent basis, Debye):
    X=              0.7941    Y=              1.2461    Z=              1.5414  Tot=              2.1352

 Test job not archived.
 1\1\GINC-SE038\SP\RHF\Aug-CC-pVDZ\C1H7N1O3P2\OHZDE\08-Apr-2025\0\\#t h
 f aug-cc-pvdz iop(5/13=1,5/36=2,99/5=2) pseudo=read geom=check guess=(
 read,tcheck) scf=(maxcycle=1)\\title\\0,1\N,0,1.900085,-1.296879,0.229
 928\P,0,1.197355,-0.042208,-0.693754\H,0,1.92158,-2.193321,-0.237405\H
 ,0,1.61118,-1.395229,1.19697\C,0,1.718756,1.434119,0.289434\P,0,-0.925
 616,-0.120589,-0.04411\H,0,2.78688,1.588216,0.122739\H,0,1.528955,1.31
 4915,1.357565\H,0,1.174082,2.308882,-0.071808\O,0,-1.718301,-1.262601,
 -0.53536\O,0,-1.557816,1.315884,-0.464471\H,0,-2.185519,1.206222,-1.18

 Normal termination of Gaussian 16 at Tue Apr  8 23:39:48 2025.
