 Gaussian 16, Revision C.01,

 ----------------------------------------------------------------------
 #t hf aug-cc-pvdz symm=none int=(grid=ultrafine) guess=(read,tcheck) s
 table=opt
 ----------------------------------------------------------------------
 -----
 title
 -----
 Symbolic Z-matrix:
 Charge =  0 Multiplicity = 2

 SCF Done:  E(UHF) =  -1124.76561186     A.U. after   20 cycles
 Normal termination of Gaussian 16 at Tue Apr  8 23:51:24 2025.
 Gaussian 16:  ES64L-G16RevC.01  3-Jul-2019

 ----------------------------------------------------------------------
 #t hf aug-cc-pvdz iop(5/13=1,5/36=2,99/5=2) pseudo=read geom=check gue
 ss=(read,tcheck) scf=(maxcycle=1)
 ----------------------------------------------------------------------
 -----
 title
 -----
 Structure from the checkpoint file:  "BDE49_nonexpt_1929_mol2.chk"
 Charge =  0 Multiplicity = 2

                         Standard orientation:
 ---------------------------------------------------------------------
 Center     Atomic      Atomic             Coordinates (Angstroms)
 Number     Number       Type             X           Y           Z
 ---------------------------------------------------------------------
      1         14           0       -1.912082    0.583410    0.017715
      2         16           0       -0.465206   -0.966812   -0.393044
      3          1           0       -2.313415    0.593259    1.447026
      4          1           0       -1.377260    1.915084   -0.365815
      5         16           0        1.167570   -0.166065    0.688749
      6          6           0        2.070491    0.765176   -0.596083
      7          1           0        2.951652    1.176099   -0.097124
      8          1           0        1.463533    1.581286   -0.986221
      9          1           0        2.383874    0.101505   -1.400668
 ---------------------------------------------------------------------

 SCF Done:  E(UHF) =  -1124.83818812     A.U. after    2 cycles

 The electronic state is 2-A.
 Alpha  occ. eigenvalues --  -93.56628 -93.55279 -69.10477 -11.27725  -8.86130
 Alpha  occ. eigenvalues --   -8.85023  -6.85571  -6.20318  -6.19966  -6.19652
 Alpha  occ. eigenvalues --   -6.19040  -6.18860  -6.18582  -3.96883  -3.96042
 Alpha  occ. eigenvalues --   -3.95939  -1.05616  -0.95208  -0.81662  -0.68988
 Alpha  occ. eigenvalues --   -0.60592  -0.60310  -0.53068  -0.50714  -0.48027
 Alpha  occ. eigenvalues --   -0.45487  -0.37646  -0.36906  -0.32360
 Alpha virt. eigenvalues --    0.03525   0.04435   0.05204   0.05902   0.06541
 Alpha virt. eigenvalues --    0.07253   0.07711   0.08164   0.09572   0.11373
 Alpha virt. eigenvalues --    0.12667   0.13375   0.14021   0.14914   0.15407

  Beta  occ. eigenvalues --  -93.56544 -93.55281 -69.09908 -11.27737  -8.86035
  Beta  occ. eigenvalues --   -8.85011  -6.84712  -6.20094  -6.19871  -6.19514
  Beta  occ. eigenvalues --   -6.19128  -6.18830  -6.18579  -3.95652  -3.95552
  Beta  occ. eigenvalues --   -3.94727  -1.05237  -0.94932  -0.80820  -0.65418
  Beta  occ. eigenvalues --   -0.60365  -0.60199  -0.52697  -0.49752  -0.47568
  Beta  occ. eigenvalues --   -0.44401  -0.37170  -0.35255
  Beta virt. eigenvalues --    0.01941   0.03614   0.04868   0.05743   0.06081
  Beta virt. eigenvalues --    0.06770   0.07499   0.08498   0.09419   0.09702
  Beta virt. eigenvalues --    0.11564   0.13053   0.14118   0.14603   0.15120

 Mulliken charges and spin densities:
               1          2
     1  Si   0.523864   0.950914
     2  S   -0.412363  -0.041914
     3  H   -0.021143   0.023318
     4  H   -0.033062   0.017069
     5  S    0.050952   0.062495
     6  C    0.067108  -0.011606
     7  H   -0.058126  -0.001765
     8  H   -0.088261   0.003164
     9  H   -0.028970  -0.001675
 Sum of Mulliken charges =  -0.00000   1.00000

 Dipole moment (field-independent basis, Debye):
    X=              0.4494    Y=              1.6389    Z=             -0.8282  Tot=              1.8905
                          Isotropic Fermi Contact Couplings
        Atom                 a.u.       MegaHertz       Gauss      10(-4) cm-1
     1  Si(29)             0.56095    -498.52843    -177.88734    -166.29119
     2  S(33)              0.06706      23.03196       8.21838       7.68264
     3  H(1)               0.00720      32.19575      11.48825      10.73935
     4  H(1)               0.00444      19.84972       7.08288       6.62116
     5  S(33)              0.02651       9.10555       3.24909       3.03729
     6  C(13)             -0.00198      -2.22930      -0.79547      -0.74362
     7  H(1)               0.00052       2.33776       0.83417       0.77979
     8  H(1)               0.00072       3.21706       1.14793       1.07310

 Normal termination of Gaussian 16 at Tue Apr  8 23:51:27 2025.
