 Gaussian 16, Revision C.01,

 ----------------------------------------------------------------------
 #t hf aug-cc-pvdz symm=none int=(grid=ultrafine) guess=(read,tcheck) s
 table=(opt,rrhf)
 ----------------------------------------------------------------------
 -----
 title
 -----
 Symbolic Z-matrix:
 Charge =  0 Multiplicity = 1

 SCF Done:  E(RHF) =  -1030.46044271     A.U. after   14 cycles

 1\1\GINC-SE128\Stability\RHF\Aug-CC-pVDZ\C6H14S2\OHZDE\09-Apr-2025\0\\
 #t hf aug-cc-pvdz symm=none int=(grid=ultrafine) guess=(read,tcheck) s
 table=(opt,rrhf)\\title\\0,1\C,0,-1.848534,0.330015,0.310653\S,0,-0.59
 9816,-0.128234,-0.996565\S,0,0.860367,-1.219857,0.002081\C,0,2.20185,0
 .003327,0.416042\C,0,-2.52058,-0.897425,0.916894\C,0,1.743502,1.09412,
 1.381048\H,0,-1.787358,-1.56725,1.369686\H,0,-3.070667,-1.455248,0.154
 223\H,0,1.299752,0.670428,2.284059\H,0,1.007587,1.746444,0.903665\C,0,
 -2.846261,1.268076,-0.374282\H,0,-2.357803,2.161548,-0.769741\H,0,-3.6

 Normal termination of Gaussian 16 at Wed Apr  9 00:25:15 2025.
 Gaussian 16:  ES64L-G16RevC.01  3-Jul-2019

 ----------------------------------------------------------------------
 #t hf aug-cc-pvdz iop(5/13=1,5/36=2,99/5=2) pseudo=read geom=check gue
 ss=(read,tcheck) scf=(maxcycle=1)
 ----------------------------------------------------------------------
 -----
 title
 -----
 Structure from the checkpoint file:  "BDE49_nonexpt_2736_mol1.chk"
 Charge =  0 Multiplicity = 1

                         Standard orientation:
 ---------------------------------------------------------------------
 Center     Atomic      Atomic             Coordinates (Angstroms)
 Number     Number       Type             X           Y           Z
 ---------------------------------------------------------------------
      1          6           0       -1.848534    0.330015    0.310653
      2         16           0       -0.599816   -0.128234   -0.996565
      3         16           0        0.860367   -1.219857    0.002081
      4          6           0        2.201850    0.003327    0.416042
      5          6           0       -2.520580   -0.897425    0.916894
      6          6           0        1.743502    1.094120    1.381048
      7          1           0       -1.787358   -1.567250    1.369686
      8          1           0       -3.070667   -1.455248    0.154223
      9          1           0        1.299752    0.670428    2.284059
     10          1           0        1.007587    1.746444    0.903665
     11          6           0       -2.846261    1.268076   -0.374282
     12          1           0       -2.357803    2.161548   -0.769741
     13          1           0       -3.606944    1.586061    0.344918
     14          1           0       -3.358715    0.764337   -1.199217
     15          6           0        2.872211    0.565649   -0.836022
     16          1           0        3.243755   -0.233316   -1.480023
     17          1           0        3.715515    1.206219   -0.557128
     18          1           0        2.167252    1.169925   -1.412621
     19          1           0        2.902469   -0.664474    0.932581
     20          1           0        2.594665    1.716683    1.675955
     21          1           0       -1.304701    0.877629    1.082529
     22          1           0       -3.226743   -0.592101    1.696861
 ---------------------------------------------------------------------

 SCF Done:  E(RHF) =  -1030.57510228     A.U. after    2 cycles

 The electronic state is 1-A.
 Alpha  occ. eigenvalues --  -93.54429 -93.54353 -11.27926 -11.27741 -11.23787
 Alpha  occ. eigenvalues --  -11.23485 -11.23013 -11.22933  -8.83975  -8.83902
 Alpha  occ. eigenvalues --   -6.18144  -6.18024  -6.17845  -6.17770  -6.17562
 Alpha  occ. eigenvalues --   -6.17492  -1.09401  -1.07348  -0.97579  -0.93816
 Alpha  occ. eigenvalues --   -0.93745  -0.86872  -0.79072  -0.74106  -0.63686
 Alpha  occ. eigenvalues --   -0.62873  -0.60906  -0.59435  -0.57880  -0.57236
 Alpha  occ. eigenvalues --   -0.54784  -0.54702  -0.50986  -0.50230  -0.50055
 Alpha  occ. eigenvalues --   -0.49882  -0.46750  -0.45002  -0.42297  -0.34693
 Alpha  occ. eigenvalues --   -0.34026
 Alpha virt. eigenvalues --    0.03322   0.04002   0.04578   0.04854   0.05858
 Alpha virt. eigenvalues --    0.05937   0.06270   0.07015   0.07169   0.08167
 Alpha virt. eigenvalues --    0.08486   0.08726   0.09297   0.09999   0.11322

 Mulliken charges:
               1
     1  C   -0.819785
     2  S    0.096519
     3  S    0.067518
     4  C   -0.613389
     5  C    0.496914
     6  C    0.570407
     7  H   -0.077960
     8  H   -0.025270
     9  H   -0.102737
    10  H   -0.024177
    11  C    0.702658
    12  H   -0.108760
    13  H   -0.036506
    14  H   -0.036957
    15  C    0.508141
    16  H   -0.069328
    17  H   -0.055275
    18  H   -0.048862
    19  H   -0.091237
    20  H   -0.104150
    21  H   -0.191971
    22  H   -0.035791
 Sum of Mulliken charges =  -0.00000

 Dipole moment (field-independent basis, Debye):
    X=              0.0434    Y=              1.6865    Z=              1.6351  Tot=              2.3494

 Test job not archived.
 1\1\GINC-SE128\SP\RHF\Aug-CC-pVDZ\C6H14S2\OHZDE\09-Apr-2025\0\\#t hf a
 ug-cc-pvdz iop(5/13=1,5/36=2,99/5=2) pseudo=read geom=check guess=(rea
 d,tcheck) scf=(maxcycle=1)\\title\\0,1\C,0,-1.848534,0.330015,0.310653
 \S,0,-0.599816,-0.128234,-0.996565\S,0,0.860367,-1.219857,0.002081\C,0
 ,2.20185,0.003327,0.416042\C,0,-2.52058,-0.897425,0.916894\C,0,1.74350
 2,1.09412,1.381048\H,0,-1.787358,-1.56725,1.369686\H,0,-3.070667,-1.45
 5248,0.154223\H,0,1.299752,0.670428,2.284059\H,0,1.007587,1.746444,0.9
 03665\C,0,-2.846261,1.268076,-0.374282\H,0,-2.357803,2.161548,-0.76974

 Normal termination of Gaussian 16 at Wed Apr  9 00:25:27 2025.
