 Gaussian 16, Revision C.01,

 ----------------------------------------------------------------------
 #t hf aug-cc-pvdz symm=none int=(grid=ultrafine) guess=(read,tcheck) s
 table=(opt,rrhf)
 ----------------------------------------------------------------------
 -----
 title
 -----
 Symbolic Z-matrix:
 Charge =  0 Multiplicity = 1

 SCF Done:  E(RHF) =  -469.866772035     A.U. after   14 cycles
 Normal termination of Gaussian 16 at Wed Apr  9 00:33:30 2025.
 Gaussian 16:  ES64L-G16RevC.01  3-Jul-2019

 ----------------------------------------------------------------------
 #t hf aug-cc-pvdz iop(5/13=1,5/36=2,99/5=2) pseudo=read geom=check gue
 ss=(read,tcheck) scf=(maxcycle=1)
 ----------------------------------------------------------------------
 -----
 title
 -----
 Structure from the checkpoint file:  "BDE49_nonexpt_429_mol1.chk"
 Charge =  0 Multiplicity = 1

                         Standard orientation:
 ---------------------------------------------------------------------
 Center     Atomic      Atomic             Coordinates (Angstroms)
 Number     Number       Type             X           Y           Z
 ---------------------------------------------------------------------
      1          9           0       -2.429019   -1.127021    0.000000
      2          5           0       -1.715812   -0.016997   -0.000002
      3          9           0       -2.391206    1.131170   -0.000010
      4          6           0       -0.157827   -0.008205    0.000000
      5          6           0        0.548772    1.200980   -0.000002
      6          7           0        0.466878   -1.206670    0.000004
      7          6           0        1.796906   -1.215531    0.000006
      8          6           0        1.940592    1.176781    0.000001
      9          6           0        2.578940   -0.057025    0.000005
     10          1           0        0.007238    2.139459   -0.000005
     11          1           0        2.511916    2.098114    0.000000
     12          1           0        3.660219   -0.130977    0.000007
     13          1           0        2.269278   -2.194261    0.000010
 ---------------------------------------------------------------------

 SCF Done:  E(RHF) =  -470.027122597     A.U. after    2 cycles

 The electronic state is 1-A.
 Alpha  occ. eigenvalues --  -26.13672 -26.13214 -15.64937 -11.29752 -11.28291
 Alpha  occ. eigenvalues --  -11.28139 -11.27295 -11.27156  -7.73725  -1.68776
 Alpha  occ. eigenvalues --   -1.66491  -1.24284  -1.09208  -1.04413  -0.88992
 Alpha  occ. eigenvalues --   -0.87253  -0.86086  -0.81371  -0.78383  -0.76491
 Alpha  occ. eigenvalues --   -0.71905  -0.71720  -0.71268  -0.67614  -0.66076
 Alpha  occ. eigenvalues --   -0.60422  -0.58615  -0.55636  -0.52627  -0.42486
 Alpha  occ. eigenvalues --   -0.39768  -0.36793
 Alpha virt. eigenvalues --    0.02663   0.03743   0.04583   0.05026   0.05908
 Alpha virt. eigenvalues --    0.06087   0.06549   0.07277   0.08569   0.08745
 Alpha virt. eigenvalues --    0.11432   0.11882   0.12970   0.13004   0.14100

 Mulliken charges:
               1
     1  F   -0.478734
     2  B    0.986878
     3  F   -0.460294
     4  C    0.476375
     5  C    0.443833
     6  N   -0.390444
     7  C    0.500964
     8  C   -0.255361
     9  C    0.865680
    10  H   -0.527754
    11  H   -0.393412
    12  H   -0.399585
    13  H   -0.368147
 Sum of Mulliken charges =   0.00000

 Dipole moment (field-independent basis, Debye):
    X=              3.7876    Y=              1.8263    Z=              0.0000  Tot=              4.2049

 Test job not archived.
 1\1\GINC-SE227\SP\RHF\Aug-CC-pVDZ\C5H4B1F2N1\OHZDE\09-Apr-2025\0\\#t h
 f aug-cc-pvdz iop(5/13=1,5/36=2,99/5=2) pseudo=read geom=check guess=(
 read,tcheck) scf=(maxcycle=1)\\title\\0,1\F,0,-2.429019,-1.127021,0.\B
 ,0,-1.715812,-0.016997,-0.000002\F,0,-2.391206,1.13117,-0.00001\C,0,-0
 .157827,-0.008205,0.\C,0,0.548772,1.20098,-0.000002\N,0,0.466878,-1.20
 667,0.000004\C,0,1.796906,-1.215531,0.000006\C,0,1.940592,1.176781,0.0
 00001\C,0,2.57894,-0.057025,0.000005\H,0,0.007238,2.139459,-0.000005\H
 ,0,2.511916,2.098114,0.\H,0,3.660219,-0.130977,0.000007\H,0,2.269278,-

 Normal termination of Gaussian 16 at Wed Apr  9 00:33:35 2025.
