 Gaussian 16, Revision C.01,

 ----------------------------------------------------------------------
 #t hf aug-cc-pvdz symm=none int=(grid=ultrafine) guess=(read,tcheck) s
 table=opt
 ----------------------------------------------------------------------
 -----
 title
 -----
 Symbolic Z-matrix:
 Charge =  0 Multiplicity = 2

 SCF Done:  E(UHF) =  -453.905834548     A.U. after   24 cycles
 Normal termination of Gaussian 16 at Tue Apr  8 23:01:37 2025.
 Gaussian 16:  ES64L-G16RevC.01  3-Jul-2019

 ----------------------------------------------------------------------
 #t hf aug-cc-pvdz iop(5/13=1,5/36=2,99/5=2) pseudo=read geom=check gue
 ss=(read,tcheck) scf=(maxcycle=1)
 ----------------------------------------------------------------------
 -----
 title
 -----
 Structure from the checkpoint file:  "BDE49_expt_256_mol2.chk"
 Charge =  0 Multiplicity = 2

                         Standard orientation:
 ---------------------------------------------------------------------
 Center     Atomic      Atomic             Coordinates (Angstroms)
 Number     Number       Type             X           Y           Z
 ---------------------------------------------------------------------
      1          6           0       -1.711245    0.043051   -0.053226
      2          6           0        1.668488   -0.149176   -0.076926
      3          8           0        2.747350   -0.354722   -0.586873
      4          8           0       -2.780296   -0.365871   -0.398499
      5          8           0        1.373008    1.070154    0.512030
      6          1           0        2.159139    1.626841    0.414030
      7          6           0        0.573876   -1.085381    0.003197
      8          8           0       -1.312385    1.301347   -0.301580
      9          1           0       -0.415053    1.453503    0.042518
     10          6           0       -0.695836   -0.837522    0.734123
     11          1           0       -1.212001   -1.772787    0.940299
     12          1           0       -0.495887   -0.322188    1.680778
     13          1           0        0.730687   -2.018470   -0.521261
 ---------------------------------------------------------------------

 SCF Done:  E(UHF) =  -454.048289438     A.U. after    2 cycles

 The electronic state is 2-A.
 Alpha  occ. eigenvalues --  -20.65859 -20.62595 -20.61665 -20.56855 -11.42387
 Alpha  occ. eigenvalues --  -11.41191 -11.31749 -11.29087  -1.45847  -1.42804
 Alpha  occ. eigenvalues --   -1.37114  -1.34003  -1.12628  -0.98362  -0.86327
 Alpha  occ. eigenvalues --   -0.84783  -0.76547  -0.75773  -0.72340  -0.69392
 Alpha  occ. eigenvalues --   -0.68278  -0.66031  -0.65552  -0.63307  -0.59719
 Alpha  occ. eigenvalues --   -0.58063  -0.56454  -0.52438  -0.50318  -0.49652
 Alpha  occ. eigenvalues --   -0.41776
 Alpha virt. eigenvalues --    0.02468   0.03684   0.04447   0.06050   0.06239
 Alpha virt. eigenvalues --    0.09145   0.09509   0.10654   0.10887   0.12678
 Alpha virt. eigenvalues --    0.13208   0.13929   0.14318   0.14850   0.15263

  Beta  occ. eigenvalues --  -20.65949 -20.62574 -20.60111 -20.56865 -11.43145
  Beta  occ. eigenvalues --  -11.40931 -11.29519 -11.29379  -1.45070  -1.42654
  Beta  occ. eigenvalues --   -1.34934  -1.33925  -1.08622  -0.96452  -0.85656
  Beta  occ. eigenvalues --   -0.83477  -0.75809  -0.74428  -0.70872  -0.68968
  Beta  occ. eigenvalues --   -0.66890  -0.65403  -0.64859  -0.62647  -0.58561
  Beta  occ. eigenvalues --   -0.56279  -0.51065  -0.50468  -0.50299  -0.47235
  Beta virt. eigenvalues --    0.01591   0.02495   0.03723   0.04481   0.06097
  Beta virt. eigenvalues --    0.06251   0.09270   0.09634   0.10766   0.10938
  Beta virt. eigenvalues --    0.12839   0.13341   0.14326   0.14483   0.14929

 Mulliken charges and spin densities:
               1          2
     1  C    0.555357   0.065131
     2  C    0.474425  -0.422346
     3  O   -0.439966   0.350536
     4  O   -0.420991  -0.003595
     5  O   -0.640706  -0.004051
     6  H    0.210394  -0.003189
     7  C    0.634176   1.301121
     8  O   -0.451936   0.003216
     9  H    0.233407   0.000713
    10  C    0.156142  -0.248246
    11  H   -0.073841   0.002700
    12  H    0.095999   0.024133
    13  H   -0.332461  -0.066124
 Sum of Mulliken charges =  -0.00000   1.00000

 Dipole moment (field-independent basis, Debye):
    X=              3.0987    Y=              0.0100    Z=              2.7630  Tot=              4.1517
                          Isotropic Fermi Contact Couplings
        Atom                 a.u.       MegaHertz       Gauss      10(-4) cm-1
     1  C(13)              0.06368      71.58397      25.54294      23.87784
     2  C(13)             -0.10702    -120.31128     -42.93006     -40.13152
     3  O(17)              0.13002     -78.81625     -28.12360     -26.29027
     4  O(17)             -0.00024       0.14332       0.05114       0.04781
     5  O(17)             -0.01801      10.91980       3.89646       3.64245
     6  H(1)              -0.00018      -0.78715      -0.28088      -0.26257
     7  C(13)              0.19454     218.70107      78.03798      72.95083
     8  O(17)              0.00129      -0.78079      -0.27861      -0.26044

 Normal termination of Gaussian 16 at Tue Apr  8 23:01:43 2025.
