 Gaussian 16, Revision C.01,

 ----------------------------------------------------------------------
 #t hf aug-cc-pvdz symm=none int=(grid=ultrafine) guess=(read,tcheck) s
 table=(opt,rrhf)
 ----------------------------------------------------------------------
 -----
 title
 -----
 Symbolic Z-matrix:
 Charge =  0 Multiplicity = 1

 SCF Done:  E(RHF) =  -289.261488288     A.U. after   12 cycles

 1\1\GINC-SE250\Stability\RHF\Aug-CC-pVDZ\C6H13N1\OHZDE\08-Apr-2025\0\\
 #t hf aug-cc-pvdz symm=none int=(grid=ultrafine) guess=(read,tcheck) s
 table=(opt,rrhf)\\title\\0,1\N,0,-0.339353,-1.238423,0.111006\C,0,1.09
 0952,-1.280483,-0.20996\C,0,1.88158,-0.060062,0.288689\C,0,1.224488,1.
 240668,-0.19387\C,0,-0.268797,1.271446,0.16522\C,0,-0.993454,0.003933,
 -0.329998\H,0,1.333493,1.315177,-1.283831\H,0,1.736672,2.110797,0.2286
 62\H,0,-0.743592,2.164623,-0.256835\H,0,-0.383939,1.337685,1.256082\H,
 0,1.182913,-1.34941,-1.30156\H,0,1.50697,-2.20672,0.19718\H,0,2.921268

 Normal termination of Gaussian 16 at Tue Apr  8 22:37:10 2025.
 Gaussian 16:  ES64L-G16RevC.01  3-Jul-2019

 ----------------------------------------------------------------------
 #t hf aug-cc-pvdz iop(5/13=1,5/36=2,99/5=2) pseudo=read geom=check gue
 ss=(read,tcheck) scf=(maxcycle=1)
 ----------------------------------------------------------------------
 -----
 title
 -----
 Structure from the checkpoint file:  "BDE49_expt_1189_mol1.chk"
 Charge =  0 Multiplicity = 1

                         Standard orientation:
 ---------------------------------------------------------------------
 Center     Atomic      Atomic             Coordinates (Angstroms)
 Number     Number       Type             X           Y           Z
 ---------------------------------------------------------------------
      1          7           0       -0.339353   -1.238423    0.111006
      2          6           0        1.090952   -1.280483   -0.209960
      3          6           0        1.881580   -0.060062    0.288689
      4          6           0        1.224488    1.240668   -0.193870
      5          6           0       -0.268797    1.271446    0.165220
      6          6           0       -0.993454    0.003933   -0.329998
      7          1           0        1.333493    1.315177   -1.283831
      8          1           0        1.736672    2.110797    0.228662
      9          1           0       -0.743592    2.164623   -0.256835
     10          1           0       -0.383939    1.337685    1.256082
     11          1           0        1.182913   -1.349410   -1.301560
     12          1           0        1.506970   -2.206720    0.197180
     13          1           0        2.921268   -0.117473   -0.052657
     14          1           0        1.907183   -0.072754    1.386319
     15          1           0       -0.459252   -1.331560    1.117542
     16          6           0       -2.464101   -0.023266    0.079224
     17          1           0       -0.941883   -0.000894   -1.428324
     18          1           0       -2.563857   -0.015429    1.170725
     19          1           0       -2.946851   -0.927228   -0.297957
     20          1           0       -2.997663    0.848734   -0.308212
 ---------------------------------------------------------------------

 SCF Done:  E(RHF) =  -289.349275973     A.U. after    2 cycles

 The electronic state is 1-A.
 Alpha  occ. eigenvalues --  -15.59873 -11.25676 -11.25142 -11.22692 -11.22465
 Alpha  occ. eigenvalues --  -11.22363 -11.21933  -1.17958  -1.04095  -1.02796
 Alpha  occ. eigenvalues --   -0.92750  -0.85175  -0.81057  -0.77107  -0.64460
 Alpha  occ. eigenvalues --   -0.62351  -0.61847  -0.60202  -0.57921  -0.54671
 Alpha  occ. eigenvalues --   -0.52072  -0.51212  -0.50682  -0.48294  -0.47367
 Alpha  occ. eigenvalues --   -0.45754  -0.44497  -0.35016
 Alpha virt. eigenvalues --    0.03549   0.04078   0.04172   0.04510   0.06305
 Alpha virt. eigenvalues --    0.06539   0.06769   0.06840   0.07104   0.08883
 Alpha virt. eigenvalues --    0.09195   0.09308   0.09552   0.12849   0.13465

 Mulliken charges:
               1
     1  N   -0.604003
     2  C    0.641017
     3  C    0.202033
     4  C    0.246027
     5  C    0.373524
     6  C   -0.208169
     7  H   -0.098783
     8  H   -0.074159
     9  H   -0.124600
    10  H   -0.100599
    11  H   -0.145884
    12  H   -0.204781
    13  H   -0.096183
    14  H   -0.106192
    15  H    0.042011
    16  C    0.694070
    17  H   -0.293428
    18  H   -0.073750
    19  H   -0.007091
    20  H   -0.061059
 Sum of Mulliken charges =   0.00000

 Dipole moment (field-independent basis, Debye):
    X=              0.5569    Y=              0.9132    Z=              0.4990  Tot=              1.1802

 Test job not archived.
 1\1\GINC-SE250\SP\RHF\Aug-CC-pVDZ\C6H13N1\OHZDE\08-Apr-2025\0\\#t hf a
 ug-cc-pvdz iop(5/13=1,5/36=2,99/5=2) pseudo=read geom=check guess=(rea
 d,tcheck) scf=(maxcycle=1)\\title\\0,1\N,0,-0.339353,-1.238423,0.11100
 6\C,0,1.090952,-1.280483,-0.20996\C,0,1.88158,-0.060062,0.288689\C,0,1
 .224488,1.240668,-0.19387\C,0,-0.268797,1.271446,0.16522\C,0,-0.993454
 ,0.003933,-0.329998\H,0,1.333493,1.315177,-1.283831\H,0,1.736672,2.110
 797,0.228662\H,0,-0.743592,2.164623,-0.256835\H,0,-0.383939,1.337685,1
 .256082\H,0,1.182913,-1.34941,-1.30156\H,0,1.50697,-2.20672,0.19718\H,

 Normal termination of Gaussian 16 at Tue Apr  8 22:37:18 2025.
