 Gaussian 16, Revision C.01,

 ----------------------------------------------------------------------
 #t hf aug-cc-pvdz symm=none int=(grid=ultrafine) guess=(read,tcheck) s
 table=opt
 ----------------------------------------------------------------------
 -----
 title
 -----
 Symbolic Z-matrix:
 Charge =  0 Multiplicity = 2

 SCF Done:  E(UHF) =  -174.149120325     A.U. after   16 cycles
 Normal termination of Gaussian 16 at Tue Apr  8 22:39:23 2025.
 Gaussian 16:  ES64L-G16RevC.01  3-Jul-2019

 ----------------------------------------------------------------------
 #t hf aug-cc-pvdz iop(5/13=1,5/36=2,99/5=2) pseudo=read geom=check gue
 ss=(read,tcheck) scf=(maxcycle=1)
 ----------------------------------------------------------------------
 -----
 title
 -----
 Structure from the checkpoint file:  "BDE49_expt_1326_mol3.chk"
 Charge =  0 Multiplicity = 2

                         Standard orientation:
 ---------------------------------------------------------------------
 Center     Atomic      Atomic             Coordinates (Angstroms)
 Number     Number       Type             X           Y           Z
 ---------------------------------------------------------------------
      1          8           0        0.000000    0.000000   -0.715266
      2          9           0        0.000000    0.000000    0.635792
 ---------------------------------------------------------------------

 SCF Done:  E(UHF) =  -174.210936395     A.U. after    2 cycles

 Unable to determine electronic state:  an orbital has unidentified symmetry.
 Alpha  occ. eigenvalues --  -26.21659 -20.78323  -1.75266  -1.34206  -0.87551
 Alpha  occ. eigenvalues --   -0.83683  -0.78588  -0.69161  -0.62009
 Alpha virt. eigenvalues --    0.10367   0.16277   0.18024   0.19069   0.22052
 Alpha virt. eigenvalues --    0.28193   0.28536   0.28546   0.51141   0.90735
 Alpha virt. eigenvalues --    0.90804   1.02863   1.05610   1.11832   1.19897

  Beta  occ. eigenvalues --  -26.21681 -20.73699  -1.73931  -1.19540  -0.82815
  Beta  occ. eigenvalues --   -0.77269  -0.77151  -0.57733
  Beta virt. eigenvalues --    0.03675   0.11700   0.16733   0.19290   0.22606
  Beta virt. eigenvalues --    0.24987   0.28528   0.28635   0.28657   0.51178
  Beta virt. eigenvalues --    0.93645   0.93707   1.05921   1.06798   1.13999

 Mulliken charges and spin densities:
               1          2
     1  O    0.241213   1.076849
     2  F   -0.241213  -0.076849
 Sum of Mulliken charges =   0.00000   1.00000

 Dipole moment (field-independent basis, Debye):
    X=             -0.0000    Y=              0.0000    Z=             -0.6388  Tot=              0.6388
                          Isotropic Fermi Contact Couplings
        Atom                 a.u.       MegaHertz       Gauss      10(-4) cm-1
     1  O(17)              0.24895    -150.91120     -53.84887     -50.33856
     2  F(19)              0.04421     186.01537      66.37491      62.04805
 --------------------------------------------------------
       Center         ----  Spin Dipole Couplings  ----
                      3XX-RR        3YY-RR        3ZZ-RR
 --------------------------------------------------------
     1   Atom        2.456232     -0.715131     -1.741101
     2   Atom        0.780319      0.254825     -1.035144

 Normal termination of Gaussian 16 at Tue Apr  8 22:39:26 2025.
