 Gaussian 16, Revision C.01,

 ----------------------------------------------------------------------
 #t hf aug-cc-pvdz symm=none int=(grid=ultrafine) guess=(read,tcheck) s
 table=(opt,rrhf)
 ----------------------------------------------------------------------
 -----
 title
 -----
 Symbolic Z-matrix:
 Charge =  0 Multiplicity = 1

 SCF Done:  E(RHF) =  -778.898052588     A.U. after   16 cycles
 Normal termination of Gaussian 16 at Tue Apr  8 23:35:06 2025.
 Gaussian 16:  ES64L-G16RevC.01  3-Jul-2019

 ----------------------------------------------------------------------
 #t hf aug-cc-pvdz iop(5/13=1,5/36=2,99/5=2) pseudo=read geom=check gue
 ss=(read,tcheck) scf=(maxcycle=1)
 ----------------------------------------------------------------------
 -----
 title
 -----
 Structure from the checkpoint file:  "BDE49_nonexpt_1472_mol1.chk"
 Charge =  0 Multiplicity = 1

                         Standard orientation:
 ---------------------------------------------------------------------
 Center     Atomic      Atomic             Coordinates (Angstroms)
 Number     Number       Type             X           Y           Z
 ---------------------------------------------------------------------
      1          6           0       -3.109236   -0.404185    0.818538
      2          6           0       -1.943167   -1.094401    0.492840
      3          6           0       -3.275957    0.911894    0.395456
      4          6           0       -2.275799    1.535684   -0.350641
      5          6           0       -1.108336    0.849955   -0.673365
      6          6           0       -0.928670   -0.476207   -0.250214
      7          1           0       -1.821838   -2.125126    0.810415
      8          1           0       -3.886240   -0.894643    1.394311
      9          1           0       -4.184127    1.450532    0.642840
     10          1           0       -2.405666    2.560310   -0.681351
     11          1           0       -0.321351    1.340225   -1.231806
     12         15           0        0.554697   -1.489084   -0.656680
     13          7           0        1.848902   -0.789182    0.288966
     14          6           0        2.437430    0.448935    0.109322
     15          8           0        2.079862    1.227929   -0.751844
     16          6           0        3.556253    0.777166    1.085564
     17          1           0        4.138163   -0.101709    1.372405
     18          1           0        3.123343    1.211399    1.991712
     19          1           0        4.210814    1.518105    0.629695
     20          1           0        2.236642   -1.376629    1.012262
     21          1           0        0.893489   -0.838398   -1.863293
 ---------------------------------------------------------------------

 SCF Done:  E(RHF) =  -779.055080877     A.U. after    2 cycles

 The electronic state is 1-A.
 Alpha  occ. eigenvalues --  -81.28633 -20.54406 -15.64959 -11.37341 -11.25326
 Alpha  occ. eigenvalues --  -11.25239 -11.25148 -11.24758 -11.24623 -11.24595
 Alpha  occ. eigenvalues --  -11.24430  -7.78594  -4.92777  -4.92559  -4.92318
 Alpha  occ. eigenvalues --   -1.35445  -1.17500  -1.14336  -1.01727  -1.01171
 Alpha  occ. eigenvalues --   -0.99831  -0.84738  -0.82979  -0.80376  -0.76358
 Alpha  occ. eigenvalues --   -0.70394  -0.68985  -0.64392  -0.63390  -0.62920
 Alpha  occ. eigenvalues --   -0.62446  -0.59299  -0.58771  -0.56600  -0.55375
 Alpha  occ. eigenvalues --   -0.52762  -0.50497  -0.49900  -0.48559  -0.44668
 Alpha  occ. eigenvalues --   -0.41760  -0.35832  -0.34271  -0.34058
 Alpha virt. eigenvalues --    0.03015   0.03698   0.04236   0.05006   0.05330
 Alpha virt. eigenvalues --    0.05397   0.06688   0.07080   0.07638   0.08559
 Alpha virt. eigenvalues --    0.08911   0.09909   0.10071   0.10707   0.11252

 Mulliken charges:
               1
     1  C    0.630794
     2  C    0.136201
     3  C    0.518319
     4  C    0.554737
     5  C    0.472795
     6  C    0.123669
     7  H   -0.532572
     8  H   -0.444194
     9  H   -0.433225
    10  H   -0.451440
    11  H   -0.595033
    12  P    0.377437
    13  N   -0.510392
    14  C    0.307949
    15  O   -0.500722
    16  C    0.329787
    17  H   -0.067344
    18  H    0.066267
    19  H   -0.020318
    20  H   -0.126653
    21  H    0.163938
 Sum of Mulliken charges =   0.00000

 Dipole moment (field-independent basis, Debye):
    X=              0.6217    Y=             -1.1786    Z=              2.8486  Tot=              3.1448

 Test job not archived.
 1\1\GINC-SE329\SP\RHF\Aug-CC-pVDZ\C8H10N1O1P1\OHZDE\08-Apr-2025\0\\#t
 hf aug-cc-pvdz iop(5/13=1,5/36=2,99/5=2) pseudo=read geom=check guess=
 (read,tcheck) scf=(maxcycle=1)\\title\\0,1\C,0,3.109236,0.404185,0.818
 538\C,0,1.943167,1.094401,0.49284\C,0,3.275957,-0.911894,0.395456\C,0,
 2.275799,-1.535684,-0.350641\C,0,1.108336,-0.849955,-0.673365\C,0,0.92
 867,0.476207,-0.250214\H,0,1.821838,2.125126,0.810415\H,0,3.88624,0.89
 4643,1.394311\H,0,4.184127,-1.450532,0.64284\H,0,2.405666,-2.56031,-0.
 681351\H,0,0.321351,-1.340225,-1.231806\P,0,-0.554697,1.489084,-0.6566

 Normal termination of Gaussian 16 at Tue Apr  8 23:35:20 2025.
