 Gaussian 16, Revision C.01,

 ----------------------------------------------------------------------
 #t hf aug-cc-pvdz symm=none int=(grid=ultrafine) guess=(read,tcheck) s
 table=(opt,rrhf)
 ----------------------------------------------------------------------
 -----
 title
 -----
 Symbolic Z-matrix:
 Charge =  0 Multiplicity = 1

 SCF Done:  E(RHF) =  -1290.67396913     A.U. after   18 cycles
 Normal termination of Gaussian 16 at Wed Apr  9 00:20:04 2025.
 Gaussian 16:  ES64L-G16RevC.01  3-Jul-2019

 ----------------------------------------------------------------------
 #t hf aug-cc-pvdz iop(5/13=1,5/36=2,99/5=2) pseudo=read geom=check gue
 ss=(read,tcheck) scf=(maxcycle=1)
 ----------------------------------------------------------------------
 -----
 title
 -----
 Structure from the checkpoint file:  "BDE49_nonexpt_2604_mol1.chk"
 Charge =  0 Multiplicity = 1

                         Standard orientation:
 ---------------------------------------------------------------------
 Center     Atomic      Atomic             Coordinates (Angstroms)
 Number     Number       Type             X           Y           Z
 ---------------------------------------------------------------------
      1         17           0       -3.210541   -0.676946    0.923374
      2         16           0       -2.315620   -0.250680   -0.927529
      3          6           0       -0.740424    0.399322   -0.420403
      4          6           0        0.364724   -0.451927   -0.342962
      5          6           0        1.596621    0.094300   -0.009587
      6          6           0        1.762381    1.449725    0.253374
      7          6           0       -0.593572    1.768708   -0.161216
      8          1           0       -1.459899    2.414996   -0.226162
      9          6           0        0.653412    2.287374    0.175790
     10          1           0        0.764170    3.346116    0.375370
     11          1           0        2.744367    1.822290    0.509612
     12          7           0        2.777573   -0.801095    0.068583
     13          8           0        2.604656   -1.983718   -0.183768
     14          8           0        3.845720   -0.295081    0.380037
     15          1           0        0.275591   -1.511411   -0.535908
 ---------------------------------------------------------------------

 SCF Done:  E(RHF) =  -1290.84053354     A.U. after    2 cycles

 The electronic state is 1-A.
 Alpha  occ. eigenvalues -- -103.68582 -93.61672 -20.63145 -20.63108 -15.93444
 Alpha  occ. eigenvalues --  -11.33850 -11.31987 -11.30983 -11.30822 -11.30640
 Alpha  occ. eigenvalues --  -11.29232 -10.71703  -8.90927  -8.37432  -8.37088
 Alpha  occ. eigenvalues --   -8.37059  -6.25035  -6.24800  -6.24398  -1.56444
 Alpha  occ. eigenvalues --   -1.38076  -1.21474  -1.17145  -1.10556  -1.07691
 Alpha  occ. eigenvalues --   -0.97330  -0.95270  -0.86963  -0.83566  -0.78683
 Alpha  occ. eigenvalues --   -0.75324  -0.74096  -0.73160  -0.69155  -0.66191
 Alpha  occ. eigenvalues --   -0.62615  -0.58257  -0.57903  -0.55531  -0.53010
 Alpha  occ. eigenvalues --   -0.52828  -0.52597  -0.51896  -0.48770  -0.46630
 Alpha  occ. eigenvalues --   -0.40099  -0.39197  -0.38718
 Alpha virt. eigenvalues --    0.00998   0.02448   0.02653   0.04155   0.04722
 Alpha virt. eigenvalues --    0.06004   0.06666   0.07927   0.09718   0.10138
 Alpha virt. eigenvalues --    0.10874   0.11372   0.11765   0.12403   0.12766

 Mulliken charges:
               1
     1  Cl  -0.292271
     2  S    0.180352
     3  C    0.945487
     4  C   -0.090526
     5  C    1.240018
     6  C    0.090137
     7  C    0.098779
     8  H   -0.469213
     9  C    0.576133
    10  H   -0.415545
    11  H   -0.440064
    12  N    0.124422
    13  O   -0.560481
    14  O   -0.570015
    15  H   -0.417211
 Sum of Mulliken charges =  -0.00000

 Dipole moment (field-independent basis, Debye):
    X=             -1.4641    Y=              4.2432    Z=             -0.6826  Tot=              4.5403

 Test job not archived.
 1\1\GINC-SE166\SP\RHF\Aug-CC-pVDZ\C6H4Cl1N1O2S1\OHZDE\09-Apr-2025\0\\#
 t hf aug-cc-pvdz iop(5/13=1,5/36=2,99/5=2) pseudo=read geom=check gues
 s=(read,tcheck) scf=(maxcycle=1)\\title\\0,1\Cl,0,-3.210541,-0.676946,
 0.923374\S,0,-2.31562,-0.25068,-0.927529\C,0,-0.740424,0.399322,-0.420
 403\C,0,0.364724,-0.451927,-0.342962\C,0,1.596621,0.0943,-0.009587\C,0
 ,1.762381,1.449725,0.253374\C,0,-0.593572,1.768708,-0.161216\H,0,-1.45
 9899,2.414996,-0.226162\C,0,0.653412,2.287374,0.17579\H,0,0.76417,3.34
 6116,0.37537\H,0,2.744367,1.82229,0.509612\N,0,2.777573,-0.801095,0.06

 Normal termination of Gaussian 16 at Wed Apr  9 00:20:13 2025.
