 Gaussian 16, Revision C.01,

 ----------------------------------------------------------------------
 #t hf aug-cc-pvdz symm=none int=(grid=ultrafine) guess=(read,tcheck) s
 table=(opt,rrhf)
 ----------------------------------------------------------------------
 -----
 title
 -----
 Symbolic Z-matrix:
 Charge =  0 Multiplicity = 1

 SCF Done:  E(RHF) =  -590.854455655     A.U. after   14 cycles
 Normal termination of Gaussian 16 at Tue Apr  8 22:46:28 2025.
 Gaussian 16:  ES64L-G16RevC.01  3-Jul-2019

 ----------------------------------------------------------------------
 #t hf aug-cc-pvdz iop(5/13=1,5/36=2,99/5=2) pseudo=read geom=check gue
 ss=(read,tcheck) scf=(maxcycle=1)
 ----------------------------------------------------------------------
 -----
 title
 -----
 Structure from the checkpoint file:  "BDE49_expt_1622_mol1.chk"
 Charge =  0 Multiplicity = 1

                         Standard orientation:
 ---------------------------------------------------------------------
 Center     Atomic      Atomic             Coordinates (Angstroms)
 Number     Number       Type             X           Y           Z
 ---------------------------------------------------------------------
      1          6           0        0.027925    0.817327    0.000019
      2         17           0       -1.400078   -0.292188    0.000000
      3          6           0        1.282523    0.084054    0.000004
      4          1           0       -0.045328    1.440588   -0.889905
      5          1           0       -0.045336    1.440561    0.889958
      6          7           0        2.289901   -0.474606   -0.000028
 ---------------------------------------------------------------------

 SCF Done:  E(RHF) =  -590.912986501     A.U. after    2 cycles

 The electronic state is 1-A.
 Alpha  occ. eigenvalues -- -103.69007 -15.66524 -11.37419 -11.31232 -10.72235
 Alpha  occ. eigenvalues --   -8.37960  -8.37637  -8.37628  -1.22649  -1.19118
 Alpha  occ. eigenvalues --   -1.01394  -0.74203  -0.69078  -0.61989  -0.56986
 Alpha  occ. eigenvalues --   -0.49916  -0.49691  -0.47829  -0.47323
 Alpha virt. eigenvalues --    0.02707   0.04557   0.06265   0.07688   0.10967
 Alpha virt. eigenvalues --    0.11751   0.11774   0.13155   0.13701   0.15080
 Alpha virt. eigenvalues --    0.15397   0.16407   0.17130   0.17869   0.20355

 Mulliken charges:
               1
     1  C    0.067674
     2  Cl  -0.062281
     3  C   -0.137486
     4  H    0.141739
     5  H    0.141726
     6  N   -0.151373
 Sum of Mulliken charges =   0.00000

 Dipole moment (field-independent basis, Debye):
    X=             -1.7880    Y=              2.8911    Z=              0.0001  Tot=              3.3993

 Test job not archived.
 1\1\GINC-SE177\SP\RHF\Aug-CC-pVDZ\C2H2Cl1N1\OHZDE\08-Apr-2025\0\\#t hf
  aug-cc-pvdz iop(5/13=1,5/36=2,99/5=2) pseudo=read geom=check guess=(r
 ead,tcheck) scf=(maxcycle=1)\\title\\0,1\C,0,0.027925,0.817327,0.00001
 9\Cl,0,-1.400078,-0.292188,0.\C,0,1.282523,0.084054,0.000004\H,0,-0.04
 5328,1.440588,-0.889905\H,0,-0.045336,1.440561,0.889958\N,0,2.289901,-
 0.474606,-0.000028\\Version=ES64L-G16RevC.01\State=1-A\HF=-590.9129865
 \RMSD=3.563e-03\Dipole=-0.7034361,1.1374291,0.0000331\Quadrupole=-5.32
 95183,3.1630898,2.1664285,1.9442422,0.0000925,0.0000104\PG=C01 [X(C2H2

 Normal termination of Gaussian 16 at Tue Apr  8 22:46:30 2025.
