 Gaussian 16, Revision C.01,

 ----------------------------------------------------------------------
 #t hf aug-cc-pvdz symm=none int=(grid=ultrafine) guess=(read,tcheck) s
 table=(opt,rrhf)
 ----------------------------------------------------------------------
 -----
 title
 -----
 Symbolic Z-matrix:
 Charge =  0 Multiplicity = 1

 SCF Done:  E(RHF) =  -631.819809127     A.U. after   10 cycles

 1\1\GINC-SE398\Stability\RHF\Aug-CC-pVDZ\B2H8Si2\OHZDE\09-Apr-2025\0\\
 #t hf aug-cc-pvdz symm=none int=(grid=ultrafine) guess=(read,tcheck) s
 table=(opt,rrhf)\\title\\0,1\Si,0,-0.939628,-0.753203,0.\Si,0,0.939627
 ,0.753202,0.\B,0,2.428215,-0.563906,0.000001\H,0,0.831796,1.606876,1.2
 08647\H,0,0.831797,1.606875,-1.208648\H,0,2.842391,-1.008826,1.024189\
 H,0,2.84239,-1.008827,-1.024188\B,0,-2.428214,0.563907,0.\H,0,-0.83179
 8,-1.606878,1.208647\H,0,-0.831797,-1.606876,-1.208649\H,0,-2.842382,1
 .008834,1.024188\H,0,-2.842381,1.008836,-1.024188\\Version=ES64L-G16Re

 Normal termination of Gaussian 16 at Wed Apr  9 00:12:36 2025.
 Gaussian 16:  ES64L-G16RevC.01  3-Jul-2019

 ----------------------------------------------------------------------
 #t hf aug-cc-pvdz iop(5/13=1,5/36=2,99/5=2) pseudo=read geom=check gue
 ss=(read,tcheck) scf=(maxcycle=1)
 ----------------------------------------------------------------------
 -----
 title
 -----
 Structure from the checkpoint file:  "BDE49_nonexpt_2452_mol1.chk"
 Charge =  0 Multiplicity = 1

                         Standard orientation:
 ---------------------------------------------------------------------
 Center     Atomic      Atomic             Coordinates (Angstroms)
 Number     Number       Type             X           Y           Z
 ---------------------------------------------------------------------
      1         14           0       -0.939628    0.753203    0.000000
      2         14           0        0.939627   -0.753202    0.000000
      3          5           0        2.428215    0.563906   -0.000001
      4          1           0        0.831796   -1.606876   -1.208647
      5          1           0        0.831797   -1.606875    1.208648
      6          1           0        2.842391    1.008826   -1.024189
      7          1           0        2.842390    1.008827    1.024188
      8          5           0       -2.428214   -0.563907    0.000000
      9          1           0       -0.831798    1.606878   -1.208647
     10          1           0       -0.831797    1.606876    1.208649
     11          1           0       -2.842382   -1.008834   -1.024188
     12          1           0       -2.842381   -1.008836    1.024188
 ---------------------------------------------------------------------

 SCF Done:  E(RHF) =  -631.874216386     A.U. after    2 cycles

 The electronic state is 1-A.
 Alpha  occ. eigenvalues --  -69.04857 -69.04857  -7.62789  -7.62788  -6.80454
 Alpha  occ. eigenvalues --   -6.80448  -3.91241  -3.91193  -3.91188  -3.91170
 Alpha  occ. eigenvalues --   -3.91163  -3.91157  -0.75999  -0.71093  -0.64568
 Alpha  occ. eigenvalues --   -0.62328  -0.52269  -0.51055  -0.47427  -0.46383
 Alpha  occ. eigenvalues --   -0.44051  -0.42957  -0.35462
 Alpha virt. eigenvalues --    0.01857   0.03812   0.03973   0.04443   0.04591
 Alpha virt. eigenvalues --    0.05278   0.05337   0.06051   0.07099   0.08420
 Alpha virt. eigenvalues --    0.08784   0.09133   0.09895   0.10182   0.10578

 Mulliken charges:
               1
     1  Si  -0.359435
     2  Si  -0.359436
     3  B   -0.550552
     4  H    0.091651
     5  H    0.091651
     6  H    0.363344
     7  H    0.363342
     8  B   -0.550558
     9  H    0.091651
    10  H    0.091651
    11  H    0.363347
    12  H    0.363346
 Sum of Mulliken charges =  -0.00000

 Dipole moment (field-independent basis, Debye):
    X=             -0.0000    Y=              0.0000    Z=             -0.0000  Tot=              0.0000

 Test job not archived.
 1\1\GINC-SE398\SP\RHF\Aug-CC-pVDZ\B2H8Si2\OHZDE\09-Apr-2025\0\\#t hf a
 ug-cc-pvdz iop(5/13=1,5/36=2,99/5=2) pseudo=read geom=check guess=(rea
 d,tcheck) scf=(maxcycle=1)\\title\\0,1\Si,0,-0.939628,-0.753203,0.\Si,
 0,0.939627,0.753202,0.\B,0,2.428215,-0.563906,0.000001\H,0,0.831796,1.
 606876,1.208647\H,0,0.831797,1.606875,-1.208648\H,0,2.842391,-1.008826
 ,1.024189\H,0,2.84239,-1.008827,-1.024188\B,0,-2.428214,0.563907,0.\H,
 0,-0.831798,-1.606878,1.208647\H,0,-0.831797,-1.606876,-1.208649\H,0,-
 2.842382,1.008834,1.024188\H,0,-2.842381,1.008836,-1.024188\\Version=E

 Normal termination of Gaussian 16 at Wed Apr  9 00:12:39 2025.
