 Gaussian 16, Revision C.01,

 ----------------------------------------------------------------------
 #t hf aug-cc-pvdz symm=none int=(grid=ultrafine) guess=(read,tcheck) s
 table=(opt,rrhf)
 ----------------------------------------------------------------------
 -----
 title
 -----
 Symbolic Z-matrix:
 Charge =  0 Multiplicity = 1

 SCF Done:  E(RHF) =  -766.901823806     A.U. after   11 cycles
 Normal termination of Gaussian 16 at Wed Apr  9 00:12:37 2025.
 Gaussian 16:  ES64L-G16RevC.01  3-Jul-2019

 ----------------------------------------------------------------------
 #t hf aug-cc-pvdz iop(5/13=1,5/36=2,99/5=2) pseudo=read geom=check gue
 ss=(read,tcheck) scf=(maxcycle=1)
 ----------------------------------------------------------------------
 -----
 title
 -----
 Structure from the checkpoint file:  "BDE49_nonexpt_2469_mol1.chk"
 Charge =  0 Multiplicity = 1

                         Standard orientation:
 ---------------------------------------------------------------------
 Center     Atomic      Atomic             Coordinates (Angstroms)
 Number     Number       Type             X           Y           Z
 ---------------------------------------------------------------------
      1         16           0       -1.627129   -0.655892   -0.107636
      2         14           0       -0.164710    0.930931    0.159615
      3          6           0        1.483763    0.302983   -0.491649
      4          1           0       -2.639053    0.011442    0.474834
      5          6           0        2.081490   -0.897174    0.263642
      6          1           0        2.175440    1.153915   -0.454807
      7          1           0        1.362109    0.064515   -1.554407
      8          1           0        2.233625   -0.667690    1.321957
      9          1           0        3.050968   -1.181386   -0.154862
     10          1           0        1.429776   -1.772667    0.209265
     11          1           0       -0.072283    1.278886    1.598019
     12          1           0       -0.592089    2.139363   -0.584395
 ---------------------------------------------------------------------

 SCF Done:  E(RHF) =  -766.970737629     A.U. after    2 cycles

 The electronic state is 1-A.
 Alpha  occ. eigenvalues --  -93.52621 -69.08702 -11.23618 -11.23269  -8.82544
 Alpha  occ. eigenvalues --   -6.83739  -6.16713  -6.16478  -6.16194  -3.94557
 Alpha  occ. eigenvalues --   -3.94469  -3.94456  -1.02192  -0.94541  -0.85200
 Alpha  occ. eigenvalues --   -0.67684  -0.61799  -0.58347  -0.53995  -0.52992
 Alpha  occ. eigenvalues --   -0.50537  -0.48422  -0.43887  -0.43183  -0.36852
 Alpha virt. eigenvalues --    0.03347   0.04565   0.04927   0.05226   0.06811
 Alpha virt. eigenvalues --    0.06901   0.07503   0.07904   0.09466   0.09964
 Alpha virt. eigenvalues --    0.10589   0.12544   0.13046   0.14804   0.15100

 Mulliken charges:
               1
     1  S   -0.445331
     2  Si   0.650249
     3  C    0.072100
     4  H    0.009081
     5  C    0.245696
     6  H   -0.178053
     7  H   -0.129477
     8  H   -0.105559
     9  H   -0.078788
    10  H   -0.096365
    11  H    0.061214
    12  H   -0.004767
 Sum of Mulliken charges =   0.00000

 Dipole moment (field-independent basis, Debye):
    X=              0.9621    Y=              0.8977    Z=              0.2030  Tot=              1.3315

 Test job not archived.
 1\1\GINC-SE080\SP\RHF\Aug-CC-pVDZ\C2H8S1Si1\OHZDE\09-Apr-2025\0\\#t hf
  aug-cc-pvdz iop(5/13=1,5/36=2,99/5=2) pseudo=read geom=check guess=(r
 ead,tcheck) scf=(maxcycle=1)\\title\\0,1\S,0,-1.627129,-0.655892,-0.10
 7636\Si,0,-0.16471,0.930931,0.159615\C,0,1.483763,0.302983,-0.491649\H
 ,0,-2.639053,0.011442,0.474834\C,0,2.08149,-0.897174,0.263642\H,0,2.17
 544,1.153915,-0.454807\H,0,1.362109,0.064515,-1.554407\H,0,2.233625,-0
 .66769,1.321957\H,0,3.050968,-1.181386,-0.154862\H,0,1.429776,-1.77266
 7,0.209265\H,0,-0.072283,1.278886,1.598019\H,0,-0.592089,2.139363,-0.5

 Normal termination of Gaussian 16 at Wed Apr  9 00:12:41 2025.
