 Gaussian 16, Revision C.01,

 ----------------------------------------------------------------------
 #t hf aug-cc-pvdz symm=none int=(grid=ultrafine) guess=(read,tcheck) s
 table=(opt,rrhf)
 ----------------------------------------------------------------------
 -----
 title
 -----
 Symbolic Z-matrix:
 Charge =  0 Multiplicity = 1

 SCF Done:  E(RHF) =  -471.440383159     A.U. after   11 cycles
 Normal termination of Gaussian 16 at Wed Apr  9 00:44:23 2025.
 Gaussian 16:  ES64L-G16RevC.01  3-Jul-2019

 ----------------------------------------------------------------------
 #t hf aug-cc-pvdz iop(5/13=1,5/36=2,99/5=2) pseudo=read geom=check gue
 ss=(read,tcheck) scf=(maxcycle=1)
 ----------------------------------------------------------------------
 -----
 title
 -----
 Structure from the checkpoint file:  "BDE49_nonexpt_807_mol1.chk"
 Charge =  0 Multiplicity = 1

                         Standard orientation:
 ---------------------------------------------------------------------
 Center     Atomic      Atomic             Coordinates (Angstroms)
 Number     Number       Type             X           Y           Z
 ---------------------------------------------------------------------
      1          5           0        2.254839    1.321949   -0.000124
      2          6           0       -0.381293   -0.675870    0.000057
      3          6           0       -1.214499    0.082292   -1.086827
      4          6           0       -1.214494    0.082468    1.086821
      5          6           0       -2.269842    0.417705   -0.000027
      6          1           0       -0.706985    0.982822    1.445858
      7          1           0       -1.542928   -0.495179    1.953084
      8          1           0       -3.090601   -0.303925    0.000033
      9          1           0       -2.691989    1.425046   -0.000108
     10          1           0       -1.542937   -0.495496   -1.952994
     11          1           0       -0.706992    0.982588   -1.446011
     12         14           0        1.501691   -0.549047    0.000041
     13          1           0       -0.666476   -1.733521    0.000143
     14          1           0        2.052223   -1.254057   -1.194586
     15          1           0        2.052228   -1.253849    1.194790
     16          1           0        3.438636    1.471149   -0.000121
     17          1           0        1.588727    2.311763   -0.000191
 ---------------------------------------------------------------------

 SCF Done:  E(RHF) =  -471.517308875     A.U. after    2 cycles

 The electronic state is 1-A.
 Alpha  occ. eigenvalues --  -69.03883 -11.23374 -11.23372 -11.23022 -11.22188
 Alpha  occ. eigenvalues --   -7.62184  -6.79393  -3.90174  -3.90149  -3.90110
 Alpha  occ. eigenvalues --   -1.11087  -0.89488  -0.88902  -0.75442  -0.72010
 Alpha  occ. eigenvalues --   -0.65110  -0.64826  -0.59357  -0.54450  -0.52674
 Alpha  occ. eigenvalues --   -0.50580  -0.49134  -0.46095  -0.45623  -0.43621
 Alpha  occ. eigenvalues --   -0.40474  -0.39477
 Alpha virt. eigenvalues --    0.03352   0.03385   0.04005   0.04248   0.05148
 Alpha virt. eigenvalues --    0.05816   0.05981   0.06605   0.07667   0.08133
 Alpha virt. eigenvalues --    0.08564   0.09056   0.09310   0.09414   0.10318

 Mulliken charges:
               1
     1  B   -0.747426
     2  C    0.223366
     3  C    0.386277
     4  C    0.386275
     5  C    0.565088
     6  H   -0.334637
     7  H   -0.177494
     8  H   -0.220673
     9  H   -0.172262
    10  H   -0.177496
    11  H   -0.334639
    12  Si  -0.221545
    13  H   -0.303682
    14  H    0.119986
    15  H    0.119985
    16  H    0.430167
    17  H    0.458710
 Sum of Mulliken charges =  -0.00000

 Dipole moment (field-independent basis, Debye):
    X=             -0.8623    Y=              0.2756    Z=             -0.0000  Tot=              0.9052

 Test job not archived.
 1\1\GINC-SE074\SP\RHF\Aug-CC-pVDZ\C4H11B1Si1\OHZDE\09-Apr-2025\0\\#t h
 f aug-cc-pvdz iop(5/13=1,5/36=2,99/5=2) pseudo=read geom=check guess=(
 read,tcheck) scf=(maxcycle=1)\\title\\0,1\B,0,2.254839,1.321949,-0.000
 124\C,0,-0.381293,-0.67587,0.000057\C,0,-1.214499,0.082292,-1.086827\C
 ,0,-1.214494,0.082468,1.086821\C,0,-2.269842,0.417705,-0.000027\H,0,-0
 .706985,0.982822,1.445858\H,0,-1.542928,-0.495179,1.953084\H,0,-3.0906
 01,-0.303925,0.000033\H,0,-2.691989,1.425046,-0.000108\H,0,-1.542937,-
 0.495496,-1.952994\H,0,-0.706992,0.982588,-1.446011\Si,0,1.501691,-0.5

 Normal termination of Gaussian 16 at Wed Apr  9 00:44:29 2025.
