 Gaussian 16, Revision C.01,

 ----------------------------------------------------------------------
 #t hf aug-cc-pvdz symm=none int=(grid=ultrafine) guess=(read,tcheck) s
 table=(opt,rrhf)
 ----------------------------------------------------------------------
 -----
 title
 -----
 Symbolic Z-matrix:
 Charge =  0 Multiplicity = 1

 SCF Done:  E(RHF) =  -212.778038649     A.U. after   12 cycles
 Normal termination of Gaussian 16 at Tue Apr  8 22:58:38 2025.
 Gaussian 16:  ES64L-G16RevC.01  3-Jul-2019

 ----------------------------------------------------------------------
 #t hf aug-cc-pvdz iop(5/13=1,5/36=2,99/5=2) pseudo=read geom=check gue
 ss=(read,tcheck) scf=(maxcycle=1)
 ----------------------------------------------------------------------
 -----
 title
 -----
 Structure from the checkpoint file:  "BDE49_expt_202_mol1.chk"
 Charge =  0 Multiplicity = 1

                         Standard orientation:
 ---------------------------------------------------------------------
 Center     Atomic      Atomic             Coordinates (Angstroms)
 Number     Number       Type             X           Y           Z
 ---------------------------------------------------------------------
      1          6           0       -0.131304    0.377651    0.000096
      2          8           0       -1.128364   -0.247492   -0.000037
      3          9           0        1.092177   -0.194796   -0.000032
      4          1           0       -0.014859    1.467194    0.000002
 ---------------------------------------------------------------------

 SCF Done:  E(RHF) =  -212.853900423     A.U. after    2 cycles

 The electronic state is 1-A.
 Alpha  occ. eigenvalues --  -26.16995 -20.62140 -11.45588  -1.71384  -1.42333
 Alpha  occ. eigenvalues --   -0.94663  -0.83119  -0.78365  -0.76203  -0.67989
 Alpha  occ. eigenvalues --   -0.58517  -0.53832
 Alpha virt. eigenvalues --    0.03251   0.07280   0.08729   0.08910   0.13497
 Alpha virt. eigenvalues --    0.15182   0.21493   0.22879   0.24802   0.25010
 Alpha virt. eigenvalues --    0.29189   0.30417   0.32449   0.33335   0.39013

 Mulliken charges:
               1
     1  C    0.718807
     2  O   -0.305716
     3  F   -0.315088
     4  H   -0.098003
 Sum of Mulliken charges =  -0.00000

 Dipole moment (field-independent basis, Debye):
    X=              0.6967    Y=              2.5183    Z=              0.0004  Tot=              2.6129

 Test job not archived.
 1\1\GINC-SE250\SP\RHF\Aug-CC-pVDZ\C1H1F1O1\OHZDE\08-Apr-2025\0\\#t hf
 aug-cc-pvdz iop(5/13=1,5/36=2,99/5=2) pseudo=read geom=check guess=(re
 ad,tcheck) scf=(maxcycle=1)\\title\\0,1\C,0,-0.131304,0.377651,0.00009
 6\O,0,-1.128364,-0.247492,-0.000037\F,0,1.092177,-0.194796,-0.000032\H
 ,0,-0.014859,1.467194,0.000002\\Version=ES64L-G16RevC.01\State=1-A\HF=
 -212.8539004\RMSD=5.279e-03\Dipole=0.2740951,0.9907894,0.0001479\Quadr
 upole=-2.7498376,1.7664531,0.9833845,-0.2555678,-0.0000115,-0.000028\P
 G=C01 [X(C1H1F1O1)]\\@

 Normal termination of Gaussian 16 at Tue Apr  8 22:58:39 2025.
