 Gaussian 16, Revision C.01,

 ----------------------------------------------------------------------
 #t hf aug-cc-pvdz symm=none int=(grid=ultrafine) guess=(read,tcheck) s
 table=(opt,rrhf)
 ----------------------------------------------------------------------
 -----
 title
 -----
 Symbolic Z-matrix:
 Charge =  0 Multiplicity = 1

 SCF Done:  E(RHF) =  -1108.53616265     A.U. after   14 cycles

 1\1\GINC-SE423\Stability\RHF\Aug-CC-pVDZ\C8H18S2\OHZDE\08-Apr-2025\0\\
 #t hf aug-cc-pvdz symm=none int=(grid=ultrafine) guess=(read,tcheck) s
 table=(opt,rrhf)\\title\\0,1\S,0,-0.198518,-1.951213,-0.647876\S,0,0.9
 56152,-1.403149,0.996855\C,0,2.554785,-0.858471,0.252194\C,0,-1.247628
 ,-0.477404,-1.00043\C,0,-2.310021,-0.184713,0.055863\H,0,-1.711567,-0.
 733139,-1.960048\H,0,-0.599712,0.384608,-1.168729\C,0,2.55117,0.485636
 ,-0.475289\H,0,2.892542,-1.661157,-0.404589\H,0,3.229268,-0.83397,1.11
 5994\C,0,2.275063,1.70043,0.416328\H,0,1.826554,0.447052,-1.296225\H,0

 Normal termination of Gaussian 16 at Tue Apr  8 23:01:30 2025.
 Gaussian 16:  ES64L-G16RevC.01  3-Jul-2019

 ----------------------------------------------------------------------
 #t hf aug-cc-pvdz iop(5/13=1,5/36=2,99/5=2) pseudo=read geom=check gue
 ss=(read,tcheck) scf=(maxcycle=1)
 ----------------------------------------------------------------------
 -----
 title
 -----
 Structure from the checkpoint file:  "BDE49_expt_1959_mol1.chk"
 Charge =  0 Multiplicity = 1

                         Standard orientation:
 ---------------------------------------------------------------------
 Center     Atomic      Atomic             Coordinates (Angstroms)
 Number     Number       Type             X           Y           Z
 ---------------------------------------------------------------------
      1         16           0       -0.198518   -1.951213   -0.647876
      2         16           0        0.956152   -1.403149    0.996855
      3          6           0        2.554785   -0.858471    0.252194
      4          6           0       -1.247628   -0.477404   -1.000430
      5          6           0       -2.310021   -0.184713    0.055863
      6          1           0       -1.711567   -0.733139   -1.960048
      7          1           0       -0.599712    0.384608   -1.168729
      8          6           0        2.551170    0.485636   -0.475289
      9          1           0        2.892542   -1.661157   -0.404589
     10          1           0        3.229268   -0.833970    1.115994
     11          6           0        2.275063    1.700430    0.416328
     12          1           0        1.826554    0.447052   -1.296225
     13          1           0        3.534049    0.604747   -0.950298
     14          6           0       -3.185155    1.023995   -0.304137
     15          1           0       -1.818144   -0.006206    1.017939
     16          1           0       -2.938460   -1.072285    0.186974
     17          6           0       -4.253312    1.320290    0.752683
     18          1           0       -3.668737    0.848012   -1.272679
     19          1           0       -2.548402    1.906872   -0.437079
     20          1           0       -4.926933    0.467962    0.883219
     21          1           0       -4.861098    2.184704    0.472379
     22          1           0       -3.798509    1.533913    1.724678
     23          6           0        2.290420    3.022596   -0.355824
     24          1           0        3.025261    1.735313    1.215882
     25          1           0        1.307661    1.574094    0.912659
     26          1           0        3.258460    3.191048   -0.837968
     27          1           0        2.097259    3.871286    0.305570
     28          1           0        1.526426    3.032785   -1.139668
 ---------------------------------------------------------------------

 SCF Done:  E(RHF) =  -1108.67564623     A.U. after    2 cycles

 The electronic state is 1-A.
 Alpha  occ. eigenvalues --  -93.54792 -93.54726 -11.27065 -11.27037 -11.23899
 Alpha  occ. eigenvalues --  -11.23485 -11.23410 -11.23249 -11.22780 -11.22628
 Alpha  occ. eigenvalues --   -8.84320  -8.84259  -6.18488  -6.18377  -6.18199
 Alpha  occ. eigenvalues --   -6.18128  -6.17897  -6.17850  -1.09032  -1.07618
 Alpha  occ. eigenvalues --   -1.03264  -1.00135  -0.94979  -0.89687  -0.85110
 Alpha  occ. eigenvalues --   -0.81051  -0.79793  -0.75341  -0.65643  -0.64396
 Alpha  occ. eigenvalues --   -0.61559  -0.59934  -0.59757  -0.59136  -0.56731
 Alpha  occ. eigenvalues --   -0.55903  -0.53424  -0.52177  -0.51647  -0.49652
 Alpha  occ. eigenvalues --   -0.49103  -0.48683  -0.47762  -0.47504  -0.46948
 Alpha  occ. eigenvalues --   -0.44954  -0.42316  -0.34947  -0.34229
 Alpha virt. eigenvalues --    0.03268   0.03880   0.04141   0.04511   0.05292
 Alpha virt. eigenvalues --    0.05402   0.05668   0.06573   0.06676   0.07513
 Alpha virt. eigenvalues --    0.07692   0.07844   0.08352   0.09022   0.09851

 Mulliken charges:
               1
     1  S    0.171216
     2  S    0.116721
     3  C    0.203626
     4  C    0.352248
     5  C   -0.092078
     6  H   -0.057593
     7  H   -0.306321
     8  C    0.292190
     9  H   -0.100645
    10  H   -0.075708
    11  C    0.050264
    12  H   -0.192764
    13  H   -0.092764
    14  C    0.195287
    15  H   -0.143925
    16  H   -0.113230
    17  C    0.453392
    18  H   -0.134636
    19  H   -0.148198
    20  H   -0.077942
    21  H   -0.066362
    22  H   -0.072313
    23  C    0.408625
    24  H   -0.119986
    25  H   -0.206458
    26  H   -0.088248
    27  H   -0.064765
    28  H   -0.089633
 Sum of Mulliken charges =  -0.00000

 Dipole moment (field-independent basis, Debye):
    X=              0.3475    Y=              2.1227    Z=             -0.8491  Tot=              2.3125

 Test job not archived.
 1\1\GINC-SE423\SP\RHF\Aug-CC-pVDZ\C8H18S2\OHZDE\08-Apr-2025\0\\#t hf a
 ug-cc-pvdz iop(5/13=1,5/36=2,99/5=2) pseudo=read geom=check guess=(rea
 d,tcheck) scf=(maxcycle=1)\\title\\0,1\S,0,-0.198518,-1.951213,-0.6478
 76\S,0,0.956152,-1.403149,0.996855\C,0,2.554785,-0.858471,0.252194\C,0
 ,-1.247628,-0.477404,-1.00043\C,0,-2.310021,-0.184713,0.055863\H,0,-1.
 711567,-0.733139,-1.960048\H,0,-0.599712,0.384608,-1.168729\C,0,2.5511
 7,0.485636,-0.475289\H,0,2.892542,-1.661157,-0.404589\H,0,3.229268,-0.
 83397,1.115994\C,0,2.275063,1.70043,0.416328\H,0,1.826554,0.447052,-1.

 Normal termination of Gaussian 16 at Tue Apr  8 23:01:51 2025.
