 Gaussian 16, Revision C.01,

 ----------------------------------------------------------------------
 #t hf aug-cc-pvdz symm=none int=(grid=ultrafine) guess=(read,tcheck) s
 table=(opt,rrhf)
 ----------------------------------------------------------------------
 -----
 title
 -----
 Symbolic Z-matrix:
 Charge =  0 Multiplicity = 1

 SCF Done:  E(RHF) =  -1920.46138286     A.U. after   13 cycles
 Normal termination of Gaussian 16 at Tue Apr  8 23:51:33 2025.
 Gaussian 16:  ES64L-G16RevC.01  3-Jul-2019

 ----------------------------------------------------------------------
 #t hf aug-cc-pvdz iop(5/13=1,5/36=2,99/5=2) pseudo=read geom=check gue
 ss=(read,tcheck) scf=(maxcycle=1)
 ----------------------------------------------------------------------
 -----
 title
 -----
 Structure from the checkpoint file:  "BDE49_nonexpt_1928_mol1.chk"
 Charge =  0 Multiplicity = 1

                         Standard orientation:
 ---------------------------------------------------------------------
 Center     Atomic      Atomic             Coordinates (Angstroms)
 Number     Number       Type             X           Y           Z
 ---------------------------------------------------------------------
      1          6           0        0.672069    0.196908    1.524909
      2         14           0       -0.464908    1.415978    0.632953
      3         16           0       -1.561676    0.524061   -1.011523
      4          1           0        0.296709    2.509661   -0.007270
      5          1           0       -1.398892    1.968440    1.639052
      6         16           0       -2.533476   -1.049251    0.013471
      7          1           0       -1.574112   -1.980379   -0.159046
      8         16           0        1.579601   -1.042491    0.518295
      9         16           0        2.640535    0.072348   -0.892514
     10          1           0        1.712716    0.093924   -1.872327
     11          1           0        0.062074   -0.420749    2.193175
     12          1           0        1.378053    0.749292    2.151939
 ---------------------------------------------------------------------

 SCF Done:  E(RHF) =  -1920.57557071     A.U. after    2 cycles

 The electronic state is 1-A.
 Alpha  occ. eigenvalues --  -93.57679 -93.57364 -93.57141 -93.56004 -69.10564
 Alpha  occ. eigenvalues --  -11.27796  -8.87196  -8.86837  -8.86724  -8.85716
 Alpha  occ. eigenvalues --   -6.85569  -6.21313  -6.21090  -6.20956  -6.20837
 Alpha  occ. eigenvalues --   -6.20743  -6.20690  -6.20611  -6.20359  -6.20281
 Alpha  occ. eigenvalues --   -6.19819  -6.19555  -6.19297  -3.96391  -3.96307
 Alpha  occ. eigenvalues --   -3.96274  -1.06377  -1.02888  -0.96400  -0.87124
 Alpha  occ. eigenvalues --   -0.82193  -0.68607  -0.62374  -0.58171  -0.56502
 Alpha  occ. eigenvalues --   -0.54178  -0.52150  -0.49813  -0.49109  -0.46546
 Alpha  occ. eigenvalues --   -0.44492  -0.38499  -0.37874  -0.37132  -0.36342
 Alpha virt. eigenvalues --    0.03367   0.04075   0.04809   0.05538   0.06039
 Alpha virt. eigenvalues --    0.06506   0.07369   0.07641   0.08870   0.09250
 Alpha virt. eigenvalues --    0.10023   0.11639   0.11935   0.12170   0.12828

 Mulliken charges:
               1
     1  C   -0.058356
     2  Si   0.847261
     3  S   -0.509131
     4  H    0.067858
     5  H    0.011726
     6  S   -0.192138
     7  H    0.118590
     8  S    0.043768
     9  S   -0.159705
    10  H    0.130151
    11  H   -0.089889
    12  H   -0.210136
 Sum of Mulliken charges =  -0.00000

 Dipole moment (field-independent basis, Debye):
    X=              0.0878    Y=              0.5139    Z=              1.2398  Tot=              1.3450

 Test job not archived.
 1\1\GINC-SE336\SP\RHF\Aug-CC-pVDZ\C1H6S4Si1\OHZDE\08-Apr-2025\0\\#t hf
  aug-cc-pvdz iop(5/13=1,5/36=2,99/5=2) pseudo=read geom=check guess=(r
 ead,tcheck) scf=(maxcycle=1)\\title\\0,1\C,0,0.672069,0.196908,1.52490
 9\Si,0,-0.464908,1.415978,0.632953\S,0,-1.561676,0.524061,-1.011523\H,
 0,0.296709,2.509661,-0.00727\H,0,-1.398892,1.96844,1.639052\S,0,-2.533
 476,-1.049251,0.013471\H,0,-1.574112,-1.980379,-0.159046\S,0,1.579601,
 -1.042491,0.518295\S,0,2.640535,0.072348,-0.892514\H,0,1.712716,0.0939
 24,-1.872327\H,0,0.062074,-0.420749,2.193175\H,0,1.378053,0.749292,2.1

 Normal termination of Gaussian 16 at Tue Apr  8 23:51:39 2025.
