 Gaussian 16, Revision C.01,

 ----------------------------------------------------------------------
 #t hf aug-cc-pvdz symm=none int=(grid=ultrafine) guess=(read,tcheck) s
 table=opt
 ----------------------------------------------------------------------
 -----
 title
 -----
 Symbolic Z-matrix:
 Charge =  0 Multiplicity = 2

 SCF Done:  E(UHF) =  -200.895263964     A.U. after   18 cycles
 Normal termination of Gaussian 16 at Tue Apr  8 23:32:02 2025.
 Gaussian 16:  ES64L-G16RevC.01  3-Jul-2019

 ----------------------------------------------------------------------
 #t hf aug-cc-pvdz iop(5/13=1,5/36=2,99/5=2) pseudo=read geom=check gue
 ss=(read,tcheck) scf=(maxcycle=1)
 ----------------------------------------------------------------------
 -----
 title
 -----
 Structure from the checkpoint file:  "BDE49_nonexpt_144_mol2.chk"
 Charge =  0 Multiplicity = 2

                         Standard orientation:
 ---------------------------------------------------------------------
 Center     Atomic      Atomic             Coordinates (Angstroms)
 Number     Number       Type             X           Y           Z
 ---------------------------------------------------------------------
      1          5           0        1.723044   -0.101320   -0.091314
      2          5           0        0.080691   -0.013098   -0.002472
      3          8           0       -0.644672    1.161260    0.012099
      4          1           0       -0.118357    1.963505   -0.014533
      5          8           0       -0.624281   -1.186600    0.007388
      6          1           0       -1.575991   -1.029738    0.009285
      7          1           0        2.827296   -0.158956    0.318288
 ---------------------------------------------------------------------

 SCF Done:  E(UHF) =  -200.964162485     A.U. after    2 cycles

 The electronic state is 2-A.
 Alpha  occ. eigenvalues --  -20.58738 -20.57705  -7.65723  -7.63854  -1.34442
 Alpha  occ. eigenvalues --   -1.30677  -0.79068  -0.75706  -0.68403  -0.61609
 Alpha  occ. eigenvalues --   -0.59559  -0.58166  -0.52838  -0.49492  -0.31491
 Alpha virt. eigenvalues --    0.02557   0.04065   0.04247   0.06456   0.06578
 Alpha virt. eigenvalues --    0.07410   0.07712   0.08889   0.09569   0.10563
 Alpha virt. eigenvalues --    0.12725   0.14802   0.19618   0.19723   0.20522

  Beta  occ. eigenvalues --  -20.58639 -20.57584  -7.65791  -7.62398  -1.34185
  Beta  occ. eigenvalues --   -1.30386  -0.78534  -0.75182  -0.65266  -0.59977
  Beta  occ. eigenvalues --   -0.58367  -0.58018  -0.51712  -0.48158
  Beta virt. eigenvalues --    0.03019   0.04167   0.04423   0.04810   0.06585
  Beta virt. eigenvalues --    0.07389   0.07613   0.09091   0.10389   0.10821
  Beta virt. eigenvalues --    0.11005   0.13012   0.15298   0.19737   0.20023

 Mulliken charges and spin densities:
               1          2
     1  B   -0.624716   1.021608
     2  B    0.891295  -0.031681
     3  O   -0.447339   0.027716
     4  H    0.144913  -0.003580
     5  O   -0.503224   0.035659
     6  H    0.180965  -0.001421
     7  H    0.358105  -0.048302
 Sum of Mulliken charges =  -0.00000   1.00000

 Dipole moment (field-independent basis, Debye):
    X=              0.4596    Y=              1.5952    Z=              0.2875  Tot=              1.6848
                          Isotropic Fermi Contact Couplings
        Atom                 a.u.       MegaHertz       Gauss      10(-4) cm-1
     1  B(11)              0.12602     180.75842      64.49910      60.29452
     2  B(11)             -0.02233     -32.02877     -11.42866     -10.68365
     3  O(17)              0.01000      -6.06195      -2.16305      -2.02205
     4  H(1)              -0.00062      -2.77208      -0.98915      -0.92467
     5  O(17)              0.00769      -4.66115      -1.66321      -1.55479
     6  H(1)              -0.00120      -5.37148      -1.91668      -1.79173
     7  H(1)              -0.01731     -77.36178     -27.60461     -25.80511
 --------------------------------------------------------

 Normal termination of Gaussian 16 at Tue Apr  8 23:32:05 2025.
