 Gaussian 16, Revision C.01,

 ----------------------------------------------------------------------
 #t hf aug-cc-pvdz symm=none int=(grid=ultrafine) guess=(read,tcheck) s
 table=(opt,rrhf)
 ----------------------------------------------------------------------
 -----
 title
 -----
 Symbolic Z-matrix:
 Charge =  0 Multiplicity = 1

 SCF Done:  E(RHF) =  -1053.75210074     A.U. after   15 cycles
 Normal termination of Gaussian 16 at Tue Apr  8 23:49:58 2025.
 Gaussian 16:  ES64L-G16RevC.01  3-Jul-2019

 ----------------------------------------------------------------------
 #t hf aug-cc-pvdz iop(5/13=1,5/36=2,99/5=2) pseudo=read geom=check gue
 ss=(read,tcheck) scf=(maxcycle=1)
 ----------------------------------------------------------------------
 -----
 title
 -----
 Structure from the checkpoint file:  "BDE49_nonexpt_1874_mol1.chk"
 Charge =  0 Multiplicity = 1

                         Standard orientation:
 ---------------------------------------------------------------------
 Center     Atomic      Atomic             Coordinates (Angstroms)
 Number     Number       Type             X           Y           Z
 ---------------------------------------------------------------------
      1          6           0       -0.826370   -1.072302    0.671124
      2         14           0        0.690700   -1.200412   -0.479298
      3          6           0       -1.930196   -0.259414    0.094042
      4          8           0       -2.994997   -0.597751   -0.280539
      5         17           0       -1.435997    1.528443   -0.065324
      6          6           0        1.994096    0.069663    0.197047
      7          1           0        0.318051   -0.987854   -1.895113
      8          1           0        1.279992   -2.549567   -0.317779
      9          8           0        2.004972    0.222274    1.401746
     10          6           0        2.957039    0.786659   -0.719044
     11          1           0        2.394152    1.427417   -1.406396
     12          1           0        3.503469    0.063839   -1.334930
     13          1           0        3.656652    1.388455   -0.137122
     14          1           0       -0.436813   -0.600851    1.578493
     15          1           0       -1.220561   -2.063018    0.904845
 ---------------------------------------------------------------------

 SCF Done:  E(RHF) =  -1053.88741525     A.U. after    2 cycles

 The electronic state is 1-A.
 Alpha  occ. eigenvalues -- -103.66820 -69.10245 -20.61781 -20.58863 -11.43383
 Alpha  occ. eigenvalues --  -11.35016 -11.27398 -11.25901 -10.70123  -8.35816
 Alpha  occ. eigenvalues --   -8.35554  -8.35535  -6.85505  -3.96283  -3.96261
 Alpha  occ. eigenvalues --   -3.96250  -1.42654  -1.37097  -1.15873  -1.03422
 Alpha  occ. eigenvalues --   -1.01828  -0.81147  -0.78292  -0.72152  -0.69522
 Alpha  occ. eigenvalues --   -0.68528  -0.65775  -0.64415  -0.62107  -0.61167
 Alpha  occ. eigenvalues --   -0.59251  -0.55531  -0.53286  -0.50812  -0.49232
 Alpha  occ. eigenvalues --   -0.48063  -0.47679  -0.46312  -0.40963
 Alpha virt. eigenvalues --    0.02679   0.03868   0.04710   0.05160   0.06187
 Alpha virt. eigenvalues --    0.06593   0.06942   0.07926   0.08368   0.08711
 Alpha virt. eigenvalues --    0.09425   0.10391   0.10689   0.11500   0.12039

 Mulliken charges:
               1
     1  C    0.204044
     2  Si   0.355706
     3  C    0.062841
     4  O   -0.351176
     5  Cl  -0.209817
     6  C    0.194048
     7  H    0.163812
     8  H    0.090455
     9  O   -0.557615
    10  C    0.177862
    11  H    0.026337
    12  H    0.020517
    13  H   -0.054915
    14  H    0.001597
    15  H   -0.123695
 Sum of Mulliken charges =  -0.00000

 Dipole moment (field-independent basis, Debye):
    X=              2.9834    Y=             -1.7403    Z=             -1.6601  Tot=              3.8322

 Test job not archived.
 1\1\GINC-SE250\SP\RHF\Aug-CC-pVDZ\C4H7Cl1O2Si1\OHZDE\08-Apr-2025\0\\#t
  hf aug-cc-pvdz iop(5/13=1,5/36=2,99/5=2) pseudo=read geom=check guess
 =(read,tcheck) scf=(maxcycle=1)\\title\\0,1\C,0,-0.82637,-1.072302,0.6
 71124\Si,0,0.6907,-1.200412,-0.479298\C,0,-1.930196,-0.259414,0.094042
 \O,0,-2.994997,-0.59775,-0.280539\Cl,0,-1.435997,1.528443,-0.065324\C,
 0,1.994096,0.069663,0.197047\H,0,0.318051,-0.987854,-1.895113\H,0,1.27
 9992,-2.549567,-0.317779\O,0,2.004972,0.222274,1.401746\C,0,2.957039,0
 .786658,-0.719044\H,0,2.394152,1.427417,-1.406396\H,0,3.503469,0.06383

 Normal termination of Gaussian 16 at Tue Apr  8 23:50:04 2025.
