 Gaussian 16, Revision C.01,

 ----------------------------------------------------------------------
 #t hf aug-cc-pvdz symm=none int=(grid=ultrafine) guess=(read,tcheck) s
 table=(opt,rrhf)
 ----------------------------------------------------------------------
 -----
 title
 -----
 Symbolic Z-matrix:
 Charge =  0 Multiplicity = 1

 SCF Done:  E(RHF) =  -1202.25663540     A.U. after   15 cycles
 Normal termination of Gaussian 16 at Tue Apr  8 23:52:46 2025.
 Gaussian 16:  ES64L-G16RevC.01  3-Jul-2019

 ----------------------------------------------------------------------
 #t hf aug-cc-pvdz iop(5/13=1,5/36=2,99/5=2) pseudo=read geom=check gue
 ss=(read,tcheck) scf=(maxcycle=1)
 ----------------------------------------------------------------------
 -----
 title
 -----
 Structure from the checkpoint file:  "BDE49_nonexpt_1948_mol1.chk"
 Charge =  0 Multiplicity = 1

                         Standard orientation:
 ---------------------------------------------------------------------
 Center     Atomic      Atomic             Coordinates (Angstroms)
 Number     Number       Type             X           Y           Z
 ---------------------------------------------------------------------
      1         14           0        2.525269   -0.356460   -0.447270
      2          6           0        1.192058   -0.233622    0.913214
      3          6           0       -0.140587    0.214292    0.383066
      4         16           0       -0.482953    1.776523    0.002971
      5         16           0       -1.242050   -1.136144    0.194537
      6          1           0        3.747624   -0.922220    0.170656
      7          1           0        2.818951    0.979683   -1.002397
      8          1           0        2.056393   -1.259207   -1.521790
      9          6           0       -2.720361   -0.400304   -0.549039
     10          1           0       -3.427312   -1.221512   -0.675034
     11          1           0       -2.477598    0.043219   -1.513730
     12          1           0       -3.135115    0.359813    0.111354
     13          1           0        1.550843    0.493541    1.645819
     14          1           0        1.125826   -1.211144    1.403323
 ---------------------------------------------------------------------

 SCF Done:  E(RHF) =  -1202.35472842     A.U. after    2 cycles

 The electronic state is 1-A.
 Alpha  occ. eigenvalues --  -93.56765 -93.50686 -69.07653 -11.36374 -11.27712
 Alpha  occ. eigenvalues --  -11.25624  -8.86584  -8.80604  -6.82902  -6.20736
 Alpha  occ. eigenvalues --   -6.20481  -6.20201  -6.14796  -6.14375  -6.14206
 Alpha  occ. eigenvalues --   -3.93691  -3.93669  -3.93653  -1.12434  -1.02442
 Alpha  occ. eigenvalues --   -0.94558  -0.89041  -0.72191  -0.68852  -0.63527
 Alpha  occ. eigenvalues --   -0.60951  -0.60511  -0.55775  -0.53135  -0.50469
 Alpha  occ. eigenvalues --   -0.48493  -0.48158  -0.46172  -0.41547  -0.34273
 Alpha  occ. eigenvalues --   -0.33451
 Alpha virt. eigenvalues --    0.03252   0.03902   0.04608   0.05142   0.05612
 Alpha virt. eigenvalues --    0.06269   0.06841   0.07355   0.08299   0.08685
 Alpha virt. eigenvalues --    0.09300   0.09754   0.10433   0.11303   0.12687

 Mulliken charges:
               1
     1  Si   0.349113
     2  C    0.099782
     3  C   -0.404456
     4  S   -0.074915
     5  S    0.304287
     6  H   -0.012446
     7  H    0.035440
     8  H    0.019161
     9  C    0.140033
    10  H   -0.111651
    11  H   -0.032669
    12  H   -0.029140
    13  H   -0.103575
    14  H   -0.178963
 Sum of Mulliken charges =   0.00000

 Dipole moment (field-independent basis, Debye):
    X=             -0.4123    Y=             -1.9595    Z=              0.2280  Tot=              2.0153

 Test job not archived.
 1\1\GINC-SE363\SP\RHF\Aug-CC-pVDZ\C3H8S2Si1\OHZDE\08-Apr-2025\0\\#t hf
  aug-cc-pvdz iop(5/13=1,5/36=2,99/5=2) pseudo=read geom=check guess=(r
 ead,tcheck) scf=(maxcycle=1)\\title\\0,1\Si,0,2.525269,-0.35646,-0.447
 27\C,0,1.192058,-0.233622,0.913214\C,0,-0.140587,0.214292,0.383066\S,0
 ,-0.482953,1.776523,0.002971\S,0,-1.24205,-1.136144,0.194537\H,0,3.747
 624,-0.92222,0.170656\H,0,2.818951,0.979683,-1.002397\H,0,2.056393,-1.
 259207,-1.52179\C,0,-2.720361,-0.400304,-0.549039\H,0,-3.427312,-1.221
 512,-0.675034\H,0,-2.477598,0.043219,-1.51373\H,0,-3.135115,0.359813,0

 Normal termination of Gaussian 16 at Tue Apr  8 23:52:51 2025.
