 Gaussian 16, Revision C.01,

 ----------------------------------------------------------------------
 #t hf aug-cc-pvdz symm=none int=(grid=ultrafine) guess=(read,tcheck) s
 table=(opt,rrhf)
 ----------------------------------------------------------------------
 -----
 title
 -----
 Symbolic Z-matrix:
 Charge =  0 Multiplicity = 1

 SCF Done:  E(RHF) =  -1330.44515553     A.U. after   15 cycles
 Normal termination of Gaussian 16 at Wed Apr  9 00:20:57 2025.
 Gaussian 16:  ES64L-G16RevC.01  3-Jul-2019

 ----------------------------------------------------------------------
 #t hf aug-cc-pvdz iop(5/13=1,5/36=2,99/5=2) pseudo=read geom=check gue
 ss=(read,tcheck) scf=(maxcycle=1)
 ----------------------------------------------------------------------
 -----
 title
 -----
 Structure from the checkpoint file:  "BDE49_nonexpt_2667_mol1.chk"
 Charge =  0 Multiplicity = 1

                         Standard orientation:
 ---------------------------------------------------------------------
 Center     Atomic      Atomic             Coordinates (Angstroms)
 Number     Number       Type             X           Y           Z
 ---------------------------------------------------------------------
      1          9           0        2.265566   -0.211711   -0.000219
      2         16           0        0.819843   -1.110006    0.000233
      3          6           0       -0.419327    0.067798    0.000468
      4         16           0       -1.885174   -0.683543   -0.000240
      5         16           0       -0.128025    1.780723   -0.000052
      6          1           0        1.219564    1.703828    0.000102
 ---------------------------------------------------------------------

 SCF Done:  E(RHF) =  -1330.55315842     A.U. after    2 cycles

 The electronic state is 1-A.
 Alpha  occ. eigenvalues --  -93.67441 -93.60658 -93.54035 -26.15531 -11.41422
 Alpha  occ. eigenvalues --   -8.96278  -8.90462  -8.83933  -6.30408  -6.30033
 Alpha  occ. eigenvalues --   -6.29588  -6.24591  -6.24372  -6.24022  -6.18095
 Alpha  occ. eigenvalues --   -6.17607  -6.17499  -1.66197  -1.16870  -1.02034
 Alpha  occ. eigenvalues --   -0.97153  -0.78897  -0.75651  -0.75005  -0.71260
 Alpha  occ. eigenvalues --   -0.59337  -0.55984  -0.54480  -0.51434  -0.41961
 Alpha  occ. eigenvalues --   -0.37085  -0.36266
 Alpha virt. eigenvalues --    0.01874   0.03427   0.05325   0.06958   0.07972
 Alpha virt. eigenvalues --    0.08583   0.10505   0.11202   0.12851   0.13162
 Alpha virt. eigenvalues --    0.14464   0.14602   0.16179   0.17279   0.17589

 Mulliken charges:
               1
     1  F   -0.667291
     2  S    0.924435
     3  C   -0.772473
     4  S    0.049357
     5  S    0.325978
     6  H    0.139994
 Sum of Mulliken charges =  -0.00000

 Dipole moment (field-independent basis, Debye):
    X=              0.7578    Y=              0.8798    Z=              0.0004  Tot=              1.1612

 Test job not archived.
 1\1\GINC-SE016\SP\RHF\Aug-CC-pVDZ\C1H1F1S3\OHZDE\09-Apr-2025\0\\#t hf
 aug-cc-pvdz iop(5/13=1,5/36=2,99/5=2) pseudo=read geom=check guess=(re
 ad,tcheck) scf=(maxcycle=1)\\title\\0,1\F,0,-2.265566,-0.21171,0.00021
 9\S,0,-0.819844,-1.110006,-0.000233\C,0,0.419327,0.067798,-0.000468\S,
 0,1.885174,-0.683544,0.00024\S,0,0.128025,1.780723,0.000052\H,0,-1.219
 564,1.703828,-0.000102\\Version=ES64L-G16RevC.01\State=1-A\HF=-1330.55
 31584\RMSD=6.990e-03\Dipole=-0.2981445,0.3461341,-0.0001477\Quadrupole
 =-3.0181253,3.6020476,-0.5839223,-0.6391187,0.0013314,0.0003056\PG=C01

 Normal termination of Gaussian 16 at Wed Apr  9 00:20:59 2025.
