 Gaussian 16, Revision C.01,

 ----------------------------------------------------------------------
 #t hf aug-cc-pvdz symm=none int=(grid=ultrafine) guess=(read,tcheck) s
 table=(opt,rrhf)
 ----------------------------------------------------------------------
 -----
 title
 -----
 Symbolic Z-matrix:
 Charge =  0 Multiplicity = 1

 SCF Done:  E(RHF) =  -549.596421368     A.U. after   11 cycles
 Normal termination of Gaussian 16 at Tue Apr  8 22:49:37 2025.
 Gaussian 16:  ES64L-G16RevC.01  3-Jul-2019

 ----------------------------------------------------------------------
 #t hf aug-cc-pvdz iop(5/13=1,5/36=2,99/5=2) pseudo=read geom=check gue
 ss=(read,tcheck) scf=(maxcycle=1)
 ----------------------------------------------------------------------
 -----
 title
 -----
 Structure from the checkpoint file:  "BDE49_expt_173_mol1.chk"
 Charge =  0 Multiplicity = 1

                         Standard orientation:
 ---------------------------------------------------------------------
 Center     Atomic      Atomic             Coordinates (Angstroms)
 Number     Number       Type             X           Y           Z
 ---------------------------------------------------------------------
      1          6           0       -0.972786   -0.000044   -0.226352
      2          8           0       -0.026048   -0.000194    0.794044
      3          9           0       -1.753183    1.088911   -0.074500
      4          9           0       -1.753584   -1.088688   -0.074376
      5          1           0       -0.529865   -0.000178   -1.221185
      6          6           0        1.290617   -0.000081    0.415675
      7          9           0        1.582775    1.088566   -0.346629
      8          9           0        1.582866   -1.088492   -0.346936
      9          1           0        1.901404   -0.000184    1.314861
 ---------------------------------------------------------------------

 SCF Done:  E(RHF) =  -549.794888993     A.U. after    2 cycles

 The electronic state is 1-A.
 Alpha  occ. eigenvalues --  -26.17221 -26.17211 -26.16170 -26.16160 -20.66023
 Alpha  occ. eigenvalues --  -11.51466 -11.50718  -1.74425  -1.73525  -1.69259
 Alpha  occ. eigenvalues --   -1.68477  -1.44130  -1.06916  -0.98448  -0.88838
 Alpha  occ. eigenvalues --   -0.88467  -0.87140  -0.84570  -0.83633  -0.79586
 Alpha  occ. eigenvalues --   -0.76564  -0.75433  -0.73577  -0.72892  -0.71932
 Alpha  occ. eigenvalues --   -0.69002  -0.64468  -0.60277  -0.59182
 Alpha virt. eigenvalues --    0.03470   0.04617   0.08256   0.08441   0.10596
 Alpha virt. eigenvalues --    0.10947   0.11247   0.14465   0.16329   0.18219
 Alpha virt. eigenvalues --    0.20603   0.20711   0.26572   0.27003   0.27089

 Mulliken charges:
               1
     1  C    1.130988
     2  O   -0.617918
     3  F   -0.290502
     4  F   -0.290490
     5  H   -0.193124
     6  C    1.125303
     7  F   -0.321605
     8  F   -0.321608
     9  H   -0.221043
 Sum of Mulliken charges =   0.00000

 Dipole moment (field-independent basis, Debye):
    X=              1.8267    Y=             -0.0005    Z=              0.2905  Tot=              1.8497

 Test job not archived.
 1\1\GINC-SE106\SP\RHF\Aug-CC-pVDZ\C2H2F4O1\OHZDE\08-Apr-2025\0\\#t hf
 aug-cc-pvdz iop(5/13=1,5/36=2,99/5=2) pseudo=read geom=check guess=(re
 ad,tcheck) scf=(maxcycle=1)\\title\\0,1\C,0,-0.972786,-0.000044,-0.226
 352\O,0,-0.026048,-0.000194,0.794044\F,0,-1.753183,1.088911,-0.0745\F,
 0,-1.753584,-1.088688,-0.074376\H,0,-0.529865,-0.000178,-1.221185\C,0,
 1.290617,-0.000081,0.415675\F,0,1.582775,1.088566,-0.346629\F,0,1.5828
 66,-1.088492,-0.346936\H,0,1.901404,-0.000184,1.314861\\Version=ES64L-
 G16RevC.01\State=1-A\HF=-549.794889\RMSD=5.137e-03\Dipole=0.7186765,-0

 Normal termination of Gaussian 16 at Tue Apr  8 22:49:41 2025.
