 Gaussian 16, Revision C.01,

 ----------------------------------------------------------------------
 #t hf aug-cc-pvdz symm=none int=(grid=ultrafine) guess=(read,tcheck) s
 table=(opt,rrhf)
 ----------------------------------------------------------------------
 -----
 title
 -----
 Symbolic Z-matrix:
 Charge =  0 Multiplicity = 1

 SCF Done:  E(RHF) =  -796.809530139     A.U. after   15 cycles
 Normal termination of Gaussian 16 at Tue Apr  8 23:18:52 2025.
 Gaussian 16:  ES64L-G16RevC.01  3-Jul-2019

 ----------------------------------------------------------------------
 #t hf aug-cc-pvdz iop(5/13=1,5/36=2,99/5=2) pseudo=read geom=check gue
 ss=(read,tcheck) scf=(maxcycle=1)
 ----------------------------------------------------------------------
 -----
 title
 -----
 Structure from the checkpoint file:  "BDE49_nonexpt_1127_mol1.chk"
 Charge =  0 Multiplicity = 1

                         Standard orientation:
 ---------------------------------------------------------------------
 Center     Atomic      Atomic             Coordinates (Angstroms)
 Number     Number       Type             X           Y           Z
 ---------------------------------------------------------------------
      1          9           0        2.023403    0.015137   -0.004582
      2          8           0        0.919041   -0.880912   -0.235003
      3         16           0       -0.474267   -0.029243    0.110177
      4          8           0       -1.449991   -0.997813   -0.238239
      5          8           0       -0.347008    0.607160    1.377046
      6          8           0       -0.444775    1.077376   -1.033940
      7          1           0       -0.040488    1.885168   -0.680503
 ---------------------------------------------------------------------

 SCF Done:  E(RHF) =  -797.034395297     A.U. after    2 cycles

 The electronic state is 1-A.
 Alpha  occ. eigenvalues --  -93.91807 -26.22665 -20.77096 -20.69893 -20.63556
 Alpha  occ. eigenvalues --  -20.63189  -9.17352  -6.52027  -6.51927  -6.51899
 Alpha  occ. eigenvalues --   -1.72806  -1.55094  -1.41994  -1.39718  -1.35898
 Alpha  occ. eigenvalues --   -0.95639  -0.87267  -0.83104  -0.81106  -0.79677
 Alpha  occ. eigenvalues --   -0.75222  -0.72844  -0.69943  -0.65932  -0.62823
 Alpha  occ. eigenvalues --   -0.61113  -0.59076  -0.58166  -0.56669
 Alpha virt. eigenvalues --    0.02655   0.05112   0.09002   0.09280   0.09772
 Alpha virt. eigenvalues --    0.12251   0.16005   0.17048   0.17331   0.18958
 Alpha virt. eigenvalues --    0.20302   0.20718   0.22311   0.24672   0.25430

 Mulliken charges:
               1
     1  F   -0.298608
     2  O   -0.307550
     3  S    2.595178
     4  O   -0.725719
     5  O   -0.794212
     6  O   -0.663960
     7  H    0.194873
 Sum of Mulliken charges =  -0.00000

 Dipole moment (field-independent basis, Debye):
    X=              0.6494    Y=              2.4160    Z=             -0.9513  Tot=              2.6765

 Test job not archived.
 1\1\GINC-SE333\SP\RHF\Aug-CC-pVDZ\F1H1O4S1\OHZDE\08-Apr-2025\0\\#t hf
 aug-cc-pvdz iop(5/13=1,5/36=2,99/5=2) pseudo=read geom=check guess=(re
 ad,tcheck) scf=(maxcycle=1)\\title\\0,1\F,0,2.023403,0.015136,-0.00458
 2\O,0,0.919041,-0.880912,-0.235003\S,0,-0.474267,-0.029243,0.110177\O,
 0,-1.449992,-0.997812,-0.238239\O,0,-0.347008,0.60716,1.377046\O,0,-0.
 444775,1.077376,-1.03394\H,0,-0.040487,1.885168,-0.680503\\Version=ES6
 4L-G16RevC.01\State=1-A\HF=-797.0343953\RMSD=3.854e-03\Dipole=0.255481
 1,0.9505153,-0.374256\Quadrupole=-2.0737048,3.942025,-1.8683203,-0.811

 Normal termination of Gaussian 16 at Tue Apr  8 23:18:55 2025.
