 Gaussian 16, Revision C.01,

 ----------------------------------------------------------------------
 #t hf aug-cc-pvdz symm=none int=(grid=ultrafine) guess=(read,tcheck) s
 table=(opt,rrhf)
 ----------------------------------------------------------------------
 -----
 title
 -----
 Symbolic Z-matrix:
 Charge =  0 Multiplicity = 1

 SCF Done:  E(RHF) =  -880.288261241     A.U. after   14 cycles
 Normal termination of Gaussian 16 at Wed Apr  9 00:39:02 2025.
 Gaussian 16:  ES64L-G16RevC.01  3-Jul-2019

 ----------------------------------------------------------------------
 #t hf aug-cc-pvdz iop(5/13=1,5/36=2,99/5=2) pseudo=read geom=check gue
 ss=(read,tcheck) scf=(maxcycle=1)
 ----------------------------------------------------------------------
 -----
 title
 -----
 Structure from the checkpoint file:  "BDE49_nonexpt_605_mol1.chk"
 Charge =  0 Multiplicity = 1

                         Standard orientation:
 ---------------------------------------------------------------------
 Center     Atomic      Atomic             Coordinates (Angstroms)
 Number     Number       Type             X           Y           Z
 ---------------------------------------------------------------------
      1          6           0       -2.040093   -0.178728    0.041640
      2          6           0       -1.182474   -1.269802   -0.002303
      3          6           0        0.193386   -1.085259   -0.073488
      4          6           0       -1.505129    1.103462    0.015981
      5          6           0       -0.130776    1.271778   -0.035613
      6          6           0        0.763475    0.193310   -0.075244
      7          9           0       -3.363260   -0.359057    0.104131
      8          9           0       -1.684049   -2.508960    0.003908
      9          9           0        0.968768   -2.177353   -0.160437
     10          9           0       -2.312465    2.167813    0.053395
     11          9           0        0.372889    2.521742   -0.060634
     12          5           0        3.249286   -0.340243    0.254096
     13          8           0        4.470002    0.238453    0.055029
     14          1           0        5.197995   -0.311373    0.351875
     15          7           0        2.129978    0.445770   -0.149385
     16          1           0        3.116883   -1.410662    0.745939
     17          1           0        2.341540    1.389010   -0.451946
 ---------------------------------------------------------------------

 SCF Done:  E(RHF) =  -880.586828738     A.U. after    2 cycles

 The electronic state is 1-A.
 Alpha  occ. eigenvalues --  -26.17579 -26.17555 -26.17419 -26.17298 -26.17080
 Alpha  occ. eigenvalues --  -20.59825 -15.65893 -11.38780 -11.38676 -11.38176
 Alpha  occ. eigenvalues --  -11.37990 -11.37927 -11.34884  -7.66412  -1.72168
 Alpha  occ. eigenvalues --   -1.71799  -1.71192  -1.70818  -1.70490  -1.34399
 Alpha  occ. eigenvalues --   -1.24697  -1.18526  -1.08502  -1.05998  -0.95348
 Alpha  occ. eigenvalues --   -0.94424  -0.87493  -0.87011  -0.85588  -0.81349
 Alpha  occ. eigenvalues --   -0.81149  -0.80876  -0.80116  -0.79506  -0.79193
 Alpha  occ. eigenvalues --   -0.78642  -0.77625  -0.77164  -0.75944  -0.75300
 Alpha  occ. eigenvalues --   -0.72469  -0.70664  -0.67149  -0.64602  -0.63620
 Alpha  occ. eigenvalues --   -0.62534  -0.58999  -0.56359  -0.51830  -0.48794
 Alpha  occ. eigenvalues --   -0.38895  -0.35180
 Alpha virt. eigenvalues --    0.03093   0.04111   0.04428   0.04771   0.07168
 Alpha virt. eigenvalues --    0.07739   0.08710   0.09339   0.09634   0.09804
 Alpha virt. eigenvalues --    0.10074   0.10430   0.10962   0.11723   0.12653

 Mulliken charges:
               1
     1  C    0.633158
     2  C    0.232657
     3  C    0.348996
     4  C    0.335300
     5  C    0.309915
     6  C    0.138722
     7  F   -0.260392
     8  F   -0.241019
     9  F   -0.234566
    10  F   -0.228738
    11  F   -0.284375
    12  B    0.182605
    13  O   -0.472205
    14  H    0.179544
    15  N   -0.794961
    16  H    0.173395
    17  H   -0.018036
 Sum of Mulliken charges =  -0.00000

 Dipole moment (field-independent basis, Debye):
    X=              3.2822    Y=             -0.2576    Z=              0.3850  Tot=              3.3147

 Test job not archived.
 1\1\GINC-SE049\SP\RHF\Aug-CC-pVDZ\C6H3B1F5N1O1\OHZDE\09-Apr-2025\0\\#t
  hf aug-cc-pvdz iop(5/13=1,5/36=2,99/5=2) pseudo=read geom=check guess
 =(read,tcheck) scf=(maxcycle=1)\\title\\0,1\C,0,-2.040093,-0.178728,0.
 04164\C,0,-1.182474,-1.269802,-0.002303\C,0,0.193386,-1.085259,-0.0734
 88\C,0,-1.505129,1.103462,0.015981\C,0,-0.130776,1.271778,-0.035613\C,
 0,0.763475,0.19331,-0.075244\F,0,-3.36326,-0.359057,0.104131\F,0,-1.68
 4049,-2.50896,0.003908\F,0,0.968768,-2.177353,-0.160437\F,0,-2.312465,
 2.167813,0.053395\F,0,0.372889,2.521742,-0.060634\B,0,3.249286,-0.3402

 Normal termination of Gaussian 16 at Wed Apr  9 00:39:15 2025.
