 Gaussian 16, Revision C.01,

 ----------------------------------------------------------------------
 #t hf aug-cc-pvdz symm=none int=(grid=ultrafine) guess=(read,tcheck) s
 table=(opt,rrhf)
 ----------------------------------------------------------------------
 -----
 title
 -----
 Symbolic Z-matrix:
 Charge =  0 Multiplicity = 1

 SCF Done:  E(RHF) =  -665.922022962     A.U. after   14 cycles
 Normal termination of Gaussian 16 at Tue Apr  8 23:51:07 2025.
 Gaussian 16:  ES64L-G16RevC.01  3-Jul-2019

 ----------------------------------------------------------------------
 #t hf aug-cc-pvdz iop(5/13=1,5/36=2,99/5=2) pseudo=read geom=check gue
 ss=(read,tcheck) scf=(maxcycle=1)
 ----------------------------------------------------------------------
 -----
 title
 -----
 Structure from the checkpoint file:  "BDE49_nonexpt_1908_mol1.chk"
 Charge =  0 Multiplicity = 1

                         Standard orientation:
 ---------------------------------------------------------------------
 Center     Atomic      Atomic             Coordinates (Angstroms)
 Number     Number       Type             X           Y           Z
 ---------------------------------------------------------------------
      1         14           0       -0.132534   -0.836768    0.009551
      2          6           0        0.493695    0.871599    0.586067
      3          7           0        1.897676    1.140383    0.281096
      4          6           0        2.690457    0.180586   -0.221649
      5          8           0        2.296092   -0.955957   -0.457762
      6          1           0        2.284107    2.058164    0.443495
      7          1           0        3.728932    0.492273   -0.409790
      8          7           0       -1.871814   -0.744169    0.468903
      9          1           0        0.264440   -1.994661    0.827631
     10          1           0       -0.126174   -1.040363   -1.445278
     11          6           0       -2.750689    0.165854   -0.036282
     12          8           0       -2.443064    1.080257   -0.778899
     13          1           0       -3.797768    0.011922    0.292156
     14          1           0       -2.278598   -1.446925    1.071517
     15          1           0        0.321223    0.949887    1.665684
     16          1           0       -0.146724    1.608325    0.095339
 ---------------------------------------------------------------------

 SCF Done:  E(RHF) =  -666.067523156     A.U. after    2 cycles

 The electronic state is 1-A.
 Alpha  occ. eigenvalues --  -69.08417 -20.56210 -20.53850 -15.67484 -15.62583
 Alpha  occ. eigenvalues --  -11.38328 -11.36056 -11.26576  -6.83125  -3.93996
 Alpha  occ. eigenvalues --   -3.93864  -3.93828  -1.37039  -1.34227  -1.21446
 Alpha  occ. eigenvalues --   -1.15582  -0.96521  -0.82910  -0.81107  -0.77147
 Alpha  occ. eigenvalues --   -0.73319  -0.69997  -0.65713  -0.64196  -0.61793
 Alpha  occ. eigenvalues --   -0.61112  -0.56968  -0.56286  -0.53955  -0.48183
 Alpha  occ. eigenvalues --   -0.47016  -0.46954  -0.43632  -0.40926  -0.39915
 Alpha virt. eigenvalues --    0.02465   0.03229   0.04358   0.04888   0.05739
 Alpha virt. eigenvalues --    0.06665   0.07355   0.08409   0.09316   0.09493
 Alpha virt. eigenvalues --    0.10229   0.11309   0.12053   0.12652   0.13484

 Mulliken charges:
               1
     1  Si   0.321067
     2  C    0.599388
     3  N   -0.326729
     4  C    0.660583
     5  O   -0.349102
     6  H   -0.084181
     7  H   -0.218991
     8  N   -0.465881
     9  H    0.203445
    10  H    0.159461
    11  C    0.661722
    12  O   -0.488498
    13  H   -0.216081
    14  H   -0.114595
    15  H   -0.152697
    16  H   -0.188912
 Sum of Mulliken charges =  -0.00000

 Dipole moment (field-independent basis, Debye):
    X=              1.5664    Y=              1.1340    Z=              3.4324  Tot=              3.9397

 Test job not archived.
 1\1\GINC-SE080\SP\RHF\Aug-CC-pVDZ\C3H8N2O2Si1\OHZDE\08-Apr-2025\0\\#t
 hf aug-cc-pvdz iop(5/13=1,5/36=2,99/5=2) pseudo=read geom=check guess=
 (read,tcheck) scf=(maxcycle=1)\\title\\0,1\Si,0,-0.132534,-0.836768,0.
 009551\C,0,0.493695,0.871599,0.586067\N,0,1.897676,1.140383,0.281096\C
 ,0,2.690457,0.180586,-0.221649\O,0,2.296092,-0.955957,-0.457762\H,0,2.
 284107,2.058164,0.443495\H,0,3.728932,0.492273,-0.40979\N,0,-1.871814,
 -0.744169,0.468903\H,0,0.26444,-1.994661,0.827631\H,0,-0.126174,-1.040
 363,-1.445278\C,0,-2.750689,0.165854,-0.036282\O,0,-2.443064,1.080257,

 Normal termination of Gaussian 16 at Tue Apr  8 23:51:14 2025.
