 Gaussian 16, Revision C.01,

 ----------------------------------------------------------------------
 #t hf aug-cc-pvdz symm=none int=(grid=ultrafine) guess=(read,tcheck) s
 table=(opt,rrhf)
 ----------------------------------------------------------------------
 -----
 title
 -----
 Symbolic Z-matrix:
 Charge =  0 Multiplicity = 1

 SCF Done:  E(RHF) =  -583.480057595     A.U. after   12 cycles
 Normal termination of Gaussian 16 at Tue Apr  8 23:54:03 2025.
 Gaussian 16:  ES64L-G16RevC.01  3-Jul-2019

 ----------------------------------------------------------------------
 #t hf aug-cc-pvdz iop(5/13=1,5/36=2,99/5=2) pseudo=read geom=check gue
 ss=(read,tcheck) scf=(maxcycle=1)
 ----------------------------------------------------------------------
 -----
 title
 -----
 Structure from the checkpoint file:  "BDE49_nonexpt_1959_mol1.chk"
 Charge =  0 Multiplicity = 1

                         Standard orientation:
 ---------------------------------------------------------------------
 Center     Atomic      Atomic             Coordinates (Angstroms)
 Number     Number       Type             X           Y           Z
 ---------------------------------------------------------------------
      1         14           0        2.295690   -0.496321   -0.343693
      2          6           0        0.973894   -0.063462    0.930232
      3          5           0       -0.482331   -0.040249    0.331773
      4          1           0        2.059048   -1.841383   -0.916372
      5          1           0        3.646225   -0.476960    0.270784
      6          8           0       -1.122090    1.072335   -0.145337
      7          8           0       -1.149931   -1.227432    0.257982
      8          6           0       -0.547481    2.372594   -0.130287
      9          1           0       -1.256431    3.048856   -0.609315
     10          1           0        0.395500    2.402770   -0.684433
     11          1           0       -0.370992    2.718848    0.893127
     12          6           0       -2.460304   -1.306867   -0.301145
     13          1           0       -2.758718   -2.355264   -0.277077
     14          1           0       -2.472261   -0.948600   -1.334001
     15          1           0       -3.172471   -0.713244    0.278612
     16          1           0        2.293183    0.486723   -1.457096
     17          1           0        1.258277    0.889283    1.388618
     18          1           0        1.030138   -0.834100    1.706038
 ---------------------------------------------------------------------

 SCF Done:  E(RHF) =  -583.606102280     A.U. after    2 cycles

 The electronic state is 1-A.
 Alpha  occ. eigenvalues --  -69.05947 -20.57303 -20.56315 -11.29506 -11.28104
 Alpha  occ. eigenvalues --  -11.20310  -7.64923  -6.81209  -3.91981  -3.91972
 Alpha  occ. eigenvalues --   -3.91969  -1.34123  -1.30474  -0.95604  -0.94424
 Alpha  occ. eigenvalues --   -0.91745  -0.73090  -0.69248  -0.68709  -0.65623
 Alpha  occ. eigenvalues --   -0.64694  -0.62322  -0.60250  -0.55550  -0.54260
 Alpha  occ. eigenvalues --   -0.50748  -0.49994  -0.49036  -0.46620  -0.46229
 Alpha  occ. eigenvalues --   -0.45491  -0.43753
 Alpha virt. eigenvalues --    0.03193   0.04322   0.04564   0.04754   0.05927
 Alpha virt. eigenvalues --    0.06232   0.06441   0.06715   0.07444   0.08561
 Alpha virt. eigenvalues --    0.08679   0.09535   0.10056   0.10671   0.11062

 Mulliken charges:
               1
     1  Si  -0.008404
     2  C    0.327107
     3  B    0.913619
     4  H    0.101047
     5  H    0.008497
     6  O   -0.537221
     7  O   -0.589770
     8  C    0.927056
     9  H   -0.328384
    10  H   -0.153577
    11  H   -0.170524
    12  C    0.871126
    13  H   -0.294837
    14  H   -0.141343
    15  H   -0.138563
    16  H    0.013467
    17  H   -0.379314
    18  H   -0.419981
 Sum of Mulliken charges =  -0.00000

 Dipole moment (field-independent basis, Debye):
    X=             -0.4709    Y=              1.6682    Z=              0.2908  Tot=              1.7576

 Test job not archived.
 1\1\GINC-SE108\SP\RHF\Aug-CC-pVDZ\C3H11B1O2Si1\OHZDE\08-Apr-2025\0\\#t
  hf aug-cc-pvdz iop(5/13=1,5/36=2,99/5=2) pseudo=read geom=check guess
 =(read,tcheck) scf=(maxcycle=1)\\title\\0,1\Si,0,2.29569,-0.496321,-0.
 343693\C,0,0.973894,-0.063462,0.930232\B,0,-0.482331,-0.040249,0.33177
 3\H,0,2.059048,-1.841383,-0.916372\H,0,3.646225,-0.47696,0.270784\O,0,
 -1.12209,1.072335,-0.145337\O,0,-1.149931,-1.227432,0.257982\C,0,-0.54
 7481,2.372594,-0.130287\H,0,-1.256431,3.048856,-0.609315\H,0,0.3955,2.
 40277,-0.684433\H,0,-0.370992,2.718848,0.893127\C,0,-2.460304,-1.30686

 Normal termination of Gaussian 16 at Tue Apr  8 23:54:11 2025.
