 Gaussian 16, Revision C.01,

 ----------------------------------------------------------------------
 #t hf aug-cc-pvdz symm=none int=(grid=ultrafine) guess=(read,tcheck) s
 table=(opt,rrhf)
 ----------------------------------------------------------------------
 -----
 title
 -----
 Symbolic Z-matrix:
 Charge =  0 Multiplicity = 1

 SCF Done:  E(RHF) =  -519.009682157     A.U. after   14 cycles
 Normal termination of Gaussian 16 at Wed Apr  9 00:06:41 2025.
 Gaussian 16:  ES64L-G16RevC.01  3-Jul-2019

 ----------------------------------------------------------------------
 #t hf aug-cc-pvdz iop(5/13=1,5/36=2,99/5=2) pseudo=read geom=check gue
 ss=(read,tcheck) scf=(maxcycle=1)
 ----------------------------------------------------------------------
 -----
 title
 -----
 Structure from the checkpoint file:  "BDE49_nonexpt_2280_mol1.chk"
 Charge =  0 Multiplicity = 1

                         Standard orientation:
 ---------------------------------------------------------------------
 Center     Atomic      Atomic             Coordinates (Angstroms)
 Number     Number       Type             X           Y           Z
 ---------------------------------------------------------------------
      1          6           0       -2.077962   -0.782473   -0.365701
      2          6           0       -1.325845    0.099512    0.646468
      3          1           0       -1.439470   -1.584208   -0.746234
      4          1           0       -2.418851   -0.202074   -1.227753
      5          1           0       -2.957808   -1.248486    0.086625
      6         14           0        0.193210    0.960835   -0.031281
      7          1           0       -1.989646    0.881885    1.037588
      8          1           0       -1.018908   -0.491645    1.516253
      9          8           0        1.325731   -0.119834   -0.669050
     10          8           0        1.807922   -0.937926    0.452124
     11          1           0        1.769201   -1.810422    0.038668
     12          1           0        0.820239    1.796125    1.017336
     13          1           0       -0.116074    1.766980   -1.233744
 ---------------------------------------------------------------------

 SCF Done:  E(RHF) =  -519.115309695     A.U. after    2 cycles

 The electronic state is 1-A.
 Alpha  occ. eigenvalues --  -69.09004 -20.64728 -20.62229 -11.23641 -11.22695
 Alpha  occ. eigenvalues --   -6.83891  -3.94798  -3.94660  -3.94606  -1.40883
 Alpha  occ. eigenvalues --   -1.17769  -1.01887  -0.85231  -0.73502  -0.71433
 Alpha  occ. eigenvalues --   -0.64763  -0.61644  -0.60179  -0.57935  -0.53340
 Alpha  occ. eigenvalues --   -0.52444  -0.50126  -0.49725  -0.46833  -0.42939
 Alpha virt. eigenvalues --    0.03164   0.04473   0.05036   0.05083   0.06416
 Alpha virt. eigenvalues --    0.07176   0.07536   0.07726   0.08443   0.10230
 Alpha virt. eigenvalues --    0.11184   0.13570   0.14948   0.15087   0.15368

 Mulliken charges:
               1
     1  C    0.218169
     2  C    0.125813
     3  H   -0.123284
     4  H   -0.111654
     5  H   -0.083498
     6  Si   1.101464
     7  H   -0.199253
     8  H   -0.156191
     9  O   -0.718886
    10  O   -0.299226
    11  H    0.233640
    12  H   -0.017673
    13  H    0.030580
 Sum of Mulliken charges =  -0.00000

 Dipole moment (field-independent basis, Debye):
    X=             -1.6796    Y=             -1.0732    Z=              0.2905  Tot=              2.0143

 Test job not archived.
 1\1\GINC-SE453\SP\RHF\Aug-CC-pVDZ\C2H8O2Si1\OHZDE\09-Apr-2025\0\\#t hf
  aug-cc-pvdz iop(5/13=1,5/36=2,99/5=2) pseudo=read geom=check guess=(r
 ead,tcheck) scf=(maxcycle=1)\\title\\0,1\C,0,-2.077962,-0.782473,-0.36
 5701\C,0,-1.325845,0.099512,0.646468\H,0,-1.43947,-1.584208,-0.746234\
 H,0,-2.418851,-0.202074,-1.227753\H,0,-2.957808,-1.248486,0.086625\Si,
 0,0.19321,0.960835,-0.031281\H,0,-1.989646,0.881885,1.037588\H,0,-1.01
 8908,-0.491645,1.516253\O,0,1.325731,-0.119834,-0.66905\O,0,1.807922,-
 0.937926,0.452124\H,0,1.769201,-1.810422,0.038668\H,0,0.820239,1.79612

 Normal termination of Gaussian 16 at Wed Apr  9 00:06:44 2025.
