 Gaussian 16, Revision C.01,

 ----------------------------------------------------------------------
 #t hf aug-cc-pvdz symm=none int=(grid=ultrafine) guess=(read,tcheck) s
 table=(opt,rrhf)
 ----------------------------------------------------------------------
 -----
 title
 -----
 Symbolic Z-matrix:
 Charge =  0 Multiplicity = 1

 SCF Done:  E(RHF) =  -1070.79232539     A.U. after   13 cycles
 Normal termination of Gaussian 16 at Tue Apr  8 22:31:20 2025.
 Gaussian 16:  ES64L-G16RevC.01  3-Jul-2019

 ----------------------------------------------------------------------
 #t hf aug-cc-pvdz iop(5/13=1,5/36=2,99/5=2) pseudo=read geom=check gue
 ss=(read,tcheck) scf=(maxcycle=1)
 ----------------------------------------------------------------------
 -----
 title
 -----
 Structure from the checkpoint file:  "BDE49_expt_1078_mol1.chk"
 Charge =  0 Multiplicity = 1

                         Standard orientation:
 ---------------------------------------------------------------------
 Center     Atomic      Atomic             Coordinates (Angstroms)
 Number     Number       Type             X           Y           Z
 ---------------------------------------------------------------------
      1          6           0       -0.547152   -0.719268    0.000235
      2          6           0        0.475358    0.394485    0.000569
      3          8           0        0.322746    1.558327    0.000120
      4         17           0        2.149061   -0.350126   -0.000283
      5         17           0       -2.228841   -0.111353   -0.000083
      6          1           0       -0.397276   -1.336318   -0.884883
      7          1           0       -0.397660   -1.336461    0.885317
 ---------------------------------------------------------------------

 SCF Done:  E(RHF) =  -1070.87721635     A.U. after    2 cycles

 The electronic state is 1-A.
 Alpha  occ. eigenvalues -- -103.68826-103.68263 -20.63557 -11.44735 -11.35811
 Alpha  occ. eigenvalues --  -10.72136 -10.71516  -8.37835  -8.37543  -8.37537
 Alpha  occ. eigenvalues --   -8.37246  -8.36926  -8.36920  -1.44493  -1.20238
 Alpha  occ. eigenvalues --   -1.17687  -1.01204  -0.80462  -0.72288  -0.69850
 Alpha  occ. eigenvalues --   -0.69743  -0.60352  -0.59703  -0.50467  -0.49818
 Alpha  occ. eigenvalues --   -0.49309  -0.47663  -0.47338
 Alpha virt. eigenvalues --    0.03249   0.04862   0.06906   0.07850   0.09220
 Alpha virt. eigenvalues --    0.09989   0.11580   0.12124   0.12555   0.13720
 Alpha virt. eigenvalues --    0.14989   0.15596   0.16934   0.17086   0.17820

 Mulliken charges:
               1
     1  C    0.014407
     2  C    0.143837
     3  O   -0.290736
     4  Cl  -0.156415
     5  Cl  -0.032688
     6  H    0.160736
     7  H    0.160860
 Sum of Mulliken charges =   0.00000

 Dipole moment (field-independent basis, Debye):
    X=             -0.0210    Y=             -2.8523    Z=              0.0013  Tot=              2.8524

 Test job not archived.
 1\1\GINC-SE328\SP\RHF\Aug-CC-pVDZ\C2H2Cl2O1\OHZDE\08-Apr-2025\0\\#t hf
  aug-cc-pvdz iop(5/13=1,5/36=2,99/5=2) pseudo=read geom=check guess=(r
 ead,tcheck) scf=(maxcycle=1)\\title\\0,1\C,0,0.547152,-0.719268,-0.000
 235\C,0,-0.475358,0.394485,-0.000569\O,0,-0.322746,1.558327,-0.00012\C
 l,0,-2.149061,-0.350126,0.000283\Cl,0,2.228841,-0.111353,0.000083\H,0,
 0.397276,-1.336318,0.884883\H,0,0.39766,-1.336461,-0.885317\\Version=E
 S64L-G16RevC.01\State=1-A\HF=-1070.8772164\RMSD=3.499e-03\Dipole=0.008
 247,-1.1221809,-0.0005018\Quadrupole=-1.8937085,-0.4338578,2.3275663,0

 Normal termination of Gaussian 16 at Tue Apr  8 22:31:22 2025.
