 Gaussian 16, Revision C.01,

 ----------------------------------------------------------------------
 #t hf aug-cc-pvdz symm=none int=(grid=ultrafine) guess=(read,tcheck) s
 table=(opt,rrhf)
 ----------------------------------------------------------------------
 -----
 title
 -----
 Symbolic Z-matrix:
 Charge =  0 Multiplicity = 1

 SCF Done:  E(RHF) =  -1347.71809135     A.U. after   16 cycles
 Normal termination of Gaussian 16 at Wed Apr  9 00:48:48 2025.
 Gaussian 16:  ES64L-G16RevC.01  3-Jul-2019

 ----------------------------------------------------------------------
 #t hf aug-cc-pvdz iop(5/13=1,5/36=2,99/5=2) pseudo=read geom=check gue
 ss=(read,tcheck) scf=(maxcycle=1)
 ----------------------------------------------------------------------
 -----
 title
 -----
 Structure from the checkpoint file:  "BDE49_nonexpt_871_mol1.chk"
 Charge =  0 Multiplicity = 1

                         Standard orientation:
 ---------------------------------------------------------------------
 Center     Atomic      Atomic             Coordinates (Angstroms)
 Number     Number       Type             X           Y           Z
 ---------------------------------------------------------------------
      1          9           0        0.188000    2.000406   -0.456520
      2          9           0        3.836160   -0.847196    0.176255
      3          9           0        2.820349    1.600647   -0.385592
      4         16           0       -2.757692    1.369771    0.549659
      5         16           0       -2.807466   -1.537543   -0.536357
      6          6           0        1.997366    0.575210   -0.141400
      7          6           0       -0.283955   -0.282682    0.067371
      8          6           0        0.283930   -1.542657    0.345913
      9          1           0       -0.373537   -2.378647    0.547959
     10          6           0        0.620458    0.756390   -0.171436
     11          6           0        1.656405   -1.750326    0.394323
     12          1           0        2.080363   -2.720566    0.618595
     13          6           0        2.507176   -0.685285    0.144894
     14          5           0       -1.839476   -0.104372    0.036057
     15          1           0       -1.718156    2.151314    0.882159
     16          1           0       -4.037606   -1.054491   -0.287106
 ---------------------------------------------------------------------

 SCF Done:  E(RHF) =  -1347.93448354     A.U. after    2 cycles

 The electronic state is 1-A.
 Alpha  occ. eigenvalues --  -93.55099 -93.54910 -26.16910 -26.16885 -26.16643
 Alpha  occ. eigenvalues --  -11.38305 -11.38245 -11.37292 -11.29264 -11.28249
 Alpha  occ. eigenvalues --  -11.27363  -8.85069  -8.84882  -7.69097  -6.19263
 Alpha  occ. eigenvalues --   -6.19087  -6.19003  -6.18829  -6.18770  -6.18595
 Alpha  occ. eigenvalues --   -1.71470  -1.70878  -1.70036  -1.19824  -1.07201
 Alpha  occ. eigenvalues --   -1.06810  -1.00528  -0.95785  -0.92640  -0.92128
 Alpha  occ. eigenvalues --   -0.84620  -0.83248  -0.81881  -0.79757  -0.78086
 Alpha  occ. eigenvalues --   -0.76773  -0.75957  -0.74062  -0.73030  -0.69458
 Alpha  occ. eigenvalues --   -0.63987  -0.62584  -0.58948  -0.57638  -0.55591
 Alpha  occ. eigenvalues --   -0.53887  -0.47250  -0.46144  -0.44194  -0.38117
 Alpha  occ. eigenvalues --   -0.37601  -0.37424
 Alpha virt. eigenvalues --    0.03099   0.04236   0.04668   0.04876   0.05451
 Alpha virt. eigenvalues --    0.06155   0.06684   0.07846   0.08315   0.08971
 Alpha virt. eigenvalues --    0.09418   0.10155   0.10632   0.11616   0.11948

 Mulliken charges:
               1
     1  F   -0.335734
     2  F   -0.299980
     3  F   -0.227381
     4  S   -0.234778
     5  S   -0.231349
     6  C    0.308280
     7  C   -0.053653
     8  C    0.455709
     9  H   -0.618110
    10  C    0.315506
    11  C    0.406648
    12  H   -0.421944
    13  C    0.409333
    14  B    0.515522
    15  H    0.027194
    16  H   -0.015262
 Sum of Mulliken charges =  -0.00000

 Dipole moment (field-independent basis, Debye):
    X=             -1.3195    Y=             -2.2937    Z=              1.0914  Tot=              2.8624

 Test job not archived.
 1\1\GINC-SE336\SP\RHF\Aug-CC-pVDZ\C6H4B1F3S2\OHZDE\09-Apr-2025\0\\#t h
 f aug-cc-pvdz iop(5/13=1,5/36=2,99/5=2) pseudo=read geom=check guess=(
 read,tcheck) scf=(maxcycle=1)\\title\\0,1\F,0,0.188,2.000406,-0.45652\
 F,0,3.83616,-0.847196,0.176255\F,0,2.820349,1.600647,-0.385592\S,0,-2.
 757692,1.369771,0.549659\S,0,-2.807466,-1.537543,-0.536357\C,0,1.99736
 6,0.57521,-0.1414\C,0,-0.283955,-0.282682,0.067371\C,0,0.28393,-1.5426
 57,0.345913\H,0,-0.373537,-2.378647,0.547959\C,0,0.620458,0.75639,-0.1
 71436\C,0,1.656405,-1.750326,0.394323\H,0,2.080363,-2.720566,0.618595\

 Normal termination of Gaussian 16 at Wed Apr  9 00:48:59 2025.
