 Gaussian 16, Revision C.01,

 ----------------------------------------------------------------------
 #t hf aug-cc-pvdz symm=none int=(grid=ultrafine) guess=(read,tcheck) s
 table=(opt,rrhf)
 ----------------------------------------------------------------------
 -----
 title
 -----
 Symbolic Z-matrix:
 Charge =  0 Multiplicity = 1

 SCF Done:  E(RHF) =  -879.756899641     A.U. after   19 cycles
 Normal termination of Gaussian 16 at Wed Apr  9 00:25:03 2025.
 Gaussian 16:  ES64L-G16RevC.01  3-Jul-2019

 ----------------------------------------------------------------------
 #t hf aug-cc-pvdz iop(5/13=1,5/36=2,99/5=2) pseudo=read geom=check gue
 ss=(read,tcheck) scf=(maxcycle=1)
 ----------------------------------------------------------------------
 -----
 title
 -----
 Structure from the checkpoint file:  "BDE49_nonexpt_2701_mol1.chk"
 Charge =  0 Multiplicity = 1

                         Standard orientation:
 ---------------------------------------------------------------------
 Center     Atomic      Atomic             Coordinates (Angstroms)
 Number     Number       Type             X           Y           Z
 ---------------------------------------------------------------------
      1          9           0       -2.542268   -1.451806    0.843496
      2          6           0       -0.980005    0.507246   -0.097052
      3         16           0       -2.473568   -0.350312   -0.442746
      4          6           0        0.298709   -0.145945   -0.077163
      5          6           0        0.452604   -1.551354   -0.152163
      6          1           0       -0.430329   -2.173979   -0.205324
      7          6           0        1.703909   -2.121789   -0.122161
      8          1           0        1.804178   -3.199554   -0.181044
      9          6           0        2.859829   -1.319134   -0.009934
     10          1           0        3.838245   -1.785041    0.014926
     11          6           0        2.742615    0.046884    0.071877
     12          1           0        3.625212    0.671107    0.162594
     13          6           0        1.468580    0.669402    0.041459
     14          6           0        1.331888    2.081550    0.114946
     15          1           0        2.229459    2.685912    0.193845
     16          6           0        0.095614    2.677207    0.097256
     17          1           0        0.003165    3.754635    0.166257
     18          6           0       -1.068306    1.883785    0.016630
     19          1           0       -2.045057    2.351049    0.039063
 ---------------------------------------------------------------------

 SCF Done:  E(RHF) =  -879.922772506     A.U. after    2 cycles

 The electronic state is 1-A.
 Alpha  occ. eigenvalues --  -93.61957 -26.11502 -11.29177 -11.27706 -11.27447
 Alpha  occ. eigenvalues --  -11.27198 -11.26929 -11.26263 -11.25980 -11.25801
 Alpha  occ. eigenvalues --  -11.25686 -11.25332  -8.90790  -6.24999  -6.24681
 Alpha  occ. eigenvalues --   -6.24246  -1.62195  -1.18646  -1.12349  -1.07718
 Alpha  occ. eigenvalues --   -1.02221  -1.01136  -0.94666  -0.86659  -0.85873
 Alpha  occ. eigenvalues --   -0.81415  -0.72989  -0.72832  -0.71987  -0.71117
 Alpha  occ. eigenvalues --   -0.69727  -0.67317  -0.63708  -0.61652  -0.60914
 Alpha  occ. eigenvalues --   -0.58500  -0.56873  -0.55292  -0.52763  -0.51139
 Alpha  occ. eigenvalues --   -0.47855  -0.47042  -0.42117  -0.37186  -0.33938
 Alpha  occ. eigenvalues --   -0.31015
 Alpha virt. eigenvalues --    0.02980   0.03375   0.03775   0.04224   0.05149
 Alpha virt. eigenvalues --    0.05706   0.07177   0.07377   0.07808   0.08665
 Alpha virt. eigenvalues --    0.09249   0.10239   0.11198   0.11748   0.11979

 Mulliken charges:
               1
     1  F   -0.622218
     2  C    0.149899
     3  S    0.521679
     4  C    0.563675
     5  C    0.181566
     6  H   -0.570145
     7  C    0.351731
     8  H   -0.431312
     9  C    0.569115
    10  H   -0.445055
    11  C    0.431552
    12  H   -0.577611
    13  C    0.138594
    14  C    0.458667
    15  H   -0.568570
    16  C    0.522061
    17  H   -0.443552
    18  C    0.248632
    19  H   -0.478710
 Sum of Mulliken charges =  -0.00000

 Dipole moment (field-independent basis, Debye):
    X=              2.6701    Y=              2.3301    Z=             -0.9992  Tot=              3.6820

 Test job not archived.
 1\1\GINC-SE222\SP\RHF\Aug-CC-pVDZ\C10H7F1S1\OHZDE\09-Apr-2025\0\\#t hf
  aug-cc-pvdz iop(5/13=1,5/36=2,99/5=2) pseudo=read geom=check guess=(r
 ead,tcheck) scf=(maxcycle=1)\\title\\0,1\F,0,-2.542268,-1.451806,0.843
 496\C,0,-0.980005,0.507246,-0.097052\S,0,-2.473568,-0.350312,-0.442746
 \C,0,0.298709,-0.145945,-0.077163\C,0,0.452604,-1.551354,-0.152163\H,0
 ,-0.430329,-2.173979,-0.205324\C,0,1.703909,-2.121789,-0.122161\H,0,1.
 804178,-3.199554,-0.181044\C,0,2.859829,-1.319134,-0.009934\H,0,3.8382
 45,-1.785041,0.014926\C,0,2.742615,0.046884,0.071877\H,0,3.625212,0.67

 Normal termination of Gaussian 16 at Wed Apr  9 00:25:17 2025.
