 Gaussian 16, Revision C.01,

 ----------------------------------------------------------------------
 #t hf aug-cc-pvdz symm=none int=(grid=ultrafine) guess=(read,tcheck) s
 table=(opt,rrhf)
 ----------------------------------------------------------------------
 -----
 title
 -----
 Symbolic Z-matrix:
 Charge =  0 Multiplicity = 1

 SCF Done:  E(RHF) =  -698.269649555     A.U. after   17 cycles
 Normal termination of Gaussian 16 at Tue Apr  8 23:59:29 2025.
 Gaussian 16:  ES64L-G16RevC.01  3-Jul-2019

 ----------------------------------------------------------------------
 #t hf aug-cc-pvdz iop(5/13=1,5/36=2,99/5=2) pseudo=read geom=check gue
 ss=(read,tcheck) scf=(maxcycle=1)
 ----------------------------------------------------------------------
 -----
 title
 -----
 Structure from the checkpoint file:  "BDE49_nonexpt_2133_mol1.chk"
 Charge =  0 Multiplicity = 1

                         Standard orientation:
 ---------------------------------------------------------------------
 Center     Atomic      Atomic             Coordinates (Angstroms)
 Number     Number       Type             X           Y           Z
 ---------------------------------------------------------------------
      1         14           0       -0.063088   -0.947526    0.146003
      2          7           0       -1.444266    0.260602   -0.088663
      3          7           0        1.498236    0.044136    0.032368
      4          8           0       -1.301025    1.431546   -0.380885
      5          8           0       -2.517643   -0.326435    0.070146
      6          8           0        2.230372   -0.098050   -0.938691
      7          8           0        1.690670    0.804856    0.975746
      8          1           0       -0.147844   -1.892426   -0.967987
      9          1           0       -0.165696   -1.470719    1.507481
 ---------------------------------------------------------------------

 SCF Done:  E(RHF) =  -698.421505113     A.U. after    2 cycles

 The electronic state is 1-A.
 Alpha  occ. eigenvalues --  -69.21581 -20.66094 -20.65462 -20.65296 -20.65276
 Alpha  occ. eigenvalues --  -15.92430 -15.92103  -6.96306  -4.07175  -4.07055
 Alpha  occ. eigenvalues --   -4.06922  -1.57375  -1.56708  -1.39813  -1.39299
 Alpha  occ. eigenvalues --   -1.00507  -0.95343  -0.84072  -0.80922  -0.76707
 Alpha  occ. eigenvalues --   -0.76349  -0.74809  -0.74276  -0.68632  -0.59108
 Alpha  occ. eigenvalues --   -0.56006  -0.54676  -0.52188  -0.50513  -0.50406
 Alpha  occ. eigenvalues --   -0.49841
 Alpha virt. eigenvalues --    0.01931   0.02403   0.02790   0.04485   0.04790
 Alpha virt. eigenvalues --    0.05043   0.08323   0.10320   0.10774   0.13282
 Alpha virt. eigenvalues --    0.13674   0.14564   0.14888   0.15172   0.18344

 Mulliken charges:
               1
     1  Si   1.219987
     2  N    0.338670
     3  N    0.376125
     4  O   -0.451191
     5  O   -0.568827
     6  O   -0.512913
     7  O   -0.523831
     8  H    0.063332
     9  H    0.058648
 Sum of Mulliken charges =  -0.00000

 Dipole moment (field-independent basis, Debye):
    X=             -0.1056    Y=             -4.4923    Z=              0.6550  Tot=              4.5411

 Test job not archived.
 1\1\GINC-SE365\SP\RHF\Aug-CC-pVDZ\H2N2O4Si1\OHZDE\08-Apr-2025\0\\#t hf
  aug-cc-pvdz iop(5/13=1,5/36=2,99/5=2) pseudo=read geom=check guess=(r
 ead,tcheck) scf=(maxcycle=1)\\title\\0,1\Si,0,-0.063088,-0.947526,0.14
 6003\N,0,-1.444266,0.260602,-0.088663\N,0,1.498236,0.044136,0.032368\O
 ,0,-1.301025,1.431546,-0.380885\O,0,-2.517643,-0.326435,0.070146\O,0,2
 .230372,-0.09805,-0.938691\O,0,1.69067,0.804856,0.975746\H,0,-0.147844
 ,-1.892426,-0.967987\H,0,-0.165696,-1.470719,1.507481\\Version=ES64L-G
 16RevC.01\State=1-A\HF=-698.4215051\RMSD=4.310e-03\Dipole=-0.0415554,-

 Normal termination of Gaussian 16 at Tue Apr  8 23:59:32 2025.
