 Gaussian 16, Revision C.01,

 ----------------------------------------------------------------------
 #t hf aug-cc-pvdz symm=none int=(grid=ultrafine) guess=(read,tcheck) s
 table=(opt,rrhf)
 ----------------------------------------------------------------------
 -----
 title
 -----
 Symbolic Z-matrix:
 Charge =  0 Multiplicity = 1

 SCF Done:  E(RHF) =  -743.087710503     A.U. after   15 cycles
 Normal termination of Gaussian 16 at Wed Apr  9 00:21:55 2025.
 Gaussian 16:  ES64L-G16RevC.01  3-Jul-2019

 ----------------------------------------------------------------------
 #t hf aug-cc-pvdz iop(5/13=1,5/36=2,99/5=2) pseudo=read geom=check gue
 ss=(read,tcheck) scf=(maxcycle=1)
 ----------------------------------------------------------------------
 -----
 title
 -----
 Structure from the checkpoint file:  "BDE49_nonexpt_2690_mol1.chk"
 Charge =  0 Multiplicity = 1

                         Standard orientation:
 ---------------------------------------------------------------------
 Center     Atomic      Atomic             Coordinates (Angstroms)
 Number     Number       Type             X           Y           Z
 ---------------------------------------------------------------------
      1          9           0       -2.516209    0.886034    0.000012
      2         16           0       -1.849283   -0.634772   -0.000009
      3          6           0       -0.141057   -0.218516   -0.000003
      4          6           0        0.325504    1.095403    0.000015
      5          6           0        0.786805   -1.265731   -0.000017
      6          6           0        2.137746   -0.939261   -0.000013
      7          6           0        1.703585    1.294076    0.000018
      8          7           0        2.609064    0.312106    0.000004
      9          1           0       -0.359373    1.931383    0.000026
     10          1           0        2.096820    2.306963    0.000032
     11          1           0        0.477340   -2.304977   -0.000032
     12          1           0        2.880660   -1.731895   -0.000024
 ---------------------------------------------------------------------

 SCF Done:  E(RHF) =  -743.216852457     A.U. after    2 cycles

 The electronic state is 1-A.
 Alpha  occ. eigenvalues --  -93.64757 -26.15161 -15.64069 -11.32355 -11.30343
 Alpha  occ. eigenvalues --  -11.30230 -11.27206 -11.26661  -8.93653  -6.27881
 Alpha  occ. eigenvalues --   -6.27528  -6.27029  -1.66407  -1.24642  -1.12563
 Alpha  occ. eigenvalues --   -1.04644  -0.99367  -0.87847  -0.85266  -0.76892
 Alpha  occ. eigenvalues --   -0.75589  -0.73821  -0.68706  -0.67663  -0.65734
 Alpha  occ. eigenvalues --   -0.61791  -0.56770  -0.54324  -0.52837  -0.46447
 Alpha  occ. eigenvalues --   -0.42668  -0.36843  -0.35352
 Alpha virt. eigenvalues --    0.03225   0.03764   0.04915   0.05121   0.06779
 Alpha virt. eigenvalues --    0.07200   0.08176   0.09129   0.10373   0.10654
 Alpha virt. eigenvalues --    0.11654   0.11846   0.12693   0.13687   0.14253

 Mulliken charges:
               1
     1  F   -0.626596
     2  S    0.728989
     3  C   -0.513359
     4  C    0.911429
     5  C    0.740876
     6  C    0.358047
     7  C    0.352603
     8  N   -0.409891
     9  H   -0.459661
    10  H   -0.317045
    11  H   -0.443173
    12  H   -0.322218
 Sum of Mulliken charges =  -0.00000

 Dipole moment (field-independent basis, Debye):
    X=             -0.1123    Y=             -1.5452    Z=             -0.0000  Tot=              1.5493

 Test job not archived.
 1\1\GINC-SE070\SP\RHF\Aug-CC-pVDZ\C5H4F1N1S1\OHZDE\09-Apr-2025\0\\#t h
 f aug-cc-pvdz iop(5/13=1,5/36=2,99/5=2) pseudo=read geom=check guess=(
 read,tcheck) scf=(maxcycle=1)\\title\\0,1\F,0,-2.516209,0.886034,0.000
 012\S,0,-1.849283,-0.634772,-0.000009\C,0,-0.141057,-0.218516,-0.00000
 3\C,0,0.325504,1.095403,0.000015\C,0,0.786805,-1.265731,-0.000017\C,0,
 2.137746,-0.939261,-0.000013\C,0,1.703585,1.294076,0.000018\N,0,2.6090
 64,0.312106,0.000004\H,0,-0.359373,1.931383,0.000026\H,0,2.09682,2.306
 963,0.000032\H,0,0.47734,-2.304977,-0.000032\H,0,2.88066,-1.731895,-0.

 Normal termination of Gaussian 16 at Wed Apr  9 00:22:00 2025.
