 Gaussian 16, Revision C.01,

 ----------------------------------------------------------------------
 #t hf aug-cc-pvdz symm=none int=(grid=ultrafine) guess=(read,tcheck) s
 table=opt
 ----------------------------------------------------------------------
 -----
 title
 -----
 Symbolic Z-matrix:
 Charge =  0 Multiplicity = 2

 SCF Done:  E(UHF) =  -280.864061414     A.U. after   16 cycles
 Normal termination of Gaussian 16 at Wed Apr  9 00:30:15 2025.
 Gaussian 16:  ES64L-G16RevC.01  3-Jul-2019

 ----------------------------------------------------------------------
 #t hf aug-cc-pvdz iop(5/13=1,5/36=2,99/5=2) pseudo=read geom=check gue
 ss=(read,tcheck) scf=(maxcycle=1)
 ----------------------------------------------------------------------
 -----
 title
 -----
 Structure from the checkpoint file:  "BDE49_nonexpt_371_mol2.chk"
 Charge =  0 Multiplicity = 2

                         Standard orientation:
 ---------------------------------------------------------------------
 Center     Atomic      Atomic             Coordinates (Angstroms)
 Number     Number       Type             X           Y           Z
 ---------------------------------------------------------------------
      1          9           0        2.094320   -1.173432    0.050132
      2          5           0        0.916251   -0.800480   -0.413587
      3          6           0        0.075993    0.352608    0.249369
      4          6           0       -1.383401    0.426705   -0.230435
      5          6           0        0.832019    1.685822    0.020280
      6          1           0        0.886488    1.933342   -1.044073
      7          1           0        1.852260    1.645146    0.409302
      8          1           0        0.311442    2.505773    0.523396
      9          1           0        0.082756    0.147862    1.332980
     10          6           0       -2.202764   -0.820568    0.110655
     11          1           0       -1.393974    0.585859   -1.314863
     12          1           0       -1.859437    1.308885    0.214371
     13          1           0       -1.770511   -1.714055   -0.351229
     14          1           0       -3.232622   -0.728948   -0.244338
     15          1           0       -2.237626   -0.987982    1.191985
 ---------------------------------------------------------------------

 SCF Done:  E(UHF) =  -280.963846353     A.U. after    2 cycles

 The electronic state is 2-A.
 Alpha  occ. eigenvalues --  -26.13547 -11.23819 -11.23561 -11.23166 -11.22770
 Alpha  occ. eigenvalues --   -7.68986  -1.67825  -1.07343  -0.98711  -0.87354
 Alpha  occ. eigenvalues --   -0.84919  -0.80284  -0.75576  -0.73764  -0.65753
 Alpha  occ. eigenvalues --   -0.59680  -0.58865  -0.58042  -0.52794  -0.51177
 Alpha  occ. eigenvalues --   -0.48451  -0.48009  -0.47204  -0.34124
 Alpha virt. eigenvalues --    0.03349   0.04223   0.04549   0.04764   0.06511
 Alpha virt. eigenvalues --    0.06658   0.06760   0.07040   0.07297   0.09009
 Alpha virt. eigenvalues --    0.09561   0.10019   0.11369   0.13378   0.13624

  Beta  occ. eigenvalues --  -26.13206 -11.23824 -11.23566 -11.22841 -11.22756
  Beta  occ. eigenvalues --   -7.67162  -1.66827  -1.06917  -0.98540  -0.86949
  Beta  occ. eigenvalues --   -0.83917  -0.79093  -0.73848  -0.73026  -0.64668
  Beta  occ. eigenvalues --   -0.59458  -0.58789  -0.57795  -0.52615  -0.50457
  Beta  occ. eigenvalues --   -0.48039  -0.47043  -0.46070
  Beta virt. eigenvalues --    0.02986   0.04315   0.04537   0.04606   0.06466
  Beta virt. eigenvalues --    0.06696   0.06798   0.07009   0.07364   0.08857
  Beta virt. eigenvalues --    0.09246   0.09754   0.10515   0.13098   0.13662

 Mulliken charges and spin densities:
               1          2
     1  F   -0.469258  -0.005788
     2  B    0.377080   1.070678
     3  C   -0.145337  -0.024171
     4  C    0.238822  -0.012366
     5  C    0.528550  -0.003228
     6  H   -0.080559  -0.001801
     7  H   -0.112326   0.001164
     8  H   -0.078147   0.000823
     9  H   -0.202185  -0.009656
    10  C    0.404826   0.006759
    11  H   -0.125378  -0.003242
    12  H   -0.112677  -0.004549
    13  H   -0.083904  -0.016502
    14  H   -0.068088   0.000992
    15  H   -0.071419   0.000886
 Sum of Mulliken charges =  -0.00000   1.00000

 Dipole moment (field-independent basis, Debye):
    X=             -1.2750    Y=              1.1324    Z=              0.3030  Tot=              1.7320
                          Isotropic Fermi Contact Couplings
        Atom                 a.u.       MegaHertz       Gauss      10(-4) cm-1
     1  F(19)              0.07732     325.32156     116.08282     108.51559
     2  B(11)              0.32049     459.70194     164.03309     153.34006
     3  C(13)              0.06884      77.39471      27.61636      25.81610
     4  C(13)              0.00149       1.67224       0.59670       0.55780
     5  C(13)             -0.00246      -2.76831      -0.98780      -0.92341
     6  H(1)              -0.00028      -1.23913      -0.44215      -0.41333
     7  H(1)               0.00000       0.01197       0.00427       0.00399
     8  H(1)               0.00042       1.87669       0.66965       0.62600

 Normal termination of Gaussian 16 at Wed Apr  9 00:30:21 2025.
