 Gaussian 16, Revision C.01,

 ----------------------------------------------------------------------
 #t hf aug-cc-pvdz symm=none int=(grid=ultrafine) guess=(read,tcheck) s
 table=opt
 ----------------------------------------------------------------------
 -----
 title
 -----
 Symbolic Z-matrix:
 Charge =  0 Multiplicity = 2

 SCF Done:  E(UHF) =  -150.202434694     A.U. after   18 cycles
 Normal termination of Gaussian 16 at Tue Apr  8 22:41:24 2025.
 Gaussian 16:  ES64L-G16RevC.01  3-Jul-2019

 ----------------------------------------------------------------------
 #t hf aug-cc-pvdz iop(5/13=1,5/36=2,99/5=2) pseudo=read geom=check gue
 ss=(read,tcheck) scf=(maxcycle=1)
 ----------------------------------------------------------------------
 -----
 title
 -----
 Structure from the checkpoint file:  "BDE49_expt_1462_mol3.chk"
 Charge =  0 Multiplicity = 2

                         Standard orientation:
 ---------------------------------------------------------------------
 Center     Atomic      Atomic             Coordinates (Angstroms)
 Number     Number       Type             X           Y           Z
 ---------------------------------------------------------------------
      1          8           0        0.055287    0.718523    0.000000
      2          8           0        0.055287   -0.609668    0.000000
      3          1           0       -0.884585   -0.870837    0.000000
 ---------------------------------------------------------------------

 SCF Done:  E(UHF) =  -150.252400449     A.U. after    2 cycles

 The electronic state is 2-A".
 Alpha  occ. eigenvalues --  -20.70399 -20.68815  -1.52846  -1.19385  -0.79349
 Alpha  occ. eigenvalues --   -0.78051  -0.69903  -0.55254  -0.54729
 Alpha virt. eigenvalues --    0.03639   0.12083   0.16520   0.18417   0.21544
 Alpha virt. eigenvalues --    0.23582   0.23605   0.23871   0.32801   0.33290
 Alpha virt. eigenvalues --    0.38610   0.43309   0.46759   0.61028   0.84786

  Beta  occ. eigenvalues --  -20.68045 -20.66232  -1.46567  -1.09031  -0.77149
  Beta  occ. eigenvalues --   -0.67275  -0.59206  -0.50896
  Beta virt. eigenvalues --    0.03667   0.08350   0.12450   0.16570   0.19869
  Beta virt. eigenvalues --    0.21744   0.23644   0.24027   0.27482   0.33346
  Beta virt. eigenvalues --    0.35728   0.38727   0.44039   0.46890   0.61224

 Mulliken charges and spin densities:
               1          2
     1  O   -0.052839   0.949893
     2  O   -0.167652   0.074933
     3  H    0.220492  -0.024826
 Sum of Mulliken charges =  -0.00000   1.00000

 Dipole moment (field-independent basis, Debye):
    X=             -1.8277    Y=             -0.9632    Z=              0.0000  Tot=              2.0660
                          Isotropic Fermi Contact Couplings
        Atom                 a.u.       MegaHertz       Gauss      10(-4) cm-1
     1  O(17)              0.29662    -179.81229     -64.16150     -59.97892
     2  O(17)              0.07815     -47.37699     -16.90529     -15.80326
     3  H(1)              -0.00524     -23.44323      -8.36513      -7.81982
 --------------------------------------------------------
       Center         ----  Spin Dipole Couplings  ----
                      3XX-RR        3YY-RR        3ZZ-RR
 --------------------------------------------------------
     1   Atom       -1.894666     -1.851423      3.746089

 Normal termination of Gaussian 16 at Tue Apr  8 22:41:25 2025.
