 Gaussian 16, Revision C.01,

 ----------------------------------------------------------------------
 #t hf aug-cc-pvdz symm=none int=(grid=ultrafine) guess=(read,tcheck) s
 table=(opt,rrhf)
 ----------------------------------------------------------------------
 -----
 title
 -----
 Symbolic Z-matrix:
 Charge =  0 Multiplicity = 1

 SCF Done:  E(RHF) =  -388.330327296     A.U. after   12 cycles

 1\1\GINC-SE252\Stability\RHF\Aug-CC-pVDZ\C8H18O1\OHZDE\08-Apr-2025\0\\
 #t hf aug-cc-pvdz symm=none int=(grid=ultrafine) guess=(read,tcheck) s
 table=(opt,rrhf)\\title\\0,1\O,0,-0.347337,-0.060091,-0.333082\C,0,-1.
 75403,-0.160284,-0.023991\C,0,-1.972406,-0.36691,1.482895\H,0,-1.69616
 6,0.517754,2.061539\H,0,-1.376942,-1.211739,1.837704\C,0,-2.518529,1.0
 7483,-0.525104\H,0,-3.595775,0.923712,-0.416583\H,0,-2.300943,1.250083
 ,-1.581762\H,0,-2.255412,1.974679,0.036052\C,0,-2.197621,-1.404942,-0.
 797389\H,0,-1.633578,-2.277407,-0.460211\H,0,-2.008383,-1.269629,-1.86

 Normal termination of Gaussian 16 at Tue Apr  8 22:43:26 2025.
 Gaussian 16:  ES64L-G16RevC.01  3-Jul-2019

 ----------------------------------------------------------------------
 #t hf aug-cc-pvdz iop(5/13=1,5/36=2,99/5=2) pseudo=read geom=check gue
 ss=(read,tcheck) scf=(maxcycle=1)
 ----------------------------------------------------------------------
 -----
 title
 -----
 Structure from the checkpoint file:  "BDE49_expt_1390_mol1.chk"
 Charge =  0 Multiplicity = 1

                         Standard orientation:
 ---------------------------------------------------------------------
 Center     Atomic      Atomic             Coordinates (Angstroms)
 Number     Number       Type             X           Y           Z
 ---------------------------------------------------------------------
      1          8           0        0.347337    0.060091   -0.333082
      2          6           0        1.754030    0.160284   -0.023991
      3          6           0        1.972406    0.366910    1.482895
      4          1           0        1.696166   -0.517754    2.061539
      5          1           0        1.376942    1.211739    1.837704
      6          6           0        2.518529   -1.074830   -0.525104
      7          1           0        3.595775   -0.923712   -0.416583
      8          1           0        2.300943   -1.250083   -1.581762
      9          1           0        2.255412   -1.974679    0.036052
     10          6           0        2.197621    1.404942   -0.797389
     11          1           0        1.633578    2.277407   -0.460211
     12          1           0        2.008383    1.269629   -1.864528
     13          1           0        3.263298    1.598004   -0.650556
     14          1           0        3.025316    0.577507    1.688655
     15          6           0       -0.397198   -1.026882    0.200492
     16          6           0       -1.847938   -0.862656   -0.238317
     17          1           0       -0.340888   -1.043182    1.298328
     18          1           0       -0.007938   -1.985552   -0.167193
     19          6           0       -2.526540    0.394131    0.316649
     20          1           0       -2.402602   -1.755364    0.077152
     21          1           0       -1.876025   -0.843686   -1.333858
     22          6           0       -3.973913    0.550940   -0.156838
     23          1           0       -1.940247    1.267977    0.020529
     24          1           0       -2.500955    0.361026    1.413214
     25          1           0       -4.026643    0.619969   -1.247945
     26          1           0       -4.432296    1.454620    0.254213
     27          1           0       -4.588902   -0.301618    0.149517
 ---------------------------------------------------------------------

 SCF Done:  E(RHF) =  -388.454596554     A.U. after    2 cycles

 The electronic state is 1-A.
 Alpha  occ. eigenvalues --  -20.55582 -11.29348 -11.27581 -11.22266 -11.22236
 Alpha  occ. eigenvalues --  -11.22210 -11.21910 -11.21732 -11.21702  -1.31762
 Alpha  occ. eigenvalues --   -1.07550  -1.03950  -0.96352  -0.93453  -0.93024
 Alpha  occ. eigenvalues --   -0.85357  -0.78861  -0.75384  -0.66388  -0.65337
 Alpha  occ. eigenvalues --   -0.62744  -0.61786  -0.59851  -0.58033  -0.56379
 Alpha  occ. eigenvalues --   -0.55402  -0.54115  -0.52354  -0.51756  -0.51476
 Alpha  occ. eigenvalues --   -0.50602  -0.49161  -0.46844  -0.46548  -0.46057
 Alpha  occ. eigenvalues --   -0.44363  -0.41798
 Alpha virt. eigenvalues --    0.03419   0.04179   0.04413   0.04553   0.05517
 Alpha virt. eigenvalues --    0.05676   0.05918   0.06436   0.06594   0.07821
 Alpha virt. eigenvalues --    0.07975   0.08160   0.08776   0.09440   0.09464

 Mulliken charges:
               1
     1  O   -0.520392
     2  C   -2.853204
     3  C    1.084345
     4  H   -0.072762
     5  H    0.014159
     6  C    1.093548
     7  H   -0.041404
     8  H    0.012898
     9  H   -0.057645
    10  C    1.015458
    11  H   -0.012768
    12  H   -0.021174
    13  H    0.017494
    14  H   -0.030221
    15  C    0.704504
    16  C    0.151768
    17  H   -0.233906
    18  H   -0.201086
    19  C    0.239950
    20  H   -0.090134
    21  H   -0.123597
    22  C    0.448978
    23  H   -0.158119
    24  H   -0.168624
    25  H   -0.059178
    26  H   -0.052835
    27  H   -0.086054
 Sum of Mulliken charges =  -0.00000

 Dipole moment (field-independent basis, Debye):
    X=              0.8222    Y=             -0.8147    Z=              0.7623  Tot=              1.3859

 Test job not archived.
 1\1\GINC-SE252\SP\RHF\Aug-CC-pVDZ\C8H18O1\OHZDE\08-Apr-2025\0\\#t hf a
 ug-cc-pvdz iop(5/13=1,5/36=2,99/5=2) pseudo=read geom=check guess=(rea
 d,tcheck) scf=(maxcycle=1)\\title\\0,1\O,0,-0.347337,-0.060091,-0.3330
 82\C,0,-1.75403,-0.160284,-0.023991\C,0,-1.972406,-0.36691,1.482895\H,
 0,-1.696166,0.517754,2.061539\H,0,-1.376942,-1.211739,1.837704\C,0,-2.
 518529,1.07483,-0.525104\H,0,-3.595775,0.923712,-0.416583\H,0,-2.30094
 3,1.250083,-1.581762\H,0,-2.255412,1.974679,0.036052\C,0,-2.197621,-1.
 404942,-0.797389\H,0,-1.633578,-2.277407,-0.460211\H,0,-2.008383,-1.26

 Normal termination of Gaussian 16 at Tue Apr  8 22:43:44 2025.
