 Gaussian 16, Revision C.01,

 ----------------------------------------------------------------------
 #t hf aug-cc-pvdz symm=none int=(grid=ultrafine) guess=(read,tcheck) s
 table=(opt,rrhf)
 ----------------------------------------------------------------------
 -----
 title
 -----
 Symbolic Z-matrix:
 Charge =  0 Multiplicity = 1

 SCF Done:  E(RHF) =  -822.527419409     A.U. after   15 cycles
 Normal termination of Gaussian 16 at Tue Apr  8 23:26:42 2025.
 Gaussian 16:  ES64L-G16RevC.01  3-Jul-2019

 ----------------------------------------------------------------------
 #t hf aug-cc-pvdz iop(5/13=1,5/36=2,99/5=2) pseudo=read geom=check gue
 ss=(read,tcheck) scf=(maxcycle=1)
 ----------------------------------------------------------------------
 -----
 title
 -----
 Structure from the checkpoint file:  "BDE49_nonexpt_1225_mol1.chk"
 Charge =  0 Multiplicity = 1

                         Standard orientation:
 ---------------------------------------------------------------------
 Center     Atomic      Atomic             Coordinates (Angstroms)
 Number     Number       Type             X           Y           Z
 ---------------------------------------------------------------------
      1         16           0        0.177551   -0.722143   -0.650269
      2          8           0       -1.063709    0.429070   -0.598158
      3          6           0       -2.330596    0.097071    0.067281
      4          6           0       -3.138902    1.383254   -0.113298
      5          1           0       -4.133406    1.274743    0.327488
      6          1           0       -3.249438    1.613749   -1.174761
      7          1           0       -2.632208    2.221902    0.369025
      8          6           0       -2.999114   -1.077607   -0.650966
      9          1           0       -3.981144   -1.284259   -0.216690
     10          1           0       -2.392723   -1.982015   -0.564370
     11          1           0       -3.130415   -0.847690   -1.710872
     12          6           0       -2.108272   -0.209572    1.549440
     13          1           0       -1.476665   -1.092160    1.673034
     14          1           0       -3.064120   -0.408690    2.041430
     15          1           0       -1.635628    0.637858    2.051939
     16          6           0        1.343881   -0.067314    0.624889
     17          6           0        2.516419   -1.017635    0.634009
     18          6           0        3.569281   -0.493610    0.003952
     19          6           0        3.298000    0.904789   -0.497944
     20          6           0        1.978862    1.280604    0.220508
     21          1           0        3.187619    0.904369   -1.588834
     22          1           0        4.110250    1.600243   -0.265944
     23          1           0        2.207643    1.842517    1.132024
     24          1           0        1.302932    1.885016   -0.384560
     25          1           0        0.803971   -0.024824    1.571637
     26          1           0        2.462536   -2.013982    1.055208
     27          1           0        4.512308   -1.004934   -0.153398
 ---------------------------------------------------------------------

 SCF Done:  E(RHF) =  -822.679910830     A.U. after    2 cycles

 The electronic state is 1-A.
 Alpha  occ. eigenvalues --  -93.56336 -20.58290 -11.30039 -11.27125 -11.24724
 Alpha  occ. eigenvalues --  -11.24152 -11.23728 -11.23418 -11.22572 -11.22266
 Alpha  occ. eigenvalues --  -11.22188  -8.85419  -6.19676  -6.19303  -6.18981
 Alpha  occ. eigenvalues --   -1.31348  -1.13700  -1.06574  -0.98694  -0.96809
 Alpha  occ. eigenvalues --   -0.93760  -0.93622  -0.87596  -0.78760  -0.74090
 Alpha  occ. eigenvalues --   -0.73007  -0.69024  -0.64800  -0.64233  -0.63090
 Alpha  occ. eigenvalues --   -0.61211  -0.57560  -0.57116  -0.54889  -0.53550
 Alpha  occ. eigenvalues --   -0.53115  -0.52251  -0.51910  -0.51458  -0.50445
 Alpha  occ. eigenvalues --   -0.50150  -0.49037  -0.47263  -0.45786  -0.41977
 Alpha  occ. eigenvalues --   -0.35072  -0.33614
 Alpha virt. eigenvalues --    0.03381   0.03907   0.04460   0.04606   0.05299
 Alpha virt. eigenvalues --    0.05475   0.05941   0.06489   0.06768   0.07345
 Alpha virt. eigenvalues --    0.07598   0.08150   0.08763   0.09661   0.09905

 Mulliken charges:
               1
     1  S    0.562308
     2  O   -0.846541
     3  C   -2.562486
     4  C    0.906726
     5  H    0.057822
     6  H   -0.045411
     7  H   -0.026377
     8  C    1.086137
     9  H    0.022295
    10  H   -0.037652
    11  H    0.018600
    12  C    1.041660
    13  H   -0.026332
    14  H   -0.054227
    15  H    0.010689
    16  C    0.015462
    17  C    0.533224
    18  C    0.187088
    19  C    0.201447
    20  C    0.329057
    21  H   -0.030551
    22  H   -0.054131
    23  H   -0.126669
    24  H   -0.176433
    25  H   -0.256656
    26  H   -0.420450
    27  H   -0.308600
 Sum of Mulliken charges =  -0.00000

 Dipole moment (field-independent basis, Debye):
    X=              0.1487    Y=              0.0597    Z=              1.6195  Tot=              1.6275

 Test job not archived.
 1\1\GINC-SE212\SP\RHF\Aug-CC-pVDZ\C9H16O1S1\OHZDE\08-Apr-2025\0\\#t hf
  aug-cc-pvdz iop(5/13=1,5/36=2,99/5=2) pseudo=read geom=check guess=(r
 ead,tcheck) scf=(maxcycle=1)\\title\\0,1\S,0,0.177551,-0.722143,-0.650
 269\O,0,-1.063709,0.42907,-0.598158\C,0,-2.330596,0.097071,0.067281\C,
 0,-3.138902,1.383254,-0.113298\H,0,-4.133406,1.274743,0.327488\H,0,-3.
 249438,1.613749,-1.174761\H,0,-2.632208,2.221902,0.369025\C,0,-2.99911
 4,-1.077607,-0.650966\H,0,-3.981144,-1.284259,-0.21669\H,0,-2.392723,-
 1.982015,-0.56437\H,0,-3.130415,-0.84769,-1.710872\C,0,-2.108272,-0.20

 Normal termination of Gaussian 16 at Tue Apr  8 23:27:04 2025.
