 Gaussian 16, Revision C.01,

 ----------------------------------------------------------------------
 #t hf aug-cc-pvdz symm=none int=(grid=ultrafine) guess=(read,tcheck) s
 table=opt
 ----------------------------------------------------------------------
 -----
 title
 -----
 Symbolic Z-matrix:
 Charge =  0 Multiplicity = 2

 SCF Done:  E(UHF) =  -1184.18210998     A.U. after   17 cycles
 Normal termination of Gaussian 16 at Tue Apr  8 23:47:27 2025.
 Gaussian 16:  ES64L-G16RevC.01  3-Jul-2019

 ----------------------------------------------------------------------
 #t hf aug-cc-pvdz iop(5/13=1,5/36=2,99/5=2) pseudo=read geom=check gue
 ss=(read,tcheck) scf=(maxcycle=1)
 ----------------------------------------------------------------------
 -----
 title
 -----
 Structure from the checkpoint file:  "BDE49_nonexpt_1811_mol2.chk"
 Charge =  0 Multiplicity = 2

                         Standard orientation:
 ---------------------------------------------------------------------
 Center     Atomic      Atomic             Coordinates (Angstroms)
 Number     Number       Type             X           Y           Z
 ---------------------------------------------------------------------
      1          6           0       -0.700164   -0.429669    0.000075
      2         14           0        1.247445   -0.435467    0.000084
      3         17           0       -1.348971    1.245847   -0.000226
      4          9           0       -1.167329   -1.077033    1.091365
      5          9           0       -1.167320   -1.077421   -1.090988
      6          9           0        1.704501    0.382751    1.292166
      7          9           0        1.704510    0.382276   -1.292297
 ---------------------------------------------------------------------

 SCF Done:  E(UHF) =  -1184.39566309     A.U. after    2 cycles

 The electronic state is 2-A.
 Alpha  occ. eigenvalues -- -103.69726 -69.22115 -26.18421 -26.18411 -26.15747
 Alpha  occ. eigenvalues --  -26.15746 -11.50867 -10.73070  -8.38838  -8.38456
 Alpha  occ. eigenvalues --   -8.38438  -6.96238  -4.07326  -4.06813  -4.06612
 Alpha  occ. eigenvalues --   -1.75262  -1.70501  -1.69359  -1.68215  -1.20721
 Alpha  occ. eigenvalues --   -1.00635  -0.89070  -0.86499  -0.84797  -0.83282
 Alpha  occ. eigenvalues --   -0.81536  -0.78452  -0.77515  -0.77468  -0.75955
 Alpha  occ. eigenvalues --   -0.74352  -0.73839  -0.67537  -0.57248  -0.51044
 Alpha  occ. eigenvalues --   -0.50959  -0.41836
 Alpha virt. eigenvalues --    0.04576   0.05118   0.05409   0.06574   0.08886
 Alpha virt. eigenvalues --    0.11429   0.11932   0.12398   0.12604   0.14055
 Alpha virt. eigenvalues --    0.16195   0.17320   0.19878   0.20240   0.21244

  Beta  occ. eigenvalues -- -103.69681 -69.21509 -26.18449 -26.18439 -26.15419
  Beta  occ. eigenvalues --  -26.15418 -11.50387 -10.73022  -8.38687  -8.38413
  Beta  occ. eigenvalues --   -8.38400  -6.95203  -4.06412  -4.06277  -4.05394
  Beta  occ. eigenvalues --   -1.75293  -1.70576  -1.68358  -1.67214  -1.20263
  Beta  occ. eigenvalues --   -1.00002  -0.87664  -0.86431  -0.83932  -0.83170
  Beta  occ. eigenvalues --   -0.80185  -0.77582  -0.77305  -0.76417  -0.74719
  Beta  occ. eigenvalues --   -0.74143  -0.73698  -0.66225  -0.55451  -0.50882
  Beta  occ. eigenvalues --   -0.49319
  Beta virt. eigenvalues --   -0.01129   0.05301   0.05572   0.06304   0.06965
  Beta virt. eigenvalues --    0.09663   0.12042   0.12239   0.12924   0.14766
  Beta virt. eigenvalues --    0.15660   0.17412   0.17560   0.20502   0.20640

 Mulliken charges and spin densities:
               1          2
     1  C    0.474170   0.103201
     2  Si   1.791080   0.942512
     3  Cl  -0.183322   0.024592
     4  F   -0.318037  -0.005799
     5  F   -0.318037  -0.005799
     6  F   -0.722928  -0.029354
     7  F   -0.722928  -0.029354
 Sum of Mulliken charges =  -0.00000   1.00000

 Dipole moment (field-independent basis, Debye):
    X=              1.1359    Y=             -1.1927    Z=              0.0002  Tot=              1.6471
                          Isotropic Fermi Contact Couplings
        Atom                 a.u.       MegaHertz       Gauss      10(-4) cm-1
     1  C(13)              0.11812     132.78653      47.38153      44.29282
     2  Si(29)             1.01004    -897.64880    -320.30341    -299.42341
     3  Cl(35)             0.01530       6.70888       2.39390       2.23784
     4  F(19)             -0.00583     -24.51100      -8.74613      -8.17599
     5  F(19)             -0.00583     -24.51053      -8.74597      -8.17583
     6  F(19)              0.06226     261.94606      93.46887      87.37580
     7  F(19)              0.06226     261.94571      93.46874      87.37568
 --------------------------------------------------------

 Normal termination of Gaussian 16 at Tue Apr  8 23:47:30 2025.
