 Gaussian 16, Revision C.01,

 ----------------------------------------------------------------------
 #t hf aug-cc-pvdz symm=none int=(grid=ultrafine) guess=(read,tcheck) s
 table=opt
 ----------------------------------------------------------------------
 -----
 title
 -----
 Symbolic Z-matrix:
 Charge =  0 Multiplicity = 2

 SCF Done:  E(UHF) =  -562.833735660     A.U. after   15 cycles
 Normal termination of Gaussian 16 at Tue Apr  8 23:46:56 2025.
 Gaussian 16:  ES64L-G16RevC.01  3-Jul-2019

 ----------------------------------------------------------------------
 #t hf aug-cc-pvdz iop(5/13=1,5/36=2,99/5=2) pseudo=read geom=check gue
 ss=(read,tcheck) scf=(maxcycle=1)
 ----------------------------------------------------------------------
 -----
 title
 -----
 Structure from the checkpoint file:  "BDE49_nonexpt_180_mol2.chk"
 Charge =  0 Multiplicity = 2

                         Standard orientation:
 ---------------------------------------------------------------------
 Center     Atomic      Atomic             Coordinates (Angstroms)
 Number     Number       Type             X           Y           Z
 ---------------------------------------------------------------------
      1         17           0        1.534098   -0.213707   -0.000005
      2          5           0        0.250230    0.971243   -0.000005
      3          6           0       -1.280008    0.703725    0.000010
      4          6           0       -1.766767   -0.757985    0.000001
      5          1           0       -1.689253    1.249525    0.863018
      6          1           0       -1.406414   -1.294796   -0.880562
      7          1           0       -2.858838   -0.807093    0.000017
      8          1           0       -1.406388   -1.294815    0.880542
      9          1           0       -1.689281    1.249546   -0.862970
 ---------------------------------------------------------------------

 SCF Done:  E(UHF) =  -562.883978722     A.U. after    2 cycles

 The electronic state is 2-A.
 Alpha  occ. eigenvalues -- -103.66529 -11.23624 -11.23401 -10.70018  -8.35762
 Alpha  occ. eigenvalues --   -8.35492  -8.35445  -7.68747  -1.16230  -1.02773
 Alpha  occ. eigenvalues --   -0.86749  -0.66968  -0.61528  -0.59460  -0.54969
 Alpha  occ. eigenvalues --   -0.51115  -0.50894  -0.49151  -0.48312  -0.33659
 Alpha virt. eigenvalues --    0.03287   0.04701   0.04916   0.05132   0.06763
 Alpha virt. eigenvalues --    0.06979   0.07530   0.07902   0.09845   0.11576
 Alpha virt. eigenvalues --    0.13124   0.14793   0.15283   0.16717   0.17079

  Beta  occ. eigenvalues -- -103.66450 -11.23502 -11.23281 -10.69926  -8.35616
  Beta  occ. eigenvalues --   -8.35458  -8.35253  -7.66764  -1.15369  -1.02214
  Beta  occ. eigenvalues --   -0.85981  -0.64697  -0.61406  -0.57842  -0.53103
  Beta  occ. eigenvalues --   -0.50736  -0.49540  -0.49248  -0.46892
  Beta virt. eigenvalues --    0.03032   0.04491   0.04857   0.05061   0.06970
  Beta virt. eigenvalues --    0.07395   0.07442   0.08054   0.09199   0.11954
  Beta virt. eigenvalues --    0.12272   0.14455   0.15340   0.15832   0.17117

 Mulliken charges and spin densities:
               1          2
     1  Cl  -0.266879   0.003062
     2  B    0.223776   1.016225
     3  C    0.182659  -0.014934
     4  C    0.230967   0.032558
     5  H   -0.080084  -0.016778
     6  H   -0.077018  -0.002993
     7  H   -0.056314   0.002631
     8  H   -0.077018  -0.002993
     9  H   -0.080090  -0.016777
 Sum of Mulliken charges =  -0.00000   1.00000

 Dipole moment (field-independent basis, Debye):
    X=             -1.6741    Y=              0.1472    Z=              0.0000  Tot=              1.6805
                          Isotropic Fermi Contact Couplings
        Atom                 a.u.       MegaHertz       Gauss      10(-4) cm-1
     1  Cl(35)             0.08471      37.14295      13.25353      12.38955
     2  B(11)              0.33551     481.23824     171.71777     160.52380
     3  C(13)              0.03551      39.91442      14.24246      13.31402
     4  C(13)              0.02414      27.13511       9.68248       9.05130
     5  H(1)              -0.00002      -0.10299      -0.03675      -0.03435
     6  H(1)              -0.00083      -3.69305      -1.31777      -1.23187
     7  H(1)               0.00097       4.32832       1.54445       1.44377
     8  H(1)              -0.00083      -3.69304      -1.31777      -1.23187

 Normal termination of Gaussian 16 at Tue Apr  8 23:46:59 2025.
