 Gaussian 16, Revision C.01,

 ----------------------------------------------------------------------
 #t hf aug-cc-pvdz symm=none int=(grid=ultrafine) guess=(read,tcheck) s
 table=(opt,rrhf)
 ----------------------------------------------------------------------
 -----
 title
 -----
 Symbolic Z-matrix:
 Charge =  0 Multiplicity = 1

 SCF Done:  E(RHF) =  -404.466525509     A.U. after   15 cycles
 Normal termination of Gaussian 16 at Tue Apr  8 23:09:12 2025.
 Gaussian 16:  ES64L-G16RevC.01  3-Jul-2019

 ----------------------------------------------------------------------
 #t hf aug-cc-pvdz iop(5/13=1,5/36=2,99/5=2) pseudo=read geom=check gue
 ss=(read,tcheck) scf=(maxcycle=1)
 ----------------------------------------------------------------------
 -----
 title
 -----
 Structure from the checkpoint file:  "BDE49_expt_722_mol1.chk"
 Charge =  0 Multiplicity = 1

                         Standard orientation:
 ---------------------------------------------------------------------
 Center     Atomic      Atomic             Coordinates (Angstroms)
 Number     Number       Type             X           Y           Z
 ---------------------------------------------------------------------
      1          6           0       -1.245814    1.072304    0.000000
      2          6           0       -1.191834   -0.315274    0.000000
      3          6           0       -0.001494   -1.021172    0.000000
      4          6           0       -0.040484    1.768331    0.000000
      5          6           0        1.178523    1.094622    0.000000
      6          6           0        1.196014   -0.303202    0.000000
      7          1           0        0.003730   -2.102952    0.000000
      8          1           0       -0.049491    2.851986    0.000000
      9          1           0        2.111373    1.649582    0.000000
     10          8           0        2.351014   -1.027049   -0.000001
     11          1           0        3.102487   -0.425418   -0.000001
     12          1           0       -2.203451    1.575648    0.000001
     13          9           0       -2.349136   -1.011789    0.000000
 ---------------------------------------------------------------------

 SCF Done:  E(RHF) =  -404.594670450     A.U. after    2 cycles

 The electronic state is 1-A.
 Alpha  occ. eigenvalues --  -26.13716 -20.61828 -11.34888 -11.33283 -11.26950
 Alpha  occ. eigenvalues --  -11.25208 -11.24967 -11.24870  -1.67560  -1.38225
 Alpha  occ. eigenvalues --   -1.15767  -1.03392  -1.02123  -0.88233  -0.86477
 Alpha  occ. eigenvalues --   -0.80150  -0.75116  -0.74915  -0.70469  -0.69825
 Alpha  occ. eigenvalues --   -0.65740  -0.61912  -0.61594  -0.59056  -0.55372
 Alpha  occ. eigenvalues --   -0.52632  -0.50150  -0.35713  -0.33539
 Alpha virt. eigenvalues --    0.02829   0.03895   0.04630   0.05675   0.06698
 Alpha virt. eigenvalues --    0.09777   0.10532   0.11056   0.11618   0.11902
 Alpha virt. eigenvalues --    0.13188   0.13962   0.14017   0.14331   0.14753

 Mulliken charges:
               1
     1  C    0.409798
     2  C    0.350923
     3  C    0.393498
     4  C    0.450491
     5  C    0.431982
     6  C    0.545488
     7  H   -0.391661
     8  H   -0.416048
     9  H   -0.563928
    10  O   -0.583515
    11  H    0.138057
    12  H   -0.416675
    13  F   -0.348411
 Sum of Mulliken charges =  -0.00000

 Dipole moment (field-independent basis, Debye):
    X=              2.2631    Y=              2.4380    Z=              0.0000  Tot=              3.3265

 Test job not archived.
 1\1\GINC-SE226\SP\RHF\Aug-CC-pVDZ\C6H5F1O1\OHZDE\08-Apr-2025\0\\#t hf
 aug-cc-pvdz iop(5/13=1,5/36=2,99/5=2) pseudo=read geom=check guess=(re
 ad,tcheck) scf=(maxcycle=1)\\title\\0,1\C,0,-1.245814,1.072304,0.\C,0,
 -1.191834,-0.315274,0.\C,0,-0.001494,-1.021172,0.\C,0,-0.040484,1.7683
 31,0.\C,0,1.178523,1.094622,0.\C,0,1.196014,-0.303202,0.\H,0,0.00373,-
 2.102952,0.\H,0,-0.049491,2.851986,0.\H,0,2.111373,1.649582,0.\O,0,2.3
 51014,-1.027049,-0.000001\H,0,3.102487,-0.425418,-0.000001\H,0,-2.2034
 51,1.575648,0.000001\F,0,-2.349136,-1.011789,0.\\Version=ES64L-G16RevC

 Normal termination of Gaussian 16 at Tue Apr  8 23:09:17 2025.
