 Gaussian 16, Revision C.01,

 ----------------------------------------------------------------------
 #t hf aug-cc-pvdz symm=none int=(grid=ultrafine) guess=(read,tcheck) s
 table=(opt,rrhf)
 ----------------------------------------------------------------------
 -----
 title
 -----
 Symbolic Z-matrix:
 Charge =  0 Multiplicity = 1

 SCF Done:  E(RHF) =  -1047.59190298     A.U. after   13 cycles
 Normal termination of Gaussian 16 at Tue Apr  8 22:54:54 2025.
 Gaussian 16:  ES64L-G16RevC.01  3-Jul-2019

 ----------------------------------------------------------------------
 #t hf aug-cc-pvdz iop(5/13=1,5/36=2,99/5=2) pseudo=read geom=check gue
 ss=(read,tcheck) scf=(maxcycle=1)
 ----------------------------------------------------------------------
 -----
 title
 -----
 Structure from the checkpoint file:  "BDE49_expt_1873_mol1.chk"
 Charge =  0 Multiplicity = 1

                         Standard orientation:
 ---------------------------------------------------------------------
 Center     Atomic      Atomic             Coordinates (Angstroms)
 Number     Number       Type             X           Y           Z
 ---------------------------------------------------------------------
      1          8           0        0.677422    0.241618    0.772602
      2          8           0       -0.677414   -0.241568    0.772615
      3          6           0       -1.434077    0.419859   -0.157176
      4          6           0        1.434057   -0.419784   -0.157229
      5          8           0        1.065236   -1.220944   -0.945326
      6          8           0       -1.065269    1.220990   -0.945308
      7          6           0       -2.902035   -0.060738    0.024576
      8          6           0        2.902039    0.060722    0.024569
      9          9           0        3.645541   -0.432915   -0.959490
     10          9           0        3.380414   -0.380039    1.196819
     11          9           0        2.978377    1.395819    0.004618
     12          9           0       -3.645535    0.432844   -0.959513
     13          9           0       -3.380476    0.380005    1.196806
     14          9           0       -2.978289   -1.395840    0.004636
 ---------------------------------------------------------------------

 SCF Done:  E(RHF) =  -1047.95520383     A.U. after    2 cycles

 The electronic state is 1-A.
 Alpha  occ. eigenvalues --  -26.20875 -26.20875 -26.20843 -26.20843 -26.20568
 Alpha  occ. eigenvalues --  -26.20568 -20.75810 -20.75780 -20.65050 -20.65050
 Alpha  occ. eigenvalues --  -11.58345 -11.58344 -11.48097 -11.48096  -1.80666
 Alpha  occ. eigenvalues --   -1.80643  -1.73475  -1.73475  -1.73450  -1.73444
 Alpha  occ. eigenvalues --   -1.57162  -1.46884  -1.43995  -1.34234  -1.10861
 Alpha  occ. eigenvalues --   -1.08903  -0.98858  -0.94981  -0.92666  -0.92465
 Alpha  occ. eigenvalues --   -0.92460  -0.92254  -0.89370  -0.85556  -0.81362
 Alpha  occ. eigenvalues --   -0.81234  -0.81190  -0.81160  -0.78336  -0.77737
 Alpha  occ. eigenvalues --   -0.77647  -0.76990  -0.76910  -0.76740  -0.76644
 Alpha  occ. eigenvalues --   -0.75660  -0.75654  -0.71175  -0.69067  -0.68611
 Alpha  occ. eigenvalues --   -0.65718  -0.58601  -0.58283  -0.55282  -0.55143
 Alpha virt. eigenvalues --    0.06572   0.06757   0.07185   0.07415   0.07680
 Alpha virt. eigenvalues --    0.08357   0.08574   0.09464   0.09966   0.10900
 Alpha virt. eigenvalues --    0.11945   0.12746   0.12775   0.13048   0.13882

 Mulliken charges:
               1
     1  O   -0.342296
     2  O   -0.342286
     3  C    0.298977
     4  C    0.298970
     5  O   -0.293845
     6  O   -0.293847
     7  C    1.172420
     8  C    1.172441
     9  F   -0.260293
    10  F   -0.288717
    11  F   -0.286258
    12  F   -0.260293
    13  F   -0.288714
    14  F   -0.286259
 Sum of Mulliken charges =  -0.00000

 Dipole moment (field-independent basis, Debye):
    X=             -0.0000    Y=              0.0001    Z=              1.2758  Tot=              1.2758

 Test job not archived.
 1\1\GINC-SE072\SP\RHF\Aug-CC-pVDZ\C4F6O4\OHZDE\08-Apr-2025\0\\#t hf au
 g-cc-pvdz iop(5/13=1,5/36=2,99/5=2) pseudo=read geom=check guess=(read
 ,tcheck) scf=(maxcycle=1)\\title\\0,1\O,0,-0.677422,0.241618,-0.772602
 \O,0,0.677414,-0.241568,-0.772615\C,0,1.434077,0.419859,0.157176\C,0,-
 1.434057,-0.419784,0.157229\O,0,-1.065236,-1.220944,0.945326\O,0,1.065
 269,1.22099,0.945308\C,0,2.902035,-0.060738,-0.024576\C,0,-2.902039,0.
 060722,-0.024569\F,0,-3.645541,-0.432915,0.95949\F,0,-3.380414,-0.3800
 39,-1.196819\F,0,-2.978377,1.395819,-0.004618\F,0,3.645535,0.432844,0.

 Normal termination of Gaussian 16 at Tue Apr  8 22:55:03 2025.
