 Gaussian 16, Revision C.01,

 ----------------------------------------------------------------------
 #t hf aug-cc-pvdz symm=none int=(grid=ultrafine) guess=(read,tcheck) s
 table=(opt,rrhf)
 ----------------------------------------------------------------------
 -----
 title
 -----
 Symbolic Z-matrix:
 Charge =  0 Multiplicity = 1

 SCF Done:  E(RHF) =  -390.967814527     A.U. after   13 cycles
 Normal termination of Gaussian 16 at Wed Apr  9 00:32:14 2025.
 Gaussian 16:  ES64L-G16RevC.01  3-Jul-2019

 ----------------------------------------------------------------------
 #t hf aug-cc-pvdz iop(5/13=1,5/36=2,99/5=2) pseudo=read geom=check gue
 ss=(read,tcheck) scf=(maxcycle=1)
 ----------------------------------------------------------------------
 -----
 title
 -----
 Structure from the checkpoint file:  "BDE49_nonexpt_410_mol1.chk"
 Charge =  0 Multiplicity = 1

                         Standard orientation:
 ---------------------------------------------------------------------
 Center     Atomic      Atomic             Coordinates (Angstroms)
 Number     Number       Type             X           Y           Z
 ---------------------------------------------------------------------
      1          9           0        1.227483    1.284298   -0.000016
      2          5           0        0.948325   -0.011407    0.000081
      3          6           0       -1.543052   -0.152127   -0.000002
      4          8           0       -2.680947    0.077025   -0.000010
      5          7           0       -0.384549   -0.490166    0.000030
      6          9           0        1.956529   -0.863769   -0.000042
 ---------------------------------------------------------------------

 SCF Done:  E(RHF) =  -391.114710818     A.U. after    2 cycles

 The electronic state is 1-A.
 Alpha  occ. eigenvalues --  -26.15855 -26.15640 -20.66459 -15.67572 -11.46400
 Alpha  occ. eigenvalues --   -7.79621  -1.71188  -1.68998  -1.47038  -1.26151
 Alpha  occ. eigenvalues --   -0.91720  -0.86612  -0.84424  -0.79132  -0.77947
 Alpha  occ. eigenvalues --   -0.74147  -0.73862  -0.73300  -0.69371  -0.68973
 Alpha  occ. eigenvalues --   -0.49929  -0.49677
 Alpha virt. eigenvalues --    0.04197   0.04652   0.05171   0.05189   0.09897
 Alpha virt. eigenvalues --    0.10170   0.10487   0.11829   0.13376   0.16727
 Alpha virt. eigenvalues --    0.18003   0.19660   0.20659   0.22747   0.23467

 Mulliken charges:
               1
     1  F   -0.402074
     2  B    1.019109
     3  C   -0.051387
     4  O   -0.153197
     5  N    0.060093
     6  F   -0.472545
 Sum of Mulliken charges =  -0.00000

 Dipole moment (field-independent basis, Debye):
    X=              0.0581    Y=             -0.1414    Z=              0.0005  Tot=              0.1529

 Test job not archived.
 1\1\GINC-SE166\SP\RHF\Aug-CC-pVDZ\C1B1F2N1O1\OHZDE\09-Apr-2025\0\\#t h
 f aug-cc-pvdz iop(5/13=1,5/36=2,99/5=2) pseudo=read geom=check guess=(
 read,tcheck) scf=(maxcycle=1)\\title\\0,1\F,0,-1.227483,1.284298,0.000
 016\B,0,-0.948325,-0.011407,-0.000081\C,0,1.543052,-0.152127,0.000002\
 O,0,2.680947,0.077025,0.00001\N,0,0.384549,-0.490166,-0.00003\F,0,-1.9
 56529,-0.863769,0.000042\\Version=ES64L-G16RevC.01\State=1-A\HF=-391.1
 147108\RMSD=5.420e-03\Dipole=-0.0228704,-0.0556367,-0.0001857\Quadrupo
 le=-4.4069838,0.2684676,4.1385162,-0.6564011,0.0004929,-0.0000175\PG=C

 Normal termination of Gaussian 16 at Wed Apr  9 00:32:17 2025.
