 Gaussian 16, Revision C.01,

 ----------------------------------------------------------------------
 #t hf aug-cc-pvdz symm=none int=(grid=ultrafine) guess=(read,tcheck) s
 table=opt
 ----------------------------------------------------------------------
 -----
 title
 -----
 Symbolic Z-matrix:
 Charge =  0 Multiplicity = 2

 SCF Done:  E(UHF) =  -517.292366701     A.U. after   20 cycles
 Normal termination of Gaussian 16 at Tue Apr  8 23:47:24 2025.
 Gaussian 16:  ES64L-G16RevC.01  3-Jul-2019

 ----------------------------------------------------------------------
 #t hf aug-cc-pvdz iop(5/13=1,5/36=2,99/5=2) pseudo=read geom=check gue
 ss=(read,tcheck) scf=(maxcycle=1)
 ----------------------------------------------------------------------
 -----
 title
 -----
 Structure from the checkpoint file:  "BDE49_nonexpt_1816_mol2.chk"
 Charge =  0 Multiplicity = 2

                         Standard orientation:
 ---------------------------------------------------------------------
 Center     Atomic      Atomic             Coordinates (Angstroms)
 Number     Number       Type             X           Y           Z
 ---------------------------------------------------------------------
      1          6           0        0.023082    0.308264    0.007383
      2          8           0       -0.300584    1.471791    0.023378
      3         14           0        1.832249   -0.294535   -0.085442
      4          8           0       -0.857936   -0.719144   -0.008025
      5          6           0       -2.255269   -0.353213    0.003886
      6          1           0       -2.800961   -1.293094   -0.026715
      7          1           0       -2.494176    0.262026   -0.864806
      8          1           0       -2.495025    0.202483    0.911531
      9          1           0        2.064703   -1.580447    0.610456
     10          1           0        2.735263    0.781036    0.375277
 ---------------------------------------------------------------------

 SCF Done:  E(UHF) =  -517.386716827     A.U. after    2 cycles

 The electronic state is 2-A.
 Alpha  occ. eigenvalues --  -69.09398 -20.62252 -20.57452 -11.38670 -11.30181
 Alpha  occ. eigenvalues --   -6.84826  -3.96196  -3.95304  -3.95260  -1.42041
 Alpha  occ. eigenvalues --   -1.33187  -0.98505  -0.81596  -0.75668  -0.69628
 Alpha  occ. eigenvalues --   -0.68386  -0.65611  -0.57915  -0.56942  -0.54023
 Alpha  occ. eigenvalues --   -0.50343  -0.49034  -0.44975  -0.34289
 Alpha virt. eigenvalues --    0.03496   0.04476   0.05462   0.05724   0.06431
 Alpha virt. eigenvalues --    0.06776   0.07257   0.09101   0.10269   0.11949
 Alpha virt. eigenvalues --    0.13441   0.13629   0.15023   0.15719   0.16217

  Beta  occ. eigenvalues --  -69.08813 -20.62252 -20.57082 -11.38802 -11.30183
  Beta  occ. eigenvalues --   -6.83959  -3.94888  -3.94841  -3.93951  -1.41836
  Beta  occ. eigenvalues --   -1.32615  -0.98435  -0.80732  -0.74230  -0.69250
  Beta  occ. eigenvalues --   -0.68224  -0.63605  -0.57547  -0.55681  -0.53910
  Beta  occ. eigenvalues --   -0.49679  -0.47821  -0.44251
  Beta virt. eigenvalues --    0.01673   0.03595   0.04745   0.05517   0.06182
  Beta virt. eigenvalues --    0.06661   0.06840   0.08276   0.09439   0.11234
  Beta virt. eigenvalues --    0.12853   0.13668   0.14709   0.15836   0.16384

 Mulliken charges and spin densities:
               1          2
     1  C    0.305217  -0.068917
     2  O   -0.448712   0.083542
     3  Si   0.236580   1.007324
     4  O   -0.462988  -0.011588
     5  C    0.778924   0.003703
     6  H   -0.236665   0.000089
     7  H   -0.073283   0.000103
     8  H   -0.073491  -0.000159
     9  H   -0.005092  -0.009903
    10  H   -0.020492  -0.004193
 Sum of Mulliken charges =   0.00000   1.00000

 Dipole moment (field-independent basis, Debye):
    X=             -0.2757    Y=             -1.9424    Z=             -0.0055  Tot=              1.9618
                          Isotropic Fermi Contact Couplings
        Atom                 a.u.       MegaHertz       Gauss      10(-4) cm-1
     1  C(13)             -0.01264     -14.21464      -5.07214      -4.74149
     2  O(17)              0.03173     -19.23211      -6.86249      -6.41514
     3  Si(29)             0.52605    -467.51392    -166.82059    -155.94586
     4  O(17)             -0.00373       2.26365       0.80773       0.75507
     5  C(13)             -0.00046      -0.51842      -0.18498      -0.17293
     6  H(1)               0.00003       0.14766       0.05269       0.04925
     7  H(1)               0.00022       0.99048       0.35343       0.33039
     8  H(1)               0.00006       0.25181       0.08985       0.08400

 Normal termination of Gaussian 16 at Tue Apr  8 23:47:27 2025.
