 Gaussian 16, Revision C.01,

 ----------------------------------------------------------------------
 #t hf aug-cc-pvdz symm=none int=(grid=ultrafine) guess=(read,tcheck) s
 table=(opt,rrhf)
 ----------------------------------------------------------------------
 -----
 title
 -----
 Symbolic Z-matrix:
 Charge =  0 Multiplicity = 1

 SCF Done:  E(RHF) =  -512.576250851     A.U. after   13 cycles
 Normal termination of Gaussian 16 at Tue Apr  8 22:45:27 2025.
 Gaussian 16:  ES64L-G16RevC.01  3-Jul-2019

 ----------------------------------------------------------------------
 #t hf aug-cc-pvdz iop(5/13=1,5/36=2,99/5=2) pseudo=read geom=check gue
 ss=(read,tcheck) scf=(maxcycle=1)
 ----------------------------------------------------------------------
 -----
 title
 -----
 Structure from the checkpoint file:  "BDE49_expt_1595_mol1.chk"
 Charge =  0 Multiplicity = 1

                         Standard orientation:
 ---------------------------------------------------------------------
 Center     Atomic      Atomic             Coordinates (Angstroms)
 Number     Number       Type             X           Y           Z
 ---------------------------------------------------------------------
      1         16           0        0.084187   -0.611969    0.010541
      2          6           0       -1.384519    0.446140    0.001425
      3          1           0       -1.396806    1.067453   -0.894558
      4          1           0       -1.447186    1.065053    0.898006
      5          1           0       -2.239721   -0.235681   -0.023292
      6          8           0        1.309618    0.554293   -0.117623
      7          1           0        1.566894    0.783491    0.783628
 ---------------------------------------------------------------------

 SCF Done:  E(RHF) =  -512.640164889     A.U. after    2 cycles

 The electronic state is 1-A.
 Alpha  occ. eigenvalues --  -93.58233 -20.60735 -11.27131  -8.87341  -6.21542
 Alpha  occ. eigenvalues --   -6.21181  -6.20822  -1.33017  -1.02082  -0.85201
 Alpha  occ. eigenvalues --   -0.69285  -0.61412  -0.60096  -0.58784  -0.54286
 Alpha  occ. eigenvalues --   -0.44795  -0.35458
 Alpha virt. eigenvalues --    0.03440   0.04573   0.06042   0.06183   0.08913
 Alpha virt. eigenvalues --    0.10993   0.12584   0.13852   0.15242   0.15633
 Alpha virt. eigenvalues --    0.16822   0.19712   0.21679   0.23317   0.24607

 Mulliken charges:
               1
     1  S    0.643443
     2  C    0.006080
     3  H   -0.032706
     4  H   -0.064977
     5  H   -0.045239
     6  O   -0.681279
     7  H    0.174678
 Sum of Mulliken charges =   0.00000

 Dipole moment (field-independent basis, Debye):
    X=             -1.5002    Y=              0.8395    Z=              1.5121  Tot=              2.2895

 Test job not archived.
 1\1\GINC-SE339\SP\RHF\Aug-CC-pVDZ\C1H4O1S1\OHZDE\08-Apr-2025\0\\#t hf
 aug-cc-pvdz iop(5/13=1,5/36=2,99/5=2) pseudo=read geom=check guess=(re
 ad,tcheck) scf=(maxcycle=1)\\title\\0,1\S,0,0.084187,-0.611969,0.01054
 1\C,0,-1.384519,0.44614,0.001425\H,0,-1.396806,1.067453,-0.894558\H,0,
 -1.447186,1.065053,0.898006\H,0,-2.239721,-0.235681,-0.023292\O,0,1.30
 9618,0.554293,-0.117623\H,0,1.566894,0.78349,0.783628\\Version=ES64L-G
 16RevC.01\State=1-A\HF=-512.6401649\RMSD=3.664e-03\Dipole=-0.5902436,0
 .3302734,0.5949001\Quadrupole=1.206853,-0.7013105,-0.5055424,0.2153451

 Normal termination of Gaussian 16 at Tue Apr  8 22:45:29 2025.
