 Gaussian 16, Revision C.01,

 ----------------------------------------------------------------------
 #t hf aug-cc-pvdz symm=none int=(grid=ultrafine) guess=(read,tcheck) s
 table=opt
 ----------------------------------------------------------------------
 -----
 title
 -----
 Symbolic Z-matrix:
 Charge =  0 Multiplicity = 2

 SCF Done:  E(UHF) =  -557.601299917     A.U. after   15 cycles
 Normal termination of Gaussian 16 at Tue Apr  8 23:41:44 2025.
 Gaussian 16:  ES64L-G16RevC.01  3-Jul-2019

 ----------------------------------------------------------------------
 #t hf aug-cc-pvdz iop(5/13=1,5/36=2,99/5=2) pseudo=read geom=check gue
 ss=(read,tcheck) scf=(maxcycle=1)
 ----------------------------------------------------------------------
 -----
 title
 -----
 Structure from the checkpoint file:  "BDE49_nonexpt_1691_mol2.chk"
 Charge =  0 Multiplicity = 2

                         Standard orientation:
 ---------------------------------------------------------------------
 Center     Atomic      Atomic             Coordinates (Angstroms)
 Number     Number       Type             X           Y           Z
 ---------------------------------------------------------------------
      1          6           0       -3.026189   -0.029240   -0.178028
      2          6           0       -1.520568   -0.009678   -0.462634
      3          1           0       -3.313358   -0.928543    0.376014
      4          1           0       -3.604674   -0.010875   -1.106631
      5          1           0       -3.326278    0.837455    0.419008
      6          6           0       -0.665844   -0.032915    0.821370
      7          1           0       -1.265820    0.881866   -1.043264
      8          1           0       -1.253958   -0.867435   -1.089006
      9         14           0        1.193761   -0.003472    0.479784
     10          1           0       -0.893931   -0.922915    1.420501
     11          1           0       -0.899381    0.831220    1.454786
     12          8           0        1.446485    1.395839   -0.366724
     13          1           0        2.255709    1.462237   -0.880622
     14          8           0        1.671723   -1.237456   -0.536339
     15          1           0        1.918973   -2.070459   -0.127503
 ---------------------------------------------------------------------

 SCF Done:  E(UHF) =  -557.725290162     A.U. after    2 cycles

 The electronic state is 2-A.
 Alpha  occ. eigenvalues --  -69.11259 -20.57523 -20.56957 -11.23043 -11.22175
 Alpha  occ. eigenvalues --  -11.22091  -6.85765  -3.96957  -3.96409  -3.96228
 Alpha  occ. eigenvalues --   -1.31500  -1.29311  -1.04429  -0.92375  -0.80429
 Alpha  occ. eigenvalues --   -0.76166  -0.71616  -0.62943  -0.61495  -0.59503
 Alpha  occ. eigenvalues --   -0.57732  -0.55700  -0.54800  -0.53732  -0.52486
 Alpha  occ. eigenvalues --   -0.48408  -0.47185  -0.45750  -0.31784
 Alpha virt. eigenvalues --    0.03227   0.04443   0.04593   0.05004   0.06288
 Alpha virt. eigenvalues --    0.06674   0.06829   0.07177   0.08767   0.08949
 Alpha virt. eigenvalues --    0.09607   0.10414   0.12923   0.13853   0.14284

  Beta  occ. eigenvalues --  -69.10769 -20.57133 -20.56607 -11.22990 -11.22068
  Beta  occ. eigenvalues --  -11.21800  -6.84975  -3.96109  -3.95975  -3.95150
  Beta  occ. eigenvalues --   -1.30373  -1.28221  -1.04014  -0.91675  -0.80035
  Beta  occ. eigenvalues --   -0.75334  -0.71204  -0.62684  -0.59140  -0.57859
  Beta  occ. eigenvalues --   -0.57050  -0.54836  -0.53645  -0.52531  -0.51942
  Beta  occ. eigenvalues --   -0.47800  -0.47109  -0.43286
  Beta virt. eigenvalues --    0.02377   0.04405   0.04698   0.04941   0.06247
  Beta virt. eigenvalues --    0.06451   0.06854   0.07236   0.08329   0.08805
  Beta virt. eigenvalues --    0.09019   0.09683   0.10606   0.13029   0.14568

 Mulliken charges and spin densities:
               1          2
     1  C    0.444082  -0.006319
     2  C    0.043245  -0.032915
     3  H   -0.068353  -0.000253
     4  H   -0.069572   0.002714
     5  H   -0.062515  -0.000893
     6  C    0.009574   0.147303
     7  H   -0.138121   0.000975
     8  H   -0.150952  -0.000756
     9  Si   1.647170   0.899369
    10  H   -0.153741  -0.013644
    11  H   -0.143139  -0.008083
    12  O   -0.804997   0.027272
    13  H    0.130587  -0.005497
    14  O   -0.827827   0.015907
    15  H    0.144560  -0.025178
 Sum of Mulliken charges =  -0.00000   1.00000

 Dipole moment (field-independent basis, Debye):
    X=              0.6287    Y=             -1.3069    Z=              0.7391  Tot=              1.6277
                          Isotropic Fermi Contact Couplings
        Atom                 a.u.       MegaHertz       Gauss      10(-4) cm-1
     1  C(13)              0.00504       5.66518       2.02148       1.88970
     2  C(13)              0.00941      10.57790       3.77446       3.52841
     3  H(1)              -0.00007      -0.30822      -0.10998      -0.10281
     4  H(1)               0.00091       4.08892       1.45903       1.36392
     5  H(1)              -0.00007      -0.31782      -0.11340      -0.10601
     6  C(13)              0.07780      87.46721      31.21047      29.17592
     7  H(1)              -0.00027      -1.21927      -0.43507      -0.40670
     8  H(1)              -0.00023      -1.02840      -0.36696      -0.34304

 Normal termination of Gaussian 16 at Tue Apr  8 23:41:50 2025.
