 Gaussian 16, Revision C.01,

 ----------------------------------------------------------------------
 #t hf aug-cc-pvdz symm=none int=(grid=ultrafine) guess=(read,tcheck) s
 table=(opt,rrhf)
 ----------------------------------------------------------------------
 -----
 title
 -----
 Symbolic Z-matrix:
 Charge =  0 Multiplicity = 1

 SCF Done:  E(RHF) =  -592.932683528     A.U. after   13 cycles
 Normal termination of Gaussian 16 at Wed Apr  9 00:06:36 2025.
 Gaussian 16:  ES64L-G16RevC.01  3-Jul-2019

 ----------------------------------------------------------------------
 #t hf aug-cc-pvdz iop(5/13=1,5/36=2,99/5=2) pseudo=read geom=check gue
 ss=(read,tcheck) scf=(maxcycle=1)
 ----------------------------------------------------------------------
 -----
 title
 -----
 Structure from the checkpoint file:  "BDE49_nonexpt_2279_mol1.chk"
 Charge =  0 Multiplicity = 1

                         Standard orientation:
 ---------------------------------------------------------------------
 Center     Atomic      Atomic             Coordinates (Angstroms)
 Number     Number       Type             X           Y           Z
 ---------------------------------------------------------------------
      1         14           0        0.380411   -0.017652   -0.000001
      2          8           0        0.146957    1.612682   -0.000230
      3          8           0        1.288492   -0.518914    1.272039
      4          1           0        0.928608    2.170681   -0.000292
      5          6           0       -1.324427   -0.739501    0.000113
      6          6           0       -2.444168   -0.010459    0.000024
      7          1           0       -1.415584   -1.825592    0.000260
      8          1           0       -2.409352    1.074415   -0.000131
      9          1           0       -3.432315   -0.463797    0.000089
     10          1           0        0.911529   -0.402122    2.146544
     11          8           0        1.288476   -0.519271   -1.271912
     12          1           0        0.911529   -0.402668   -2.146449
 ---------------------------------------------------------------------

 SCF Done:  E(RHF) =  -593.081268483     A.U. after    2 cycles

 The electronic state is 1-A.
 Alpha  occ. eigenvalues --  -69.13067 -20.57137 -20.56857 -20.56856 -11.25639
 Alpha  occ. eigenvalues --  -11.22958  -6.87224  -3.98275  -3.98220  -3.98098
 Alpha  occ. eigenvalues --   -1.32396  -1.29480  -1.29174  -1.03201  -0.80638
 Alpha  occ. eigenvalues --   -0.76997  -0.73983  -0.68367  -0.63579  -0.61438
 Alpha  occ. eigenvalues --   -0.60941  -0.59494  -0.55449  -0.54766  -0.53427
 Alpha  occ. eigenvalues --   -0.51398  -0.46096  -0.38921
 Alpha virt. eigenvalues --    0.02907   0.04446   0.05070   0.05205   0.06389
 Alpha virt. eigenvalues --    0.07107   0.07822   0.08003   0.09741   0.10641
 Alpha virt. eigenvalues --    0.12247   0.13341   0.14739   0.16119   0.17055

 Mulliken charges:
               1
     1  Si   2.363629
     2  O   -0.799795
     3  O   -0.802076
     4  H    0.123932
     5  C    0.177426
     6  C    0.555526
     7  H   -0.462782
     8  H   -0.291257
     9  H   -0.269739
    10  H    0.103608
    11  O   -0.802078
    12  H    0.103607
 Sum of Mulliken charges =  -0.00000

 Dipole moment (field-independent basis, Debye):
    X=             -1.6059    Y=              0.9988    Z=             -0.0001  Tot=              1.8912

 Test job not archived.
 1\1\GINC-SE424\SP\RHF\Aug-CC-pVDZ\C2H6O3Si1\OHZDE\09-Apr-2025\0\\#t hf
  aug-cc-pvdz iop(5/13=1,5/36=2,99/5=2) pseudo=read geom=check guess=(r
 ead,tcheck) scf=(maxcycle=1)\\title\\0,1\Si,0,0.380411,-0.017652,-0.00
 0001\O,0,0.146957,1.612682,-0.00023\O,0,1.288492,-0.518914,1.272039\H,
 0,0.928608,2.170681,-0.000292\C,0,-1.324427,-0.739501,0.000113\C,0,-2.
 444168,-0.010459,0.000024\H,0,-1.415584,-1.825592,0.00026\H,0,-2.40935
 2,1.074415,-0.000131\H,0,-3.432315,-0.463797,0.000089\H,0,0.911529,-0.
 402122,2.146544\O,0,1.288476,-0.519271,-1.271912\H,0,0.911529,-0.40266

 Normal termination of Gaussian 16 at Wed Apr  9 00:06:41 2025.
