 Gaussian 16, Revision C.01,

 ----------------------------------------------------------------------
 #t hf aug-cc-pvdz symm=none int=(grid=ultrafine) guess=(read,tcheck) s
 table=opt
 ----------------------------------------------------------------------
 -----
 title
 -----
 Symbolic Z-matrix:
 Charge =  0 Multiplicity = 2

 SCF Done:  E(UHF) =  -2165.47102581     A.U. after   16 cycles
 Normal termination of Gaussian 16 at Tue Apr  8 23:47:27 2025.
 Gaussian 16:  ES64L-G16RevC.01  3-Jul-2019

 ----------------------------------------------------------------------
 #t hf aug-cc-pvdz iop(5/13=1,5/36=2,99/5=2) pseudo=read geom=check gue
 ss=(read,tcheck) scf=(maxcycle=1)
 ----------------------------------------------------------------------
 -----
 title
 -----
 Structure from the checkpoint file:  "BDE49_nonexpt_1818_mol2.chk"
 Charge =  0 Multiplicity = 2

                         Standard orientation:
 ---------------------------------------------------------------------
 Center     Atomic      Atomic             Coordinates (Angstroms)
 Number     Number       Type             X           Y           Z
 ---------------------------------------------------------------------
      1          6           0       -0.926202   -0.576302   -0.431884
      2         14           0        0.733839    0.366839   -0.634393
      3          1           0       -0.985737   -1.387446   -1.153656
      4         17           0       -2.279554    0.549765   -0.807357
      5         17           0       -1.109069   -1.322690    1.192487
      6         17           0        2.259942   -1.030185   -0.494321
      7         17           0        0.909222    1.786022    0.851924
 ---------------------------------------------------------------------

 SCF Done:  E(UHF) =  -2165.57863121     A.U. after    2 cycles

 The electronic state is 2-A.
 Alpha  occ. eigenvalues -- -103.69057-103.68806-103.68331-103.68203 -69.19589
 Alpha  occ. eigenvalues --  -11.38896 -10.72311 -10.72055 -10.71746 -10.71625
 Alpha  occ. eigenvalues --   -8.38017  -8.37830  -8.37717  -8.37704  -8.37547
 Alpha  occ. eigenvalues --   -8.37456  -8.37435  -8.37428  -8.37208  -8.37163
 Alpha  occ. eigenvalues --   -8.37087  -8.37039  -6.93978  -4.05030  -4.04406
 Alpha  occ. eigenvalues --   -4.04287  -1.22821  -1.17790  -1.15847  -1.15476
 Alpha  occ. eigenvalues --   -0.92102  -0.72843  -0.65962  -0.61563  -0.60846
 Alpha  occ. eigenvalues --   -0.58096  -0.54465  -0.51825  -0.50852  -0.49930
 Alpha  occ. eigenvalues --   -0.49050  -0.48800  -0.47375  -0.45671  -0.37804
 Alpha virt. eigenvalues --    0.03664   0.04985   0.05547   0.05741   0.07794
 Alpha virt. eigenvalues --    0.08961   0.09525   0.10895   0.12039   0.12735
 Alpha virt. eigenvalues --    0.13211   0.13605   0.14338   0.15613   0.16166

  Beta  occ. eigenvalues -- -103.69065-103.68762-103.68218-103.68092 -69.18980
  Beta  occ. eigenvalues --  -11.38613 -10.72320 -10.72010 -10.71622 -10.71504
  Beta  occ. eigenvalues --   -8.38050  -8.37723  -8.37708  -8.37687  -8.37413
  Beta  occ. eigenvalues --   -8.37393  -8.37268  -8.37155  -8.37103  -8.36981
  Beta  occ. eigenvalues --   -8.36975  -8.36858  -6.92966  -4.04007  -4.03911
  Beta  occ. eigenvalues --   -4.03036  -1.22524  -1.16850  -1.15334  -1.14903
  Beta  occ. eigenvalues --   -0.91239  -0.70322  -0.65073  -0.61034  -0.59671
  Beta  occ. eigenvalues --   -0.56751  -0.52645  -0.51470  -0.50030  -0.49596
  Beta  occ. eigenvalues --   -0.48828  -0.48576  -0.47263  -0.44598
  Beta virt. eigenvalues --   -0.00200   0.04183   0.05460   0.05770   0.06086
  Beta virt. eigenvalues --    0.08015   0.09210   0.10684   0.11793   0.12200
  Beta virt. eigenvalues --    0.13231   0.13709   0.14577   0.15329   0.16183

 Mulliken charges and spin densities:
               1          2
     1  C   -0.316954   0.048591
     2  Si   1.364147   0.855654
     3  H    0.088080  -0.002739
     4  Cl  -0.096716  -0.009197
     5  Cl  -0.103537   0.023560
     6  Cl  -0.480606   0.042753
     7  Cl  -0.454414   0.041378
 Sum of Mulliken charges =  -0.00000   1.00000

 Dipole moment (field-independent basis, Debye):
    X=              0.1352    Y=             -0.3795    Z=             -1.8657  Tot=              1.9087
                          Isotropic Fermi Contact Couplings
        Atom                 a.u.       MegaHertz       Gauss      10(-4) cm-1
     1  C(13)              0.07689      86.44098      30.84429      28.83361
     2  Si(29)             0.92210    -819.49920    -292.41769    -273.35551
     3  H(1)              -0.00154      -6.88447      -2.45655      -2.29641
     4  Cl(35)            -0.00187      -0.82175      -0.29322      -0.27411
     5  Cl(35)             0.01191       5.22021       1.86270       1.74128
     6  Cl(35)             0.06617      29.01200      10.35220       9.67736
     7  Cl(35)             0.06371      27.93564       9.96813       9.31833
 --------------------------------------------------------

 Normal termination of Gaussian 16 at Tue Apr  8 23:47:31 2025.
