 Gaussian 16, Revision C.01,

 ----------------------------------------------------------------------
 #t hf aug-cc-pvdz symm=none int=(grid=ultrafine) guess=(read,tcheck) s
 table=(opt,rrhf)
 ----------------------------------------------------------------------
 -----
 title
 -----
 Symbolic Z-matrix:
 Charge =  0 Multiplicity = 1

 SCF Done:  E(RHF) =  -1013.81116889     A.U. after   17 cycles
 Normal termination of Gaussian 16 at Tue Apr  8 23:17:44 2025.
 Gaussian 16:  ES64L-G16RevC.01  3-Jul-2019

 ----------------------------------------------------------------------
 #t hf aug-cc-pvdz iop(5/13=1,5/36=2,99/5=2) pseudo=read geom=check gue
 ss=(read,tcheck) scf=(maxcycle=1)
 ----------------------------------------------------------------------
 -----
 title
 -----
 Structure from the checkpoint file:  "BDE49_expt_714_mol1.chk"
 Charge =  0 Multiplicity = 1

                         Standard orientation:
 ---------------------------------------------------------------------
 Center     Atomic      Atomic             Coordinates (Angstroms)
 Number     Number       Type             X           Y           Z
 ---------------------------------------------------------------------
      1          6           0       -0.407278    1.054806   -0.153959
      2          6           0       -1.300964   -0.179756   -0.486461
      3          6           0       -0.601777   -1.533349   -0.295420
      4          6           0        0.528414   -1.510763    0.700426
      5          6           0        1.623440   -0.501129    0.257115
      6          1           0        0.947269   -2.512343    0.796248
      7          1           0        0.118302   -1.216121    1.671010
      8          7           0        0.948140    0.568011   -0.547789
      9          6           0       -0.804786    2.182514   -1.121690
     10          1           0       -0.619103    1.884944   -2.157036
     11          1           0       -0.245222    3.093521   -0.911623
     12          1           0       -1.870189    2.397292   -1.010575
     13          6           0       -0.514963    1.596139    1.284342
     14          1           0       -0.452340    0.821709    2.047935
     15          1           0       -1.464313    2.114135    1.425956
     16          1           0        0.291844    2.314019    1.443380
     17          6           0        2.596360   -1.203016   -0.707314
     18          1           0        2.057671   -1.647008   -1.546884
     19          1           0        3.149124   -1.991774   -0.190309
     20          1           0        3.320126   -0.484743   -1.098145
     21          6           0        2.406837    0.009141    1.481128
     22          1           0        1.767080    0.517114    2.202091
     23          1           0        3.191154    0.699669    1.172719
     24          1           0        2.874737   -0.840576    1.986087
     25          8           0        1.847298    1.683460   -0.638509
     26          1           0        2.012781    1.757282   -1.584243
     27          8           0       -0.934100   -2.500420   -0.934380
     28         17           0       -2.856088   -0.217495    0.467503
     29          1           0       -1.619685   -0.137623   -1.525520
 ---------------------------------------------------------------------

 SCF Done:  E(RHF) =  -1013.99320004     A.U. after    2 cycles

 The electronic state is 1-A.
 Alpha  occ. eigenvalues -- -103.66111 -20.61554 -20.57638 -15.68648 -11.35686
 Alpha  occ. eigenvalues --  -11.32074 -11.30684 -11.30067 -11.25649 -11.23871
 Alpha  occ. eigenvalues --  -11.23517 -11.23236 -11.23225 -10.69332  -8.35050
 Alpha  occ. eigenvalues --   -8.34774  -8.34764  -1.37521  -1.36853  -1.19289
 Alpha  occ. eigenvalues --   -1.15207  -1.09352  -1.01207  -0.98918  -0.95484
 Alpha  occ. eigenvalues --   -0.94044  -0.93430  -0.81352  -0.79048  -0.73346
 Alpha  occ. eigenvalues --   -0.70767  -0.69969  -0.68736  -0.65191  -0.63771
 Alpha  occ. eigenvalues --   -0.61993  -0.61160  -0.60182  -0.58835  -0.57132
 Alpha  occ. eigenvalues --   -0.56642  -0.55931  -0.54942  -0.54065  -0.53684
 Alpha  occ. eigenvalues --   -0.52684  -0.52178  -0.51176  -0.49966  -0.48684
 Alpha  occ. eigenvalues --   -0.47096  -0.46980  -0.45173  -0.41877  -0.38485
 Alpha virt. eigenvalues --    0.02909   0.03563   0.03890   0.04680   0.05592
 Alpha virt. eigenvalues --    0.05680   0.06020   0.06761   0.06955   0.07766
 Alpha virt. eigenvalues --    0.08196   0.08302   0.08580   0.08831   0.09737

 Mulliken charges:
               1
     1  C   -1.633862
     2  C    0.280375
     3  C    0.291692
     4  C    1.255929
     5  C   -3.022609
     6  H   -0.099657
     7  H    0.084498
     8  N   -0.477882
     9  C    1.082295
    10  H   -0.015983
    11  H    0.083291
    12  H    0.044607
    13  C    1.017635
    14  H   -0.121902
    15  H   -0.088460
    16  H    0.140823
    17  C    1.109185
    18  H    0.010407
    19  H    0.007192
    20  H   -0.080742
    21  C    1.262033
    22  H   -0.107614
    23  H    0.056611
    24  H    0.064777
    25  O   -0.555174
    26  H    0.223384
    27  O   -0.525384
    28  Cl  -0.148920
    29  H   -0.136544
 Sum of Mulliken charges =   0.00000

 Dipole moment (field-independent basis, Debye):
    X=              2.7597    Y=              2.6406    Z=              0.4631  Tot=              3.8475

 Test job not archived.
 1\1\GINC-SE150\SP\RHF\Aug-CC-pVDZ\C9H16Cl1N1O2\OHZDE\08-Apr-2025\0\\#t
  hf aug-cc-pvdz iop(5/13=1,5/36=2,99/5=2) pseudo=read geom=check guess
 =(read,tcheck) scf=(maxcycle=1)\\title\\0,1\C,0,-0.407278,1.054806,-0.
 153959\C,0,-1.300964,-0.179756,-0.486461\C,0,-0.601777,-1.533349,-0.29
 542\C,0,0.528414,-1.510763,0.700426\C,0,1.62344,-0.501129,0.257115\H,0
 ,0.947269,-2.512343,0.796248\H,0,0.118302,-1.216121,1.67101\N,0,0.9481
 4,0.568011,-0.547789\C,0,-0.804786,2.182514,-1.12169\H,0,-0.619103,1.8
 84944,-2.157036\H,0,-0.245222,3.093521,-0.911623\H,0,-1.870189,2.39729

 Normal termination of Gaussian 16 at Tue Apr  8 23:18:19 2025.
