 Gaussian 16, Revision C.01,

 ----------------------------------------------------------------------
 #t hf aug-cc-pvdz symm=none int=(grid=ultrafine) guess=(read,tcheck) s
 table=(opt,rrhf)
 ----------------------------------------------------------------------
 -----
 title
 -----
 Symbolic Z-matrix:
 Charge =  0 Multiplicity = 1

 SCF Done:  E(RHF) =  -360.824403949     A.U. after   15 cycles
 Normal termination of Gaussian 16 at Tue Apr  8 22:36:57 2025.
 Gaussian 16:  ES64L-G16RevC.01  3-Jul-2019

 ----------------------------------------------------------------------
 #t hf aug-cc-pvdz iop(5/13=1,5/36=2,99/5=2) pseudo=read geom=check gue
 ss=(read,tcheck) scf=(maxcycle=1)
 ----------------------------------------------------------------------
 -----
 title
 -----
 Structure from the checkpoint file:  "BDE49_expt_1208_mol1.chk"
 Charge =  0 Multiplicity = 1

                         Standard orientation:
 ---------------------------------------------------------------------
 Center     Atomic      Atomic             Coordinates (Angstroms)
 Number     Number       Type             X           Y           Z
 ---------------------------------------------------------------------
      1          6           0       -1.544578   -0.068168    0.541536
      2          6           0       -0.790838    0.655098   -0.580802
      3          6           0        0.630254    1.055404   -0.215123
      4          1           0       -1.322531    1.574760   -0.851287
      5          1           0       -0.759836    0.030116   -1.476591
      6          7           0        1.541643   -0.144167   -0.009075
      7          1           0        0.697438    1.622604    0.711703
      8          1           0        1.109340    1.623082   -1.016082
      9          8           0        2.388908   -0.048899    0.863252
     10          8           0        1.389621   -1.104067   -0.748198
     11          6           0       -2.982541   -0.419292    0.151169
     12          1           0       -1.549711    0.560612    1.439832
     13          1           0       -1.007227   -0.985002    0.805076
     14          1           0       -3.559608    0.478779   -0.090308
     15          1           0       -3.497259   -0.936041    0.964826
     16          1           0       -3.004116   -1.074265   -0.724752
 ---------------------------------------------------------------------

 SCF Done:  E(RHF) =  -360.937009277     A.U. after    2 cycles

 The electronic state is 1-A.
 Alpha  occ. eigenvalues --  -20.61906 -20.61744 -15.91086 -11.31854 -11.26068
 Alpha  occ. eigenvalues --  -11.24745 -11.23631  -1.54836  -1.36613  -1.12017
 Alpha  occ. eigenvalues --   -1.04257  -0.94148  -0.85349  -0.81538  -0.75720
 Alpha  occ. eigenvalues --   -0.73979  -0.73103  -0.65593  -0.62060  -0.60975
 Alpha  occ. eigenvalues --   -0.57424  -0.54525  -0.51648  -0.50975  -0.49727
 Alpha  occ. eigenvalues --   -0.49179  -0.48607  -0.47324
 Alpha virt. eigenvalues --    0.02826   0.03658   0.04255   0.05117   0.06189
 Alpha virt. eigenvalues --    0.06661   0.06953   0.07994   0.09086   0.09357
 Alpha virt. eigenvalues --    0.11209   0.12515   0.12954   0.14162   0.15042

 Mulliken charges:
               1
     1  C    0.163166
     2  C    0.109441
     3  C    1.050432
     4  H   -0.073045
     5  H   -0.085717
     6  N    0.342514
     7  H   -0.203207
     8  H   -0.072160
     9  O   -0.572969
    10  O   -0.579393
    11  C    0.369647
    12  H   -0.141918
    13  H   -0.120276
    14  H   -0.075834
    15  H   -0.054414
    16  H   -0.056266
 Sum of Mulliken charges =  -0.00000

 Dipole moment (field-independent basis, Debye):
    X=             -3.1772    Y=              3.0770    Z=             -0.6071  Tot=              4.4644

 Test job not archived.
 1\1\GINC-SE072\SP\RHF\Aug-CC-pVDZ\C4H9N1O2\OHZDE\08-Apr-2025\0\\#t hf
 aug-cc-pvdz iop(5/13=1,5/36=2,99/5=2) pseudo=read geom=check guess=(re
 ad,tcheck) scf=(maxcycle=1)\\title\\0,1\C,0,1.544578,-0.068168,-0.5415
 36\C,0,0.790838,0.655098,0.580802\C,0,-0.630254,1.055404,0.215123\H,0,
 1.322531,1.57476,0.851287\H,0,0.759836,0.030116,1.476591\N,0,-1.541643
 ,-0.144167,0.009075\H,0,-0.697438,1.622604,-0.711703\H,0,-1.10934,1.62
 3082,1.016082\O,0,-2.388908,-0.048899,-0.863252\O,0,-1.389621,-1.10406
 7,0.748198\C,0,2.982541,-0.419292,-0.151169\H,0,1.549711,0.560612,-1.4

 Normal termination of Gaussian 16 at Tue Apr  8 22:37:03 2025.
