 Gaussian 16, Revision C.01,

 ----------------------------------------------------------------------
 #t hf aug-cc-pvdz symm=none int=(grid=ultrafine) guess=(read,tcheck) s
 table=(opt,rrhf)
 ----------------------------------------------------------------------
 -----
 title
 -----
 Symbolic Z-matrix:
 Charge =  0 Multiplicity = 1

 SCF Done:  E(RHF) =  -952.365661049     A.U. after   13 cycles
 Normal termination of Gaussian 16 at Tue Apr  8 23:52:07 2025.
 Gaussian 16:  ES64L-G16RevC.01  3-Jul-2019

 ----------------------------------------------------------------------
 #t hf aug-cc-pvdz iop(5/13=1,5/36=2,99/5=2) pseudo=read geom=check gue
 ss=(read,tcheck) scf=(maxcycle=1)
 ----------------------------------------------------------------------
 -----
 title
 -----
 Structure from the checkpoint file:  "BDE49_nonexpt_1935_mol1.chk"
 Charge =  0 Multiplicity = 1

                         Standard orientation:
 ---------------------------------------------------------------------
 Center     Atomic      Atomic             Coordinates (Angstroms)
 Number     Number       Type             X           Y           Z
 ---------------------------------------------------------------------
      1         14           0       -2.219158    0.045866    0.019516
      2          6           0       -0.620321   -0.920887   -0.346180
      3         16           0        0.877139   -0.061672    0.112355
      4          8           0        0.657200    0.684192    1.329949
      5          8           0        0.955240    1.030885   -1.098075
      6          8           0        1.996243   -0.945063   -0.031698
      7          1           0       -3.314097   -0.658632   -0.684723
      8          1           0       -2.105870    1.423346   -0.501662
      9          1           0       -2.481783    0.057675    1.470342
     10          1           0        0.903812    1.909985   -0.695819
     11          1           0       -0.520000   -1.167676   -1.404868
     12          1           0       -0.595606   -1.854846    0.221504
 ---------------------------------------------------------------------

 SCF Done:  E(RHF) =  -952.555777431     A.U. after    2 cycles

 The electronic state is 1-A.
 Alpha  occ. eigenvalues --  -93.83622 -69.09424 -20.64818 -20.58307 -20.57773
 Alpha  occ. eigenvalues --  -11.29074  -9.09731  -6.84688  -6.44387  -6.44316
 Alpha  occ. eigenvalues --   -6.44046  -3.95495  -3.95458  -3.95441  -1.47892
 Alpha  occ. eigenvalues --   -1.36140  -1.33451  -1.04662  -0.87706  -0.76712
 Alpha  occ. eigenvalues --   -0.73667  -0.71645  -0.70283  -0.65807  -0.63801
 Alpha  occ. eigenvalues --   -0.59176  -0.55958  -0.54941  -0.52162  -0.51409
 Alpha  occ. eigenvalues --   -0.50148  -0.50082  -0.48038
 Alpha virt. eigenvalues --    0.02737   0.04274   0.04336   0.04865   0.06822
 Alpha virt. eigenvalues --    0.07654   0.08106   0.08717   0.08845   0.11217
 Alpha virt. eigenvalues --    0.12460   0.13394   0.14260   0.14822   0.15433

 Mulliken charges:
               1
     1  Si   0.418353
     2  C   -0.413041
     3  S    2.569862
     4  O   -1.000863
     5  O   -0.739268
     6  O   -0.955215
     7  H   -0.018230
     8  H   -0.004051
     9  H    0.052808
    10  H    0.190987
    11  H   -0.064831
    12  H   -0.036511
 Sum of Mulliken charges =  -0.00000

 Dipole moment (field-independent basis, Debye):
    X=             -3.7565    Y=              0.4413    Z=             -1.6893  Tot=              4.1424

 Test job not archived.
 1\1\GINC-SE084\SP\RHF\Aug-CC-pVDZ\C1H6O3S1Si1\OHZDE\08-Apr-2025\0\\#t
 hf aug-cc-pvdz iop(5/13=1,5/36=2,99/5=2) pseudo=read geom=check guess=
 (read,tcheck) scf=(maxcycle=1)\\title\\0,1\Si,0,-2.219158,0.045866,0.0
 19516\C,0,-0.620321,-0.920887,-0.34618\S,0,0.877139,-0.061672,0.112355
 \O,0,0.6572,0.684192,1.329949\O,0,0.95524,1.030885,-1.098075\O,0,1.996
 243,-0.945063,-0.031698\H,0,-3.314097,-0.658632,-0.684723\H,0,-2.10587
 ,1.423346,-0.501662\H,0,-2.481783,0.057675,1.470342\H,0,0.903812,1.909
 985,-0.695819\H,0,-0.52,-1.167676,-1.404868\H,0,-0.595606,-1.854846,0.

 Normal termination of Gaussian 16 at Tue Apr  8 23:52:14 2025.
