 Gaussian 16, Revision C.01,

 ----------------------------------------------------------------------
 #t hf aug-cc-pvdz symm=none int=(grid=ultrafine) guess=(read,tcheck) s
 table=(opt,rrhf)
 ----------------------------------------------------------------------
 -----
 title
 -----
 Symbolic Z-matrix:
 Charge =  0 Multiplicity = 1

 SCF Done:  E(RHF) =  -972.347768885     A.U. after   17 cycles
 Normal termination of Gaussian 16 at Wed Apr  9 00:46:44 2025.
 Gaussian 16:  ES64L-G16RevC.01  3-Jul-2019

 ----------------------------------------------------------------------
 #t hf aug-cc-pvdz iop(5/13=1,5/36=2,99/5=2) pseudo=read geom=check gue
 ss=(read,tcheck) scf=(maxcycle=1)
 ----------------------------------------------------------------------
 -----
 title
 -----
 Structure from the checkpoint file:  "BDE49_nonexpt_857_mol1.chk"
 Charge =  0 Multiplicity = 1

                         Standard orientation:
 ---------------------------------------------------------------------
 Center     Atomic      Atomic             Coordinates (Angstroms)
 Number     Number       Type             X           Y           Z
 ---------------------------------------------------------------------
      1         14           0        0.063794   -0.140628    0.480032
      2          7           0        1.131376   -1.229558   -0.562389
      3          5           0       -1.909000   -0.248421    0.007210
      4          7           0        0.727838    1.540000   -0.018207
      5          9           0        0.513672   -0.309513    1.993186
      6          8           0       -0.110778    2.330356   -0.476420
      7          8           0       -2.531195    0.803205   -0.552755
      8          8           0        0.847631   -1.022112   -1.749462
      9          8           0       -2.512758   -1.421423    0.290299
     10          8           0        1.951617   -2.022044   -0.148830
     11          8           0        1.905682    1.795766    0.140927
     12          1           0       -3.444584   -1.449639    0.035544
     13          1           0       -1.942664    1.563087   -0.696626
 ---------------------------------------------------------------------

 SCF Done:  E(RHF) =  -972.603385986     A.U. after    2 cycles

 The electronic state is 1-A.
 Alpha  occ. eigenvalues --  -69.24509 -26.18617 -20.66871 -20.66400 -20.65860
 Alpha  occ. eigenvalues --  -20.65392 -20.63810 -20.63061 -15.92841 -15.92408
 Alpha  occ. eigenvalues --   -7.73480  -6.98762  -4.09624  -4.09564  -4.09326
 Alpha  occ. eigenvalues --   -1.71410  -1.57804  -1.57218  -1.40203  -1.39858
 Alpha  occ. eigenvalues --   -1.39628  -1.36463  -1.01173  -0.95988  -0.87156
 Alpha  occ. eigenvalues --   -0.84385  -0.83049  -0.82229  -0.80745  -0.79122
 Alpha  occ. eigenvalues --   -0.78192  -0.77195  -0.76587  -0.75296  -0.73703
 Alpha  occ. eigenvalues --   -0.69413  -0.64376  -0.64200  -0.57789  -0.57176
 Alpha  occ. eigenvalues --   -0.56398  -0.55313  -0.51425  -0.51144  -0.50672
 Alpha  occ. eigenvalues --   -0.49777
 Alpha virt. eigenvalues --    0.01214   0.02033   0.02470   0.04002   0.04769
 Alpha virt. eigenvalues --    0.05772   0.06673   0.06998   0.07054   0.08593
 Alpha virt. eigenvalues --    0.09178   0.09736   0.11601   0.13444   0.14507

 Mulliken charges:
               1
     1  Si   2.024919
     2  N    0.311178
     3  B    0.691104
     4  N    0.254593
     5  F   -0.774268
     6  O   -0.599080
     7  O   -0.492774
     8  O   -0.550618
     9  O   -0.415368
    10  O   -0.476514
    11  O   -0.478389
    12  H    0.215459
    13  H    0.289758
 Sum of Mulliken charges =   0.00000

 Dipole moment (field-independent basis, Debye):
    X=             -4.6295    Y=             -0.4038    Z=              1.4246  Tot=              4.8606

 Test job not archived.
 1\1\GINC-SE368\SP\RHF\Aug-CC-pVDZ\B1F1H2N2O6Si1\OHZDE\09-Apr-2025\0\\#
 t hf aug-cc-pvdz iop(5/13=1,5/36=2,99/5=2) pseudo=read geom=check gues
 s=(read,tcheck) scf=(maxcycle=1)\\title\\0,1\Si,0,0.063794,-0.140628,0
 .480032\N,0,1.131376,-1.229558,-0.562389\B,0,-1.909,-0.248422,0.00721\
 N,0,0.727837,1.54,-0.018207\F,0,0.513672,-0.309513,1.993186\O,0,-0.110
 779,2.330356,-0.47642\O,0,-2.531195,0.803204,-0.552755\O,0,0.847631,-1
 .022112,-1.749462\O,0,-2.512758,-1.421424,0.290299\O,0,1.951618,-2.022
 043,-0.14883\O,0,1.905681,1.795767,0.140927\H,0,-3.444584,-1.44964,0.0

 Normal termination of Gaussian 16 at Wed Apr  9 00:46:49 2025.
