 Gaussian 16, Revision C.01,

 ----------------------------------------------------------------------
 #t hf aug-cc-pvdz symm=none int=(grid=ultrafine) guess=(read,tcheck) s
 table=(opt,rrhf)
 ----------------------------------------------------------------------
 -----
 title
 -----
 Symbolic Z-matrix:
 Charge =  0 Multiplicity = 1

 SCF Done:  E(RHF) =  -1433.64963559     A.U. after   14 cycles
 Normal termination of Gaussian 16 at Tue Apr  8 23:54:20 2025.
 Gaussian 16:  ES64L-G16RevC.01  3-Jul-2019

 ----------------------------------------------------------------------
 #t hf aug-cc-pvdz iop(5/13=1,5/36=2,99/5=2) pseudo=read geom=check gue
 ss=(read,tcheck) scf=(maxcycle=1)
 ----------------------------------------------------------------------
 -----
 title
 -----
 Structure from the checkpoint file:  "BDE49_nonexpt_199_mol1.chk"
 Charge =  0 Multiplicity = 1

                         Standard orientation:
 ---------------------------------------------------------------------
 Center     Atomic      Atomic             Coordinates (Angstroms)
 Number     Number       Type             X           Y           Z
 ---------------------------------------------------------------------
      1         17           0        2.242523   -0.573758    0.000004
      2         17           0        0.274891    1.762367   -0.000000
      3          5           0        0.604201    0.054318   -0.000006
      4          6           0       -2.129522   -0.337542    0.000011
      5          7           0       -3.152130    0.202556   -0.000000
      6         16           0       -0.685938   -1.241911   -0.000006
 ---------------------------------------------------------------------

 SCF Done:  E(RHF) =  -1433.73877006     A.U. after    2 cycles

 The electronic state is 1-A.
 Alpha  occ. eigenvalues -- -103.70410-103.70337 -93.62330 -15.67037 -11.32902
 Alpha  occ. eigenvalues --  -10.73880 -10.73820  -8.92162  -8.39574  -8.39521
 Alpha  occ. eigenvalues --   -8.39329  -8.39306  -8.39274  -8.39243  -7.79543
 Alpha  occ. eigenvalues --   -6.26387  -6.26031  -6.25768  -1.22433  -1.21410
 Alpha  occ. eigenvalues --   -1.18215  -1.06263  -0.76303  -0.68228  -0.62878
 Alpha  occ. eigenvalues --   -0.59443  -0.57487  -0.56008  -0.53545  -0.51980
 Alpha  occ. eigenvalues --   -0.51250  -0.49808  -0.46836  -0.42029
 Alpha virt. eigenvalues --    0.03887   0.04641   0.05150   0.05354   0.05739
 Alpha virt. eigenvalues --    0.09366   0.09768   0.10197   0.11291   0.12150
 Alpha virt. eigenvalues --    0.12704   0.13739   0.14921   0.15737   0.16273

 Mulliken charges:
               1
     1  Cl  -0.295018
     2  Cl  -0.171866
     3  B    0.743948
     4  C   -0.542210
     5  N   -0.128750
     6  S    0.393896
 Sum of Mulliken charges =  -0.00000

 Dipole moment (field-independent basis, Debye):
    X=              2.5770    Y=             -1.0869    Z=             -0.0000  Tot=              2.7969

 Test job not archived.
 1\1\GINC-SE082\SP\RHF\Aug-CC-pVDZ\C1B1Cl2N1S1\OHZDE\08-Apr-2025\0\\#t
 hf aug-cc-pvdz iop(5/13=1,5/36=2,99/5=2) pseudo=read geom=check guess=
 (read,tcheck) scf=(maxcycle=1)\\title\\0,1\Cl,0,-2.242523,-0.573759,-0
 .000004\Cl,0,-0.274892,1.762367,0.\B,0,-0.604201,0.054318,0.000006\C,0
 ,2.129522,-0.337542,-0.000011\N,0,3.15213,0.202557,0.\S,0,0.685938,-1.
 241911,0.000006\\Version=ES64L-G16RevC.01\State=1-A\HF=-1433.7387701\R
 MSD=4.573e-03\Dipole=-1.0138728,-0.4276344,0.0000035\Quadrupole=-6.104
 0517,3.206705,2.8973467,-1.7049631,-0.0000195,-0.0000064\PG=C01 [X(C1B

 Normal termination of Gaussian 16 at Tue Apr  8 23:54:23 2025.
