 Gaussian 16, Revision C.01,

 ----------------------------------------------------------------------
 #t hf aug-cc-pvdz symm=none int=(grid=ultrafine) guess=(read,tcheck) s
 table=(opt,rrhf)
 ----------------------------------------------------------------------
 -----
 title
 -----
 Symbolic Z-matrix:
 Charge =  0 Multiplicity = 1

 SCF Done:  E(RHF) =  -859.248816937     A.U. after   15 cycles
 Normal termination of Gaussian 16 at Tue Apr  8 23:41:31 2025.
 Gaussian 16:  ES64L-G16RevC.01  3-Jul-2019

 ----------------------------------------------------------------------
 #t hf aug-cc-pvdz iop(5/13=1,5/36=2,99/5=2) pseudo=read geom=check gue
 ss=(read,tcheck) scf=(maxcycle=1)
 ----------------------------------------------------------------------
 -----
 title
 -----
 Structure from the checkpoint file:  "BDE49_nonexpt_1689_mol1.chk"
 Charge =  0 Multiplicity = 1

                         Standard orientation:
 ---------------------------------------------------------------------
 Center     Atomic      Atomic             Coordinates (Angstroms)
 Number     Number       Type             X           Y           Z
 ---------------------------------------------------------------------
      1          6           0       -1.527299    0.314633    0.043762
      2         14           0       -0.185716   -0.980825    0.545197
      3          8           0       -1.404953    1.467982    0.364916
      4          8           0       -2.597582   -0.066511   -0.711592
      5         15           0        1.842365   -0.506687   -0.355033
      6          6           0        1.991925    1.317319    0.040559
      7          1           0        2.796907    1.727483   -0.572745
      8          1           0        2.283182    1.419888    1.087831
      9          1           0        1.075618    1.881033   -0.128227
     10          1           0       -2.565531   -1.019225   -0.862877
     11          1           0        1.325536   -0.395521   -1.673646
     12          1           0       -0.606979   -2.331574    0.088917
     13          1           0       -0.111667   -0.953704    2.020958
 ---------------------------------------------------------------------

 SCF Done:  E(RHF) =  -859.363878394     A.U. after    2 cycles

 The electronic state is 1-A.
 Alpha  occ. eigenvalues --  -81.26299 -69.09978 -20.63281 -20.57445 -11.39262
 Alpha  occ. eigenvalues --  -11.24840  -7.76738  -6.85255  -4.90664  -4.90616
 Alpha  occ. eigenvalues --   -4.90369  -3.96018  -3.95989  -3.95967  -1.42124
 Alpha  occ. eigenvalues --   -1.33714  -0.96965  -0.85926  -0.80762  -0.74960
 Alpha  occ. eigenvalues --   -0.68267  -0.65606  -0.64450  -0.59418  -0.58412
 Alpha  occ. eigenvalues --   -0.57416  -0.51994  -0.50704  -0.48491  -0.44720
 Alpha  occ. eigenvalues --   -0.43740  -0.35031
 Alpha virt. eigenvalues --    0.02893   0.04076   0.04654   0.05043   0.05970
 Alpha virt. eigenvalues --    0.06818   0.07751   0.08115   0.08898   0.09339
 Alpha virt. eigenvalues --    0.09798   0.10394   0.11388   0.11619   0.13159

 Mulliken charges:
               1
     1  C    0.434974
     2  Si   0.405230
     3  O   -0.453530
     4  O   -0.496775
     5  P   -0.119213
     6  C    0.251119
     7  H   -0.176546
     8  H   -0.149057
     9  H   -0.138966
    10  H    0.182885
    11  H    0.231407
    12  H   -0.029266
    13  H    0.057737
 Sum of Mulliken charges =  -0.00000

 Dipole moment (field-independent basis, Debye):
    X=              1.1604    Y=             -2.9884    Z=             -0.4192  Tot=              3.2331

 Test job not archived.
 1\1\GINC-SE435\SP\RHF\Aug-CC-pVDZ\C2H7O2P1Si1\OHZDE\08-Apr-2025\0\\#t
 hf aug-cc-pvdz iop(5/13=1,5/36=2,99/5=2) pseudo=read geom=check guess=
 (read,tcheck) scf=(maxcycle=1)\\title\\0,1\C,0,-1.527299,0.314633,0.04
 3762\Si,0,-0.185716,-0.980825,0.545197\O,0,-1.404953,1.467982,0.364916
 \O,0,-2.597582,-0.066511,-0.711592\P,0,1.842365,-0.506687,-0.355033\C,
 0,1.991925,1.317319,0.040559\H,0,2.796907,1.727484,-0.572745\H,0,2.283
 182,1.419889,1.087831\H,0,1.075618,1.881033,-0.128227\H,0,-2.565531,-1
 .019225,-0.862877\H,0,1.325536,-0.395521,-1.673646\H,0,-0.606979,-2.33

 Normal termination of Gaussian 16 at Tue Apr  8 23:41:35 2025.
