 Gaussian 16, Revision C.01,

 ----------------------------------------------------------------------
 #t hf aug-cc-pvdz symm=none int=(grid=ultrafine) guess=(read,tcheck) s
 table=(opt,rrhf)
 ----------------------------------------------------------------------
 -----
 title
 -----
 Symbolic Z-matrix:
 Charge =  0 Multiplicity = 1

 SCF Done:  E(RHF) =  -723.346119737     A.U. after   14 cycles
 Normal termination of Gaussian 16 at Tue Apr  8 23:25:03 2025.
 Gaussian 16:  ES64L-G16RevC.01  3-Jul-2019

 ----------------------------------------------------------------------
 #t hf aug-cc-pvdz iop(5/13=1,5/36=2,99/5=2) pseudo=read geom=check gue
 ss=(read,tcheck) scf=(maxcycle=1)
 ----------------------------------------------------------------------
 -----
 title
 -----
 Structure from the checkpoint file:  "BDE49_nonexpt_1271_mol1.chk"
 Charge =  0 Multiplicity = 1

                         Standard orientation:
 ---------------------------------------------------------------------
 Center     Atomic      Atomic             Coordinates (Angstroms)
 Number     Number       Type             X           Y           Z
 ---------------------------------------------------------------------
      1          6           0        1.003793    0.000001   -0.013250
      2         15           0       -0.819215   -0.000000   -0.110327
      3          8           0       -1.450003    0.000020   -1.442465
      4          8           0       -1.230946    1.277395    0.788327
      5          6           0        1.509149   -1.264258   -0.738109
      6          1           0        1.164831   -1.291546   -1.774268
      7          1           0        1.166190   -2.171946   -0.237326
      8          6           0        1.464051   -0.000020    1.458027
      9          1           0        2.558206   -0.000017    1.492527
     10          1           0        1.106182   -0.884888    1.987524
     11          1           0        1.106176    0.884830    1.987551
     12          6           0        1.509143    1.264285   -0.738071
     13          1           0        1.164826    1.291603   -1.774229
     14          1           0        2.603282    1.268458   -0.739911
     15          1           0        1.166181    2.171956   -0.237259
     16          1           0        2.603287   -1.268427   -0.739950
     17          1           0       -1.986335    1.737196    0.402734
     18          8           0       -1.230934   -1.277424    0.788290
     19          1           0       -1.986353   -1.737191    0.402715
 ---------------------------------------------------------------------

 SCF Done:  E(RHF) =  -723.530607164     A.U. after    2 cycles

 The electronic state is 1-A.
 Alpha  occ. eigenvalues --  -81.40412 -20.60866 -20.60864 -20.52040 -11.26576
 Alpha  occ. eigenvalues --  -11.23606 -11.23602 -11.23591  -7.88886  -5.03529
 Alpha  occ. eigenvalues --   -5.03443  -5.03133  -1.37083  -1.34111  -1.25169
 Alpha  occ. eigenvalues --   -1.09646  -0.94155  -0.94134  -0.85849  -0.76518
 Alpha  occ. eigenvalues --   -0.74795  -0.68242  -0.66689  -0.64576  -0.61559
 Alpha  occ. eigenvalues --   -0.60975  -0.59771  -0.56493  -0.56275  -0.55316
 Alpha  occ. eigenvalues --   -0.54075  -0.52790  -0.50541  -0.48467  -0.48459
 Alpha  occ. eigenvalues --   -0.48099  -0.43992
 Alpha virt. eigenvalues --    0.03294   0.04237   0.04401   0.05124   0.06036
 Alpha virt. eigenvalues --    0.06649   0.07139   0.07254   0.07807   0.08576
 Alpha virt. eigenvalues --    0.09525   0.11171   0.11865   0.13196   0.13357

 Mulliken charges:
               1
     1  C   -3.211787
     2  P    2.426922
     3  O   -0.887040
     4  O   -0.747357
     5  C    1.015185
     6  H   -0.025579
     7  H   -0.019920
     8  C    1.057309
     9  H    0.000984
    10  H   -0.044004
    11  H   -0.044002
    12  C    1.015183
    13  H   -0.025580
    14  H   -0.018696
    15  H   -0.019921
    16  H   -0.018698
    17  H    0.147179
    18  O   -0.747353
    19  H    0.147176
 Sum of Mulliken charges =  -0.00000

 Dipole moment (field-independent basis, Debye):
    X=              0.8308    Y=              0.0000    Z=              1.4730  Tot=              1.6911

 Test job not archived.
 1\1\GINC-SE058\SP\RHF\Aug-CC-pVDZ\C4H11O3P1\OHZDE\08-Apr-2025\0\\#t hf
  aug-cc-pvdz iop(5/13=1,5/36=2,99/5=2) pseudo=read geom=check guess=(r
 ead,tcheck) scf=(maxcycle=1)\\title\\0,1\C,0,1.003793,0.000001,-0.0132
 5\P,0,-0.819215,0.,-0.110327\O,0,-1.450003,0.00002,-1.442465\O,0,-1.23
 0946,1.277395,0.788327\C,0,1.509149,-1.264258,-0.738109\H,0,1.164831,-
 1.291546,-1.774268\H,0,1.16619,-2.171946,-0.237326\C,0,1.464051,-0.000
 02,1.458027\H,0,2.558206,-0.000017,1.492527\H,0,1.106182,-0.884888,1.9
 87524\H,0,1.106176,0.88483,1.987551\C,0,1.509143,1.264285,-0.738071\H,

 Normal termination of Gaussian 16 at Tue Apr  8 23:25:13 2025.
