 Gaussian 16, Revision C.01,

 ----------------------------------------------------------------------
 #t hf aug-cc-pvdz symm=none int=(grid=ultrafine) guess=(read,tcheck) s
 table=(opt,rrhf)
 ----------------------------------------------------------------------
 -----
 title
 -----
 Symbolic Z-matrix:
 Charge =  0 Multiplicity = 1

 SCF Done:  E(RHF) =  -1454.78562887     A.U. after   15 cycles
 Normal termination of Gaussian 16 at Tue Apr  8 23:47:08 2025.
 Gaussian 16:  ES64L-G16RevC.01  3-Jul-2019

 ----------------------------------------------------------------------
 #t hf aug-cc-pvdz iop(5/13=1,5/36=2,99/5=2) pseudo=read geom=check gue
 ss=(read,tcheck) scf=(maxcycle=1)
 ----------------------------------------------------------------------
 -----
 title
 -----
 Structure from the checkpoint file:  "BDE49_nonexpt_1795_mol1.chk"
 Charge =  0 Multiplicity = 1

                         Standard orientation:
 ---------------------------------------------------------------------
 Center     Atomic      Atomic             Coordinates (Angstroms)
 Number     Number       Type             X           Y           Z
 ---------------------------------------------------------------------
      1          6           0        2.567316    0.000194    1.317571
      2          6           0        1.193441    0.000181    1.123138
      3          6           0        3.398392    0.000016    0.196745
      4          7           0        2.946373   -0.000167   -1.059339
      5          6           0        1.621309   -0.000178   -1.231677
      6          6           0        0.687366   -0.000010   -0.185357
      7          1           0        2.993177    0.000340    2.313747
      8          1           0        0.523346    0.000319    1.976342
      9          1           0        1.287247   -0.000328   -2.266493
     10         14           0       -1.125739   -0.000053   -0.575129
     11         17           0       -2.046779    1.671983    0.230179
     12         17           0       -2.046769   -1.671952    0.230475
     13          1           0        4.478568    0.000021    0.314199
     14          1           0       -1.363248   -0.000186   -2.024247
 ---------------------------------------------------------------------

 SCF Done:  E(RHF) =  -1454.91750026     A.U. after    2 cycles

 The electronic state is 1-A.
 Alpha  occ. eigenvalues -- -103.66586-103.66586 -69.16746 -15.64722 -11.31069
 Alpha  occ. eigenvalues --  -11.30783 -11.29216 -11.26778 -11.26168 -10.70036
 Alpha  occ. eigenvalues --  -10.70023  -8.35726  -8.35719  -8.35495  -8.35491
 Alpha  occ. eigenvalues --   -8.35491  -8.35487  -6.91162  -4.01974  -4.01912
 Alpha  occ. eigenvalues --   -4.01816  -1.24902  -1.16237  -1.13898  -1.09370
 Alpha  occ. eigenvalues --   -1.04571  -0.87598  -0.87359  -0.74965  -0.70970
 Alpha  occ. eigenvalues --   -0.68657  -0.64737  -0.59709  -0.58952  -0.57448
 Alpha  occ. eigenvalues --   -0.56333  -0.55258  -0.53250  -0.49241  -0.49236
 Alpha  occ. eigenvalues --   -0.47465  -0.47020  -0.42460  -0.40104  -0.37039
 Alpha virt. eigenvalues --    0.02980   0.03843   0.04403   0.05258   0.05829
 Alpha virt. eigenvalues --    0.06358   0.06603   0.08311   0.08312   0.08856
 Alpha virt. eigenvalues --    0.09918   0.10290   0.12053   0.12366   0.12645

 Mulliken charges:
               1
     1  C    0.769164
     2  C    0.207398
     3  C    0.587317
     4  N   -0.477362
     5  C    0.738856
     6  C   -0.202557
     7  H   -0.384361
     8  H   -0.562645
     9  H   -0.490469
    10  Si   1.202907
    11  Cl  -0.547186
    12  Cl  -0.547195
    13  H   -0.337985
    14  H    0.044117
 Sum of Mulliken charges =   0.00000

 Dipole moment (field-independent basis, Debye):
    X=              1.3603    Y=              0.0002    Z=              0.9705  Tot=              1.6711

 Test job not archived.
 1\1\GINC-SE095\SP\RHF\Aug-CC-pVDZ\C5H5Cl2N1Si1\OHZDE\08-Apr-2025\0\\#t
  hf aug-cc-pvdz iop(5/13=1,5/36=2,99/5=2) pseudo=read geom=check guess
 =(read,tcheck) scf=(maxcycle=1)\\title\\0,1\C,0,2.567316,0.000194,1.31
 7571\C,0,1.193441,0.000181,1.123138\C,0,3.398392,0.000016,0.196745\N,0
 ,2.946373,-0.000167,-1.059339\C,0,1.621309,-0.000178,-1.231677\C,0,0.6
 87366,-0.00001,-0.185357\H,0,2.993177,0.00034,2.313747\H,0,0.523346,0.
 000319,1.976342\H,0,1.287247,-0.000328,-2.266493\Si,0,-1.125739,-0.000
 053,-0.575129\Cl,0,-2.046779,1.671983,0.230179\Cl,0,-2.046769,-1.67195

 Normal termination of Gaussian 16 at Tue Apr  8 23:47:15 2025.
