 Gaussian 16, Revision C.01,

 ----------------------------------------------------------------------
 #t hf aug-cc-pvdz symm=none int=(grid=ultrafine) guess=(read,tcheck) s
 table=(opt,rrhf)
 ----------------------------------------------------------------------
 -----
 title
 -----
 Symbolic Z-matrix:
 Charge =  0 Multiplicity = 1

 SCF Done:  E(RHF) =  -597.318242248     A.U. after   16 cycles
 Normal termination of Gaussian 16 at Wed Apr  9 00:43:43 2025.
 Gaussian 16:  ES64L-G16RevC.01  3-Jul-2019

 ----------------------------------------------------------------------
 #t hf aug-cc-pvdz iop(5/13=1,5/36=2,99/5=2) pseudo=read geom=check gue
 ss=(read,tcheck) scf=(maxcycle=1)
 ----------------------------------------------------------------------
 -----
 title
 -----
 Structure from the checkpoint file:  "BDE49_nonexpt_761_mol1.chk"
 Charge =  0 Multiplicity = 1

                         Standard orientation:
 ---------------------------------------------------------------------
 Center     Atomic      Atomic             Coordinates (Angstroms)
 Number     Number       Type             X           Y           Z
 ---------------------------------------------------------------------
      1         15           0        2.982736   -0.208522   -0.125343
      2          5           0        1.421337    0.862606    0.044874
      3          6           0       -0.040037    0.364822    0.023520
      4          6           0       -1.086734    1.310812    0.007397
      5          6           0       -0.401493   -0.998683    0.021947
      6          6           0       -1.732012   -1.396411    0.000223
      7          6           0       -2.744645   -0.435577   -0.013943
      8          6           0       -2.421544    0.920215   -0.008987
      9          1           0       -3.783995   -0.745324   -0.027870
     10          1           0       -3.208329    1.666214   -0.019635
     11          1           0       -0.837679    2.366486    0.006710
     12          1           0        0.373139   -1.757746    0.040827
     13          1           0       -1.985635   -2.450594   -0.002958
     14          1           0        1.623426    2.039607    0.025103
     15          1           0        2.695722   -1.344984    0.664671
     16          1           0        3.834423    0.450074    0.787991
 ---------------------------------------------------------------------

 SCF Done:  E(RHF) =  -597.411342039     A.U. after    2 cycles

 The electronic state is 1-A.
 Alpha  occ. eigenvalues --  -81.23731 -11.26314 -11.25965 -11.25909 -11.25132
 Alpha  occ. eigenvalues --  -11.25080 -11.23230  -7.74425  -7.62084  -4.88474
 Alpha  occ. eigenvalues --   -4.88410  -4.88128  -1.14831  -1.01914  -1.01726
 Alpha  occ. eigenvalues --   -0.84286  -0.83484  -0.79771  -0.72184  -0.66315
 Alpha  occ. eigenvalues --   -0.63964  -0.62100  -0.60055  -0.56284  -0.51723
 Alpha  occ. eigenvalues --   -0.51372  -0.50525  -0.47282  -0.44959  -0.36436
 Alpha  occ. eigenvalues --   -0.34867  -0.33427
 Alpha virt. eigenvalues --    0.03101   0.03945   0.04134   0.04419   0.05559
 Alpha virt. eigenvalues --    0.05692   0.06036   0.07328   0.07921   0.08298
 Alpha virt. eigenvalues --    0.09068   0.09719   0.10373   0.11107   0.12201

 Mulliken charges:
               1
     1  P   -0.455767
     2  B   -0.460508
     3  C   -0.304150
     4  C    0.584188
     5  C    0.907645
     6  C    0.400123
     7  C    0.717257
     8  C    0.409923
     9  H   -0.432170
    10  H   -0.440574
    11  H   -0.600944
    12  H   -0.572839
    13  H   -0.458803
    14  H    0.324918
    15  H    0.183929
    16  H    0.197771
 Sum of Mulliken charges =   0.00000

 Dipole moment (field-independent basis, Debye):
    X=             -1.6796    Y=             -0.2094    Z=              0.6433  Tot=              1.8108

 Test job not archived.
 1\1\GINC-SE125\SP\RHF\Aug-CC-pVDZ\C6H8B1P1\OHZDE\09-Apr-2025\0\\#t hf
 aug-cc-pvdz iop(5/13=1,5/36=2,99/5=2) pseudo=read geom=check guess=(re
 ad,tcheck) scf=(maxcycle=1)\\title\\0,1\P,0,2.982736,-0.208522,-0.1253
 43\B,0,1.421337,0.862606,0.044874\C,0,-0.040037,0.364822,0.02352\C,0,-
 1.086734,1.310812,0.007397\C,0,-0.401493,-0.998683,0.021947\C,0,-1.732
 012,-1.396411,0.000223\C,0,-2.744645,-0.435577,-0.013943\C,0,-2.421544
 ,0.920215,-0.008987\H,0,-3.783995,-0.745324,-0.02787\H,0,-3.208329,1.6
 66214,-0.019635\H,0,-0.837679,2.366486,0.00671\H,0,0.373139,-1.757746,

 Normal termination of Gaussian 16 at Wed Apr  9 00:43:50 2025.
