 Gaussian 16, Revision C.01,

 ----------------------------------------------------------------------
 #t hf aug-cc-pvdz symm=none int=(grid=ultrafine) guess=(read,tcheck) s
 table=(opt,rrhf)
 ----------------------------------------------------------------------
 -----
 title
 -----
 Symbolic Z-matrix:
 Charge =  0 Multiplicity = 1

 SCF Done:  E(RHF) =  -1359.06671530     A.U. after   11 cycles
 Normal termination of Gaussian 16 at Tue Apr  8 23:45:14 2025.
 Gaussian 16:  ES64L-G16RevC.01  3-Jul-2019

 ----------------------------------------------------------------------
 #t hf aug-cc-pvdz iop(5/13=1,5/36=2,99/5=2) pseudo=read geom=check gue
 ss=(read,tcheck) scf=(maxcycle=1)
 ----------------------------------------------------------------------
 -----
 title
 -----
 Structure from the checkpoint file:  "BDE49_nonexpt_1780_mol1.chk"
 Charge =  0 Multiplicity = 1

                         Standard orientation:
 ---------------------------------------------------------------------
 Center     Atomic      Atomic             Coordinates (Angstroms)
 Number     Number       Type             X           Y           Z
 ---------------------------------------------------------------------
      1         14           0        0.000000    0.345031    0.000000
      2         17           0        1.690510   -0.817843    0.009030
      3         17           0       -1.690510   -0.817843   -0.009031
      4          8           0       -0.082571    1.223885   -1.363927
      5          1           0        0.701695    1.697040   -1.655977
      6          8           0        0.082571    1.223884    1.363928
      7          1           0       -0.701695    1.697038    1.655979
 ---------------------------------------------------------------------

 SCF Done:  E(RHF) =  -1359.19938034     A.U. after    2 cycles

 The electronic state is 1-A.
 Alpha  occ. eigenvalues -- -103.66814-103.66813 -69.21465 -20.60548 -20.60548
 Alpha  occ. eigenvalues --  -10.70319 -10.70306  -8.36009  -8.36003  -8.35778
 Alpha  occ. eigenvalues --   -8.35773  -8.35770  -8.35766  -6.95047  -4.06054
 Alpha  occ. eigenvalues --   -4.05994  -4.05987  -1.35286  -1.33237  -1.16293
 Alpha  occ. eigenvalues --   -1.14539  -0.80498  -0.76626  -0.64767  -0.63456
 Alpha  occ. eigenvalues --   -0.63077  -0.56842  -0.56126  -0.54682  -0.51183
 Alpha  occ. eigenvalues --   -0.49543  -0.48955  -0.47860
 Alpha virt. eigenvalues --    0.02897   0.04793   0.06103   0.06365   0.07749
 Alpha virt. eigenvalues --    0.09559   0.12811   0.13437   0.14314   0.15133
 Alpha virt. eigenvalues --    0.17218   0.18516   0.18784   0.19481   0.19618

 Mulliken charges:
               1
     1  Si   2.107798
     2  Cl  -0.453410
     3  Cl  -0.453410
     4  O   -0.745803
     5  H    0.145314
     6  O   -0.745803
     7  H    0.145314
 Sum of Mulliken charges =  -0.00000

 Dipole moment (field-independent basis, Debye):
    X=             -0.0000    Y=              2.2731    Z=              0.0000  Tot=              2.2731

 Test job not archived.
 1\1\GINC-SE250\SP\RHF\Aug-CC-pVDZ\Cl2H2O2Si1\OHZDE\08-Apr-2025\0\\#t h
 f aug-cc-pvdz iop(5/13=1,5/36=2,99/5=2) pseudo=read geom=check guess=(
 read,tcheck) scf=(maxcycle=1)\\title\\0,1\Si,0,0.,0.345031,0.\Cl,0,1.6
 9051,-0.817843,0.00903\Cl,0,-1.69051,-0.817843,-0.009031\O,0,-0.082571
 ,1.223885,-1.363927\H,0,0.701695,1.69704,-1.655977\O,0,0.082571,1.2238
 84,1.363928\H,0,-0.701695,1.697038,1.655979\\Version=ES64L-G16RevC.01\
 State=1-A\HF=-1359.1993803\RMSD=3.647e-03\Dipole=0.,0.8943085,0.000000
 3\Quadrupole=-1.0894647,1.7839935,-0.6945288,0.0000025,-4.0279021,-0.0

 Normal termination of Gaussian 16 at Tue Apr  8 23:45:16 2025.
