 Gaussian 16, Revision C.01,

 ----------------------------------------------------------------------
 #t hf aug-cc-pvdz symm=none int=(grid=ultrafine) guess=(read,tcheck) s
 table=(opt,rrhf)
 ----------------------------------------------------------------------
 -----
 title
 -----
 Symbolic Z-matrix:
 Charge =  0 Multiplicity = 1

 SCF Done:  E(RHF) =  -1452.10959798     A.U. after   15 cycles
 Normal termination of Gaussian 16 at Wed Apr  9 00:11:42 2025.
 Gaussian 16:  ES64L-G16RevC.01  3-Jul-2019

 ----------------------------------------------------------------------
 #t hf aug-cc-pvdz iop(5/13=1,5/36=2,99/5=2) pseudo=read geom=check gue
 ss=(read,tcheck) scf=(maxcycle=1)
 ----------------------------------------------------------------------
 -----
 title
 -----
 Structure from the checkpoint file:  "BDE49_nonexpt_2431_mol1.chk"
 Charge =  0 Multiplicity = 1

                         Standard orientation:
 ---------------------------------------------------------------------
 Center     Atomic      Atomic             Coordinates (Angstroms)
 Number     Number       Type             X           Y           Z
 ---------------------------------------------------------------------
      1         14           0        1.084456    1.361678   -0.535425
      2         14           0       -0.698603    0.910855    0.951136
      3          6           0       -1.633308   -0.633454    0.396881
      4          1           0       -1.623473    2.065306    0.935858
      5          1           0       -0.150666    0.711629    2.315077
      6         16           0       -2.910281   -0.604072   -0.607574
      7          1           0       -1.268200   -1.599055    0.755502
      8          6           0        2.367282   -0.032658   -0.487567
      9          1           0        1.773351    2.634981   -0.197525
     10          1           0        0.607089    1.470711   -1.937516
     11         16           0        2.130837   -1.473727    0.222365
     12          1           0        3.327208    0.142429   -0.983875
 ---------------------------------------------------------------------

 SCF Done:  E(RHF) =  -1452.21044983     A.U. after    2 cycles

 The electronic state is 1-A.
 Alpha  occ. eigenvalues --  -93.54869 -93.53644 -69.08798 -69.08325 -11.32627
 Alpha  occ. eigenvalues --  -11.31596  -8.84664  -8.83432  -6.84179  -6.83703
 Alpha  occ. eigenvalues --   -6.18747  -6.18506  -6.18189  -6.17519  -6.17274
 Alpha  occ. eigenvalues --   -6.16939  -3.94958  -3.94910  -3.94884  -3.94485
 Alpha  occ. eigenvalues --   -3.94443  -3.94421  -1.05784  -1.04540  -0.81241
 Alpha  occ. eigenvalues --   -0.80026  -0.72444  -0.67182  -0.58668  -0.57398
 Alpha  occ. eigenvalues --   -0.52148  -0.51646  -0.50282  -0.48907  -0.44615
 Alpha  occ. eigenvalues --   -0.42195  -0.39192  -0.35040  -0.33678
 Alpha virt. eigenvalues --    0.01736   0.02305   0.03275   0.03944   0.04972
 Alpha virt. eigenvalues --    0.05670   0.06291   0.06846   0.07429   0.07575
 Alpha virt. eigenvalues --    0.08212   0.09149   0.09611   0.10126   0.10319

 Mulliken charges:
               1
     1  Si   0.450594
     2  Si   0.214536
     3  C   -0.251486
     4  H    0.020663
     5  H    0.099601
     6  S    0.083926
     7  H   -0.219326
     8  C   -0.262461
     9  H    0.024615
    10  H    0.025134
    11  S    0.129563
    12  H   -0.315359
 Sum of Mulliken charges =  -0.00000

 Dipole moment (field-independent basis, Debye):
    X=              1.9658    Y=              1.5476    Z=              0.4275  Tot=              2.5382

 Test job not archived.
 1\1\GINC-SE335\SP\RHF\Aug-CC-pVDZ\C2H6S2Si2\OHZDE\09-Apr-2025\0\\#t hf
  aug-cc-pvdz iop(5/13=1,5/36=2,99/5=2) pseudo=read geom=check guess=(r
 ead,tcheck) scf=(maxcycle=1)\\title\\0,1\Si,0,1.084456,1.361678,-0.535
 425\Si,0,-0.698603,0.910855,0.951136\C,0,-1.633308,-0.633454,0.396881\
 H,0,-1.623473,2.065306,0.935858\H,0,-0.150666,0.711629,2.315077\S,0,-2
 .910281,-0.604072,-0.607574\H,0,-1.2682,-1.599055,0.755502\C,0,2.36728
 2,-0.032658,-0.487567\H,0,1.773351,2.634981,-0.197525\H,0,0.607089,1.4
 70711,-1.937516\S,0,2.130837,-1.473727,0.222365\H,0,3.327208,0.142429,

 Normal termination of Gaussian 16 at Wed Apr  9 00:11:47 2025.
