 Gaussian 16, Revision C.01,

 ----------------------------------------------------------------------
 #t hf aug-cc-pvdz symm=none int=(grid=ultrafine) guess=(read,tcheck) s
 table=opt
 ----------------------------------------------------------------------
 -----
 title
 -----
 Symbolic Z-matrix:
 Charge =  0 Multiplicity = 2

 SCF Done:  E(UHF) =  -607.581213742     A.U. after   20 cycles
 Normal termination of Gaussian 16 at Tue Apr  8 23:33:22 2025.
 Gaussian 16:  ES64L-G16RevC.01  3-Jul-2019

 ----------------------------------------------------------------------
 #t hf aug-cc-pvdz iop(5/13=1,5/36=2,99/5=2) pseudo=read geom=check gue
 ss=(read,tcheck) scf=(maxcycle=1)
 ----------------------------------------------------------------------
 -----
 title
 -----
 Structure from the checkpoint file:  "BDE49_nonexpt_1473_mol2.chk"
 Charge =  0 Multiplicity = 2

                         Standard orientation:
 ---------------------------------------------------------------------
 Center     Atomic      Atomic             Coordinates (Angstroms)
 Number     Number       Type             X           Y           Z
 ---------------------------------------------------------------------
      1          6           0        0.318096    0.164885   -0.000040
      2         15           0       -1.244156   -0.861840   -0.000016
      3          8           0        1.392160   -0.655479   -0.000005
      4          8           0        0.391205    1.370101   -0.000006
      5          6           0        2.679105   -0.005819    0.000028
      6          1           0        2.791019    0.617420    0.888743
      7          1           0        2.791067    0.617413   -0.888686
      8          1           0        3.410523   -0.810381    0.000051
      9          6           0       -2.429395    0.551029    0.000029
     10          1           0       -2.277217    1.180887    0.880680
     11          1           0       -3.449571    0.163801    0.000040
     12          1           0       -2.277247    1.180918   -0.880605
 ---------------------------------------------------------------------

 SCF Done:  E(UHF) =  -607.687435321     A.U. after    2 cycles

 The electronic state is 2-A.
 Alpha  occ. eigenvalues --  -81.28045 -20.62264 -20.57572 -11.39484 -11.30147
 Alpha  occ. eigenvalues --  -11.24445  -7.78485  -4.93150  -4.92148  -4.91816
 Alpha  occ. eigenvalues --   -1.42343  -1.33464  -0.99528  -0.97127  -0.83065
 Alpha  occ. eigenvalues --   -0.76418  -0.69878  -0.68703  -0.65476  -0.59968
 Alpha  occ. eigenvalues --   -0.59196  -0.56569  -0.55484  -0.53217  -0.49340
 Alpha  occ. eigenvalues --   -0.46787  -0.39400  -0.35506
 Alpha virt. eigenvalues --    0.03500   0.04240   0.05634   0.05736   0.06649
 Alpha virt. eigenvalues --    0.07164   0.07465   0.09698   0.10844   0.11806
 Alpha virt. eigenvalues --    0.12840   0.13194   0.14976   0.15108   0.15683

  Beta  occ. eigenvalues --  -81.27362 -20.62238 -20.57101 -11.39783 -11.30155
  Beta  occ. eigenvalues --  -11.24581  -7.77665  -4.91665  -4.91456  -4.90030
  Beta  occ. eigenvalues --   -1.42092  -1.32728  -0.99000  -0.96644  -0.81620
  Beta  occ. eigenvalues --   -0.75033  -0.69449  -0.68292  -0.63070  -0.59475
  Beta  occ. eigenvalues --   -0.57302  -0.55348  -0.55254  -0.52959  -0.47589
  Beta  occ. eigenvalues --   -0.46006  -0.37562
  Beta virt. eigenvalues --    0.02384   0.03533   0.04260   0.05762   0.05833
  Beta virt. eigenvalues --    0.06664   0.07217   0.07588   0.09778   0.11987
  Beta virt. eigenvalues --    0.11995   0.13205   0.14260   0.15006   0.15214

 Mulliken charges and spin densities:
               1          2
     1  C    0.233240  -0.165365
     2  P    0.594171   1.142110
     3  O   -0.514329   0.002264
     4  O   -0.446809   0.116855
     5  C    0.766541  -0.001995
     6  H   -0.066777   0.000378
     7  H   -0.066776   0.000378
     8  H   -0.239470  -0.000271
     9  C    0.199614  -0.121652
    10  H   -0.118766   0.014883
    11  H   -0.221873  -0.002468
    12  H   -0.118766   0.014882
 Sum of Mulliken charges =  -0.00000   1.00000

 Dipole moment (field-independent basis, Debye):
    X=              0.1476    Y=             -0.5391    Z=              0.0000  Tot=              0.5589
                          Isotropic Fermi Contact Couplings
        Atom                 a.u.       MegaHertz       Gauss      10(-4) cm-1
     1  C(13)             -0.05199     -58.44694     -20.85532     -19.49580
     2  P(31)              0.23021     416.94078     148.77484     139.07648
     3  O(17)             -0.00585       3.54816       1.26607       1.18354
     4  O(17)              0.03922     -23.77545      -8.48367      -7.93064
     5  C(13)             -0.00151      -1.69621      -0.60525      -0.56580
     6  H(1)               0.00034       1.52018       0.54244       0.50708
     7  H(1)               0.00034       1.52034       0.54250       0.50713
     8  H(1)               0.00005       0.22949       0.08189       0.07655

 Normal termination of Gaussian 16 at Tue Apr  8 23:33:27 2025.
