 Gaussian 16, Revision C.01,

 ----------------------------------------------------------------------
 #t hf aug-cc-pvdz symm=none int=(grid=ultrafine) guess=(read,tcheck) s
 table=(opt,rrhf)
 ----------------------------------------------------------------------
 -----
 title
 -----
 Symbolic Z-matrix:
 Charge =  0 Multiplicity = 1

 SCF Done:  E(RHF) =  -1177.88617422     A.U. after   14 cycles
 Normal termination of Gaussian 16 at Wed Apr  9 00:25:18 2025.
 Gaussian 16:  ES64L-G16RevC.01  3-Jul-2019

 ----------------------------------------------------------------------
 #t hf aug-cc-pvdz iop(5/13=1,5/36=2,99/5=2) pseudo=read geom=check gue
 ss=(read,tcheck) scf=(maxcycle=1)
 ----------------------------------------------------------------------
 -----
 title
 -----
 Structure from the checkpoint file:  "BDE49_nonexpt_2751_mol1.chk"
 Charge =  0 Multiplicity = 1

                         Standard orientation:
 ---------------------------------------------------------------------
 Center     Atomic      Atomic             Coordinates (Angstroms)
 Number     Number       Type             X           Y           Z
 ---------------------------------------------------------------------
      1         16           0       -0.865281    1.284867    0.562751
      2         16           0        0.865270    1.284841   -0.562822
      3          6           0        1.800802   -0.124518    0.172936
      4          6           0       -1.800790   -0.124564   -0.172899
      5          8           0       -1.390845   -0.774091   -1.087350
      6          8           0        1.390915   -0.773915    1.087506
      7          6           0        4.110418   -1.173381    0.252598
      8          6           0       -4.110416   -1.173402   -0.252597
      9          1           0       -5.004691   -1.376821    0.340211
     10          1           0       -3.674516   -2.123538   -0.563248
     11          1           0       -4.411947   -0.634601   -1.153436
     12          1           0        5.004640   -1.376904   -0.340255
     13          1           0        3.674527   -2.123463    0.563426
     14          1           0        4.412034   -0.634451    1.153331
     15          6           0       -3.107010   -0.359779    0.565529
     16          6           0        3.106958   -0.359862   -0.565565
     17          1           0       -2.840830   -0.887228    1.489575
     18          1           0       -3.524427    0.603167    0.876097
     19          1           0        3.524365    0.603031   -0.876311
     20          1           0        2.840693   -0.887445   -1.489510
 ---------------------------------------------------------------------

 SCF Done:  E(RHF) =  -1178.04585485     A.U. after    2 cycles

 The electronic state is 1-A.
 Alpha  occ. eigenvalues --  -93.57555 -93.57551 -20.58681 -20.58680 -11.38506
 Alpha  occ. eigenvalues --  -11.38506 -11.26825 -11.26825 -11.24126 -11.24126
 Alpha  occ. eigenvalues --   -8.87225  -8.87207  -6.21415  -6.21300  -6.21075
 Alpha  occ. eigenvalues --   -6.21038  -6.20751  -6.20745  -1.38723  -1.38508
 Alpha  occ. eigenvalues --   -1.07947  -1.06809  -1.04211  -0.95049  -0.90209
 Alpha  occ. eigenvalues --   -0.85344  -0.75778  -0.73807  -0.67913  -0.67167
 Alpha  occ. eigenvalues --   -0.66186  -0.65104  -0.64787  -0.60694  -0.57184
 Alpha  occ. eigenvalues --   -0.56857  -0.56103  -0.55064  -0.53191  -0.53013
 Alpha  occ. eigenvalues --   -0.51247  -0.51043  -0.47086  -0.43549  -0.43452
 Alpha  occ. eigenvalues --   -0.38797  -0.37018
 Alpha virt. eigenvalues --    0.03395   0.03639   0.04973   0.05190   0.05486
 Alpha virt. eigenvalues --    0.05561   0.05955   0.07262   0.07661   0.07844
 Alpha virt. eigenvalues --    0.09073   0.09510   0.10438   0.11499   0.11797

 Mulliken charges:
               1
     1  S    0.078786
     2  S    0.078788
     3  C   -0.080623
     4  C   -0.080659
     5  O   -0.442738
     6  O   -0.442750
     7  C    0.513648
     8  C    0.513655
     9  H   -0.032076
    10  H   -0.052346
    11  H   -0.065697
    12  H   -0.032074
    13  H   -0.052346
    14  H   -0.065698
    15  C    0.031384
    16  C    0.031381
    17  H    0.073408
    18  H   -0.023725
    19  H   -0.023728
    20  H    0.073410
 Sum of Mulliken charges =  -0.00000

 Dipole moment (field-independent basis, Debye):
    X=             -0.0002    Y=              0.6162    Z=             -0.0002  Tot=              0.6162

 Test job not archived.
 1\1\GINC-SE459\SP\RHF\Aug-CC-pVDZ\C6H10O2S2\OHZDE\09-Apr-2025\0\\#t hf
  aug-cc-pvdz iop(5/13=1,5/36=2,99/5=2) pseudo=read geom=check guess=(r
 ead,tcheck) scf=(maxcycle=1)\\title\\0,1\S,0,-0.865281,1.284867,0.5627
 51\S,0,0.86527,1.284841,-0.562822\C,0,1.800802,-0.124518,0.172936\C,0,
 -1.80079,-0.124564,-0.172899\O,0,-1.390845,-0.774091,-1.08735\O,0,1.39
 0915,-0.773915,1.087506\C,0,4.110418,-1.173381,0.252598\C,0,-4.110416,
 -1.173402,-0.252597\H,0,-5.004691,-1.376821,0.340211\H,0,-3.674516,-2.
 123538,-0.563248\H,0,-4.411947,-0.634601,-1.153436\H,0,5.00464,-1.3769

 Normal termination of Gaussian 16 at Wed Apr  9 00:25:29 2025.
