 Gaussian 16, Revision C.01,

 ----------------------------------------------------------------------
 #t hf aug-cc-pvdz symm=none int=(grid=ultrafine) guess=(read,tcheck) s
 table=opt
 ----------------------------------------------------------------------
 -----
 title
 -----
 Symbolic Z-matrix:
 Charge =  0 Multiplicity = 2

 SCF Done:  E(UHF) =  -191.360682828     A.U. after   18 cycles
 Normal termination of Gaussian 16 at Tue Apr  8 22:31:24 2025.
 Gaussian 16:  ES64L-G16RevC.01  3-Jul-2019

 ----------------------------------------------------------------------
 #t hf aug-cc-pvdz iop(5/13=1,5/36=2,99/5=2) pseudo=read geom=check gue
 ss=(read,tcheck) scf=(maxcycle=1)
 ----------------------------------------------------------------------
 -----
 title
 -----
 Structure from the checkpoint file:  "BDE49_expt_1089_mol2.chk"
 Charge =  0 Multiplicity = 2

                         Standard orientation:
 ---------------------------------------------------------------------
 Center     Atomic      Atomic             Coordinates (Angstroms)
 Number     Number       Type             X           Y           Z
 ---------------------------------------------------------------------
      1          6           0        0.951481    0.504213    0.000000
      2          8           0        1.530451   -0.525693   -0.000022
      3          6           0       -0.552336    0.733152    0.000020
      4          6           0       -1.386404   -0.552143   -0.000001
      5          1           0       -0.764930    1.362590   -0.870803
      6          1           0       -0.764911    1.362548    0.870879
      7          1           0       -1.168588   -1.157910   -0.881693
      8          1           0       -2.453056   -0.315059    0.000017
      9          1           0       -1.168567   -1.157952    0.881656
 ---------------------------------------------------------------------

 SCF Done:  E(UHF) =  -191.422452345     A.U. after    2 cycles

 The electronic state is 2-A.
 Alpha  occ. eigenvalues --  -20.61039 -11.35038 -11.27675 -11.24542  -1.40583
 Alpha  occ. eigenvalues --   -1.06806  -0.91279  -0.76963  -0.69581  -0.65037
 Alpha  occ. eigenvalues --   -0.64042  -0.56853  -0.56620  -0.53267  -0.51510
 Alpha  occ. eigenvalues --   -0.36866
 Alpha virt. eigenvalues --    0.03164   0.04811   0.04851   0.05853   0.07673
 Alpha virt. eigenvalues --    0.08973   0.10520   0.11259   0.12289   0.14598
 Alpha virt. eigenvalues --    0.15393   0.15682   0.16254   0.16948   0.17962

  Beta  occ. eigenvalues --  -20.59947 -11.33085 -11.27121 -11.24445  -1.37767
  Beta  occ. eigenvalues --   -1.05053  -0.89212  -0.73824  -0.64567  -0.64351
  Beta  occ. eigenvalues --   -0.56961  -0.56664  -0.53976  -0.51513  -0.50279
  Beta virt. eigenvalues --    0.03047   0.04594   0.04873   0.05524   0.07688
  Beta virt. eigenvalues --    0.08475   0.10911   0.11208   0.11353   0.12392
  Beta virt. eigenvalues --    0.15047   0.16021   0.16427   0.16511   0.17831

 Mulliken charges and spin densities:
               1          2
     1  C    0.102693   0.746041
     2  O   -0.360960   0.151972
     3  C   -0.067283   0.117525
     4  C    0.425570   0.019529
     5  H    0.024472  -0.018298
     6  H    0.024476  -0.018298
     7  H   -0.052068  -0.000288
     8  H   -0.044829   0.002103
     9  H   -0.052070  -0.000288
 Sum of Mulliken charges =  -0.00000   1.00000

 Dipole moment (field-independent basis, Debye):
    X=             -2.7772    Y=              1.5287    Z=              0.0001  Tot=              3.1702
                          Isotropic Fermi Contact Couplings
        Atom                 a.u.       MegaHertz       Gauss      10(-4) cm-1
     1  C(13)              0.34549     388.39200     138.58792     129.55363
     2  O(17)              0.11158     -67.63737     -24.13470     -22.56140
     3  C(13)              0.11356     127.66274      45.55324      42.58371
     4  C(13)              0.01615      18.15455       6.47800       6.05571
     5  H(1)              -0.00278     -12.42645      -4.43407      -4.14502
     6  H(1)              -0.00278     -12.42654      -4.43410      -4.14505
     7  H(1)              -0.00080      -3.57008      -1.27389      -1.19085
     8  H(1)               0.00218       9.75173       3.47966       3.25283

 Normal termination of Gaussian 16 at Tue Apr  8 22:31:26 2025.
