 Gaussian 16, Revision C.01,

 ----------------------------------------------------------------------
 #t hf aug-cc-pvdz symm=none int=(grid=ultrafine) guess=(read,tcheck) s
 table=opt
 ----------------------------------------------------------------------
 -----
 title
 -----
 Symbolic Z-matrix:
 Charge =  0 Multiplicity = 2

 SCF Done:  E(UHF) =  -663.803219463     A.U. after   22 cycles
 Normal termination of Gaussian 16 at Tue Apr  8 22:51:48 2025.
 Gaussian 16:  ES64L-G16RevC.01  3-Jul-2019

 ----------------------------------------------------------------------
 #t hf aug-cc-pvdz iop(5/13=1,5/36=2,99/5=2) pseudo=read geom=check gue
 ss=(read,tcheck) scf=(maxcycle=1)
 ----------------------------------------------------------------------
 -----
 title
 -----
 Structure from the checkpoint file:  "BDE49_expt_1818_mol2.chk"
 Charge =  0 Multiplicity = 2

                         Standard orientation:
 ---------------------------------------------------------------------
 Center     Atomic      Atomic             Coordinates (Angstroms)
 Number     Number       Type             X           Y           Z
 ---------------------------------------------------------------------
      1         16           0        2.067143    0.244932   -0.434759
      2          6           0        0.947976   -0.637752    0.652347
      3          8           0       -0.353480   -0.895607    0.114405
      4          1           0        0.868294   -0.080098    1.587695
      5          1           0        1.381038   -1.620728    0.847597
      6          6           0       -1.207096    0.166618    0.101475
      7          8           0       -0.908624    1.251954    0.525369
      8          6           0       -2.525189   -0.216032   -0.515208
      9          1           0       -2.379732   -0.409878   -1.581012
     10          1           0       -3.235511    0.597472   -0.384983
     11          1           0       -2.905684   -1.133457   -0.063022
 ---------------------------------------------------------------------

 SCF Done:  E(UHF) =  -663.907030210     A.U. after    2 cycles

 The electronic state is 2-A.
 Alpha  occ. eigenvalues --  -93.56252 -20.63005 -20.57281 -11.40644 -11.34460
 Alpha  occ. eigenvalues --  -11.25971  -8.86016  -6.21360  -6.19686  -6.19232
 Alpha  occ. eigenvalues --   -1.43205  -1.33884  -1.06682  -1.00827  -0.89234
 Alpha  occ. eigenvalues --   -0.78625  -0.72198  -0.70807  -0.67496  -0.62524
 Alpha  occ. eigenvalues --   -0.59254  -0.57830  -0.56566  -0.52872  -0.48331
 Alpha  occ. eigenvalues --   -0.47417  -0.43591  -0.38909
 Alpha virt. eigenvalues --    0.03296   0.04447   0.05474   0.05779   0.06529
 Alpha virt. eigenvalues --    0.07674   0.09327   0.11917   0.12613   0.12892
 Alpha virt. eigenvalues --    0.14210   0.14421   0.15234   0.15616   0.15846

  Beta  occ. eigenvalues --  -93.55338 -20.63023 -20.57258 -11.40648 -11.34596
  Beta  occ. eigenvalues --  -11.25970  -8.84997  -6.19147  -6.18670  -6.17353
  Beta  occ. eigenvalues --   -1.43211  -1.33860  -1.05388  -0.98923  -0.84916
  Beta  occ. eigenvalues --   -0.77039  -0.71903  -0.70715  -0.66665  -0.61757
  Beta  occ. eigenvalues --   -0.58805  -0.57612  -0.55730  -0.52398  -0.48066
  Beta  occ. eigenvalues --   -0.46599  -0.36611
  Beta virt. eigenvalues --    0.01522   0.03324   0.04514   0.05577   0.05795
  Beta virt. eigenvalues --    0.06587   0.07829   0.09356   0.12089   0.12647
  Beta virt. eigenvalues --    0.13865   0.14324   0.14744   0.15402   0.15768

 Mulliken charges and spin densities:
               1          2
     1  S    0.239137   1.087854
     2  C    0.296671  -0.109864
     3  O   -0.531738  -0.002915
     4  H   -0.002224   0.017119
     5  H   -0.228201   0.015818
     6  C    0.278687  -0.013366
     7  O   -0.429617   0.003840
     8  C    0.299425   0.001190
     9  H    0.056637   0.000515
    10  H   -0.000477  -0.000169
    11  H    0.021700  -0.000024
 Sum of Mulliken charges =  -0.00000   1.00000

 Dipole moment (field-independent basis, Debye):
    X=             -1.2325    Y=             -2.4453    Z=              0.0792  Tot=              2.7395
                          Isotropic Fermi Contact Couplings
        Atom                 a.u.       MegaHertz       Gauss      10(-4) cm-1
     1  S(33)              0.20233      69.49553      24.79773      23.18121
     2  C(13)             -0.03022     -33.97063     -12.12157     -11.33138
     3  O(17)             -0.00430       2.60435       0.92930       0.86872
     4  H(1)               0.01069      47.76956      17.04537      15.93421
     5  H(1)               0.01320      58.98085      21.04583      19.67389
     6  C(13)             -0.00059      -0.66863      -0.23859      -0.22303
     7  O(17)              0.00309      -1.87296      -0.66832      -0.62475
     8  C(13)              0.00019       0.21851       0.07797       0.07289

 Normal termination of Gaussian 16 at Tue Apr  8 22:51:52 2025.
