 Gaussian 16, Revision C.01,

 ----------------------------------------------------------------------
 #t hf aug-cc-pvdz symm=none int=(grid=ultrafine) guess=(read,tcheck) s
 table=(opt,rrhf)
 ----------------------------------------------------------------------
 -----
 title
 -----
 Symbolic Z-matrix:
 Charge =  0 Multiplicity = 1

 SCF Done:  E(RHF) =  -1100.52558183     A.U. after   12 cycles
 Normal termination of Gaussian 16 at Tue Apr  8 23:47:50 2025.
 Gaussian 16:  ES64L-G16RevC.01  3-Jul-2019

 ----------------------------------------------------------------------
 #t hf aug-cc-pvdz iop(5/13=1,5/36=2,99/5=2) pseudo=read geom=check gue
 ss=(read,tcheck) scf=(maxcycle=1)
 ----------------------------------------------------------------------
 -----
 title
 -----
 Structure from the checkpoint file:  "BDE49_nonexpt_181_mol1.chk"
 Charge =  0 Multiplicity = 1

                         Standard orientation:
 ---------------------------------------------------------------------
 Center     Atomic      Atomic             Coordinates (Angstroms)
 Number     Number       Type             X           Y           Z
 ---------------------------------------------------------------------
      1         17           0        1.971704   -0.642733   -0.880952
      2         17           0        0.774950    1.525351    0.840325
      3          5           0        0.568552   -0.016087   -0.004541
      4          6           0       -0.766072   -0.835142    0.084153
      5          6           0       -2.054463    0.006895   -0.031331
      6          6           0       -0.744750   -1.633443    1.416940
      7          1           0       -0.755369   -0.962149    2.279939
      8          1           0        0.136414   -2.275280    1.497158
      9          1           0       -1.629654   -2.273294    1.478662
     10          1           0       -0.761055   -1.567093   -0.732675
     11          6           0       -2.223363    0.698548   -1.387515
     12          1           0       -2.075099    0.752922    0.770033
     13          1           0       -2.909853   -0.655634    0.145079
     14          1           0       -1.420463    1.417283   -1.579002
     15          1           0       -3.167949    1.246502   -1.433867
     16          1           0       -2.220950   -0.028474   -2.205456
 ---------------------------------------------------------------------

 SCF Done:  E(RHF) =  -1100.61680898     A.U. after    2 cycles

 The electronic state is 1-A.
 Alpha  occ. eigenvalues -- -103.66656-103.66635 -11.24289 -11.24085 -11.23614
 Alpha  occ. eigenvalues --  -11.23166 -10.70127 -10.70088  -8.35815  -8.35789
 Alpha  occ. eigenvalues --   -8.35604  -8.35581  -8.35572  -8.35543  -7.72453
 Alpha  occ. eigenvalues --   -1.18013  -1.14130  -1.07377  -0.99014  -0.87506
 Alpha  occ. eigenvalues --   -0.81221  -0.69022  -0.64288  -0.61087  -0.59617
 Alpha  occ. eigenvalues --   -0.58465  -0.56796  -0.53906  -0.52487  -0.51686
 Alpha  occ. eigenvalues --   -0.50140  -0.48141  -0.47692  -0.47218  -0.46359
 Alpha  occ. eigenvalues --   -0.44342
 Alpha virt. eigenvalues --    0.03237   0.04335   0.04724   0.04827   0.06478
 Alpha virt. eigenvalues --    0.06643   0.06810   0.07040   0.07327   0.08668
 Alpha virt. eigenvalues --    0.09213   0.09382   0.09789   0.11870   0.12990

 Mulliken charges:
               1
     1  Cl  -0.423537
     2  Cl  -0.399542
     3  B    0.716321
     4  C   -0.134002
     5  C    0.281296
     6  C    0.520212
     7  H   -0.058411
     8  H   -0.119810
     9  H   -0.081762
    10  H   -0.215654
    11  C    0.393195
    12  H   -0.165525
    13  H   -0.089457
    14  H   -0.081653
    15  H   -0.077332
    16  H   -0.064336
 Sum of Mulliken charges =  -0.00000

 Dipole moment (field-independent basis, Debye):
    X=             -1.7890    Y=             -0.9111    Z=              0.1465  Tot=              2.0130

 Test job not archived.
 1\1\GINC-SE333\SP\RHF\Aug-CC-pVDZ\C4H9B1Cl2\OHZDE\08-Apr-2025\0\\#t hf
  aug-cc-pvdz iop(5/13=1,5/36=2,99/5=2) pseudo=read geom=check guess=(r
 ead,tcheck) scf=(maxcycle=1)\\title\\0,1\Cl,0,-1.971704,-0.642733,0.88
 0952\Cl,0,-0.77495,1.525351,-0.840325\B,0,-0.568552,-0.016087,0.004541
 \C,0,0.766072,-0.835142,-0.084153\C,0,2.054463,0.006895,0.031331\C,0,0
 .74475,-1.633443,-1.41694\H,0,0.755369,-0.962149,-2.279939\H,0,-0.1364
 14,-2.27528,-1.497158\H,0,1.629654,-2.273294,-1.478662\H,0,0.761055,-1
 .567093,0.732675\C,0,2.223363,0.698548,1.387515\H,0,2.075099,0.752922,

 Normal termination of Gaussian 16 at Tue Apr  8 23:47:56 2025.
