 Gaussian 16, Revision C.01,

 ----------------------------------------------------------------------
 #t hf aug-cc-pvdz symm=none int=(grid=ultrafine) guess=(read,tcheck) s
 table=(opt,rrhf)
 ----------------------------------------------------------------------
 -----
 title
 -----
 Symbolic Z-matrix:
 Charge =  0 Multiplicity = 1

 SCF Done:  E(RHF) =  -265.687290830     A.U. after   14 cycles
 Normal termination of Gaussian 16 at Tue Apr  8 22:32:41 2025.
 Gaussian 16:  ES64L-G16RevC.01  3-Jul-2019

 ----------------------------------------------------------------------
 #t hf aug-cc-pvdz iop(5/13=1,5/36=2,99/5=2) pseudo=read geom=check gue
 ss=(read,tcheck) scf=(maxcycle=1)
 ----------------------------------------------------------------------
 -----
 title
 -----
 Structure from the checkpoint file:  "BDE49_expt_1112_mol1.chk"
 Charge =  0 Multiplicity = 1

                         Standard orientation:
 ---------------------------------------------------------------------
 Center     Atomic      Atomic             Coordinates (Angstroms)
 Number     Number       Type             X           Y           Z
 ---------------------------------------------------------------------
      1          6           0       -0.781266   -0.636706   -0.000002
      2          6           0        0.498281    0.136862   -0.000007
      3          8           0        0.566568    1.334995    0.000003
      4          8           0        1.633366   -0.613373    0.000003
      5          1           0        1.416852   -1.552681    0.000004
      6          6           0       -1.951777   -0.005437    0.000000
      7          1           0       -0.736231   -1.723065   -0.000001
      8          1           0       -1.979898    1.078519    0.000000
      9          1           0       -2.891618   -0.544059    0.000003
 ---------------------------------------------------------------------

 SCF Done:  E(RHF) =  -265.772455162     A.U. after    2 cycles

 The electronic state is 1-A.
 Alpha  occ. eigenvalues --  -20.63032 -20.56047 -11.40585 -11.28356 -11.27650
 Alpha  occ. eigenvalues --   -1.42253  -1.33351  -1.08222  -0.89408  -0.82854
 Alpha  occ. eigenvalues --   -0.73768  -0.68700  -0.65531  -0.64769  -0.59628
 Alpha  occ. eigenvalues --   -0.56503  -0.50897  -0.47447  -0.41320
 Alpha virt. eigenvalues --    0.02398   0.03802   0.05536   0.06222   0.06911
 Alpha virt. eigenvalues --    0.10464   0.10500   0.12162   0.13138   0.13342
 Alpha virt. eigenvalues --    0.14041   0.14776   0.14798   0.16020   0.18491

 Mulliken charges:
               1
     1  C    0.657463
     2  C    0.539178
     3  O   -0.419131
     4  O   -0.467078
     5  H    0.180239
     6  C    0.477918
     7  H   -0.507144
     8  H   -0.212109
     9  H   -0.249336
 Sum of Mulliken charges =  -0.00000

 Dipole moment (field-independent basis, Debye):
    X=             -2.8231    Y=             -4.1475    Z=             -0.0000  Tot=              5.0172

 Test job not archived.
 1\1\GINC-SE159\SP\RHF\Aug-CC-pVDZ\C3H4O2\OHZDE\08-Apr-2025\0\\#t hf au
 g-cc-pvdz iop(5/13=1,5/36=2,99/5=2) pseudo=read geom=check guess=(read
 ,tcheck) scf=(maxcycle=1)\\title\\0,1\C,0,0.781266,-0.636706,0.000002\
 C,0,-0.498281,0.136862,0.000007\O,0,-0.566568,1.334995,-0.000003\O,0,-
 1.633366,-0.613373,-0.000003\H,0,-1.416853,-1.552681,-0.000004\C,0,1.9
 51777,-0.005438,0.\H,0,0.73623,-1.723065,0.000001\H,0,1.979898,1.07851
 8,0.\H,0,2.891618,-0.54406,-0.000003\\Version=ES64L-G16RevC.01\State=1
 -A\HF=-265.7724552\RMSD=5.228e-03\Dipole=1.1106993,-1.6317649,0.000008

 Normal termination of Gaussian 16 at Tue Apr  8 22:32:45 2025.
