 Gaussian 16, Revision C.01,

 ----------------------------------------------------------------------
 #t hf aug-cc-pvdz symm=none int=(grid=ultrafine) guess=(read,tcheck) s
 table=(opt,rrhf)
 ----------------------------------------------------------------------
 -----
 title
 -----
 Symbolic Z-matrix:
 Charge =  0 Multiplicity = 1

 SCF Done:  E(RHF) =  -930.594025105     A.U. after   16 cycles
 Normal termination of Gaussian 16 at Wed Apr  9 00:23:29 2025.
 Gaussian 16:  ES64L-G16RevC.01  3-Jul-2019

 ----------------------------------------------------------------------
 #t hf aug-cc-pvdz iop(5/13=1,5/36=2,99/5=2) pseudo=read geom=check gue
 ss=(read,tcheck) scf=(maxcycle=1)
 ----------------------------------------------------------------------
 -----
 title
 -----
 Structure from the checkpoint file:  "BDE49_nonexpt_2699_mol1.chk"
 Charge =  0 Multiplicity = 1

                         Standard orientation:
 ---------------------------------------------------------------------
 Center     Atomic      Atomic             Coordinates (Angstroms)
 Number     Number       Type             X           Y           Z
 ---------------------------------------------------------------------
      1          9           0        3.543312   -1.065375   -0.000014
      2         16           0        3.023196    0.509227    0.000029
      3          6           0        1.283530    0.257688    0.000017
      4          6           0        0.708098   -1.016973   -0.000053
      5          6           0       -0.674673   -1.140359   -0.000062
      6          6           0       -1.462818    0.005038   -0.000004
      7          6           0        0.478431    1.407198    0.000078
      8          1           0        0.924255    2.395829    0.000135
      9          6           0       -0.900798    1.279351    0.000065
     10          1           0       -1.547105    2.145702    0.000110
     11          7           0       -2.929892   -0.131115   -0.000016
     12          8           0       -3.394308   -1.263812   -0.000088
     13          8           0       -3.593999    0.897805    0.000025
     14          1           0        1.337402   -1.895424   -0.000098
     15          1           0       -1.150425   -2.111158   -0.000115
 ---------------------------------------------------------------------

 SCF Done:  E(RHF) =  -930.780340141     A.U. after    2 cycles

 The electronic state is 1-A.
 Alpha  occ. eigenvalues --  -93.65777 -26.16167 -20.62486 -20.62471 -15.92847
 Alpha  occ. eigenvalues --  -11.33608 -11.32883 -11.30208 -11.30081 -11.29439
 Alpha  occ. eigenvalues --  -11.28849  -8.94664  -6.28896  -6.28542  -6.28041
 Alpha  occ. eigenvalues --   -1.67460  -1.55689  -1.37253  -1.21035  -1.12119
 Alpha  occ. eigenvalues --   -1.06540  -1.02462  -0.93462  -0.88950  -0.83856
 Alpha  occ. eigenvalues --   -0.80058  -0.77346  -0.76605  -0.75210  -0.73838
 Alpha  occ. eigenvalues --   -0.73444  -0.68292  -0.67159  -0.64502  -0.64157
 Alpha  occ. eigenvalues --   -0.56891  -0.55327  -0.53098  -0.52258  -0.51847
 Alpha  occ. eigenvalues --   -0.48212  -0.46314  -0.39049  -0.35527
 Alpha virt. eigenvalues --    0.02038   0.02844   0.03401   0.04809   0.05003
 Alpha virt. eigenvalues --    0.06899   0.07210   0.07847   0.08810   0.09281
 Alpha virt. eigenvalues --    0.11575   0.11743   0.12339   0.12814   0.13227

 Mulliken charges:
               1
     1  F   -0.627602
     2  S    0.668717
     3  C    0.545143
     4  C    0.270291
     5  C    0.485623
     6  C    1.038260
     7  C   -0.005193
     8  H   -0.485009
     9  C    0.544625
    10  H   -0.467616
    11  N    0.129985
    12  O   -0.563888
    13  O   -0.567267
    14  H   -0.501631
    15  H   -0.464437
 Sum of Mulliken charges =  -0.00000

 Dipole moment (field-independent basis, Debye):
    X=              3.5144    Y=              1.7937    Z=              0.0001  Tot=              3.9457

 Test job not archived.
 1\1\GINC-SE109\SP\RHF\Aug-CC-pVDZ\C6H4F1N1O2S1\OHZDE\09-Apr-2025\0\\#t
  hf aug-cc-pvdz iop(5/13=1,5/36=2,99/5=2) pseudo=read geom=check guess
 =(read,tcheck) scf=(maxcycle=1)\\title\\0,1\F,0,3.543312,-1.065375,-0.
 000014\S,0,3.023196,0.509227,0.000029\C,0,1.28353,0.257688,0.000017\C,
 0,0.708098,-1.016973,-0.000053\C,0,-0.674673,-1.140359,-0.000062\C,0,-
 1.462818,0.005038,-0.000004\C,0,0.478431,1.407198,0.000078\H,0,0.92425
 5,2.395829,0.000135\C,0,-0.900798,1.279351,0.000065\H,0,-1.547105,2.14
 5702,0.00011\N,0,-2.929892,-0.131115,-0.000016\O,0,-3.394308,-1.263812

 Normal termination of Gaussian 16 at Wed Apr  9 00:23:38 2025.
