 Gaussian 16, Revision C.01,

 ----------------------------------------------------------------------
 #t hf aug-cc-pvdz symm=none int=(grid=ultrafine) guess=(read,tcheck) s
 table=(opt,rrhf)
 ----------------------------------------------------------------------
 -----
 title
 -----
 Symbolic Z-matrix:
 Charge =  0 Multiplicity = 1

 SCF Done:  E(RHF) =  -1110.99828828     A.U. after   14 cycles
 Normal termination of Gaussian 16 at Wed Apr  9 00:01:27 2025.
 Gaussian 16:  ES64L-G16RevC.01  3-Jul-2019

 ----------------------------------------------------------------------
 #t hf aug-cc-pvdz iop(5/13=1,5/36=2,99/5=2) pseudo=read geom=check gue
 ss=(read,tcheck) scf=(maxcycle=1)
 ----------------------------------------------------------------------
 -----
 title
 -----
 Structure from the checkpoint file:  "BDE49_nonexpt_218_mol1.chk"
 Charge =  0 Multiplicity = 1

                         Standard orientation:
 ---------------------------------------------------------------------
 Center     Atomic      Atomic             Coordinates (Angstroms)
 Number     Number       Type             X           Y           Z
 ---------------------------------------------------------------------
      1         17           0        0.115207    1.655900    0.000003
      2          5           0        0.399661   -0.064734   -0.000002
      3          6           0       -1.907783   -0.664137    0.000002
      4          7           0       -3.044648   -0.465338    0.000005
      5          8           0       -0.648370   -0.968870   -0.000001
      6         17           0        1.999375   -0.754911   -0.000005
 ---------------------------------------------------------------------

 SCF Done:  E(RHF) =  -1111.09781249     A.U. after    2 cycles

 The electronic state is 1-A.
 Alpha  occ. eigenvalues -- -103.70824-103.70529 -20.71165 -15.66234 -11.37919
 Alpha  occ. eigenvalues --  -10.74316 -10.74011  -8.40013  -8.39768  -8.39742
 Alpha  occ. eigenvalues --   -8.39716  -8.39471  -8.39442  -7.81864  -1.48479
 Alpha  occ. eigenvalues --   -1.22220  -1.21122  -1.18743  -0.94363  -0.76875
 Alpha  occ. eigenvalues --   -0.72797  -0.69414  -0.60996  -0.57377  -0.55729
 Alpha  occ. eigenvalues --   -0.54070  -0.51690  -0.50617  -0.48357  -0.47464
 Alpha virt. eigenvalues --    0.03483   0.04780   0.05001   0.05578   0.07126
 Alpha virt. eigenvalues --    0.10125   0.10633   0.11343   0.11767   0.13901
 Alpha virt. eigenvalues --    0.14063   0.15072   0.17152   0.17720   0.18158

 Mulliken charges:
               1
     1  Cl  -0.209799
     2  B    0.660397
     3  C    0.024654
     4  N   -0.068180
     5  O   -0.150533
     6  Cl  -0.256538
 Sum of Mulliken charges =  -0.00000

 Dipole moment (field-independent basis, Debye):
    X=              2.9007    Y=              0.1393    Z=             -0.0000  Tot=              2.9041

 Test job not archived.
 1\1\GINC-SE082\SP\RHF\Aug-CC-pVDZ\C1B1Cl2N1O1\OHZDE\09-Apr-2025\0\\#t
 hf aug-cc-pvdz iop(5/13=1,5/36=2,99/5=2) pseudo=read geom=check guess=
 (read,tcheck) scf=(maxcycle=1)\\title\\0,1\Cl,0,0.115207,1.6559,0.0000
 03\B,0,0.399661,-0.064734,-0.000002\C,0,-1.907783,-0.664137,0.000002\N
 ,0,-3.044648,-0.465338,0.000005\O,0,-0.64837,-0.96887,-0.000001\Cl,0,1
 .999375,-0.754911,-0.000005\\Version=ES64L-G16RevC.01\State=1-A\HF=-11
 11.0978125\RMSD=2.515e-03\Dipole=1.1412335,0.0548073,-0.0000035\Quadru
 pole=-6.7819502,2.8016792,3.9802709,-0.7115336,0.0000202,0.0000002\PG=

 Normal termination of Gaussian 16 at Wed Apr  9 00:01:29 2025.
