 Gaussian 16, Revision C.01,

 ----------------------------------------------------------------------
 #t hf aug-cc-pvdz symm=none int=(grid=ultrafine) guess=(read,tcheck) s
 table=(opt,rrhf)
 ----------------------------------------------------------------------
 -----
 title
 -----
 Symbolic Z-matrix:
 Charge =  0 Multiplicity = 1

 SCF Done:  E(RHF) =  -865.271224575     A.U. after   12 cycles
 Normal termination of Gaussian 16 at Wed Apr  9 00:30:24 2025.
 Gaussian 16:  ES64L-G16RevC.01  3-Jul-2019

 ----------------------------------------------------------------------
 #t hf aug-cc-pvdz iop(5/13=1,5/36=2,99/5=2) pseudo=read geom=check gue
 ss=(read,tcheck) scf=(maxcycle=1)
 ----------------------------------------------------------------------
 -----
 title
 -----
 Structure from the checkpoint file:  "BDE49_nonexpt_380_mol1.chk"
 Charge =  0 Multiplicity = 1

                         Standard orientation:
 ---------------------------------------------------------------------
 Center     Atomic      Atomic             Coordinates (Angstroms)
 Number     Number       Type             X           Y           Z
 ---------------------------------------------------------------------
      1          9           0       -1.855866    1.197611    0.083044
      2          9           0       -2.732502   -0.898627   -0.035238
      3          5           0       -1.677118   -0.109836    0.010449
      4         15           0        1.006803    0.011779    0.098738
      5          8           0        1.298810    0.662145    1.371741
      6          8           0        1.959486   -1.195564   -0.302451
      7          1           0        2.326889   -1.638939    0.471429
      8          8           0        1.016944    0.913350   -1.209398
      9          1           0        1.572009    1.695777   -1.108857
     10          8           0       -0.440245   -0.676831   -0.025659
 ---------------------------------------------------------------------

 SCF Done:  E(RHF) =  -865.541218834     A.U. after    2 cycles

 The electronic state is 1-A.
 Alpha  occ. eigenvalues --  -81.47778 -26.15879 -26.15557 -20.64148 -20.64042
 Alpha  occ. eigenvalues --  -20.63882 -20.55187  -7.95624  -7.79919  -5.10328
 Alpha  occ. eigenvalues --   -5.10233  -5.10194  -1.71218  -1.69106  -1.42655
 Alpha  occ. eigenvalues --   -1.38159  -1.37689  -1.28858  -0.92650  -0.88685
 Alpha  occ. eigenvalues --   -0.85131  -0.82947  -0.79537  -0.78569  -0.75431
 Alpha  occ. eigenvalues --   -0.74192  -0.73546  -0.71106  -0.67646  -0.65719
 Alpha  occ. eigenvalues --   -0.63603  -0.61874  -0.59429  -0.58437  -0.51692
 Alpha  occ. eigenvalues --   -0.51541
 Alpha virt. eigenvalues --    0.02821   0.04194   0.05383   0.06181   0.06614
 Alpha virt. eigenvalues --    0.08363   0.09660   0.10109   0.12329   0.14131
 Alpha virt. eigenvalues --    0.17378   0.17610   0.18474   0.19629   0.21283

 Mulliken charges:
               1
     1  F   -0.392287
     2  F   -0.469968
     3  B    1.010389
     4  P    2.443412
     5  O   -0.810833
     6  O   -0.648948
     7  H    0.164543
     8  O   -0.656496
     9  H    0.175713
    10  O   -0.815525
 Sum of Mulliken charges =  -0.00000

 Dipole moment (field-independent basis, Debye):
    X=              1.8918    Y=             -0.5908    Z=             -1.1410  Tot=              2.2869

 Test job not archived.
 1\1\GINC-SE097\SP\RHF\Aug-CC-pVDZ\B1F2H2O4P1\OHZDE\09-Apr-2025\0\\#t h
 f aug-cc-pvdz iop(5/13=1,5/36=2,99/5=2) pseudo=read geom=check guess=(
 read,tcheck) scf=(maxcycle=1)\\title\\0,1\F,0,-1.855866,1.197611,0.083
 044\F,0,-2.732502,-0.898627,-0.035238\B,0,-1.677118,-0.109836,0.010449
 \P,0,1.006803,0.011779,0.098738\O,0,1.29881,0.662145,1.371741\O,0,1.95
 9486,-1.195564,-0.302451\H,0,2.326889,-1.638939,0.471429\O,0,1.016944,
 0.91335,-1.209398\H,0,1.572009,1.695777,-1.108857\O,0,-0.440245,-0.676
 831,-0.025659\\Version=ES64L-G16RevC.01\State=1-A\HF=-865.5412188\RMSD

 Normal termination of Gaussian 16 at Wed Apr  9 00:30:28 2025.
