 Gaussian 16, Revision C.01,

 ----------------------------------------------------------------------
 #t hf aug-cc-pvdz symm=none int=(grid=ultrafine) guess=(read,tcheck) s
 table=(opt,rrhf)
 ----------------------------------------------------------------------
 -----
 title
 -----
 Symbolic Z-matrix:
 Charge =  0 Multiplicity = 1

 SCF Done:  E(RHF) =  -1617.22790706     A.U. after   16 cycles
 Normal termination of Gaussian 16 at Tue Apr  8 23:25:18 2025.
 Gaussian 16:  ES64L-G16RevC.01  3-Jul-2019

 ----------------------------------------------------------------------
 #t hf aug-cc-pvdz iop(5/13=1,5/36=2,99/5=2) pseudo=read geom=check gue
 ss=(read,tcheck) scf=(maxcycle=1)
 ----------------------------------------------------------------------
 -----
 title
 -----
 Structure from the checkpoint file:  "BDE49_nonexpt_1241_mol1.chk"
 Charge =  0 Multiplicity = 1

                         Standard orientation:
 ---------------------------------------------------------------------
 Center     Atomic      Atomic             Coordinates (Angstroms)
 Number     Number       Type             X           Y           Z
 ---------------------------------------------------------------------
      1         17           0        1.720739    2.071111   -0.157171
      2         16           0        0.440645   -0.949301    0.486748
      3          8           0        0.531397   -2.317728   -0.011205
      4          8           0        0.787411   -0.622398    1.859780
      5         15           0        1.754584    0.137080   -0.977606
      6          6           0       -1.209571   -0.336523    0.169433
      7          6           0       -1.715996    0.695011    0.959166
      8          1           0       -1.116833    1.100305    1.763815
      9          6           0       -2.999125    1.168393    0.700060
     10          1           0       -3.409715    1.966860    1.306689
     11          6           0       -3.754399    0.613407   -0.332314
     12          1           0       -4.753366    0.985732   -0.528628
     13          6           0       -3.236410   -0.422103   -1.109829
     14          1           0       -3.831835   -0.857729   -1.903485
     15          6           0       -1.955073   -0.905853   -0.862606
     16          1           0       -1.541130   -1.722401   -1.440189
     17          6           0        3.309226   -0.500149   -0.218695
     18          1           0        3.369983   -1.568242   -0.442810
     19          1           0        3.327534   -0.345251    0.860487
     20          1           0        4.151359    0.012368   -0.687747
 ---------------------------------------------------------------------

 SCF Done:  E(RHF) =  -1617.46170074     A.U. after    2 cycles

 The electronic state is 1-A.
 Alpha  occ. eigenvalues -- -103.67425 -93.78027 -81.35240 -20.56701 -20.56624
 Alpha  occ. eigenvalues --  -11.29282 -11.28021 -11.27928 -11.27650 -11.26954
 Alpha  occ. eigenvalues --  -11.26897 -11.26778 -10.70736  -9.04886  -8.36438
 Alpha  occ. eigenvalues --   -8.36164  -8.36141  -7.84990  -6.39500  -6.39254
 Alpha  occ. eigenvalues --   -6.39184  -4.98771  -4.98700  -4.98390  -1.41843
 Alpha  occ. eigenvalues --   -1.30928  -1.17569  -1.15572  -1.05538  -1.04061
 Alpha  occ. eigenvalues --   -0.99756  -0.92035  -0.85984  -0.83180  -0.76682
 Alpha  occ. eigenvalues --   -0.73426  -0.68458  -0.67415  -0.66589  -0.64710
 Alpha  occ. eigenvalues --   -0.64442  -0.62255  -0.61282  -0.59480  -0.55615
 Alpha  occ. eigenvalues --   -0.55159  -0.53461  -0.53244  -0.52692  -0.51169
 Alpha  occ. eigenvalues --   -0.51065  -0.49548  -0.49136  -0.43594  -0.38157
 Alpha  occ. eigenvalues --   -0.37259  -0.36598
 Alpha virt. eigenvalues --    0.02917   0.03772   0.03955   0.04972   0.05599
 Alpha virt. eigenvalues --    0.06045   0.06503   0.06963   0.07563   0.07675
 Alpha virt. eigenvalues --    0.08246   0.08479   0.09385   0.10640   0.11447

 Mulliken charges:
               1
     1  Cl  -0.438977
     2  S    2.830791
     3  O   -1.204630
     4  O   -1.217619
     5  P    0.620574
     6  C    0.099482
     7  C    0.081168
     8  H   -0.534051
     9  C    0.617310
    10  H   -0.443338
    11  C    0.464849
    12  H   -0.431726
    13  C    0.571700
    14  H   -0.442034
    15  C    0.054260
    16  H   -0.537724
    17  C    0.193371
    18  H   -0.076063
    19  H   -0.076832
    20  H   -0.130511
 Sum of Mulliken charges =  -0.00000

 Dipole moment (field-independent basis, Debye):
    X=             -1.4656    Y=              2.0455    Z=             -2.8036  Tot=              3.7673

 Test job not archived.
 1\1\GINC-SE252\SP\RHF\Aug-CC-pVDZ\C7H8Cl1O2P1S1\OHZDE\08-Apr-2025\0\\#
 t hf aug-cc-pvdz iop(5/13=1,5/36=2,99/5=2) pseudo=read geom=check gues
 s=(read,tcheck) scf=(maxcycle=1)\\title\\0,1\Cl,0,1.720739,2.071111,-0
 .157171\S,0,0.440645,-0.949301,0.486748\O,0,0.531397,-2.317728,-0.0112
 05\O,0,0.787411,-0.622398,1.85978\P,0,1.754584,0.13708,-0.977606\C,0,-
 1.209571,-0.336523,0.169433\C,0,-1.715996,0.695011,0.959166\H,0,-1.116
 833,1.100305,1.763815\C,0,-2.999125,1.168393,0.70006\H,0,-3.409715,1.9
 6686,1.306689\C,0,-3.754399,0.613407,-0.332314\H,0,-4.753366,0.985732,

 Normal termination of Gaussian 16 at Tue Apr  8 23:25:34 2025.
