 Gaussian 16, Revision C.01,

 ----------------------------------------------------------------------
 #t hf aug-cc-pvdz symm=none int=(grid=ultrafine) guess=(read,tcheck) s
 table=(opt,rrhf)
 ----------------------------------------------------------------------
 -----
 title
 -----
 Symbolic Z-matrix:
 Charge =  0 Multiplicity = 1

 SCF Done:  E(RHF) =  -281.242172161     A.U. after   12 cycles
 Normal termination of Gaussian 16 at Wed Apr  9 00:35:54 2025.
 Gaussian 16:  ES64L-G16RevC.01  3-Jul-2019

 ----------------------------------------------------------------------
 #t hf aug-cc-pvdz iop(5/13=1,5/36=2,99/5=2) pseudo=read geom=check gue
 ss=(read,tcheck) scf=(maxcycle=1)
 ----------------------------------------------------------------------
 -----
 title
 -----
 Structure from the checkpoint file:  "BDE49_nonexpt_534_mol1.chk"
 Charge =  0 Multiplicity = 1

                         Standard orientation:
 ---------------------------------------------------------------------
 Center     Atomic      Atomic             Coordinates (Angstroms)
 Number     Number       Type             X           Y           Z
 ---------------------------------------------------------------------
      1          1           0       -0.000223    3.566490    1.030078
      2          1           0       -0.000223    3.566490   -1.030078
      3          5           0        0.000005    2.965523    0.000000
      4          6           0        0.000000    1.422631    0.000000
      5          6           0        0.000000    0.693959   -1.208609
      6          1           0        0.000000    1.235800   -2.148537
      7          6           0        0.000000    0.693959    1.208609
      8          1           0        0.000000    1.235800    2.148537
      9          1           0        0.000142   -3.566490   -1.030078
     10          1           0        0.000142   -3.566490    1.030078
     11          5           0        0.000005   -2.965523   -0.000000
     12          6           0        0.000006   -1.422631   -0.000000
     13          6           0        0.000005   -0.693959    1.208609
     14          1           0        0.000006   -1.235800    2.148537
     15          6           0        0.000005   -0.693959   -1.208609
     16          1           0        0.000006   -1.235800   -2.148537
 ---------------------------------------------------------------------

 SCF Done:  E(RHF) =  -281.324169803     A.U. after    2 cycles

 The electronic state is 1-A'.
 Alpha  occ. eigenvalues --  -11.25832 -11.25827 -11.25717 -11.25709 -11.23825
 Alpha  occ. eigenvalues --  -11.23816  -7.61537  -7.61535  -1.14604  -1.01991
 Alpha  occ. eigenvalues --   -1.01496  -0.84160  -0.83378  -0.73730  -0.69481
 Alpha  occ. eigenvalues --   -0.64427  -0.63474  -0.61488  -0.59904  -0.51287
 Alpha  occ. eigenvalues --   -0.51205  -0.51166  -0.48126  -0.47805  -0.46664
 Alpha  occ. eigenvalues --   -0.35801  -0.34874
 Alpha virt. eigenvalues --    0.01460   0.03344   0.03798   0.03933   0.05289
 Alpha virt. eigenvalues --    0.05389   0.05506   0.06074   0.07178   0.07471
 Alpha virt. eigenvalues --    0.07895   0.09795   0.09912   0.09965   0.11174

 Mulliken charges:
               1
     1  H    0.413137
     2  H    0.413137
     3  B   -1.168286
     4  C   -0.074246
     5  C    0.731582
     6  H   -0.523453
     7  C    0.731582
     8  H   -0.523453
     9  H    0.413137
    10  H    0.413137
    11  B   -1.168286
    12  C   -0.074246
    13  C    0.731582
    14  H   -0.523453
    15  C    0.731582
    16  H   -0.523453
 Sum of Mulliken charges =  -0.00000

 Dipole moment (field-independent basis, Debye):
    X=              0.0001    Y=             -0.0000    Z=              0.0000  Tot=              0.0001

 Test job not archived.
 1\1\GINC-SE041\SP\RHF\Aug-CC-pVDZ\C6H8B2\OHZDE\09-Apr-2025\0\\#t hf au
 g-cc-pvdz iop(5/13=1,5/36=2,99/5=2) pseudo=read geom=check guess=(read
 ,tcheck) scf=(maxcycle=1)\\title\\0,1\H,0,-0.000223,3.56649,1.030078\H
 ,0,-0.000223,3.56649,-1.030078\B,0,0.000005,2.965523,0.\C,0,0.,1.42263
 1,0.\C,0,0.,0.693959,-1.208609\H,0,0.,1.2358,-2.148537\C,0,0.,0.693959
 ,1.208609\H,0,0.,1.2358,2.148537\H,0,0.000142,-3.56649,-1.030078\H,0,0
 .000142,-3.56649,1.030078\B,0,0.000005,-2.965523,0.\C,0,0.000006,-1.42
 2631,0.\C,0,0.000005,-0.693959,1.208609\H,0,0.000006,-1.2358,2.148537\

 Normal termination of Gaussian 16 at Wed Apr  9 00:35:59 2025.
