 Gaussian 16, Revision C.01,

 ----------------------------------------------------------------------
 #t hf aug-cc-pvdz symm=none int=(grid=ultrafine) guess=(read,tcheck) s
 table=(opt,rrhf)
 ----------------------------------------------------------------------
 -----
 title
 -----
 Symbolic Z-matrix:
 Charge =  0 Multiplicity = 1

 SCF Done:  E(RHF) =  -1375.27930009     A.U. after   13 cycles
 Normal termination of Gaussian 16 at Wed Apr  9 00:49:48 2025.
 Gaussian 16:  ES64L-G16RevC.01  3-Jul-2019

 ----------------------------------------------------------------------
 #t hf aug-cc-pvdz iop(5/13=1,5/36=2,99/5=2) pseudo=read geom=check gue
 ss=(read,tcheck) scf=(maxcycle=1)
 ----------------------------------------------------------------------
 -----
 title
 -----
 Structure from the checkpoint file:  "BDE49_nonexpt_911_mol1.chk"
 Charge =  0 Multiplicity = 1

                         Standard orientation:
 ---------------------------------------------------------------------
 Center     Atomic      Atomic             Coordinates (Angstroms)
 Number     Number       Type             X           Y           Z
 ---------------------------------------------------------------------
      1         16           0       -0.219640   -0.802948   -0.553072
      2          5           0        1.322020   -0.065127    0.020361
      3         16           0        2.880141   -0.992915   -0.181425
      4          6           0       -1.569708    0.445881   -0.227443
      5          6           0       -1.690207    1.419172   -1.400306
      6          1           0       -0.754630    1.950580   -1.580662
      7          1           0       -2.467636    2.160993   -1.188995
      8          1           0       -1.963797    0.891175   -2.317512
      9          6           0       -2.880370   -0.309326    0.040986
     10          6           0       -2.911993   -1.104095    1.348119
     11          1           0       -3.094660   -0.968965   -0.808025
     12          1           0       -3.681795    0.438864    0.052431
     13          1           0       -2.147008   -1.883331    1.362451
     14          1           0       -3.884075   -1.584788    1.483801
     15          1           0       -2.739921   -0.451325    2.209269
     16          1           0       -1.280934    0.983044    0.679228
     17         16           0        1.380056    1.580517    0.807074
     18          1           0        2.702039    1.611630    1.050485
     19          1           0        2.367084   -2.086505   -0.773633
 ---------------------------------------------------------------------

 SCF Done:  E(RHF) =  -1375.38982924     A.U. after    2 cycles

 The electronic state is 1-A.
 Alpha  occ. eigenvalues --  -93.54491 -93.54141 -93.53012 -11.28622 -11.24585
 Alpha  occ. eigenvalues --  -11.23750 -11.22889  -8.84447  -8.84085  -8.83001
 Alpha  occ. eigenvalues --   -7.69439  -6.18646  -6.18399  -6.18279  -6.18131
 Alpha  occ. eigenvalues --   -6.18030  -6.17775  -6.17180  -6.16931  -6.16735
 Alpha  occ. eigenvalues --   -1.09815  -1.01213  -0.99184  -0.94988  -0.93157
 Alpha  occ. eigenvalues --   -0.86799  -0.78325  -0.66928  -0.62027  -0.61091
 Alpha  occ. eigenvalues --   -0.60264  -0.58155  -0.57723  -0.53755  -0.52544
 Alpha  occ. eigenvalues --   -0.50106  -0.49566  -0.48658  -0.46798  -0.44407
 Alpha  occ. eigenvalues --   -0.44125  -0.41751  -0.37188  -0.35547
 Alpha virt. eigenvalues --    0.03412   0.04307   0.04627   0.04844   0.05815
 Alpha virt. eigenvalues --    0.06333   0.06828   0.06872   0.07189   0.08213
 Alpha virt. eigenvalues --    0.08858   0.08892   0.09942   0.10248   0.10362

 Mulliken charges:
               1
     1  S    0.039295
     2  B    0.664759
     3  S   -0.304903
     4  C   -0.651852
     5  C    0.407278
     6  H   -0.122770
     7  H   -0.066192
     8  H   -0.011229
     9  C    0.538189
    10  C    0.378133
    11  H   -0.115260
    12  H   -0.073671
    13  H   -0.063068
    14  H   -0.063540
    15  H   -0.064603
    16  H   -0.257570
    17  S   -0.197648
    18  H   -0.040822
    19  H    0.005472
 Sum of Mulliken charges =  -0.00000

 Dipole moment (field-independent basis, Debye):
    X=             -1.5037    Y=              0.4908    Z=              0.0183  Tot=              1.5818

 Test job not archived.
 1\1\GINC-SE090\SP\RHF\Aug-CC-pVDZ\C4H11B1S3\OHZDE\09-Apr-2025\0\\#t hf
  aug-cc-pvdz iop(5/13=1,5/36=2,99/5=2) pseudo=read geom=check guess=(r
 ead,tcheck) scf=(maxcycle=1)\\title\\0,1\S,0,-0.21964,-0.802948,-0.553
 072\B,0,1.32202,-0.065127,0.020361\S,0,2.880141,-0.992915,-0.181425\C,
 0,-1.569708,0.445881,-0.227443\C,0,-1.690207,1.419172,-1.400306\H,0,-0
 .75463,1.95058,-1.580662\H,0,-2.467636,2.160993,-1.188995\H,0,-1.96379
 7,0.891175,-2.317512\C,0,-2.88037,-0.309326,0.040986\C,0,-2.911993,-1.
 104095,1.348119\H,0,-3.09466,-0.968965,-0.808025\H,0,-3.681795,0.43886

 Normal termination of Gaussian 16 at Wed Apr  9 00:49:58 2025.
