 Gaussian 16, Revision C.01,

 ----------------------------------------------------------------------
 #t hf aug-cc-pvdz symm=none int=(grid=ultrafine) guess=(read,tcheck) s
 table=opt
 ----------------------------------------------------------------------
 -----
 title
 -----
 Symbolic Z-matrix:
 Charge =  0 Multiplicity = 2

 SCF Done:  E(UHF) =  -515.062474102     A.U. after   22 cycles
 Normal termination of Gaussian 16 at Tue Apr  8 23:18:50 2025.
 Gaussian 16:  ES64L-G16RevC.01  3-Jul-2019

 ----------------------------------------------------------------------
 #t hf aug-cc-pvdz iop(5/13=1,5/36=2,99/5=2) pseudo=read geom=check gue
 ss=(read,tcheck) scf=(maxcycle=1)
 ----------------------------------------------------------------------
 -----
 title
 -----
 Structure from the checkpoint file:  "BDE49_nonexpt_112_mol2.chk"
 Charge =  0 Multiplicity = 2

                         Standard orientation:
 ---------------------------------------------------------------------
 Center     Atomic      Atomic             Coordinates (Angstroms)
 Number     Number       Type             X           Y           Z
 ---------------------------------------------------------------------
      1          5           0        1.617067    0.935287    0.000008
      2         16           0        0.681255   -0.548649   -0.000005
      3          6           0       -0.964979   -0.020928   -0.000000
      4          7           0       -2.074571    0.307075    0.000004
      5          1           0        1.326463    2.077987    0.000019
 ---------------------------------------------------------------------

 SCF Done:  E(UHF) =  -515.116860289     A.U. after    2 cycles

 The electronic state is 2-A.
 Alpha  occ. eigenvalues --  -93.61903 -15.66545 -11.32634  -8.91739  -7.70743
 Alpha  occ. eigenvalues --   -6.25859  -6.25569  -6.25305  -1.21493  -1.06318
 Alpha  occ. eigenvalues --   -0.76390  -0.65808  -0.56971  -0.55108  -0.53961
 Alpha  occ. eigenvalues --   -0.47318  -0.42399  -0.38895
 Alpha virt. eigenvalues --    0.02257   0.03865   0.04811   0.05769   0.07463
 Alpha virt. eigenvalues --    0.09204   0.10260   0.10765   0.12359   0.12464
 Alpha virt. eigenvalues --    0.13374   0.14130   0.16332   0.16804   0.18277

  Beta  occ. eigenvalues --  -93.61939 -15.66674 -11.32230  -8.91739  -7.68749
  Beta  occ. eigenvalues --   -6.26029  -6.25603  -6.25418  -1.21385  -1.05426
  Beta  occ. eigenvalues --   -0.72446  -0.63879  -0.56877  -0.54198  -0.53909
  Beta  occ. eigenvalues --   -0.46739  -0.42642
  Beta virt. eigenvalues --    0.02298   0.03662   0.04579   0.05772   0.06776
  Beta virt. eigenvalues --    0.08950   0.09622   0.10362   0.11211   0.12366
  Beta virt. eigenvalues --    0.12749   0.13528   0.14398   0.16993   0.17242

 Mulliken charges and spin densities:
               1          2
     1  B   -0.164506   1.080421
     2  S    0.470521  -0.123090
     3  C   -0.504248   0.135093
     4  N   -0.136063  -0.049717
     5  H    0.334296  -0.042708
 Sum of Mulliken charges =  -0.00000   1.00000

 Dipole moment (field-independent basis, Debye):
    X=              2.9763    Y=             -0.0319    Z=             -0.0000  Tot=              2.9765
                          Isotropic Fermi Contact Couplings
        Atom                 a.u.       MegaHertz       Gauss      10(-4) cm-1
     1  B(11)              0.29708     426.12577     152.05227     142.14026
     2  S(33)              0.16908      58.07300      20.72189      19.37107
     3  C(13)              0.09702     109.06560      38.91732      36.38037
     4  N(14)             -0.00657      -2.12142      -0.75698      -0.70763
     5  H(1)              -0.00010      -0.43112      -0.15383      -0.14380
 --------------------------------------------------------
       Center         ----  Spin Dipole Couplings  ----
                      3XX-RR        3YY-RR        3ZZ-RR

 Normal termination of Gaussian 16 at Tue Apr  8 23:18:52 2025.
