 Gaussian 16, Revision C.01,

 ----------------------------------------------------------------------
 #t hf aug-cc-pvdz symm=none int=(grid=ultrafine) guess=(read,tcheck) s
 table=(opt,rrhf)
 ----------------------------------------------------------------------
 -----
 title
 -----
 Symbolic Z-matrix:
 Charge =  0 Multiplicity = 1

 SCF Done:  E(RHF) =  -1372.70694096     A.U. after   15 cycles
 Normal termination of Gaussian 16 at Wed Apr  9 00:51:47 2025.
 Gaussian 16:  ES64L-G16RevC.01  3-Jul-2019

 ----------------------------------------------------------------------
 #t hf aug-cc-pvdz iop(5/13=1,5/36=2,99/5=2) pseudo=read geom=check gue
 ss=(read,tcheck) scf=(maxcycle=1)
 ----------------------------------------------------------------------
 -----
 title
 -----
 Structure from the checkpoint file:  "BDE49_nonexpt_981_mol1.chk"
 Charge =  0 Multiplicity = 1

                         Standard orientation:
 ---------------------------------------------------------------------
 Center     Atomic      Atomic             Coordinates (Angstroms)
 Number     Number       Type             X           Y           Z
 ---------------------------------------------------------------------
      1         16           0        1.176199    1.031605   -0.408065
      2          7           0        2.214747   -0.451094   -0.007219
      3          8           0        1.721289   -1.541973   -0.040329
      4          8           0        3.349736   -0.114893    0.245862
      5          8           0       -0.278588    0.285934   -0.786830
      6          6           0       -1.222979    0.184381    0.227393
      7         17           0       -2.596720   -0.710866   -0.439140
      8          9           0       -1.619855    1.402989    0.626868
      9          9           0       -0.733457   -0.447671    1.298794
 ---------------------------------------------------------------------

 SCF Done:  E(RHF) =  -1372.92448203     A.U. after    2 cycles

 The electronic state is 1-A.
 Alpha  occ. eigenvalues -- -103.71250 -93.70312 -26.20153 -26.20141 -20.70483
 Alpha  occ. eigenvalues --  -20.66761 -20.66016 -15.96757 -11.58854 -10.74609
 Alpha  occ. eigenvalues --   -8.99002  -8.40338  -8.39982  -8.39979  -6.33124
 Alpha  occ. eigenvalues --   -6.32835  -6.32310  -1.78141  -1.72743  -1.59919
 Alpha  occ. eigenvalues --   -1.45516  -1.42584  -1.22522  -1.08359  -1.00845
 Alpha  occ. eigenvalues --   -0.91881  -0.90201  -0.86784  -0.85581  -0.80933
 Alpha  occ. eigenvalues --   -0.79455  -0.77977  -0.76985  -0.75758  -0.72832
 Alpha  occ. eigenvalues --   -0.67565  -0.65027  -0.60785  -0.56101  -0.52330
 Alpha  occ. eigenvalues --   -0.51942  -0.51873  -0.49937  -0.45452
 Alpha virt. eigenvalues --    0.04133   0.05248   0.05450   0.06906   0.09040
 Alpha virt. eigenvalues --    0.09296   0.09660   0.10062   0.11960   0.12532
 Alpha virt. eigenvalues --    0.13947   0.14325   0.15619   0.15841   0.16614

 Mulliken charges:
               1
     1  S    1.059575
     2  N    0.355188
     3  O   -0.449379
     4  O   -0.506567
     5  O   -0.698545
     6  C    0.845492
     7  Cl  -0.107359
     8  F   -0.252476
     9  F   -0.245929
 Sum of Mulliken charges =  -0.00000

 Dipole moment (field-independent basis, Debye):
    X=             -1.3862    Y=              2.0007    Z=             -0.9587  Tot=              2.6160

 Test job not archived.
 1\1\GINC-SE048\SP\RHF\Aug-CC-pVDZ\C1Cl1F2N1O3S1\OHZDE\09-Apr-2025\0\\#
 t hf aug-cc-pvdz iop(5/13=1,5/36=2,99/5=2) pseudo=read geom=check gues
 s=(read,tcheck) scf=(maxcycle=1)\\title\\0,1\S,0,1.176199,1.031605,-0.
 408065\N,0,2.214747,-0.451094,-0.007219\O,0,1.721289,-1.541973,-0.0403
 29\O,0,3.349736,-0.114893,0.245862\O,0,-0.278588,0.285934,-0.78683\C,0
 ,-1.222979,0.184381,0.227393\Cl,0,-2.59672,-0.710866,-0.43914\F,0,-1.6
 19855,1.402989,0.626868\F,0,-0.733457,-0.447671,1.298794\\Version=ES64
 L-G16RevC.01\State=1-A\HF=-1372.924482\RMSD=4.087e-03\Dipole=-0.545357

 Normal termination of Gaussian 16 at Wed Apr  9 00:51:53 2025.
