 Gaussian 16, Revision C.01,

 ----------------------------------------------------------------------
 #t hf aug-cc-pvdz symm=none int=(grid=ultrafine) guess=(read,tcheck) s
 table=(opt,rrhf)
 ----------------------------------------------------------------------
 -----
 title
 -----
 Symbolic Z-matrix:
 Charge =  0 Multiplicity = 1

 SCF Done:  E(RHF) =  -170.982598831     A.U. after   13 cycles
 Normal termination of Gaussian 16 at Tue Apr  8 23:00:37 2025.
 Gaussian 16:  ES64L-G16RevC.01  3-Jul-2019

 ----------------------------------------------------------------------
 #t hf aug-cc-pvdz iop(5/13=1,5/36=2,99/5=2) pseudo=read geom=check gue
 ss=(read,tcheck) scf=(maxcycle=1)
 ----------------------------------------------------------------------
 -----
 title
 -----
 Structure from the checkpoint file:  "BDE49_expt_299_mol1.chk"
 Charge =  0 Multiplicity = 1

                         Standard orientation:
 ---------------------------------------------------------------------
 Center     Atomic      Atomic             Coordinates (Angstroms)
 Number     Number       Type             X           Y           Z
 ---------------------------------------------------------------------
      1          6           0       -0.879144    0.110430   -0.000104
      2          7           0       -1.943566   -0.331803    0.000068
      3          6           0        0.479258    0.650780   -0.000008
      4          6           0        1.556909   -0.447002    0.000016
      5          1           0        0.588302    1.294732    0.877857
      6          1           0        0.588390    1.294783   -0.877824
      7          1           0        1.468646   -1.080681    0.884048
      8          1           0        2.548761    0.009184    0.000072
      9          1           0        1.468725   -1.080639   -0.884055
 ---------------------------------------------------------------------

 SCF Done:  E(RHF) =  -171.036194823     A.U. after    2 cycles

 The electronic state is 1-A.
 Alpha  occ. eigenvalues --  -15.63621 -11.29686 -11.28639 -11.26057  -1.19289
 Alpha  occ. eigenvalues --   -1.07473  -0.91171  -0.70388  -0.66066  -0.59128
 Alpha  occ. eigenvalues --   -0.56159  -0.54568  -0.53635  -0.45659  -0.45609
 Alpha virt. eigenvalues --    0.02668   0.04388   0.04549   0.05619   0.07377
 Alpha virt. eigenvalues --    0.09373   0.11270   0.11570   0.12112   0.13862
 Alpha virt. eigenvalues --    0.14949   0.16099   0.16572   0.17220   0.17999

 Mulliken charges:
               1
     1  C   -0.272587
     2  N   -0.196781
     3  C    0.191279
     4  C    0.361500
     5  H    0.039919
     6  H    0.039871
     7  H   -0.055108
     8  H   -0.052987
     9  H   -0.055106
 Sum of Mulliken charges =  -0.00000

 Dipole moment (field-independent basis, Debye):
    X=              4.0483    Y=              1.3812    Z=             -0.0001  Tot=              4.2774

 Test job not archived.
 1\1\GINC-SE455\SP\RHF\Aug-CC-pVDZ\C3H5N1\OHZDE\08-Apr-2025\0\\#t hf au
 g-cc-pvdz iop(5/13=1,5/36=2,99/5=2) pseudo=read geom=check guess=(read
 ,tcheck) scf=(maxcycle=1)\\title\\0,1\C,0,-0.879144,0.11043,-0.000104\
 N,0,-1.943566,-0.331803,0.000068\C,0,0.479258,0.65078,-0.000008\C,0,1.
 556909,-0.447002,0.000016\H,0,0.588302,1.294732,0.877857\H,0,0.58839,1
 .294783,-0.877824\H,0,1.468646,-1.080681,0.884048\H,0,2.548761,0.00918
 4,0.000072\H,0,1.468725,-1.080639,-0.884055\\Version=ES64L-G16RevC.01\
 State=1-A\HF=-171.0361948\RMSD=3.650e-03\Dipole=1.5927113,0.5434049,-0

 Normal termination of Gaussian 16 at Tue Apr  8 23:00:39 2025.
