 Gaussian 16, Revision C.01,

 ----------------------------------------------------------------------
 #t hf aug-cc-pvdz symm=none int=(grid=ultrafine) guess=(read,tcheck) s
 table=(opt,rrhf)
 ----------------------------------------------------------------------
 -----
 title
 -----
 Symbolic Z-matrix:
 Charge =  0 Multiplicity = 1

 SCF Done:  E(RHF) =  -360.827745060     A.U. after   15 cycles
 Normal termination of Gaussian 16 at Tue Apr  8 22:37:58 2025.
 Gaussian 16:  ES64L-G16RevC.01  3-Jul-2019

 ----------------------------------------------------------------------
 #t hf aug-cc-pvdz iop(5/13=1,5/36=2,99/5=2) pseudo=read geom=check gue
 ss=(read,tcheck) scf=(maxcycle=1)
 ----------------------------------------------------------------------
 -----
 title
 -----
 Structure from the checkpoint file:  "BDE49_expt_1246_mol1.chk"
 Charge =  0 Multiplicity = 1

                         Standard orientation:
 ---------------------------------------------------------------------
 Center     Atomic      Atomic             Coordinates (Angstroms)
 Number     Number       Type             X           Y           Z
 ---------------------------------------------------------------------
      1          6           0       -0.009307    0.615349   -0.445979
      2          7           0       -0.822578   -0.593097    0.018106
      3          8           0       -1.122746   -0.642296    1.201480
      4          8           0       -1.109187   -1.433641   -0.819460
      5          6           0        1.350339    0.586347    0.257808
      6          6           0        2.184489   -0.663781   -0.033221
      7          1           0        1.181455    0.689972    1.333212
      8          1           0        1.891682    1.480572   -0.068315
      9          1           0        2.358163   -0.787910   -1.105824
     10          1           0        1.693774   -1.569032    0.332926
     11          6           0       -0.815733    1.878860   -0.165161
     12          1           0        0.103614    0.447434   -1.517016
     13          1           0       -0.264324    2.747415   -0.532115
     14          1           0       -0.983868    1.994999    0.906283
     15          1           0       -1.783294    1.851184   -0.671061
     16          1           0        3.157582   -0.596110    0.458334
 ---------------------------------------------------------------------

 SCF Done:  E(RHF) =  -360.939999924     A.U. after    2 cycles

 The electronic state is 1-A.
 Alpha  occ. eigenvalues --  -20.61692 -20.61349 -15.90409 -11.31910 -11.26195
 Alpha  occ. eigenvalues --  -11.25790 -11.24176  -1.54395  -1.36181  -1.13251
 Alpha  occ. eigenvalues --   -1.02014  -0.95122  -0.87909  -0.81491  -0.75127
 Alpha  occ. eigenvalues --   -0.72778  -0.72384  -0.64096  -0.61594  -0.60592
 Alpha  occ. eigenvalues --   -0.58514  -0.55017  -0.52879  -0.51197  -0.50689
 Alpha  occ. eigenvalues --   -0.50293  -0.48166  -0.46996
 Alpha virt. eigenvalues --    0.02870   0.03826   0.04321   0.05203   0.06383
 Alpha virt. eigenvalues --    0.06719   0.06838   0.08189   0.09065   0.09386
 Alpha virt. eigenvalues --    0.11344   0.12188   0.13820   0.14179   0.15015

 Mulliken charges:
               1
     1  C    0.074016
     2  N    0.278900
     3  O   -0.590195
     4  O   -0.583333
     5  C    0.263788
     6  C    0.463077
     7  H   -0.032895
     8  H   -0.084029
     9  H   -0.054502
    10  H   -0.039054
    11  C    0.621356
    12  H   -0.267200
    13  H   -0.005329
    14  H    0.047706
    15  H   -0.039958
    16  H   -0.052346
 Sum of Mulliken charges =  -0.00000

 Dipole moment (field-independent basis, Debye):
    X=              2.5898    Y=              3.6112    Z=             -1.0598  Tot=              4.5684

 Test job not archived.
 1\1\GINC-SE080\SP\RHF\Aug-CC-pVDZ\C4H9N1O2\OHZDE\08-Apr-2025\0\\#t hf
 aug-cc-pvdz iop(5/13=1,5/36=2,99/5=2) pseudo=read geom=check guess=(re
 ad,tcheck) scf=(maxcycle=1)\\title\\0,1\C,0,-0.009307,0.615349,-0.4459
 79\N,0,-0.822578,-0.593097,0.018106\O,0,-1.122746,-0.642297,1.20148\O,
 0,-1.109186,-1.433642,-0.81946\C,0,1.350339,0.586348,0.257808\C,0,2.18
 4489,-0.66378,-0.033221\H,0,1.181455,0.689973,1.333212\H,0,1.891681,1.
 480573,-0.068315\H,0,2.358163,-0.787909,-1.105824\H,0,1.693775,-1.5690
 31,0.332926\C,0,-0.815734,1.87886,-0.165161\H,0,0.103614,0.447434,-1.5

 Normal termination of Gaussian 16 at Tue Apr  8 22:38:03 2025.
