 Gaussian 16, Revision C.01,

 ----------------------------------------------------------------------
 #t hf aug-cc-pvdz symm=none int=(grid=ultrafine) guess=(read,tcheck) s
 table=(opt,rrhf)
 ----------------------------------------------------------------------
 -----
 title
 -----
 Symbolic Z-matrix:
 Charge =  0 Multiplicity = 1

 SCF Done:  E(RHF) =  -356.233145495     A.U. after   13 cycles
 Normal termination of Gaussian 16 at Wed Apr  9 00:31:19 2025.
 Gaussian 16:  ES64L-G16RevC.01  3-Jul-2019

 ----------------------------------------------------------------------
 #t hf aug-cc-pvdz iop(5/13=1,5/36=2,99/5=2) pseudo=read geom=check gue
 ss=(read,tcheck) scf=(maxcycle=1)
 ----------------------------------------------------------------------
 -----
 title
 -----
 Structure from the checkpoint file:  "BDE49_nonexpt_405_mol1.chk"
 Charge =  0 Multiplicity = 1

                         Standard orientation:
 ---------------------------------------------------------------------
 Center     Atomic      Atomic             Coordinates (Angstroms)
 Number     Number       Type             X           Y           Z
 ---------------------------------------------------------------------
      1          9           0        1.229621   -1.338507   -0.000110
      2          9           0        1.669713    0.880002   -0.000192
      3          5           0        0.772701   -0.096429    0.000311
      4          6           0       -0.767866    0.232553    0.000106
      5          6           0       -1.763593   -0.898471    0.000037
      6          7           0       -1.191323    1.440762    0.000022
      7          1           0       -1.624424   -1.538761   -0.877192
      8          1           0       -2.777614   -0.498509   -0.000093
      9          1           0       -1.624623   -1.538696    0.877344
     10          1           0       -0.402840    2.094827    0.000095
 ---------------------------------------------------------------------

 SCF Done:  E(RHF) =  -356.363954903     A.U. after    2 cycles

 The electronic state is 1-A.
 Alpha  occ. eigenvalues --  -26.15649 -26.15508 -15.64647 -11.29789 -11.24616
 Alpha  occ. eigenvalues --   -7.75727  -1.70899  -1.68670  -1.19832  -0.99513
 Alpha  occ. eigenvalues --   -0.89826  -0.83715  -0.82703  -0.78542  -0.76352
 Alpha  occ. eigenvalues --   -0.73811  -0.73297  -0.67576  -0.59178  -0.57809
 Alpha  occ. eigenvalues --   -0.55165  -0.44380  -0.42863
 Alpha virt. eigenvalues --    0.03326   0.04686   0.04696   0.05254   0.06619
 Alpha virt. eigenvalues --    0.06943   0.07692   0.07796   0.08765   0.13451
 Alpha virt. eigenvalues --    0.14372   0.15044   0.16456   0.16773   0.17445

 Mulliken charges:
               1
     1  F   -0.428566
     2  F   -0.457374
     3  B    1.026447
     4  C    0.193435
     5  C    0.119533
     6  N   -0.394376
     7  H   -0.011980
     8  H   -0.060583
     9  H   -0.012012
    10  H    0.025476
 Sum of Mulliken charges =  -0.00000

 Dipole moment (field-independent basis, Debye):
    X=             -0.1584    Y=             -0.8493    Z=              0.0020  Tot=              0.8639

 Test job not archived.
 1\1\GINC-SE059\SP\RHF\Aug-CC-pVDZ\C2H4B1F2N1\OHZDE\09-Apr-2025\0\\#t h
 f aug-cc-pvdz iop(5/13=1,5/36=2,99/5=2) pseudo=read geom=check guess=(
 read,tcheck) scf=(maxcycle=1)\\title\\0,1\F,0,1.229622,-1.338506,-0.00
 011\F,0,1.669712,0.880003,-0.000192\B,0,0.772701,-0.096428,0.000311\C,
 0,-0.767866,0.232553,0.000106\C,0,-1.763593,-0.898472,0.000037\N,0,-1.
 191324,1.440761,0.000022\H,0,-1.624423,-1.538762,-0.877192\H,0,-2.7776
 14,-0.498511,-0.000093\H,0,-1.624622,-1.538697,0.877344\H,0,-0.402841,
 2.094827,0.000095\\Version=ES64L-G16RevC.01\State=1-A\HF=-356.3639549\

 Normal termination of Gaussian 16 at Wed Apr  9 00:31:23 2025.
