 Gaussian 16, Revision C.01,

 ----------------------------------------------------------------------
 #t hf aug-cc-pvdz symm=none int=(grid=ultrafine) guess=(read,tcheck) s
 table=(opt,rrhf)
 ----------------------------------------------------------------------
 -----
 title
 -----
 Symbolic Z-matrix:
 Charge =  0 Multiplicity = 1

 SCF Done:  E(RHF) =  -650.859212564     A.U. after   13 cycles
 Normal termination of Gaussian 16 at Tue Apr  8 22:35:26 2025.
 Gaussian 16:  ES64L-G16RevC.01  3-Jul-2019

 ----------------------------------------------------------------------
 #t hf aug-cc-pvdz iop(5/13=1,5/36=2,99/5=2) pseudo=read geom=check gue
 ss=(read,tcheck) scf=(maxcycle=1)
 ----------------------------------------------------------------------
 -----
 title
 -----
 Structure from the checkpoint file:  "BDE49_expt_1143_mol1.chk"
 Charge =  0 Multiplicity = 1

                         Standard orientation:
 ---------------------------------------------------------------------
 Center     Atomic      Atomic             Coordinates (Angstroms)
 Number     Number       Type             X           Y           Z
 ---------------------------------------------------------------------
      1          8           0        2.059374   -0.518689   -0.015772
      2          6           0        1.664477    0.850628   -0.191492
      3          6           0        0.776427   -0.109759    0.468800
      4          1           0        1.460026    1.148543   -1.217035
      5          1           0        2.211679    1.572072    0.408952
      6          6           0       -0.384925   -0.724166   -0.262517
      7          1           0        0.684126   -0.078218    1.552297
      8         17           0       -1.904235    0.228003    0.032068
      9          1           0       -0.209562   -0.732419   -1.336519
     10          1           0       -0.585140   -1.736727    0.084573
 ---------------------------------------------------------------------

 SCF Done:  E(RHF) =  -650.938368604     A.U. after    2 cycles

 The electronic state is 1-A.
 Alpha  occ. eigenvalues -- -103.65906 -20.60198 -11.31971 -11.31857 -11.30982
 Alpha  occ. eigenvalues --  -10.69159  -8.34877  -8.34590  -8.34581  -1.39102
 Alpha  occ. eigenvalues --   -1.16849  -0.99456  -0.92390  -0.83480  -0.72445
 Alpha  occ. eigenvalues --   -0.68086  -0.62700  -0.60480  -0.56037  -0.54426
 Alpha  occ. eigenvalues --   -0.48852  -0.46953  -0.45519  -0.45237
 Alpha virt. eigenvalues --    0.03648   0.04473   0.04578   0.06425   0.07089
 Alpha virt. eigenvalues --    0.07783   0.10132   0.12083   0.13721   0.13790
 Alpha virt. eigenvalues --    0.14639   0.15120   0.16279   0.16659   0.17359

 Mulliken charges:
               1
     1  O   -0.703000
     2  C    0.817770
     3  C    0.651416
     4  H   -0.201691
     5  H   -0.194239
     6  C   -0.071279
     7  H   -0.281657
     8  Cl  -0.144507
     9  H    0.032600
    10  H    0.094588
 Sum of Mulliken charges =   0.00000

 Dipole moment (field-independent basis, Debye):
    X=              0.3555    Y=              0.6061    Z=             -0.0825  Tot=              0.7076

 Test job not archived.
 1\1\GINC-SE074\SP\RHF\Aug-CC-pVDZ\C3H5Cl1O1\OHZDE\08-Apr-2025\0\\#t hf
  aug-cc-pvdz iop(5/13=1,5/36=2,99/5=2) pseudo=read geom=check guess=(r
 ead,tcheck) scf=(maxcycle=1)\\title\\0,1\O,0,2.059374,-0.518689,-0.015
 772\C,0,1.664477,0.850628,-0.191492\C,0,0.776427,-0.109759,0.4688\H,0,
 1.460026,1.148543,-1.217035\H,0,2.211679,1.572072,0.408952\C,0,-0.3849
 25,-0.724166,-0.262517\H,0,0.684126,-0.078218,1.552297\Cl,0,-1.904235,
 0.228003,0.032068\H,0,-0.209562,-0.732419,-1.336519\H,0,-0.58514,-1.73
 6727,0.084573\\Version=ES64L-G16RevC.01\State=1-A\HF=-650.9383686\RMSD

 Normal termination of Gaussian 16 at Tue Apr  8 22:35:29 2025.
