 Gaussian 16, Revision C.01,

 ----------------------------------------------------------------------
 #t hf aug-cc-pvdz symm=none int=(grid=ultrafine) guess=(read,tcheck) s
 table=opt
 ----------------------------------------------------------------------
 -----
 title
 -----
 Symbolic Z-matrix:
 Charge =  0 Multiplicity = 2

 SCF Done:  E(UHF) =  -648.155513873     A.U. after   23 cycles
 Normal termination of Gaussian 16 at Tue Apr  8 23:07:45 2025.
 Gaussian 16:  ES64L-G16RevC.01  3-Jul-2019

 ----------------------------------------------------------------------
 #t hf aug-cc-pvdz iop(5/13=1,5/36=2,99/5=2) pseudo=read geom=check gue
 ss=(read,tcheck) scf=(maxcycle=1)
 ----------------------------------------------------------------------
 -----
 title
 -----
 Structure from the checkpoint file:  "BDE49_expt_621_mol2.chk"
 Charge =  0 Multiplicity = 2

                         Standard orientation:
 ---------------------------------------------------------------------
 Center     Atomic      Atomic             Coordinates (Angstroms)
 Number     Number       Type             X           Y           Z
 ---------------------------------------------------------------------
      1          6           0        0.020000    0.774972    0.260646
      2          8           0        1.165209    0.312018   -0.457817
      3          8           0        1.803397   -0.640222    0.201495
      4          1           0        0.235209    0.761580    1.325075
      5          1           0       -0.194675    1.764314   -0.133227
      6         17           0       -1.406434   -0.267653   -0.041479
 ---------------------------------------------------------------------

 SCF Done:  E(UHF) =  -648.235735118     A.U. after    2 cycles

 The electronic state is 2-A.
 Alpha  occ. eigenvalues -- -103.67334 -20.71471 -20.70339 -11.38860 -10.70665
 Alpha  occ. eigenvalues --   -8.36403  -8.36074  -8.36067  -1.54750  -1.24430
 Alpha  occ. eigenvalues --   -1.16081  -0.93513  -0.80397  -0.75734  -0.74357
 Alpha  occ. eigenvalues --   -0.63532  -0.62589  -0.55238  -0.52356  -0.48153
 Alpha  occ. eigenvalues --   -0.47191
 Alpha virt. eigenvalues --    0.03401   0.05026   0.07360   0.09339   0.12779
 Alpha virt. eigenvalues --    0.13857   0.15010   0.15888   0.15966   0.17542
 Alpha virt. eigenvalues --    0.20196   0.20981   0.23904   0.25263   0.26828

  Beta  occ. eigenvalues -- -103.67323 -20.69601 -20.67318 -11.38924 -10.70655
  Beta  occ. eigenvalues --   -8.36356  -8.36074  -8.36056  -1.48826  -1.19650
  Beta  occ. eigenvalues --   -1.11281  -0.91867  -0.74466  -0.72602  -0.66643
  Beta  occ. eigenvalues --   -0.62249  -0.53724  -0.51939  -0.47879  -0.47144
  Beta virt. eigenvalues --    0.03378   0.04918   0.06993   0.07412   0.09411
  Beta virt. eigenvalues --    0.13088   0.14194   0.15111   0.15981   0.16287
  Beta virt. eigenvalues --    0.17630   0.20331   0.21502   0.25567   0.26538

 Mulliken charges and spin densities:
               1          2
     1  C    0.586192  -0.023658
     2  O   -0.356359   0.058209
     3  O   -0.109161   0.959357
     4  H    0.027137  -0.003416
     5  H   -0.023628   0.001223
     6  Cl  -0.124181   0.008286
 Sum of Mulliken charges =  -0.00000   1.00000

 Dipole moment (field-independent basis, Debye):
    X=             -0.2652    Y=              2.0095    Z=              1.1436  Tot=              2.3273
                          Isotropic Fermi Contact Couplings
        Atom                 a.u.       MegaHertz       Gauss      10(-4) cm-1
     1  C(13)             -0.01056     -11.86987      -4.23547      -3.95936
     2  O(17)              0.07945     -48.16185     -17.18534     -16.06506
     3  O(17)              0.29633    -179.63474     -64.09814     -59.91970
     4  H(1)               0.00025       1.12414       0.40112       0.37497
     5  H(1)              -0.00064      -2.87550      -1.02605      -0.95916
     6  Cl(35)            -0.00207      -0.90608      -0.32331      -0.30224
 --------------------------------------------------------
       Center         ----  Spin Dipole Couplings  ----

 Normal termination of Gaussian 16 at Tue Apr  8 23:07:47 2025.
