 Gaussian 16, Revision C.01,

 ----------------------------------------------------------------------
 #t hf aug-cc-pvdz symm=none int=(grid=ultrafine) guess=(read,tcheck) s
 table=(opt,rrhf)
 ----------------------------------------------------------------------
 -----
 title
 -----
 Symbolic Z-matrix:
 Charge =  0 Multiplicity = 1

 SCF Done:  E(RHF) =  -178.103456518     A.U. after   11 cycles
 Normal termination of Gaussian 16 at Tue Apr  8 22:27:15 2025.
 Gaussian 16:  ES64L-G16RevC.01  3-Jul-2019

 ----------------------------------------------------------------------
 #t hf aug-cc-pvdz iop(5/13=1,5/36=2,99/5=2) pseudo=read geom=check gue
 ss=(read,tcheck) scf=(maxcycle=1)
 ----------------------------------------------------------------------
 -----
 title
 -----
 Structure from the checkpoint file:  "BDE49_expt_1009_mol1.chk"
 Charge =  0 Multiplicity = 1

                         Standard orientation:
 ---------------------------------------------------------------------
 Center     Atomic      Atomic             Coordinates (Angstroms)
 Number     Number       Type             X           Y           Z
 ---------------------------------------------------------------------
      1          6           0       -0.107832    0.549824   -0.000000
      2          6           0        1.193511   -0.222819   -0.000000
      3          9           0       -1.186905   -0.341279   -0.000000
      4          1           0       -0.202589    1.179062   -0.890254
      5          1           0       -0.202590    1.179061    0.890254
      6          1           0        1.264965   -0.857490   -0.886193
      7          1           0        1.264965   -0.857491    0.886194
      8          1           0        2.043323    0.466339    0.000001
 ---------------------------------------------------------------------

 SCF Done:  E(RHF) =  -178.166536936     A.U. after    2 cycles

 The electronic state is 1-A.
 Alpha  occ. eigenvalues --  -26.09617 -11.32122 -11.23877  -1.62648  -1.03618
 Alpha  occ. eigenvalues --   -0.87655  -0.73855  -0.73246  -0.69126  -0.59922
 Alpha  occ. eigenvalues --   -0.55756  -0.52446  -0.50581
 Alpha virt. eigenvalues --    0.03473   0.04876   0.05039   0.05956   0.07910
 Alpha virt. eigenvalues --    0.11286   0.12017   0.14159   0.14397   0.16125
 Alpha virt. eigenvalues --    0.17097   0.17404   0.20287   0.25025   0.27685

 Mulliken charges:
               1
     1  C    0.589865
     2  C    0.160063
     3  F   -0.428584
     4  H   -0.116489
     5  H   -0.116491
     6  H   -0.033395
     7  H   -0.033392
     8  H   -0.021578
 Sum of Mulliken charges =  -0.00000

 Dipole moment (field-independent basis, Debye):
    X=              1.9921    Y=              1.3540    Z=             -0.0000  Tot=              2.4087

 Test job not archived.
 1\1\GINC-SE367\SP\RHF\Aug-CC-pVDZ\C2H5F1\OHZDE\08-Apr-2025\0\\#t hf au
 g-cc-pvdz iop(5/13=1,5/36=2,99/5=2) pseudo=read geom=check guess=(read
 ,tcheck) scf=(maxcycle=1)\\title\\0,1\C,0,-0.107832,0.549824,0.\C,0,1.
 193511,-0.222819,0.\F,0,-1.186905,-0.341279,0.\H,0,-0.202589,1.179062,
 -0.890254\H,0,-0.20259,1.179061,0.890254\H,0,1.264965,-0.85749,-0.8861
 93\H,0,1.264965,-0.857491,0.886194\H,0,2.043323,0.466339,0.000001\\Ver
 sion=ES64L-G16RevC.01\State=1-A\HF=-178.1665369\RMSD=4.962e-03\Dipole=
 0.7837696,0.5326952,-0.0000001\Quadrupole=-1.416343,0.6505327,0.765810

 Normal termination of Gaussian 16 at Tue Apr  8 22:27:17 2025.
