 Gaussian 16, Revision C.01,

 ----------------------------------------------------------------------
 #t hf aug-cc-pvdz symm=none int=(grid=ultrafine) guess=(read,tcheck) s
 table=(opt,rrhf)
 ----------------------------------------------------------------------
 -----
 title
 -----
 Symbolic Z-matrix:
 Charge =  0 Multiplicity = 1

 SCF Done:  E(RHF) =  -648.760425521     A.U. after   14 cycles
 Normal termination of Gaussian 16 at Tue Apr  8 23:07:44 2025.
 Gaussian 16:  ES64L-G16RevC.01  3-Jul-2019

 ----------------------------------------------------------------------
 #t hf aug-cc-pvdz iop(5/13=1,5/36=2,99/5=2) pseudo=read geom=check gue
 ss=(read,tcheck) scf=(maxcycle=1)
 ----------------------------------------------------------------------
 -----
 title
 -----
 Structure from the checkpoint file:  "BDE49_expt_621_mol1.chk"
 Charge =  0 Multiplicity = 1

                         Standard orientation:
 ---------------------------------------------------------------------
 Center     Atomic      Atomic             Coordinates (Angstroms)
 Number     Number       Type             X           Y           Z
 ---------------------------------------------------------------------
      1          6           0        0.001726    0.839760    0.263635
      2          8           0        1.125927    0.481036   -0.441492
      3          8           0        1.737148   -0.650773    0.221868
      4          1           0        1.380141   -1.383820   -0.303258
      5          1           0        0.161854    0.821807    1.338976
      6          1           0       -0.293936    1.815194   -0.115915
      7         17           0       -1.421354   -0.290226   -0.043801
 ---------------------------------------------------------------------

 SCF Done:  E(RHF) =  -648.840703045     A.U. after    2 cycles

 The electronic state is 1-A.
 Alpha  occ. eigenvalues -- -103.65958 -20.67766 -20.66619 -11.38046 -10.69264
 Alpha  occ. eigenvalues --   -8.34969  -8.34695  -8.34679  -1.46761  -1.25283
 Alpha  occ. eigenvalues --   -1.14752  -0.91841  -0.77739  -0.72408  -0.69533
 Alpha  occ. eigenvalues --   -0.63430  -0.57862  -0.54571  -0.49905  -0.47300
 Alpha  occ. eigenvalues --   -0.46127
 Alpha virt. eigenvalues --    0.03660   0.04788   0.05548   0.08020   0.10528
 Alpha virt. eigenvalues --    0.13276   0.14293   0.15679   0.16028   0.16433
 Alpha virt. eigenvalues --    0.17647   0.19622   0.20439   0.22274   0.24732

 Mulliken charges:
               1
     1  C    0.587273
     2  O   -0.367277
     3  O   -0.271415
     4  H    0.241805
     5  H    0.035253
     6  H   -0.032483
     7  Cl  -0.193157
 Sum of Mulliken charges =  -0.00000

 Dipole moment (field-independent basis, Debye):
    X=             -0.0339    Y=              0.4364    Z=              0.3668  Tot=              0.5710

 Test job not archived.
 1\1\GINC-SE092\SP\RHF\Aug-CC-pVDZ\C1H3Cl1O2\OHZDE\08-Apr-2025\0\\#t hf
  aug-cc-pvdz iop(5/13=1,5/36=2,99/5=2) pseudo=read geom=check guess=(r
 ead,tcheck) scf=(maxcycle=1)\\title\\0,1\C,0,0.001726,0.83976,0.263635
 \O,0,1.125927,0.481036,-0.441492\O,0,1.737148,-0.650773,0.221868\H,0,1
 .380141,-1.38382,-0.303258\H,0,0.161854,0.821807,1.338976\H,0,-0.29393
 6,1.815194,-0.115915\Cl,0,-1.421354,-0.290226,-0.043801\\Version=ES64L
 -G16RevC.01\State=1-A\HF=-648.840703\RMSD=2.589e-03\Dipole=-0.0133514,
 0.1716753,0.1443005\Quadrupole=-4.1477329,4.0850317,0.0627011,-1.73549

 Normal termination of Gaussian 16 at Tue Apr  8 23:07:47 2025.
