 Gaussian 16, Revision C.01,

 ----------------------------------------------------------------------
 #t hf aug-cc-pvdz symm=none int=(grid=ultrafine) guess=(read,tcheck) s
 table=(opt,rrhf)
 ----------------------------------------------------------------------
 -----
 title
 -----
 Symbolic Z-matrix:
 Charge =  0 Multiplicity = 1

 SCF Done:  E(RHF) =  -956.997773382     A.U. after   13 cycles
 Normal termination of Gaussian 16 at Tue Apr  8 23:58:29 2025.
 Gaussian 16:  ES64L-G16RevC.01  3-Jul-2019

 ----------------------------------------------------------------------
 #t hf aug-cc-pvdz iop(5/13=1,5/36=2,99/5=2) pseudo=read geom=check gue
 ss=(read,tcheck) scf=(maxcycle=1)
 ----------------------------------------------------------------------
 -----
 title
 -----
 Structure from the checkpoint file:  "BDE49_nonexpt_2102_mol1.chk"
 Charge =  0 Multiplicity = 1

                         Standard orientation:
 ---------------------------------------------------------------------
 Center     Atomic      Atomic             Coordinates (Angstroms)
 Number     Number       Type             X           Y           Z
 ---------------------------------------------------------------------
      1         14           0       -0.138241   -0.384255    0.000003
      2          7           0        1.712583   -0.280835   -0.000017
      3          8           0        2.256644    0.800564   -0.000026
      4          6           0       -0.563959   -1.299894    1.565298
      5          1           0       -0.304925   -0.711613    2.448464
      6          1           0       -0.021212   -2.248139    1.608517
      7          6           0       -0.563991   -1.299906   -1.565276
      8         17           0       -1.024334    1.498956    0.000005
      9          1           0       -0.021244   -2.248151   -1.608500
     10          1           0       -0.304978   -0.711632   -2.448453
     11          1           0       -1.636080   -1.511519   -1.598481
     12          1           0       -1.636047   -1.511505    1.598527
 ---------------------------------------------------------------------

 SCF Done:  E(RHF) =  -957.108269630     A.U. after    2 cycles

 The electronic state is 1-A.
 Alpha  occ. eigenvalues -- -103.65857 -69.13517 -20.65496 -15.74192 -11.24414
 Alpha  occ. eigenvalues --  -11.24409 -10.69270  -8.34959  -8.34744  -8.34743
 Alpha  occ. eigenvalues --   -6.88241  -3.99104  -3.98981  -3.98901  -1.45615
 Alpha  occ. eigenvalues --   -1.14266  -0.98960  -0.95451  -0.92651  -0.73210
 Alpha  occ. eigenvalues --   -0.66751  -0.63127  -0.60184  -0.59809  -0.58154
 Alpha  occ. eigenvalues --   -0.57894  -0.57106  -0.51450  -0.50653  -0.48407
 Alpha  occ. eigenvalues --   -0.45565  -0.37512
 Alpha virt. eigenvalues --    0.02714   0.04247   0.04897   0.05480   0.06577
 Alpha virt. eigenvalues --    0.07051   0.07490   0.07765   0.08247   0.09774
 Alpha virt. eigenvalues --    0.10527   0.13686   0.13931   0.15791   0.16022

 Mulliken charges:
               1
     1  Si   1.792547
     2  N   -0.312287
     3  O   -0.354259
     4  C    0.345643
     5  H   -0.257900
     6  H   -0.185323
     7  C    0.345641
     8  Cl  -0.608997
     9  H   -0.185322
    10  H   -0.257901
    11  H   -0.160921
    12  H   -0.160922
 Sum of Mulliken charges =  -0.00000

 Dipole moment (field-independent basis, Debye):
    X=             -2.2953    Y=             -3.0447    Z=              0.0000  Tot=              3.8130

 Test job not archived.
 1\1\GINC-SE341\SP\RHF\Aug-CC-pVDZ\C2H6Cl1N1O1Si1\OHZDE\08-Apr-2025\0\\
 #t hf aug-cc-pvdz iop(5/13=1,5/36=2,99/5=2) pseudo=read geom=check gue
 ss=(read,tcheck) scf=(maxcycle=1)\\title\\0,1\Si,0,-0.13824,-0.384255,
 0.000003\N,0,1.712584,-0.280832,-0.000017\O,0,2.256642,0.800568,-0.000
 026\C,0,-0.563956,-1.299895,1.565298\H,0,-0.304923,-0.711614,2.448464\
 H,0,-0.021207,-2.248139,1.608517\C,0,-0.563988,-1.299907,-1.565276\Cl,
 0,-1.024337,1.498954,0.000005\H,0,-0.021239,-2.248151,-1.6085\H,0,-0.3
 04976,-0.711633,-2.448453\H,0,-1.636077,-1.511522,-1.598481\H,0,-1.636

 Normal termination of Gaussian 16 at Tue Apr  8 23:58:34 2025.
