 Gaussian 16, Revision C.01,

 ----------------------------------------------------------------------
 #t hf aug-cc-pvdz symm=none int=(grid=ultrafine) guess=(read,tcheck) s
 table=opt
 ----------------------------------------------------------------------
 -----
 title
 -----
 Symbolic Z-matrix:
 Charge =  0 Multiplicity = 2

 SCF Done:  E(UHF) =  -598.705728604     A.U. after   16 cycles
 Normal termination of Gaussian 16 at Wed Apr  9 00:14:34 2025.
 Gaussian 16:  ES64L-G16RevC.01  3-Jul-2019

 ----------------------------------------------------------------------
 #t hf aug-cc-pvdz iop(5/13=1,5/36=2,99/5=2) pseudo=read geom=check gue
 ss=(read,tcheck) scf=(maxcycle=1)
 ----------------------------------------------------------------------
 -----
 title
 -----
 Structure from the checkpoint file:  "BDE49_nonexpt_251_mol2.chk"
 Charge =  0 Multiplicity = 2

                         Standard orientation:
 ---------------------------------------------------------------------
 Center     Atomic      Atomic             Coordinates (Angstroms)
 Number     Number       Type             X           Y           Z
 ---------------------------------------------------------------------
      1          5           0        0.139172    0.957542    0.000002
      2         17           0        1.473786   -0.225312   -0.000003
      3          8           0       -1.149410    0.685236    0.000003
      4          6           0       -1.783133   -0.612517    0.000002
      5          1           0       -2.407809   -0.676637    0.890500
      6          1           0       -1.040507   -1.410916   -0.000006
      7          1           0       -2.407819   -0.676630   -0.890490
 ---------------------------------------------------------------------

 SCF Done:  E(UHF) =  -598.773320386     A.U. after    2 cycles

 The electronic state is 2-A.
 Alpha  occ. eigenvalues -- -103.66127 -20.61266 -11.31682 -10.69603  -8.35432
 Alpha  occ. eigenvalues --   -8.35044  -8.35015  -7.71867  -1.36686  -1.15451
 Alpha  occ. eigenvalues --   -0.97929  -0.75288  -0.67572  -0.66731  -0.62340
 Alpha  occ. eigenvalues --   -0.54385  -0.52925  -0.49405  -0.48018  -0.35406
 Alpha virt. eigenvalues --    0.03282   0.04875   0.05617   0.06163   0.07229
 Alpha virt. eigenvalues --    0.07586   0.08324   0.12293   0.12703   0.14221
 Alpha virt. eigenvalues --    0.14393   0.15510   0.17090   0.18260   0.18886

  Beta  occ. eigenvalues -- -103.65987 -20.61241 -11.31536 -10.69440  -8.35063
  Beta  occ. eigenvalues --   -8.34960  -8.34804  -7.69627  -1.36442  -1.14229
  Beta  occ. eigenvalues --   -0.97092  -0.74519  -0.67009  -0.66531  -0.59477
  Beta  occ. eigenvalues --   -0.53096  -0.52878  -0.48189  -0.48172
  Beta virt. eigenvalues --    0.03141   0.04711   0.05021   0.05691   0.07482
  Beta virt. eigenvalues --    0.07504   0.07830   0.11987   0.13353   0.14414
  Beta virt. eigenvalues --    0.14614   0.15214   0.15791   0.17377   0.19059

 Mulliken charges and spin densities:
               1          2
     1  B    0.187851   1.057636
     2  Cl  -0.280218   0.035568
     3  O   -0.334546  -0.121413
     4  C    0.822972   0.042853
     5  H   -0.122785  -0.002720
     6  H   -0.150489  -0.009204
     7  H   -0.122784  -0.002720
 Sum of Mulliken charges =  -0.00000   1.00000

 Dipole moment (field-independent basis, Debye):
    X=             -1.9083    Y=             -1.4505    Z=              0.0000  Tot=              2.3970
                          Isotropic Fermi Contact Couplings
        Atom                 a.u.       MegaHertz       Gauss      10(-4) cm-1
     1  B(11)              0.47425     680.24064     242.72678     226.90386
     2  Cl(35)             0.14434      63.28690      22.58234      21.11024
     3  O(17)              0.12893     -78.15434     -27.88741     -26.06948
     4  C(13)              0.02411      27.10919       9.67323       9.04265
     5  H(1)              -0.00117      -5.23756      -1.86889      -1.74706
     6  H(1)              -0.00069      -3.09572      -1.10463      -1.03262
     7  H(1)              -0.00117      -5.23755      -1.86889      -1.74706
 --------------------------------------------------------

 1\1\GINC-SE424\SP\UHF\Aug-CC-pVDZ\C1H3B1Cl1O1(2)\OHZDE\09-Apr-2025\0\\
 #t hf aug-cc-pvdz iop(5/13=1,5/36=2,99/5=2) pseudo=read geom=check gue
 ss=(read,tcheck) scf=(maxcycle=1)\\title\\0,2\B,0,0.139172,0.957542,0.
 000002\Cl,0,1.473786,-0.225312,-0.000003\O,0,-1.14941,0.685236,0.00000
 3\C,0,-1.783133,-0.612517,0.000002\H,0,-2.407809,-0.676637,0.8905\H,0,
 -1.040507,-1.410916,-0.000006\H,0,-2.407819,-0.67663,-0.89049\\Version
 =ES64L-G16RevC.01\State=2-A\HF=-598.7733204\S2=0.755199\S2-1=0.\S2A=0.
 750019\RMSD=2.207e-03\Dipole=-0.7507775,-0.5706724,0.0000005\Quadrupol

 Normal termination of Gaussian 16 at Wed Apr  9 00:14:36 2025.
