 Gaussian 16, Revision C.01,

 ----------------------------------------------------------------------
 #t hf aug-cc-pvdz symm=none int=(grid=ultrafine) guess=(read,tcheck) s
 table=(opt,rrhf)
 ----------------------------------------------------------------------
 -----
 title
 -----
 Symbolic Z-matrix:
 Charge =  0 Multiplicity = 1

 SCF Done:  E(RHF) =  -835.836590540     A.U. after   14 cycles
 Normal termination of Gaussian 16 at Tue Apr  8 23:19:59 2025.
 Gaussian 16:  ES64L-G16RevC.01  3-Jul-2019

 ----------------------------------------------------------------------
 #t hf aug-cc-pvdz iop(5/13=1,5/36=2,99/5=2) pseudo=read geom=check gue
 ss=(read,tcheck) scf=(maxcycle=1)
 ----------------------------------------------------------------------
 -----
 title
 -----
 Structure from the checkpoint file:  "BDE49_nonexpt_1151_mol1.chk"
 Charge =  0 Multiplicity = 1

                         Standard orientation:
 ---------------------------------------------------------------------
 Center     Atomic      Atomic             Coordinates (Angstroms)
 Number     Number       Type             X           Y           Z
 ---------------------------------------------------------------------
      1          9           0        1.557271    1.471663   -0.043791
      2          8           0        0.893793    0.583749    0.873434
      3         16           0        0.101852   -0.587228   -0.031636
      4          8           0       -0.489342   -1.327329    1.036222
      5          8           0       -0.968219    0.277619   -0.806391
      6          6           0       -2.016680    0.933749   -0.032500
      7          1           0       -2.687651    1.343631   -0.782581
      8          1           0       -1.579771    1.729468    0.570101
      9          1           0       -2.528621    0.203609    0.592100
     10          8           0        0.970149   -1.125105   -1.013806
 ---------------------------------------------------------------------

 SCF Done:  E(RHF) =  -836.074475137     A.U. after    2 cycles

 The electronic state is 1-A.
 Alpha  occ. eigenvalues --  -93.90334 -26.21522 -20.75973 -20.67976 -20.62300
 Alpha  occ. eigenvalues --  -20.62009 -11.34519  -9.15891  -6.50572  -6.50470
 Alpha  occ. eigenvalues --   -6.50449  -1.71631  -1.53669  -1.40402  -1.38440
 Alpha  occ. eigenvalues --   -1.34611  -1.02684  -0.90925  -0.83447  -0.81957
 Alpha  occ. eigenvalues --   -0.79874  -0.76873  -0.74160  -0.72413  -0.68988
 Alpha  occ. eigenvalues --   -0.67181  -0.63414  -0.60891  -0.59481  -0.57292
 Alpha  occ. eigenvalues --   -0.56753  -0.56031  -0.54957
 Alpha virt. eigenvalues --    0.02804   0.05055   0.05300   0.06556   0.07488
 Alpha virt. eigenvalues --    0.10466   0.10901   0.11767   0.13118   0.14639
 Alpha virt. eigenvalues --    0.15454   0.17076   0.18090   0.19319   0.20931

 Mulliken charges:
               1
     1  F   -0.305239
     2  O   -0.342415
     3  S    2.701140
     4  O   -0.806974
     5  O   -0.875585
     6  C    0.651086
     7  H   -0.183689
     8  H   -0.030371
     9  H   -0.021907
    10  O   -0.786047
 Sum of Mulliken charges =  -0.00000

 Dipole moment (field-independent basis, Debye):
    X=             -3.6122    Y=              2.3166    Z=              0.5608  Tot=              4.3277

 Test job not archived.
 1\1\GINC-SE227\SP\RHF\Aug-CC-pVDZ\C1H3F1O4S1\OHZDE\08-Apr-2025\0\\#t h
 f aug-cc-pvdz iop(5/13=1,5/36=2,99/5=2) pseudo=read geom=check guess=(
 read,tcheck) scf=(maxcycle=1)\\title\\0,1\F,0,1.557271,1.471663,-0.043
 791\O,0,0.893793,0.583749,0.873434\S,0,0.101852,-0.587228,-0.031636\O,
 0,-0.489343,-1.327329,1.036222\O,0,-0.968219,0.277619,-0.806391\C,0,-2
 .01668,0.93375,-0.0325\H,0,-2.687651,1.343632,-0.782581\H,0,-1.579771,
 1.729468,0.570101\H,0,-2.528621,0.20361,0.5921\O,0,0.970149,-1.125105,
 -1.013806\\Version=ES64L-G16RevC.01\State=1-A\HF=-836.0744751\RMSD=3.3

 Normal termination of Gaussian 16 at Tue Apr  8 23:20:03 2025.
