 Gaussian 16, Revision C.01,

 ----------------------------------------------------------------------
 #t hf aug-cc-pvdz symm=none int=(grid=ultrafine) guess=(read,tcheck) s
 table=(opt,rrhf)
 ----------------------------------------------------------------------
 -----
 title
 -----
 Symbolic Z-matrix:
 Charge =  0 Multiplicity = 1

 SCF Done:  E(RHF) =  -431.061525583     A.U. after   14 cycles
 Normal termination of Gaussian 16 at Wed Apr  9 00:32:23 2025.
 Gaussian 16:  ES64L-G16RevC.01  3-Jul-2019

 ----------------------------------------------------------------------
 #t hf aug-cc-pvdz iop(5/13=1,5/36=2,99/5=2) pseudo=read geom=check gue
 ss=(read,tcheck) scf=(maxcycle=1)
 ----------------------------------------------------------------------
 -----
 title
 -----
 Structure from the checkpoint file:  "BDE49_nonexpt_412_mol1.chk"
 Charge =  0 Multiplicity = 1

                         Standard orientation:
 ---------------------------------------------------------------------
 Center     Atomic      Atomic             Coordinates (Angstroms)
 Number     Number       Type             X           Y           Z
 ---------------------------------------------------------------------
      1          9           0        1.655401   -1.389171   -0.000017
      2          5           0        1.194634   -0.150806    0.000039
      3          9           0        2.097901    0.826140   -0.000030
      4          6           0       -0.320508    0.198575    0.000018
      5          7           0       -1.092104   -0.832290    0.000012
      6          8           0       -2.434827   -0.480715   -0.000004
      7          1           0       -2.880023   -1.335243   -0.000006
      8          6           0       -0.822318    1.618427    0.000009
      9          1           0        0.006873    2.324416    0.000018
     10          1           0       -1.449729    1.800937    0.877098
     11          1           0       -1.449706    1.800934   -0.877097
 ---------------------------------------------------------------------

 SCF Done:  E(RHF) =  -431.214986811     A.U. after    2 cycles

 The electronic state is 1-A.
 Alpha  occ. eigenvalues --  -26.14370 -26.13848 -20.63498 -15.72219 -11.28746
 Alpha  occ. eigenvalues --  -11.25004  -7.74656  -1.69460  -1.67157  -1.40725
 Alpha  occ. eigenvalues --   -1.15919  -0.98764  -0.88647  -0.83154  -0.82305
 Alpha  occ. eigenvalues --   -0.77167  -0.75662  -0.72726  -0.72375  -0.71787
 Alpha  occ. eigenvalues --   -0.65619  -0.63712  -0.59291  -0.57251  -0.54180
 Alpha  occ. eigenvalues --   -0.45657  -0.41288
 Alpha virt. eigenvalues --    0.03317   0.04198   0.04745   0.05650   0.06857
 Alpha virt. eigenvalues --    0.06956   0.07367   0.07907   0.08392   0.13710
 Alpha virt. eigenvalues --    0.14049   0.14746   0.15898   0.16657   0.16768

 Mulliken charges:
               1
     1  F   -0.397764
     2  B    1.012081
     3  F   -0.442978
     4  C    0.103682
     5  N   -0.187943
     6  O   -0.483406
     7  H    0.183176
     8  C    0.266958
     9  H   -0.174424
    10  H    0.060312
    11  H    0.060306
 Sum of Mulliken charges =  -0.00000

 Dipole moment (field-independent basis, Debye):
    X=             -1.9311    Y=              0.7569    Z=              0.0002  Tot=              2.0742

 Test job not archived.
 1\1\GINC-SE126\SP\RHF\Aug-CC-pVDZ\C2H4B1F2N1O1\OHZDE\09-Apr-2025\0\\#t
  hf aug-cc-pvdz iop(5/13=1,5/36=2,99/5=2) pseudo=read geom=check guess
 =(read,tcheck) scf=(maxcycle=1)\\title\\0,1\F,0,1.655401,-1.389171,-0.
 000017\B,0,1.194634,-0.150806,0.000039\F,0,2.097901,0.82614,-0.00003\C
 ,0,-0.320508,0.198575,0.000018\N,0,-1.092104,-0.83229,0.000012\O,0,-2.
 434827,-0.480715,-0.000004\H,0,-2.880023,-1.335243,-0.000006\C,0,-0.82
 2318,1.618427,0.000009\H,0,0.006873,2.324416,0.000018\H,0,-1.449729,1.
 800937,0.877098\H,0,-1.449706,1.800934,-0.877097\\Version=ES64L-G16Rev

 Normal termination of Gaussian 16 at Wed Apr  9 00:32:27 2025.
