 Gaussian 16, Revision C.01,

 ----------------------------------------------------------------------
 #t hf aug-cc-pvdz symm=none int=(grid=ultrafine) guess=(read,tcheck) s
 table=opt
 ----------------------------------------------------------------------
 -----
 title
 -----
 Symbolic Z-matrix:
 Charge =  0 Multiplicity = 2

 SCF Done:  E(UHF) =  -827.636777275     A.U. after   16 cycles
 Normal termination of Gaussian 16 at Tue Apr  8 23:44:20 2025.
 Gaussian 16:  ES64L-G16RevC.01  3-Jul-2019

 ----------------------------------------------------------------------
 #t hf aug-cc-pvdz iop(5/13=1,5/36=2,99/5=2) pseudo=read geom=check gue
 ss=(read,tcheck) scf=(maxcycle=1)
 ----------------------------------------------------------------------
 -----
 title
 -----
 Structure from the checkpoint file:  "BDE49_nonexpt_1759_mol2.chk"
 Charge =  0 Multiplicity = 2

                         Standard orientation:
 ---------------------------------------------------------------------
 Center     Atomic      Atomic             Coordinates (Angstroms)
 Number     Number       Type             X           Y           Z
 ---------------------------------------------------------------------
      1         14           0        2.316623    0.019103   -0.000000
      2          6           0        0.508054    0.606250   -0.000001
      3          6           0       -0.483284   -0.546260    0.000001
      4          1           0       -0.396195   -1.169130    0.888292
      5          1           0       -0.396195   -1.169134   -0.888287
      6         17           0       -2.220243    0.046503   -0.000000
      7          1           0        0.348719    1.237240   -0.879029
      8          1           0        0.348719    1.237244    0.879024
      9          1           0        2.628868   -0.777083   -1.215291
     10          1           0        2.628868   -0.777077    1.215295
 ---------------------------------------------------------------------

 SCF Done:  E(UHF) =  -827.700158044     A.U. after    2 cycles

 The electronic state is 2-A.
 Alpha  occ. eigenvalues -- -103.64542 -69.08313 -11.31698 -11.25001 -10.67807
 Alpha  occ. eigenvalues --   -8.33551  -8.33233  -8.33227  -6.83680  -3.95029
 Alpha  occ. eigenvalues --   -3.94126  -3.94118  -1.15647  -1.01582  -0.85538
 Alpha  occ. eigenvalues --   -0.70355  -0.66375  -0.58027  -0.56825  -0.54869
 Alpha  occ. eigenvalues --   -0.48905  -0.46644  -0.44514  -0.44061  -0.33429
 Alpha virt. eigenvalues --    0.03167   0.04796   0.04906   0.05030   0.06661
 Alpha virt. eigenvalues --    0.07547   0.08208   0.08558   0.09345   0.10365
 Alpha virt. eigenvalues --    0.12058   0.14147   0.14551   0.15941   0.16400

  Beta  occ. eigenvalues -- -103.64518 -69.07738 -11.31607 -11.24990 -10.67782
  Beta  occ. eigenvalues --   -8.33459  -8.33219  -8.33213  -6.82815  -3.93722
  Beta  occ. eigenvalues --   -3.93715  -3.92849  -1.15450  -1.01196  -0.85265
  Beta  occ. eigenvalues --   -0.66563  -0.66266  -0.57537  -0.56146  -0.54699
  Beta  occ. eigenvalues --   -0.48161  -0.46357  -0.44466  -0.43500
  Beta virt. eigenvalues --    0.02188   0.03466   0.04953   0.04992   0.06179
  Beta virt. eigenvalues --    0.06820   0.07725   0.08578   0.09109   0.09851
  Beta virt. eigenvalues --    0.10646   0.12518   0.14679   0.15237   0.16524

 Mulliken charges and spin densities:
               1          2
     1  Si   0.308037   1.001812
     2  C    0.015118  -0.022744
     3  C   -0.025678  -0.001788
     4  H   -0.002912  -0.004715
     5  H   -0.002913  -0.004715
     6  Cl  -0.206699   0.015359
     7  H   -0.055958  -0.000607
     8  H   -0.055959  -0.000607
     9  H    0.013483   0.009003
    10  H    0.013483   0.009003
 Sum of Mulliken charges =  -0.00000   1.00000

 Dipole moment (field-independent basis, Debye):
    X=              2.0656    Y=             -0.2946    Z=             -0.0000  Tot=              2.0865
                          Isotropic Fermi Contact Couplings
        Atom                 a.u.       MegaHertz       Gauss      10(-4) cm-1
     1  Si(29)             0.54720    -486.31203    -173.52822    -162.21623
     2  C(13)              0.00902      10.13887       3.61780       3.38196
     3  C(13)              0.03593      40.39029      14.41226      13.47275
     4  H(1)              -0.00031      -1.36892      -0.48846      -0.45662
     5  H(1)              -0.00031      -1.36892      -0.48846      -0.45662
     6  Cl(35)             0.00837       3.66847       1.30900       1.22367
     7  H(1)               0.00058       2.60715       0.93030       0.86965
     8  H(1)               0.00058       2.60712       0.93029       0.86964

 Normal termination of Gaussian 16 at Tue Apr  8 23:44:23 2025.
