 Gaussian 16, Revision C.01,

 ----------------------------------------------------------------------
 #t hf aug-cc-pvdz symm=none int=(grid=ultrafine) guess=(read,tcheck) s
 table=opt
 ----------------------------------------------------------------------
 -----
 title
 -----
 Symbolic Z-matrix:
 Charge =  0 Multiplicity = 2

 SCF Done:  E(UHF) =  -985.023067165     A.U. after   15 cycles

 1\1\GINC-SE044\Stability\UHF\Aug-CC-pVDZ\F3S1Si1\OHZDE\09-Apr-2025\0\\
 #t hf aug-cc-pvdz symm=none int=(grid=ultrafine) guess=(read,tcheck) s
 table=opt\\title\\0,2\S,0,1.786617,-0.061417,0.000292\Si,0,-0.324038,0
 .001467,-0.000016\F,0,-0.760109,1.521175,-0.003397\F,0,-0.955726,-0.71
 0005,-1.262148\F,0,-0.956315,-0.704267,1.26505\\Version=ES64L-G16RevC.
 01\HF=-985.0230672\S2=0.759911\S2-1=0.\S2A=0.750019\RMSD=2.802e-09\Dip
 ole=0.4740651,-0.0441136,0.0001323\Quadrupole=0.7630744,0.6122649,-1.3
 753393,-0.2439194,0.0012611,-0.0020662\PG=Unknown\\@

 Normal termination of Gaussian 16 at Wed Apr  9 00:19:37 2025.
 Gaussian 16:  ES64L-G16RevC.01  3-Jul-2019

 ----------------------------------------------------------------------
 #t hf aug-cc-pvdz iop(5/13=1,5/36=2,99/5=2) pseudo=read geom=check gue
 ss=(read,tcheck) scf=(maxcycle=1)
 ----------------------------------------------------------------------
 -----
 title
 -----
 Structure from the checkpoint file:  "BDE49_nonexpt_2624_mol2.chk"
 Charge =  0 Multiplicity = 2

                         Standard orientation:
 ---------------------------------------------------------------------
 Center     Atomic      Atomic             Coordinates (Angstroms)
 Number     Number       Type             X           Y           Z
 ---------------------------------------------------------------------
      1         16           0        1.786617   -0.061417    0.000292
      2         14           0       -0.324038    0.001467   -0.000016
      3          9           0       -0.760109    1.521175   -0.003397
      4          9           0       -0.955726   -0.710005   -1.262148
      5          9           0       -0.956315   -0.704267    1.265050
 ---------------------------------------------------------------------

 SCF Done:  E(UHF) =  -985.202258733     A.U. after    2 cycles

 The electronic state is 2-A.
 Alpha  occ. eigenvalues --  -93.59753 -69.25213 -26.15798 -26.15397 -26.15395
 Alpha  occ. eigenvalues --   -8.89613  -6.98578  -6.24954  -6.23195  -6.22852
 Alpha  occ. eigenvalues --   -4.09658  -4.09602  -4.09463  -1.69927  -1.68270
 Alpha  occ. eigenvalues --   -1.67914  -1.00754  -0.88101  -0.82404  -0.82020
 Alpha  occ. eigenvalues --   -0.78580  -0.77168  -0.76988  -0.74956  -0.74609
 Alpha  occ. eigenvalues --   -0.73256  -0.53505  -0.50480  -0.44129
 Alpha virt. eigenvalues --    0.04747   0.06145   0.06236   0.06525   0.10705
 Alpha virt. eigenvalues --    0.12012   0.12812   0.17771   0.18583   0.19046
 Alpha virt. eigenvalues --    0.19978   0.20420   0.20978   0.24851   0.26947

  Beta  occ. eigenvalues --  -93.58883 -69.25239 -26.15738 -26.15393 -26.15391
  Beta  occ. eigenvalues --   -8.88647  -6.98622  -6.22704  -6.22321  -6.21086
  Beta  occ. eigenvalues --   -4.09662  -4.09625  -4.09543  -1.69852  -1.68158
  Beta  occ. eigenvalues --   -1.67906  -0.92788  -0.86679  -0.82238  -0.82047
  Beta  occ. eigenvalues --   -0.77802  -0.77036  -0.76918  -0.74734  -0.74585
  Beta  occ. eigenvalues --   -0.73208  -0.51634  -0.41785
  Beta virt. eigenvalues --   -0.04403   0.04976   0.06159   0.06545   0.06694
  Beta virt. eigenvalues --    0.10936   0.12886   0.13367   0.19184   0.19436
  Beta virt. eigenvalues --    0.19802   0.20501   0.21639   0.22420   0.24945

 Mulliken charges and spin densities:
               1          2
     1  S   -0.296236   1.091489
     2  Si   2.612638  -0.117690
     3  F   -0.766780   0.004857
     4  F   -0.774792   0.010664
     5  F   -0.774831   0.010680
 Sum of Mulliken charges =   0.00000   1.00000

 Dipole moment (field-independent basis, Debye):
    X=              1.4774    Y=             -0.1302    Z=              0.0004  Tot=              1.4832
                          Isotropic Fermi Contact Couplings
        Atom                 a.u.       MegaHertz       Gauss      10(-4) cm-1
     1  S(33)              0.15653      53.76361      19.18419      17.93361
     2  Si(29)            -0.04837      42.98401      15.33777      14.33792
     3  F(19)              0.01022      42.98193      15.33702      14.33723
     4  F(19)             -0.00059      -2.47246      -0.88223      -0.82472
     5  F(19)             -0.00061      -2.56948      -0.91686      -0.85709
 --------------------------------------------------------
       Center         ----  Spin Dipole Couplings  ----
                      3XX-RR        3YY-RR        3ZZ-RR

 Normal termination of Gaussian 16 at Wed Apr  9 00:19:40 2025.
