 Gaussian 16, Revision C.01,

 ----------------------------------------------------------------------
 #t hf aug-cc-pvdz symm=none int=(grid=ultrafine) guess=(read,tcheck) s
 table=(opt,rrhf)
 ----------------------------------------------------------------------
 -----
 title
 -----
 Symbolic Z-matrix:
 Charge =  0 Multiplicity = 1

 SCF Done:  E(RHF) =  -611.909313186     A.U. after   15 cycles
 Normal termination of Gaussian 16 at Tue Apr  8 23:59:00 2025.
 Gaussian 16:  ES64L-G16RevC.01  3-Jul-2019

 ----------------------------------------------------------------------
 #t hf aug-cc-pvdz iop(5/13=1,5/36=2,99/5=2) pseudo=read geom=check gue
 ss=(read,tcheck) scf=(maxcycle=1)
 ----------------------------------------------------------------------
 -----
 title
 -----
 Structure from the checkpoint file:  "BDE49_nonexpt_2105_mol1.chk"
 Charge =  0 Multiplicity = 1

                         Standard orientation:
 ---------------------------------------------------------------------
 Center     Atomic      Atomic             Coordinates (Angstroms)
 Number     Number       Type             X           Y           Z
 ---------------------------------------------------------------------
      1         14           0       -0.079417    0.614619    0.588296
      2          7           0        1.249699   -0.580556   -0.009382
      3          8           0        2.351596   -0.092869   -0.252611
      4          8           0        0.984613   -1.776558   -0.114399
      5          6           0       -1.698180   -0.314957    0.639848
      6          6           0       -2.253276   -0.769247   -0.722616
      7          1           0       -2.420227    0.335575    1.151018
      8          1           0       -1.555452   -1.179849    1.295868
      9          1           0       -1.558991   -1.451713   -1.216669
     10          1           0       -2.433077    0.077086   -1.391268
     11          6           0        0.009294    2.063419   -0.578550
     12          1           0       -0.659671    2.862454   -0.245480
     13          1           0       -0.277625    1.779048   -1.593856
     14          1           0        1.028115    2.454129   -0.607076
     15          1           0       -3.203437   -1.295097   -0.599398
     16          1           0        0.407606    0.957723    1.940382
 ---------------------------------------------------------------------

 SCF Done:  E(RHF) =  -612.036809693     A.U. after    2 cycles

 The electronic state is 1-A.
 Alpha  occ. eigenvalues --  -69.11616 -20.61062 -20.60954 -15.87237 -11.24665
 Alpha  occ. eigenvalues --  -11.24549 -11.24346  -6.86695  -3.97569  -3.97380
 Alpha  occ. eigenvalues --   -3.97365  -1.52215  -1.34539  -1.03682  -0.97249
 Alpha  occ. eigenvalues --   -0.92137  -0.86335  -0.77870  -0.72126  -0.69882
 Alpha  occ. eigenvalues --   -0.64797  -0.62404  -0.60666  -0.58312  -0.57169
 Alpha  occ. eigenvalues --   -0.53911  -0.51818  -0.51008  -0.48723  -0.46619
 Alpha  occ. eigenvalues --   -0.46173  -0.45114
 Alpha virt. eigenvalues --    0.02400   0.04057   0.04148   0.05053   0.06272
 Alpha virt. eigenvalues --    0.06506   0.06903   0.07286   0.07591   0.08413
 Alpha virt. eigenvalues --    0.09155   0.09443   0.11213   0.13059   0.13520

 Mulliken charges:
               1
     1  Si   1.401803
     2  N    0.306723
     3  O   -0.598412
     4  O   -0.547170
     5  C    0.170693
     6  C    0.282708
     7  H   -0.196514
     8  H   -0.173419
     9  H   -0.088495
    10  H   -0.101999
    11  C    0.313509
    12  H   -0.213897
    13  H   -0.205657
    14  H   -0.212782
    15  H   -0.093943
    16  H   -0.043147
 Sum of Mulliken charges =  -0.00000

 Dipole moment (field-independent basis, Debye):
    X=             -4.2153    Y=              3.0169    Z=              0.8628  Tot=              5.2550

 Test job not archived.
 1\1\GINC-SE082\SP\RHF\Aug-CC-pVDZ\C3H9N1O2Si1\OHZDE\08-Apr-2025\0\\#t
 hf aug-cc-pvdz iop(5/13=1,5/36=2,99/5=2) pseudo=read geom=check guess=
 (read,tcheck) scf=(maxcycle=1)\\title\\0,1\Si,0,0.079417,0.614619,-0.5
 88296\N,0,-1.249699,-0.580556,0.009382\O,0,-2.351596,-0.092869,0.25261
 1\O,0,-0.984613,-1.776558,0.114399\C,0,1.69818,-0.314957,-0.639848\C,0
 ,2.253276,-0.769247,0.722616\H,0,2.420227,0.335575,-1.151018\H,0,1.555
 452,-1.179849,-1.295868\H,0,1.558991,-1.451713,1.216669\H,0,2.433077,0
 .077086,1.391268\C,0,-0.009294,2.063419,0.57855\H,0,0.659671,2.862454,

 Normal termination of Gaussian 16 at Tue Apr  8 23:59:06 2025.
