 Gaussian 16, Revision C.01,

 ----------------------------------------------------------------------
 #t hf aug-cc-pvdz symm=none int=(grid=ultrafine) guess=(read,tcheck) s
 table=(opt,rrhf)
 ----------------------------------------------------------------------
 -----
 title
 -----
 Symbolic Z-matrix:
 Charge =  0 Multiplicity = 1

 SCF Done:  E(RHF) =  -433.613711352     A.U. after   12 cycles
 Normal termination of Gaussian 16 at Wed Apr  9 00:43:12 2025.
 Gaussian 16:  ES64L-G16RevC.01  3-Jul-2019

 ----------------------------------------------------------------------
 #t hf aug-cc-pvdz iop(5/13=1,5/36=2,99/5=2) pseudo=read geom=check gue
 ss=(read,tcheck) scf=(maxcycle=1)
 ----------------------------------------------------------------------
 -----
 title
 -----
 Structure from the checkpoint file:  "BDE49_nonexpt_777_mol1.chk"
 Charge =  0 Multiplicity = 1

                         Standard orientation:
 ---------------------------------------------------------------------
 Center     Atomic      Atomic             Coordinates (Angstroms)
 Number     Number       Type             X           Y           Z
 ---------------------------------------------------------------------
      1          5           0       -0.721939    2.004001   -0.248018
      2         14           0       -0.491232    0.075101    0.294318
      3          6           0        1.097354   -0.738437   -0.347974
      4          6           0        2.399589   -0.044268    0.085361
      5          1           0        1.044515   -0.783226   -1.442895
      6          1           0        1.100527   -1.781824   -0.010026
      7          1           0        2.437965    0.991941   -0.262237
      8          1           0        3.279946   -0.556340   -0.314702
      9          6           0       -1.991602   -0.993279   -0.132388
     10          1           0       -2.907042   -0.563362    0.282978
     11          1           0       -1.881559   -2.004957    0.268483
     12          1           0       -2.124812   -1.077137   -1.215147
     13          1           0        2.497584   -0.026491    1.174728
     14          1           0        0.195336    2.705882   -0.549939
     15          1           0       -1.799640    2.518787   -0.228422
     16          1           0       -0.387924    0.161215    1.786831
 ---------------------------------------------------------------------

 SCF Done:  E(RHF) =  -433.684777169     A.U. after    2 cycles

 The electronic state is 1-A.
 Alpha  occ. eigenvalues --  -69.03619 -11.22645 -11.21601 -11.21227  -7.61586
 Alpha  occ. eigenvalues --   -6.79043  -3.89834  -3.89795  -3.89767  -1.00803
 Alpha  occ. eigenvalues --   -0.93324  -0.83616  -0.70482  -0.62329  -0.60123
 Alpha  occ. eigenvalues --   -0.56490  -0.55525  -0.55439  -0.51023  -0.49267
 Alpha  occ. eigenvalues --   -0.49126  -0.44325  -0.41385  -0.39116
 Alpha virt. eigenvalues --    0.02789   0.03798   0.04244   0.04490   0.05646
 Alpha virt. eigenvalues --    0.06045   0.06414   0.06732   0.07062   0.08783
 Alpha virt. eigenvalues --    0.08825   0.09171   0.09497   0.10590   0.11038

 Mulliken charges:
               1
     1  B   -0.729444
     2  Si   0.562144
     3  C    0.207414
     4  C    0.221715
     5  H   -0.162010
     6  H   -0.262074
     7  H   -0.149305
     8  H   -0.083952
     9  C    0.327503
    10  H   -0.292607
    11  H   -0.253802
    12  H   -0.184512
    13  H   -0.114317
    14  H    0.425160
    15  H    0.427286
    16  H    0.060804
 Sum of Mulliken charges =  -0.00000

 Dipole moment (field-independent basis, Debye):
    X=              0.0249    Y=             -0.4233    Z=             -0.6073  Tot=              0.7407

 Test job not archived.
 1\1\GINC-SE074\SP\RHF\Aug-CC-pVDZ\C3H11B1Si1\OHZDE\09-Apr-2025\0\\#t h
 f aug-cc-pvdz iop(5/13=1,5/36=2,99/5=2) pseudo=read geom=check guess=(
 read,tcheck) scf=(maxcycle=1)\\title\\0,1\B,0,-0.721939,2.004001,-0.24
 8018\Si,0,-0.491232,0.075101,0.294318\C,0,1.097354,-0.738437,-0.347974
 \C,0,2.399589,-0.044268,0.085361\H,0,1.044515,-0.783226,-1.442895\H,0,
 1.100527,-1.781824,-0.010026\H,0,2.437965,0.991941,-0.262237\H,0,3.279
 946,-0.55634,-0.314702\C,0,-1.991602,-0.993279,-0.132388\H,0,-2.907042
 ,-0.563362,0.282978\H,0,-1.881559,-2.004957,0.268483\H,0,-2.124812,-1.

 Normal termination of Gaussian 16 at Wed Apr  9 00:43:17 2025.
