 Gaussian 16, Revision C.01,

 ----------------------------------------------------------------------
 #t hf aug-cc-pvdz symm=none int=(grid=ultrafine) guess=(read,tcheck) s
 table=opt
 ----------------------------------------------------------------------
 -----
 title
 -----
 Symbolic Z-matrix:
 Charge =  0 Multiplicity = 2

 SCF Done:  E(UHF) =  -607.580294516     A.U. after   20 cycles
 Normal termination of Gaussian 16 at Tue Apr  8 23:32:18 2025.
 Gaussian 16:  ES64L-G16RevC.01  3-Jul-2019

 ----------------------------------------------------------------------
 #t hf aug-cc-pvdz iop(5/13=1,5/36=2,99/5=2) pseudo=read geom=check gue
 ss=(read,tcheck) scf=(maxcycle=1)
 ----------------------------------------------------------------------
 -----
 title
 -----
 Structure from the checkpoint file:  "BDE49_nonexpt_1453_mol2.chk"
 Charge =  0 Multiplicity = 2

                         Standard orientation:
 ---------------------------------------------------------------------
 Center     Atomic      Atomic             Coordinates (Angstroms)
 Number     Number       Type             X           Y           Z
 ---------------------------------------------------------------------
      1          6           0        0.648910    0.413118   -0.000120
      2         15           0        2.130956   -0.730957    0.000035
      3          8           0       -0.474198   -0.337684   -0.000070
      4          8           0        0.662468    1.617661    0.000025
      5          6           0       -1.733348    0.387898   -0.000002
      6          6           0       -2.847582   -0.637038    0.000039
      7          1           0       -1.762046    1.031281   -0.882487
      8          1           0       -1.761963    1.031260    0.882501
      9          1           0       -2.791799   -1.273036   -0.885831
     10          1           0       -3.816215   -0.130472    0.000091
     11          1           0       -2.791716   -1.273058    0.885888
     12          1           0        3.045367    0.354686    0.000170
 ---------------------------------------------------------------------

 SCF Done:  E(UHF) =  -607.683817503     A.U. after    2 cycles

 The electronic state is 2-A.
 Alpha  occ. eigenvalues --  -81.28984 -20.62261 -20.57930 -11.40058 -11.30648
 Alpha  occ. eigenvalues --  -11.24094  -7.79434  -4.94080  -4.93071  -4.92763
 Alpha  occ. eigenvalues --   -1.42534  -1.33836  -1.04543  -0.91058  -0.83630
 Alpha  occ. eigenvalues --   -0.78453  -0.70351  -0.69715  -0.65424  -0.60622
 Alpha  occ. eigenvalues --   -0.56743  -0.55913  -0.53512  -0.52516  -0.48824
 Alpha  occ. eigenvalues --   -0.48614  -0.40828  -0.37869
 Alpha virt. eigenvalues --    0.03486   0.04774   0.05182   0.05196   0.06372
 Alpha virt. eigenvalues --    0.07757   0.08029   0.09865   0.10109   0.11843
 Alpha virt. eigenvalues --    0.12215   0.13284   0.14828   0.15317   0.16184

  Beta  occ. eigenvalues --  -81.28295 -20.62266 -20.57360 -11.40421 -11.30655
  Beta  occ. eigenvalues --  -11.24094  -7.78610  -4.92572  -4.92385  -4.90946
  Beta  occ. eigenvalues --   -1.42260  -1.33000  -1.04519  -0.90145  -0.81532
  Beta  occ. eigenvalues --   -0.76761  -0.69766  -0.69510  -0.63971  -0.59645
  Beta  occ. eigenvalues --   -0.56659  -0.55514  -0.52496  -0.51991  -0.47525
  Beta  occ. eigenvalues --   -0.47299  -0.39135
  Beta virt. eigenvalues --    0.00949   0.03509   0.04884   0.05186   0.05313
  Beta virt. eigenvalues --    0.06426   0.07797   0.08144   0.10190   0.11364
  Beta virt. eigenvalues --    0.11961   0.12233   0.14436   0.15272   0.15480

 Mulliken charges and spin densities:
               1          2
     1  C    0.138345  -0.184631
     2  P    0.244942   1.225397
     3  O   -0.490504  -0.011598
     4  O   -0.433608   0.134870
     5  C    0.662730   0.004122
     6  C    0.225201  -0.000783
     7  H   -0.154540   0.000073
     8  H   -0.154531   0.000072
     9  H   -0.042239   0.000156
    10  H   -0.008740  -0.000139
    11  H   -0.042238   0.000156
    12  H    0.055181  -0.167695
 Sum of Mulliken charges =  -0.00000   1.00000

 Dipole moment (field-independent basis, Debye):
    X=             -1.1218    Y=             -1.2445    Z=             -0.0001  Tot=              1.6754
                          Isotropic Fermi Contact Couplings
        Atom                 a.u.       MegaHertz       Gauss      10(-4) cm-1
     1  C(13)             -0.06030     -67.78664     -24.18796     -22.61119
     2  P(31)              0.21506     389.49097     138.98006     129.92020
     3  O(17)             -0.00935       5.66870       2.02273       1.89088
     4  O(17)              0.04744     -28.75682     -10.26115      -9.59224
     5  C(13)             -0.00121      -1.36545      -0.48723      -0.45546
     6  C(13)              0.00013       0.14348       0.05120       0.04786
     7  H(1)               0.00031       1.36636       0.48755       0.45577
     8  H(1)               0.00031       1.36576       0.48734       0.45557

 Normal termination of Gaussian 16 at Tue Apr  8 23:32:22 2025.
