 Gaussian 16, Revision C.01,

 ----------------------------------------------------------------------
 #t hf aug-cc-pvdz symm=none int=(grid=ultrafine) guess=(read,tcheck) s
 table=(opt,rrhf)
 ----------------------------------------------------------------------
 -----
 title
 -----
 Symbolic Z-matrix:
 Charge =  0 Multiplicity = 1

 SCF Done:  E(RHF) =  -1687.51736066     A.U. after   15 cycles
 Normal termination of Gaussian 16 at Wed Apr  9 00:50:55 2025.
 Gaussian 16:  ES64L-G16RevC.01  3-Jul-2019

 ----------------------------------------------------------------------
 #t hf aug-cc-pvdz iop(5/13=1,5/36=2,99/5=2) pseudo=read geom=check gue
 ss=(read,tcheck) scf=(maxcycle=1)
 ----------------------------------------------------------------------
 -----
 title
 -----
 Structure from the checkpoint file:  "BDE49_nonexpt_930_mol1.chk"
 Charge =  0 Multiplicity = 1

                         Standard orientation:
 ---------------------------------------------------------------------
 Center     Atomic      Atomic             Coordinates (Angstroms)
 Number     Number       Type             X           Y           Z
 ---------------------------------------------------------------------
      1         17           0       -0.203738    2.161826   -0.130922
      2          7           0       -0.012527    0.451381   -0.413196
      3         16           0        1.539688   -0.204431    0.183175
      4         16           0       -1.470904   -0.474484   -0.176519
      5          8           0        2.442485    0.910797    0.181097
      6          8           0        1.297892   -0.973043    1.377649
      7          8           0       -2.500778    0.218275   -0.893513
      8          8           0       -1.066368   -1.813218   -0.522756
      9          6           0        1.932343   -1.298441   -1.169538
     10          1           0        2.891972   -1.746584   -0.907689
     11          1           0        2.011996   -0.696881   -2.072305
     12          1           0        1.147912   -2.047025   -1.245185
     13          6           0       -1.816532   -0.392933    1.573474
     14          1           0       -1.969608    0.649755    1.846857
     15          1           0       -0.978742   -0.837135    2.106005
     16          1           0       -2.733541   -0.964441    1.720442
 ---------------------------------------------------------------------

 SCF Done:  E(RHF) =  -1687.82936667     A.U. after    2 cycles

 The electronic state is 1-A.
 Alpha  occ. eigenvalues -- -103.72969 -93.84121 -93.83800 -20.59874 -20.59772
 Alpha  occ. eigenvalues --  -20.59466 -20.59252 -15.75375 -11.30716 -11.30496
 Alpha  occ. eigenvalues --  -10.75865  -9.10466  -9.10137  -8.41626  -8.41215
 Alpha  occ. eigenvalues --   -8.41182  -6.45098  -6.44955  -6.44788  -6.44765
 Alpha  occ. eigenvalues --   -6.44627  -6.44446  -1.47375  -1.46297  -1.35166
 Alpha  occ. eigenvalues --   -1.34744  -1.27643  -1.10979  -1.06807  -1.03417
 Alpha  occ. eigenvalues --   -0.89723  -0.81986  -0.76083  -0.72792  -0.72454
 Alpha  occ. eigenvalues --   -0.70987  -0.69858  -0.68830  -0.64265  -0.63584
 Alpha  occ. eigenvalues --   -0.63230  -0.61878  -0.58690  -0.58346  -0.56207
 Alpha  occ. eigenvalues --   -0.55384  -0.54598  -0.53700  -0.53314  -0.51609
 Alpha  occ. eigenvalues --   -0.50731  -0.48258  -0.44551
 Alpha virt. eigenvalues --    0.03238   0.03664   0.04775   0.05423   0.06394
 Alpha virt. eigenvalues --    0.06650   0.06771   0.08789   0.10817   0.11311
 Alpha virt. eigenvalues --    0.11415   0.12057   0.12543   0.13811   0.14315

 Mulliken charges:
               1
     1  Cl   0.221741
     2  N   -1.501180
     3  S    2.543588
     4  S    2.559305
     5  O   -0.980922
     6  O   -1.075150
     7  O   -1.010616
     8  O   -1.035937
     9  C    0.060292
    10  H    0.061313
    11  H    0.028187
    12  H    0.012939
    13  C   -0.009407
    14  H    0.035424
    15  H    0.046174
    16  H    0.044250
 Sum of Mulliken charges =  -0.00000

 Dipole moment (field-independent basis, Debye):
    X=              0.2157    Y=             -0.9245    Z=              0.6189  Tot=              1.1333

 Test job not archived.
 1\1\GINC-SE044\SP\RHF\Aug-CC-pVDZ\C2H6Cl1N1O4S2\OHZDE\09-Apr-2025\0\\#
 t hf aug-cc-pvdz iop(5/13=1,5/36=2,99/5=2) pseudo=read geom=check gues
 s=(read,tcheck) scf=(maxcycle=1)\\title\\0,1\Cl,0,-0.203738,2.161826,-
 0.130922\N,0,-0.012527,0.451381,-0.413196\S,0,1.539688,-0.204431,0.183
 175\S,0,-1.470904,-0.474484,-0.176519\O,0,2.442485,0.910797,0.181097\O
 ,0,1.297892,-0.973043,1.377649\O,0,-2.500778,0.218275,-0.893513\O,0,-1
 .066368,-1.813218,-0.522756\C,0,1.932343,-1.298441,-1.169538\H,0,2.891
 972,-1.746584,-0.907689\H,0,2.011996,-0.696881,-2.072305\H,0,1.147912,

 Normal termination of Gaussian 16 at Wed Apr  9 00:51:05 2025.
