 Gaussian 16, Revision C.01,

 ----------------------------------------------------------------------
 #t hf aug-cc-pvdz symm=none int=(grid=ultrafine) guess=(read,tcheck) s
 table=(opt,rrhf)
 ----------------------------------------------------------------------
 -----
 title
 -----
 Symbolic Z-matrix:
 Charge =  0 Multiplicity = 1

 SCF Done:  E(RHF) =  -345.693167217     A.U. after   14 cycles
 Normal termination of Gaussian 16 at Tue Apr  8 23:20:59 2025.
 Gaussian 16:  ES64L-G16RevC.01  3-Jul-2019

 ----------------------------------------------------------------------
 #t hf aug-cc-pvdz iop(5/13=1,5/36=2,99/5=2) pseudo=read geom=check gue
 ss=(read,tcheck) scf=(maxcycle=1)
 ----------------------------------------------------------------------
 -----
 title
 -----
 Structure from the checkpoint file:  "BDE49_nonexpt_1186_mol1.chk"
 Charge =  0 Multiplicity = 1

                         Standard orientation:
 ---------------------------------------------------------------------
 Center     Atomic      Atomic             Coordinates (Angstroms)
 Number     Number       Type             X           Y           Z
 ---------------------------------------------------------------------
      1          9           0        2.512519   -0.331125   -0.000001
      2          7           0        0.294713   -0.574092   -0.000001
      3          6           0       -1.141339    1.428267    0.000001
      4          6           0       -0.875616   -0.054478    0.000000
      5          6           0       -2.026855   -1.017980    0.000000
      6          8           0        1.269573    0.399035   -0.000001
      7          1           0       -0.688920    1.898150   -0.878572
      8          1           0       -0.688916    1.898149    0.878573
      9          1           0       -2.211037    1.637056    0.000004
     10          1           0       -1.667148   -2.046201    0.000000
     11          1           0       -2.656677   -0.857758   -0.881446
     12          1           0       -2.656676   -0.857759    0.881448
 ---------------------------------------------------------------------

 SCF Done:  E(RHF) =  -345.805630409     A.U. after    2 cycles

 The electronic state is 1-A.
 Alpha  occ. eigenvalues --  -26.15735 -20.72521 -15.70388 -11.32153 -11.26312
 Alpha  occ. eigenvalues --  -11.25942  -1.66274  -1.38587  -1.15769  -1.00770
 Alpha  occ. eigenvalues --   -0.97479  -0.81062  -0.76926  -0.74203  -0.70672
 Alpha  occ. eigenvalues --   -0.66242  -0.64696  -0.61275  -0.59609  -0.57453
 Alpha  occ. eigenvalues --   -0.57196  -0.54544  -0.46834  -0.41131
 Alpha virt. eigenvalues --    0.02766   0.04049   0.04518   0.05519   0.07274
 Alpha virt. eigenvalues --    0.07352   0.09610   0.11727   0.12899   0.12945
 Alpha virt. eigenvalues --    0.13523   0.14363   0.14720   0.15453   0.15807

 Mulliken charges:
               1
     1  F   -0.342270
     2  N   -0.183105
     3  C    0.532806
     4  C   -0.130736
     5  C    0.216033
     6  O   -0.145573
     7  H    0.068252
     8  H    0.068253
     9  H   -0.161370
    10  H   -0.057216
    11  H    0.067462
    12  H    0.067464
 Sum of Mulliken charges =   0.00000

 Dipole moment (field-independent basis, Debye):
    X=             -4.5469    Y=              1.3586    Z=              0.0000  Tot=              4.7456

 Test job not archived.
 1\1\GINC-SE049\SP\RHF\Aug-CC-pVDZ\C3H6F1N1O1\OHZDE\08-Apr-2025\0\\#t h
 f aug-cc-pvdz iop(5/13=1,5/36=2,99/5=2) pseudo=read geom=check guess=(
 read,tcheck) scf=(maxcycle=1)\\title\\0,1\F,0,2.512519,-0.331125,-0.00
 0001\N,0,0.294713,-0.574092,-0.000001\C,0,-1.141339,1.428267,0.000001\
 C,0,-0.875616,-0.054478,0.\C,0,-2.026855,-1.01798,0.\O,0,1.269573,0.39
 9035,-0.000001\H,0,-0.68892,1.89815,-0.878572\H,0,-0.688916,1.898149,0
 .878573\H,0,-2.211037,1.637056,0.000004\H,0,-1.667148,-2.046201,0.\H,0
 ,-2.656677,-0.857758,-0.881446\H,0,-2.656676,-0.857759,0.881448\\Versi

 Normal termination of Gaussian 16 at Tue Apr  8 23:21:03 2025.
