 Gaussian 16, Revision C.01,

 ----------------------------------------------------------------------
 #t hf aug-cc-pvdz symm=none int=(grid=ultrafine) guess=(read,tcheck) s
 table=(opt,rrhf)
 ----------------------------------------------------------------------
 -----
 title
 -----
 Symbolic Z-matrix:
 Charge =  0 Multiplicity = 1

 SCF Done:  E(RHF) =  -779.202961547     A.U. after   10 cycles

 1\1\GINC-SE365\Stability\RHF\Aug-CC-pVDZ\F2H4Si2\OHZDE\09-Apr-2025\0\\
 #t hf aug-cc-pvdz symm=none int=(grid=ultrafine) guess=(read,tcheck) s
 table=(opt,rrhf)\\title\\0,1\Si,0,-1.045253,-0.554395,0.\Si,0,1.045254
 ,0.554395,0.\F,0,2.200515,-0.581823,0.\H,0,1.227141,1.389424,1.208061\
 H,0,1.227139,1.389424,-1.20806\F,0,-2.200516,0.581823,-0.000001\H,0,-1
 .22714,-1.389423,1.208061\H,0,-1.227138,-1.389424,-1.20806\\Version=ES
 64L-G16RevC.01\HF=-779.2029615\RMSD=6.130e-09\Dipole=0.0000036,-0.0000
 016,-0.0000007\Quadrupole=-3.9429773,1.7135063,2.2294711,3.0951325,-0.

 Normal termination of Gaussian 16 at Wed Apr  9 00:07:27 2025.
 Gaussian 16:  ES64L-G16RevC.01  3-Jul-2019

 ----------------------------------------------------------------------
 #t hf aug-cc-pvdz iop(5/13=1,5/36=2,99/5=2) pseudo=read geom=check gue
 ss=(read,tcheck) scf=(maxcycle=1)
 ----------------------------------------------------------------------
 -----
 title
 -----
 Structure from the checkpoint file:  "BDE49_nonexpt_2305_mol1.chk"
 Charge =  0 Multiplicity = 1

                         Standard orientation:
 ---------------------------------------------------------------------
 Center     Atomic      Atomic             Coordinates (Angstroms)
 Number     Number       Type             X           Y           Z
 ---------------------------------------------------------------------
      1         14           0       -1.045253   -0.554395    0.000000
      2         14           0        1.045254    0.554395    0.000000
      3          9           0        2.200515   -0.581823    0.000000
      4          1           0        1.227141    1.389424    1.208061
      5          1           0        1.227139    1.389424   -1.208060
      6          9           0       -2.200516    0.581823   -0.000001
      7          1           0       -1.227140   -1.389423    1.208061
      8          1           0       -1.227138   -1.389424   -1.208060
 ---------------------------------------------------------------------

 SCF Done:  E(RHF) =  -779.332580923     A.U. after    2 cycles

 The electronic state is 1-A.
 Alpha  occ. eigenvalues --  -69.12474 -69.12474 -26.11447 -26.11447  -6.87227
 Alpha  occ. eigenvalues --   -6.87217  -3.98135  -3.98127  -3.97949  -3.97942
 Alpha  occ. eigenvalues --   -3.97931  -3.97872  -1.63918  -1.63872  -0.81933
 Alpha  occ. eigenvalues --   -0.79950  -0.72879  -0.72750  -0.72740  -0.72592
 Alpha  occ. eigenvalues --   -0.66636  -0.61850  -0.51080  -0.49064  -0.42305
 Alpha virt. eigenvalues --    0.03873   0.04040   0.04667   0.06337   0.07117
 Alpha virt. eigenvalues --    0.07552   0.07766   0.08727   0.09762   0.10175
 Alpha virt. eigenvalues --    0.10886   0.14374   0.14474   0.16192   0.16418

 Mulliken charges:
               1
     1  Si   0.809730
     2  Si   0.809731
     3  F   -0.766102
     4  H   -0.021815
     5  H   -0.021814
     6  F   -0.766102
     7  H   -0.021814
     8  H   -0.021814
 Sum of Mulliken charges =  -0.00000

 Dipole moment (field-independent basis, Debye):
    X=              0.0000    Y=             -0.0000    Z=             -0.0000  Tot=              0.0000

 Test job not archived.
 1\1\GINC-SE365\SP\RHF\Aug-CC-pVDZ\F2H4Si2\OHZDE\09-Apr-2025\0\\#t hf a
 ug-cc-pvdz iop(5/13=1,5/36=2,99/5=2) pseudo=read geom=check guess=(rea
 d,tcheck) scf=(maxcycle=1)\\title\\0,1\Si,0,-1.045253,-0.554395,0.\Si,
 0,1.045254,0.554395,0.\F,0,2.200515,-0.581823,0.\H,0,1.227141,1.389424
 ,1.208061\H,0,1.227139,1.389424,-1.20806\F,0,-2.200516,0.581823,-0.000
 001\H,0,-1.22714,-1.389423,1.208061\H,0,-1.227138,-1.389424,-1.20806\\
 Version=ES64L-G16RevC.01\State=1-A\HF=-779.3325809\RMSD=5.240e-03\Dipo
 le=0.0000037,-0.0000016,-0.0000007\Quadrupole=-4.3144993,1.8711377,2.4

 Normal termination of Gaussian 16 at Wed Apr  9 00:07:29 2025.
