 Gaussian 16, Revision C.01,

 ----------------------------------------------------------------------
 #t hf aug-cc-pvdz symm=none int=(grid=ultrafine) guess=(read,tcheck) s
 table=(opt,rrhf)
 ----------------------------------------------------------------------
 -----
 title
 -----
 Symbolic Z-matrix:
 Charge =  0 Multiplicity = 1

 SCF Done:  E(RHF) =  -1034.67262223     A.U. after   14 cycles
 Normal termination of Gaussian 16 at Wed Apr  9 00:10:47 2025.
 Gaussian 16:  ES64L-G16RevC.01  3-Jul-2019

 ----------------------------------------------------------------------
 #t hf aug-cc-pvdz iop(5/13=1,5/36=2,99/5=2) pseudo=read geom=check gue
 ss=(read,tcheck) scf=(maxcycle=1)
 ----------------------------------------------------------------------
 -----
 title
 -----
 Structure from the checkpoint file:  "BDE49_nonexpt_2357_mol1.chk"
 Charge =  0 Multiplicity = 1

                         Standard orientation:
 ---------------------------------------------------------------------
 Center     Atomic      Atomic             Coordinates (Angstroms)
 Number     Number       Type             X           Y           Z
 ---------------------------------------------------------------------
      1         14           0       -0.968941    1.635204   -0.676236
      2         14           0        0.969021    1.635225    0.676193
      3          6           0       -1.678904   -0.147941   -0.553339
      4          8           0       -1.330213   -1.052038   -1.274223
      5          1           0       -0.620850    1.865095   -2.093833
      6          1           0       -1.944190    2.647303   -0.211831
      7          8           0       -2.540048   -0.295604    0.475003
      8          6           0       -3.007390   -1.642143    0.722935
      9          1           0       -3.678191   -1.562592    1.574708
     10          1           0       -2.162965   -2.292443    0.953813
     11          1           0       -3.534128   -2.027977   -0.150562
     12          6           0        1.678965   -0.147935    0.553395
     13          1           0        0.620934    1.865196    2.093778
     14          1           0        1.944285    2.647284    0.211734
     15          8           0        1.330189   -1.052010    1.274267
     16          8           0        2.540022   -0.295689   -0.475005
     17          6           0        3.007257   -1.642268   -0.722926
     18          1           0        2.162772   -2.292521   -0.953719
     19          1           0        3.534036   -2.028107    0.150545
     20          1           0        3.677999   -1.562791   -1.574753
 ---------------------------------------------------------------------

 SCF Done:  E(RHF) =  -1034.86164959     A.U. after    2 cycles

 The electronic state is 1-A.
 Alpha  occ. eigenvalues --  -69.08488 -69.08487 -20.62027 -20.62027 -20.56956
 Alpha  occ. eigenvalues --  -20.56955 -11.38359 -11.38358 -11.29706 -11.29705
 Alpha  occ. eigenvalues --   -6.83896  -6.83891  -3.94679  -3.94671  -3.94646
 Alpha  occ. eigenvalues --   -3.94633  -3.94624  -3.94565  -1.41766  -1.41684
 Alpha  occ. eigenvalues --   -1.32639  -1.32606  -0.98181  -0.98061  -0.81891
 Alpha  occ. eigenvalues --   -0.80359  -0.76371  -0.73938  -0.69277  -0.69111
 Alpha  occ. eigenvalues --   -0.68221  -0.67751  -0.66630  -0.63347  -0.57964
 Alpha  occ. eigenvalues --   -0.57025  -0.56492  -0.55541  -0.53661  -0.53602
 Alpha  occ. eigenvalues --   -0.51044  -0.48845  -0.48259  -0.47958  -0.45547
 Alpha  occ. eigenvalues --   -0.43652  -0.40552
 Alpha virt. eigenvalues --    0.03458   0.03905   0.04339   0.04584   0.05797
 Alpha virt. eigenvalues --    0.05875   0.06262   0.06712   0.07091   0.07918
 Alpha virt. eigenvalues --    0.08159   0.08482   0.08724   0.09385   0.10006

 Mulliken charges:
               1
     1  Si  -0.190921
     2  Si  -0.190819
     3  C    0.554999
     4  O   -0.490421
     5  H    0.140794
     6  H    0.156428
     7  O   -0.535538
     8  C    0.779829
     9  H   -0.246791
    10  H   -0.082024
    11  H   -0.086364
    12  C    0.554940
    13  H    0.140774
    14  H    0.156419
    15  O   -0.490416
    16  O   -0.535531
    17  C    0.779817
    18  H   -0.082017
    19  H   -0.086366
    20  H   -0.246793
 Sum of Mulliken charges =  -0.00000

 Dipole moment (field-independent basis, Debye):
    X=             -0.0000    Y=              1.4576    Z=             -0.0000  Tot=              1.4576

 Test job not archived.
 1\1\GINC-SE166\SP\RHF\Aug-CC-pVDZ\C4H10O4Si2\OHZDE\09-Apr-2025\0\\#t h
 f aug-cc-pvdz iop(5/13=1,5/36=2,99/5=2) pseudo=read geom=check guess=(
 read,tcheck) scf=(maxcycle=1)\\title\\0,1\Si,0,0.968941,1.635204,0.676
 236\Si,0,-0.969021,1.635225,-0.676193\C,0,1.678904,-0.147941,0.553339\
 O,0,1.330213,-1.052038,1.274223\H,0,0.62085,1.865095,2.093833\H,0,1.94
 419,2.647303,0.211831\O,0,2.540048,-0.295604,-0.475003\C,0,3.00739,-1.
 642143,-0.722935\H,0,3.678191,-1.562592,-1.574708\H,0,2.162965,-2.2924
 43,-0.953813\H,0,3.534128,-2.027977,0.150562\C,0,-1.678965,-0.147935,-

 Normal termination of Gaussian 16 at Wed Apr  9 00:11:00 2025.
