 Gaussian 16, Revision C.01,

 ----------------------------------------------------------------------
 #t hf aug-cc-pvdz symm=none int=(grid=ultrafine) guess=(read,tcheck) s
 table=(opt,rrhf)
 ----------------------------------------------------------------------
 -----
 title
 -----
 Symbolic Z-matrix:
 Charge =  0 Multiplicity = 1

 SCF Done:  E(RHF) =  -394.579404211     A.U. after   11 cycles
 Normal termination of Gaussian 16 at Wed Apr  9 00:43:30 2025.
 Gaussian 16:  ES64L-G16RevC.01  3-Jul-2019

 ----------------------------------------------------------------------
 #t hf aug-cc-pvdz iop(5/13=1,5/36=2,99/5=2) pseudo=read geom=check gue
 ss=(read,tcheck) scf=(maxcycle=1)
 ----------------------------------------------------------------------
 -----
 title
 -----
 Structure from the checkpoint file:  "BDE49_nonexpt_786_mol1.chk"
 Charge =  0 Multiplicity = 1

                         Standard orientation:
 ---------------------------------------------------------------------
 Center     Atomic      Atomic             Coordinates (Angstroms)
 Number     Number       Type             X           Y           Z
 ---------------------------------------------------------------------
      1          5           0       -0.000013    2.017604   -0.236713
      2         14           0       -0.000001    0.080500    0.322018
      3          6           0       -1.551120   -0.859619   -0.206560
      4          1           0       -1.612731   -0.940846   -1.296004
      5          6           0        1.551131   -0.859600   -0.206560
      6          1           0        1.612743   -0.940826   -1.296004
      7          1           0        1.556585   -1.873694    0.203247
      8          1           0        2.454019   -0.350149    0.140862
      9          1           0       -2.454016   -0.350180    0.140862
     10          1           0       -1.556562   -1.873712    0.203247
     11          1           0       -1.015835    2.629040   -0.379576
     12          1           0        1.015803    2.629052   -0.379576
     13          1           0       -0.000001    0.171607    1.816969
 ---------------------------------------------------------------------

 SCF Done:  E(RHF) =  -394.638904248     A.U. after    2 cycles

 The electronic state is 1-A.
 Alpha  occ. eigenvalues --  -69.03890 -11.21212 -11.21209  -7.61620  -6.79283
 Alpha  occ. eigenvalues --   -3.90079  -3.90045  -3.90014  -0.94692  -0.91878
 Alpha  occ. eigenvalues --   -0.70400  -0.61565  -0.56525  -0.56224  -0.54693
 Alpha  occ. eigenvalues --   -0.54480  -0.49356  -0.44608  -0.43096  -0.39372
 Alpha virt. eigenvalues --    0.02770   0.03878   0.04550   0.04587   0.06028
 Alpha virt. eigenvalues --    0.06265   0.06595   0.07207   0.07461   0.08967
 Alpha virt. eigenvalues --    0.09345   0.10135   0.10150   0.10998   0.13525

 Mulliken charges:
               1
     1  B   -0.689775
     2  Si   0.786467
     3  C    0.294351
     4  H   -0.171602
     5  C    0.294351
     6  H   -0.171602
     7  H   -0.256881
     8  H   -0.276008
     9  H   -0.276005
    10  H   -0.256884
    11  H    0.372773
    12  H    0.372772
    13  H   -0.021957
 Sum of Mulliken charges =  -0.00000

 Dipole moment (field-independent basis, Debye):
    X=              0.0000    Y=             -0.3730    Z=             -0.5763  Tot=              0.6865

 Test job not archived.
 1\1\GINC-SE227\SP\RHF\Aug-CC-pVDZ\C2H9B1Si1\OHZDE\09-Apr-2025\0\\#t hf
  aug-cc-pvdz iop(5/13=1,5/36=2,99/5=2) pseudo=read geom=check guess=(r
 ead,tcheck) scf=(maxcycle=1)\\title\\0,1\B,0,0.000002,2.017604,-0.2367
 13\Si,0,0.,0.0805,0.322018\C,0,-1.551126,-0.859608,-0.20656\H,0,-1.612
 738,-0.940834,-1.296004\C,0,1.551125,-0.859611,-0.20656\H,0,1.612736,-
 0.940838,-1.296004\H,0,1.556572,-1.873705,0.203247\H,0,2.454017,-0.350
 167,0.140862\H,0,-2.454018,-0.350162,0.140862\H,0,-1.556575,-1.873701,
 0.203247\H,0,-1.015816,2.629047,-0.379576\H,0,1.015822,2.629045,-0.379

 Normal termination of Gaussian 16 at Wed Apr  9 00:43:33 2025.
