 Gaussian 16, Revision C.01,

 ----------------------------------------------------------------------
 #t hf aug-cc-pvdz symm=none int=(grid=ultrafine) guess=(read,tcheck) s
 table=(opt,rrhf)
 ----------------------------------------------------------------------
 -----
 title
 -----
 Symbolic Z-matrix:
 Charge =  0 Multiplicity = 1

 SCF Done:  E(RHF) =  -527.340991627     A.U. after   14 cycles
 Normal termination of Gaussian 16 at Tue Apr  8 22:51:31 2025.
 Gaussian 16:  ES64L-G16RevC.01  3-Jul-2019

 ----------------------------------------------------------------------
 #t hf aug-cc-pvdz iop(5/13=1,5/36=2,99/5=2) pseudo=read geom=check gue
 ss=(read,tcheck) scf=(maxcycle=1)
 ----------------------------------------------------------------------
 -----
 title
 -----
 Structure from the checkpoint file:  "BDE49_expt_1817_mol1.chk"
 Charge =  0 Multiplicity = 1

                         Standard orientation:
 ---------------------------------------------------------------------
 Center     Atomic      Atomic             Coordinates (Angstroms)
 Number     Number       Type             X           Y           Z
 ---------------------------------------------------------------------
      1          7           0        0.000000    0.927670    0.000000
      2          8           0        1.139103    1.159553    0.000000
      3         16           0       -0.459538   -0.947000    0.000000
      4          1           0       -1.760223   -0.618115    0.000000
 ---------------------------------------------------------------------

 SCF Done:  E(RHF) =  -527.401196672     A.U. after    2 cycles

 The electronic state is 1-A'.
 Alpha  occ. eigenvalues --  -93.57746 -20.70205 -15.84739  -8.87345  -6.21375
 Alpha  occ. eigenvalues --   -6.21223  -6.20845  -1.55364  -1.02780  -0.89176
 Alpha  occ. eigenvalues --   -0.73774  -0.70599  -0.67112  -0.54590  -0.39921
 Alpha  occ. eigenvalues --   -0.39319
 Alpha virt. eigenvalues --    0.04006   0.05887   0.05978   0.10056   0.11712
 Alpha virt. eigenvalues --    0.11877   0.15589   0.17163   0.18423   0.18424
 Alpha virt. eigenvalues --    0.20254   0.23662   0.24027   0.26724   0.31022

 Mulliken charges:
               1
     1  N   -0.057056
     2  O   -0.301548
     3  S    0.288924
     4  H    0.069680
 Sum of Mulliken charges =  -0.00000

 Dipole moment (field-independent basis, Debye):
    X=             -1.4569    Y=             -0.3344    Z=              0.0000  Tot=              1.4947

 Test job not archived.
 1\1\GINC-SE424\SP\RHF\Aug-CC-pVDZ\H1N1O1S1\OHZDE\08-Apr-2025\0\\#t hf
 aug-cc-pvdz iop(5/13=1,5/36=2,99/5=2) pseudo=read geom=check guess=(re
 ad,tcheck) scf=(maxcycle=1)\\title\\0,1\N,0,0.,0.92767,0.\O,0,1.139103
 ,1.159553,0.\S,0,-0.459537,-0.947,0.\H,0,-1.760222,-0.618116,0.\\Versi
 on=ES64L-G16RevC.01\State=1-A'\HF=-527.4011967\RMSD=5.166e-03\Dipole=-
 0.5731705,-0.1315499,0.\Quadrupole=1.2673292,-0.828269,-0.4390602,0.00
 69496,0.,0.\PG=CS [SG(H1N1O1S1)]\\@

 Normal termination of Gaussian 16 at Tue Apr  8 22:51:33 2025.
