 Gaussian 16, Revision C.01,

 ----------------------------------------------------------------------
 #t hf aug-cc-pvdz symm=none int=(grid=ultrafine) guess=(read,tcheck) s
 table=opt
 ----------------------------------------------------------------------
 -----
 title
 -----
 Symbolic Z-matrix:
 Charge =  0 Multiplicity = 2

 SCF Done:  E(UHF) =  -370.567023124     A.U. after   21 cycles
 Normal termination of Gaussian 16 at Wed Apr  9 00:31:23 2025.
 Gaussian 16:  ES64L-G16RevC.01  3-Jul-2019

 ----------------------------------------------------------------------
 #t hf aug-cc-pvdz iop(5/13=1,5/36=2,99/5=2) pseudo=read geom=check gue
 ss=(read,tcheck) scf=(maxcycle=1)
 ----------------------------------------------------------------------
 -----
 title
 -----
 Structure from the checkpoint file:  "BDE49_nonexpt_391_mol2.chk"
 Charge =  0 Multiplicity = 2

                         Standard orientation:
 ---------------------------------------------------------------------
 Center     Atomic      Atomic             Coordinates (Angstroms)
 Number     Number       Type             X           Y           Z
 ---------------------------------------------------------------------
      1          9           0       -2.615718    0.392243    0.334413
      2          5           0       -1.611814    0.244998   -0.494464
      3          6           0       -0.249011   -0.462282   -0.143152
      4          8           0       -0.390777   -1.686342   -0.095982
      5          7           0        0.937786    0.188148   -0.025647
      6          6           0        1.023433    1.634642   -0.067757
      7          1           0        0.053753    2.055158   -0.346819
      8          1           0        1.756471    1.955324   -0.815096
      9          1           0        1.313871    2.048487    0.904500
     10          6           0        2.162966   -0.565131    0.196283
     11          1           0        1.913460   -1.624645    0.191871
     12          1           0        2.611573   -0.302154    1.160074
     13          1           0        2.888802   -0.357015   -0.596790
 ---------------------------------------------------------------------

 SCF Done:  E(UHF) =  -370.695359546     A.U. after    2 cycles

 The electronic state is 2-A.
 Alpha  occ. eigenvalues --  -26.15739 -20.54877 -15.66817 -11.35886 -11.29812
 Alpha  occ. eigenvalues --  -11.27798  -7.72342  -1.70071  -1.35180  -1.22940
 Alpha  occ. eigenvalues --   -0.99225  -0.95370  -0.87287  -0.80651  -0.76847
 Alpha  occ. eigenvalues --   -0.75846  -0.71738  -0.67366  -0.66917  -0.59779
 Alpha  occ. eigenvalues --   -0.58118  -0.57853  -0.55884  -0.55095  -0.46099
 Alpha  occ. eigenvalues --   -0.39343  -0.36432
 Alpha virt. eigenvalues --    0.02679   0.03953   0.04236   0.05278   0.06468
 Alpha virt. eigenvalues --    0.06734   0.07101   0.07776   0.08407   0.09392
 Alpha virt. eigenvalues --    0.09951   0.12397   0.13240   0.13569   0.14216

  Beta  occ. eigenvalues --  -26.15398 -20.54659 -15.66811 -11.35639 -11.29801
  Beta  occ. eigenvalues --  -11.27789  -7.70433  -1.69099  -1.34697  -1.22795
  Beta  occ. eigenvalues --   -0.99130  -0.94973  -0.85967  -0.78441  -0.75915
  Beta  occ. eigenvalues --   -0.74916  -0.70785  -0.67114  -0.66761  -0.58912
  Beta  occ. eigenvalues --   -0.57973  -0.57782  -0.55042  -0.54479  -0.44022
  Beta  occ. eigenvalues --   -0.38525
  Beta virt. eigenvalues --    0.02518   0.03681   0.04088   0.04859   0.06587
  Beta virt. eigenvalues --    0.06793   0.07113   0.07509   0.07943   0.09425
  Beta virt. eigenvalues --    0.09850   0.12047   0.12984   0.13289   0.14221

 Mulliken charges and spin densities:
               1          2
     1  F   -0.326558  -0.026643
     2  B    0.238192   0.970344
     3  C    0.319942   0.016923
     4  O   -0.547197   0.048694
     5  N   -0.287576  -0.011292
     6  C    0.745370   0.017443
     7  H   -0.286878  -0.015757
     8  H   -0.117579   0.003595
     9  H   -0.086985  -0.002229
    10  C    0.760053  -0.000091
    11  H   -0.220470  -0.000859
    12  H   -0.086637  -0.000298
    13  H   -0.103677   0.000170
 Sum of Mulliken charges =  -0.00000   1.00000

 Dipole moment (field-independent basis, Debye):
    X=              3.0966    Y=              3.7885    Z=             -0.1304  Tot=              4.8948
                          Isotropic Fermi Contact Couplings
        Atom                 a.u.       MegaHertz       Gauss      10(-4) cm-1
     1  F(19)              0.06900     290.32175     103.59402      96.84091
     2  B(11)              0.34338     492.52826     175.74633     164.28974
     3  C(13)              0.06583      74.00778      26.40781      24.68634
     4  O(17)              0.01747     -10.59195      -3.77947      -3.53310
     5  N(14)             -0.00083      -0.26973      -0.09625      -0.08997
     6  C(13)              0.00094       1.05655       0.37700       0.35243
     7  H(1)              -0.00016      -0.70176      -0.25041      -0.23408
     8  H(1)              -0.00010      -0.45721      -0.16315      -0.15251

 Normal termination of Gaussian 16 at Wed Apr  9 00:31:28 2025.
