 Gaussian 16, Revision C.01,

 ----------------------------------------------------------------------
 #t hf aug-cc-pvdz symm=none int=(grid=ultrafine) guess=(read,tcheck) s
 table=(opt,rrhf)
 ----------------------------------------------------------------------
 -----
 title
 -----
 Symbolic Z-matrix:
 Charge =  0 Multiplicity = 1

 SCF Done:  E(RHF) =  -989.528237750     A.U. after   15 cycles
 Normal termination of Gaussian 16 at Wed Apr  9 00:18:37 2025.
 Gaussian 16:  ES64L-G16RevC.01  3-Jul-2019

 ----------------------------------------------------------------------
 #t hf aug-cc-pvdz iop(5/13=1,5/36=2,99/5=2) pseudo=read geom=check gue
 ss=(read,tcheck) scf=(maxcycle=1)
 ----------------------------------------------------------------------
 -----
 title
 -----
 Structure from the checkpoint file:  "BDE49_nonexpt_2610_mol1.chk"
 Charge =  0 Multiplicity = 1

                         Standard orientation:
 ---------------------------------------------------------------------
 Center     Atomic      Atomic             Coordinates (Angstroms)
 Number     Number       Type             X           Y           Z
 ---------------------------------------------------------------------
      1         16           0        0.745214    1.026608   -0.000001
      2         17           0        1.861656   -0.796989    0.000001
      3          7           0       -0.828630    0.687017   -0.000002
      4          6           0       -1.480856   -0.404796    0.000004
      5          6           0       -2.976585   -0.426533   -0.000001
      6          1           0       -3.379909    0.585921   -0.000012
      7          1           0       -3.349118   -0.962011    0.879823
      8          1           0       -3.349111   -0.962027   -0.879818
      9          1           0       -0.948382   -1.359930    0.000014
 ---------------------------------------------------------------------

 SCF Done:  E(RHF) =  -989.613518618     A.U. after    2 cycles

 The electronic state is 1-A.
 Alpha  occ. eigenvalues -- -103.66697 -93.63099 -15.68270 -11.32718 -11.26044
 Alpha  occ. eigenvalues --  -10.69849  -8.92087  -8.35560  -8.35261  -8.35222
 Alpha  occ. eigenvalues --   -6.26262  -6.25873  -6.25397  -1.25117  -1.14176
 Alpha  occ. eigenvalues --   -1.03795  -0.93239  -0.77449  -0.68012  -0.63279
 Alpha  occ. eigenvalues --   -0.61010  -0.56812  -0.54415  -0.51228  -0.47824
 Alpha  occ. eigenvalues --   -0.46761  -0.43432  -0.34643
 Alpha virt. eigenvalues --    0.03032   0.04288   0.05327   0.05898   0.06307
 Alpha virt. eigenvalues --    0.08840   0.09461   0.10334   0.12170   0.12945
 Alpha virt. eigenvalues --    0.12970   0.14429   0.15409   0.15530   0.16644

 Mulliken charges:
               1
     1  S    0.766429
     2  Cl  -0.385737
     3  N   -0.672539
     4  C    0.378997
     5  C    0.160154
     6  H   -0.098478
     7  H    0.042340
     8  H    0.042339
     9  H   -0.233505
 Sum of Mulliken charges =  -0.00000

 Dipole moment (field-independent basis, Debye):
    X=             -3.0320    Y=             -0.7758    Z=              0.0000  Tot=              3.1297

 Test job not archived.
 1\1\GINC-SE339\SP\RHF\Aug-CC-pVDZ\C2H4Cl1N1S1\OHZDE\09-Apr-2025\0\\#t
 hf aug-cc-pvdz iop(5/13=1,5/36=2,99/5=2) pseudo=read geom=check guess=
 (read,tcheck) scf=(maxcycle=1)\\title\\0,1\S,0,0.745214,1.026608,-0.00
 0001\Cl,0,1.861656,-0.796989,0.000001\N,0,-0.82863,0.687017,-0.000002\
 C,0,-1.480856,-0.404796,0.000004\C,0,-2.976585,-0.426533,-0.000001\H,0
 ,-3.379909,0.585921,-0.000012\H,0,-3.349118,-0.962011,0.879823\H,0,-3.
 349111,-0.962027,-0.879818\H,0,-0.948382,-1.35993,0.000014\\Version=ES
 64L-G16RevC.01\State=1-A\HF=-989.6135186\RMSD=4.639e-03\Dipole=-1.1928

 Normal termination of Gaussian 16 at Wed Apr  9 00:18:40 2025.
