 Gaussian 16, Revision C.01,

 ----------------------------------------------------------------------
 #t hf aug-cc-pvdz symm=none int=(grid=ultrafine) guess=(read,tcheck) s
 table=(opt,rrhf)
 ----------------------------------------------------------------------
 -----
 title
 -----
 Symbolic Z-matrix:
 Charge =  0 Multiplicity = 1

 SCF Done:  E(RHF) =  -634.718121337     A.U. after   16 cycles
 Normal termination of Gaussian 16 at Tue Apr  8 23:59:23 2025.
 Gaussian 16:  ES64L-G16RevC.01  3-Jul-2019

 ----------------------------------------------------------------------
 #t hf aug-cc-pvdz iop(5/13=1,5/36=2,99/5=2) pseudo=read geom=check gue
 ss=(read,tcheck) scf=(maxcycle=1)
 ----------------------------------------------------------------------
 -----
 title
 -----
 Structure from the checkpoint file:  "BDE49_nonexpt_2080_mol1.chk"
 Charge =  0 Multiplicity = 1

                         Standard orientation:
 ---------------------------------------------------------------------
 Center     Atomic      Atomic             Coordinates (Angstroms)
 Number     Number       Type             X           Y           Z
 ---------------------------------------------------------------------
      1         14           0        1.980774   -1.360745    0.000000
      2          6           0        0.194608   -0.787154    0.000000
      3          6           0       -0.104516    0.589426    0.000000
      4          6           0       -1.424884    1.041255    0.000000
      5          1           0       -1.653941    2.098516    0.000000
      6          6           0       -2.465420    0.110635    0.000000
      7          6           0       -0.873005   -1.688950    0.000000
      8          1           0       -0.665026   -2.753984    0.000000
      9          6           0       -2.199125   -1.252946    0.000000
     10          1           0       -3.010633   -1.970983   -0.000001
     11          1           0       -3.490226    0.465413   -0.000001
     12          8           0        0.986238    1.412469    0.000000
     13          6           0        0.792160    2.819997    0.000000
     14          1           0        1.788832    3.257722    0.000000
     15          1           0        0.252013    3.148946    0.894394
     16          1           0        0.252013    3.148946   -0.894394
     17          1           0        2.711454   -0.896661    1.201866
     18          1           0        2.711455   -0.896662   -1.201865
     19          1           0        1.964406   -2.844148    0.000001
 ---------------------------------------------------------------------

 SCF Done:  E(RHF) =  -634.846372858     A.U. after    2 cycles

 The electronic state is 1-A.
 Alpha  occ. eigenvalues --  -69.05572 -20.60553 -11.31838 -11.30205 -11.25591
 Alpha  occ. eigenvalues --  -11.25428 -11.24408 -11.23800 -11.22818  -6.80871
 Alpha  occ. eigenvalues --   -3.91635  -3.91608  -3.91576  -1.37509  -1.14036
 Alpha  occ. eigenvalues --   -1.02277  -1.01342  -0.94510  -0.83815  -0.81463
 Alpha  occ. eigenvalues --   -0.73634  -0.69543  -0.67881  -0.67130  -0.64890
 Alpha  occ. eigenvalues --   -0.62290  -0.59154  -0.56073  -0.53899  -0.52732
 Alpha  occ. eigenvalues --   -0.51386  -0.48256  -0.46871  -0.46716  -0.45205
 Alpha  occ. eigenvalues --   -0.34660  -0.32134
 Alpha virt. eigenvalues --    0.03054   0.03909   0.04155   0.05309   0.05516
 Alpha virt. eigenvalues --    0.05826   0.06710   0.06962   0.07402   0.08262
 Alpha virt. eigenvalues --    0.09396   0.09653   0.10104   0.10892   0.11745

 Mulliken charges:
               1
     1  Si  -0.159892
     2  C   -1.394697
     3  C    1.260026
     4  C    0.542539
     5  H   -0.753795
     6  C    0.526290
     7  C    1.281970
     8  H   -0.595713
     9  C    0.356140
    10  H   -0.457642
    11  H   -0.446888
    12  O   -0.660987
    13  C    0.888613
    14  H   -0.305092
    15  H   -0.083482
    16  H   -0.083482
    17  H    0.088035
    18  H    0.088035
    19  H   -0.089977
 Sum of Mulliken charges =  -0.00000

 Dipole moment (field-independent basis, Debye):
    X=             -1.4636    Y=              1.8870    Z=             -0.0000  Tot=              2.3881

 Test job not archived.
 1\1\GINC-SE102\SP\RHF\Aug-CC-pVDZ\C7H10O1Si1\OHZDE\08-Apr-2025\0\\#t h
 f aug-cc-pvdz iop(5/13=1,5/36=2,99/5=2) pseudo=read geom=check guess=(
 read,tcheck) scf=(maxcycle=1)\\title\\0,1\Si,0,1.980775,-1.360744,0.\C
 ,0,0.194608,-0.787154,0.\C,0,-0.104516,0.589426,0.\C,0,-1.424885,1.041
 254,0.\H,0,-1.653942,2.098515,0.\C,0,-2.46542,0.110633,0.\C,0,-0.87300
 4,-1.688951,0.\H,0,-0.665024,-2.753984,0.\C,0,-2.199124,-1.252948,0.\H
 ,0,-3.010632,-1.970985,-0.000001\H,0,-3.490226,0.465411,-0.000001\O,0,
 0.986237,1.41247,0.\C,0,0.792158,2.819998,0.\H,0,1.78883,3.257723,0.\H

 Normal termination of Gaussian 16 at Tue Apr  8 23:59:33 2025.
