 Gaussian 16, Revision C.01,

 ----------------------------------------------------------------------
 #t hf aug-cc-pvdz symm=none int=(grid=ultrafine) guess=(read,tcheck) s
 table=(opt,rrhf)
 ----------------------------------------------------------------------
 -----
 title
 -----
 Symbolic Z-matrix:
 Charge =  0 Multiplicity = 1

 SCF Done:  E(RHF) =  -895.065909432     A.U. after   14 cycles
 Normal termination of Gaussian 16 at Wed Apr  9 00:18:33 2025.
 Gaussian 16:  ES64L-G16RevC.01  3-Jul-2019

 ----------------------------------------------------------------------
 #t hf aug-cc-pvdz iop(5/13=1,5/36=2,99/5=2) pseudo=read geom=check gue
 ss=(read,tcheck) scf=(maxcycle=1)
 ----------------------------------------------------------------------
 -----
 title
 -----
 Structure from the checkpoint file:  "BDE49_nonexpt_2616_mol1.chk"
 Charge =  0 Multiplicity = 1

                         Standard orientation:
 ---------------------------------------------------------------------
 Center     Atomic      Atomic             Coordinates (Angstroms)
 Number     Number       Type             X           Y           Z
 ---------------------------------------------------------------------
      1          9           0       -1.571948   -0.706871   -0.008659
      2         16           0        1.318563   -0.194395   -0.089161
      3         16           0       -0.531717    0.617815    0.017511
      4          1           0        1.557994   -0.412888    1.224326
 ---------------------------------------------------------------------

 SCF Done:  E(RHF) =  -895.147050428     A.U. after    2 cycles

 The electronic state is 1-A.
 Alpha  occ. eigenvalues --  -93.65554 -93.59989 -26.13185  -8.94257  -8.89675
 Alpha  occ. eigenvalues --   -6.28353  -6.28015  -6.27549  -6.23764  -6.23511
 Alpha  occ. eigenvalues --   -6.23198  -1.64025  -1.07267  -0.89777  -0.73543
 Alpha  occ. eigenvalues --   -0.73234  -0.69914  -0.58259  -0.49693  -0.42801
 Alpha  occ. eigenvalues --   -0.40000
 Alpha virt. eigenvalues --    0.03581   0.05486   0.06107   0.10444   0.11010
 Alpha virt. eigenvalues --    0.11854   0.13416   0.14094   0.16118   0.17390
 Alpha virt. eigenvalues --    0.18952   0.24532   0.25234   0.26827   0.30345

 Mulliken charges:
               1
     1  F   -0.573816
     2  S   -0.070629
     3  S    0.486428
     4  H    0.158017
 Sum of Mulliken charges =  -0.00000

 Dipole moment (field-independent basis, Debye):
    X=              2.1645    Y=              0.9542    Z=              0.9220  Tot=              2.5388

 Test job not archived.
 1\1\GINC-SE072\SP\RHF\Aug-CC-pVDZ\F1H1S2\OHZDE\09-Apr-2025\0\\#t hf au
 g-cc-pvdz iop(5/13=1,5/36=2,99/5=2) pseudo=read geom=check guess=(read
 ,tcheck) scf=(maxcycle=1)\\title\\0,1\F,0,-1.571948,-0.706871,-0.00865
 9\S,0,1.318563,-0.194395,-0.089161\S,0,-0.531717,0.617815,0.017511\H,0
 ,1.557994,-0.412888,1.224326\\Version=ES64L-G16RevC.01\State=1-A\HF=-8
 95.1470504\RMSD=6.387e-03\Dipole=0.851577,0.3754131,0.3627474\Quadrupo
 le=-0.1458277,-0.4913101,0.6371378,-2.169255,1.2807724,-0.4905929\PG=C
 01 [X(F1H1S2)]\\@

 Normal termination of Gaussian 16 at Wed Apr  9 00:18:34 2025.
