 Gaussian 16, Revision C.01,

 ----------------------------------------------------------------------
 #t hf aug-cc-pvdz symm=none int=(grid=ultrafine) guess=(read,tcheck) s
 table=opt
 ----------------------------------------------------------------------
 -----
 title
 -----
 Symbolic Z-matrix:
 Charge =  0 Multiplicity = 2

 SCF Done:  E(UHF) =  -574.946097967     A.U. after   17 cycles

 1\1\GINC-SE082\Stability\UHF\Aug-CC-pVDZ\C6H12P1\OHZDE\08-Apr-2025\0\\
 #t hf aug-cc-pvdz symm=none int=(grid=ultrafine) guess=(read,tcheck) s
 table=opt\\title\\0,2\C,0,0.662122,-0.013134,0.35097\C,0,-0.03368,1.26
 2766,-0.172385\C,0,-1.529202,1.28145,0.185531\C,0,-2.247244,0.016969,-
 0.304377\C,0,-1.562365,-1.252262,0.219714\C,0,-0.068579,-1.279098,-0.1
 38663\H,0,0.077873,1.310586,-1.263038\H,0,0.460594,2.151495,0.231342\H
 ,0,-1.9987,2.174877,-0.238993\H,0,-1.636706,1.359817,1.274996\H,0,-2.2
 43823,0.002021,-1.401966\H,0,-3.297585,0.035484,0.003375\H,0,-2.055837

 Normal termination of Gaussian 16 at Tue Apr  8 23:36:29 2025.
 Gaussian 16:  ES64L-G16RevC.01  3-Jul-2019

 ----------------------------------------------------------------------
 #t hf aug-cc-pvdz iop(5/13=1,5/36=2,99/5=2) pseudo=read geom=check gue
 ss=(read,tcheck) scf=(maxcycle=1)
 ----------------------------------------------------------------------
 -----
 title
 -----
 Structure from the checkpoint file:  "BDE49_nonexpt_1530_mol2.chk"
 Charge =  0 Multiplicity = 2

                         Standard orientation:
 ---------------------------------------------------------------------
 Center     Atomic      Atomic             Coordinates (Angstroms)
 Number     Number       Type             X           Y           Z
 ---------------------------------------------------------------------
      1          6           0        0.662122   -0.013134    0.350970
      2          6           0       -0.033680    1.262766   -0.172385
      3          6           0       -1.529202    1.281450    0.185531
      4          6           0       -2.247244    0.016969   -0.304377
      5          6           0       -1.562365   -1.252262    0.219714
      6          6           0       -0.068579   -1.279098   -0.138663
      7          1           0        0.077873    1.310586   -1.263038
      8          1           0        0.460594    2.151495    0.231342
      9          1           0       -1.998700    2.174877   -0.238993
     10          1           0       -1.636706    1.359817    1.274996
     11          1           0       -2.243823    0.002021   -1.401966
     12          1           0       -3.297585    0.035484    0.003375
     13          1           0       -2.055837   -2.143838   -0.180397
     14          1           0       -1.671996   -1.298574    1.310915
     15          1           0        0.039984   -1.355389   -1.228598
     16          1           0        0.403543   -2.172442    0.282516
     17         15           0        2.476578   -0.088073   -0.106238
     18          1           0        0.622835    0.006562    1.449724
     19          1           0        2.824836    1.150342    0.508947
 ---------------------------------------------------------------------

 SCF Done:  E(UHF) =  -575.033283716     A.U. after    2 cycles

 The electronic state is 2-A.
 Alpha  occ. eigenvalues --  -81.25370 -11.24466 -11.23541 -11.23341 -11.23042
 Alpha  occ. eigenvalues --  -11.22977 -11.22864  -7.75796  -4.90569  -4.89490
 Alpha  occ. eigenvalues --   -4.89186  -1.10878  -1.00471  -1.00084  -0.84741
 Alpha  occ. eigenvalues --   -0.83692  -0.76617  -0.73754  -0.64432  -0.61081
 Alpha  occ. eigenvalues --   -0.60650  -0.59495  -0.53701  -0.53253  -0.50336
 Alpha  occ. eigenvalues --   -0.49630  -0.49056  -0.45990  -0.44412  -0.42925
 Alpha  occ. eigenvalues --   -0.37425  -0.33556
 Alpha virt. eigenvalues --    0.03442   0.04292   0.04431   0.04711   0.06211
 Alpha virt. eigenvalues --    0.06488   0.06653   0.06930   0.07194   0.08619
 Alpha virt. eigenvalues --    0.08974   0.09087   0.10358   0.12141   0.12641

  Beta  occ. eigenvalues --  -81.24680 -11.24611 -11.23452 -11.23333 -11.23029
  Beta  occ. eigenvalues --  -11.22984 -11.22864  -7.74970  -4.88993  -4.88824
  Beta  occ. eigenvalues --   -4.87421  -1.10780  -1.00235  -1.00020  -0.83820
  Beta  occ. eigenvalues --   -0.83592  -0.75993  -0.69675  -0.63857  -0.60890
  Beta  occ. eigenvalues --   -0.60620  -0.59126  -0.53435  -0.53092  -0.50164
  Beta  occ. eigenvalues --   -0.49177  -0.49023  -0.45870  -0.43995  -0.42342
  Beta  occ. eigenvalues --   -0.35529
  Beta virt. eigenvalues --    0.03464   0.03787   0.04310   0.04717   0.05176
  Beta virt. eigenvalues --    0.06247   0.06550   0.06684   0.07039   0.08181
  Beta virt. eigenvalues --    0.08699   0.09063   0.09117   0.10396   0.12666

 Mulliken charges and spin densities:
               1          2
     1  C   -0.358281  -0.188718
     2  C    0.293496   0.024001
     3  C    0.302121   0.011991
     4  C    0.247450  -0.000859
     5  C    0.316327   0.000223
     6  C    0.223859   0.052922
     7  H   -0.099949  -0.007242
     8  H   -0.154484  -0.005107
     9  H   -0.111184  -0.000266
    10  H   -0.088922  -0.000000
    11  H   -0.096892   0.000345
    12  H   -0.106256  -0.000046
    13  H   -0.107923   0.000164
    14  H   -0.091523  -0.000264
    15  H   -0.089158  -0.006872
    16  H   -0.142514  -0.004637
    17  P    0.245237   1.306772
    18  H   -0.188702   0.001459
    19  H    0.007297  -0.183866
 Sum of Mulliken charges =  -0.00000   1.00000

 Dipole moment (field-independent basis, Debye):
    X=             -1.4230    Y=              0.4395    Z=              0.4996  Tot=              1.5709
                          Isotropic Fermi Contact Couplings
        Atom                 a.u.       MegaHertz       Gauss      10(-4) cm-1
     1  C(13)             -0.02939     -33.04171     -11.79010     -11.02153
     2  C(13)              0.02303      25.89474       9.23989       8.63756
     3  C(13)              0.00185       2.08481       0.74391       0.69542
     4  C(13)              0.00011       0.12704       0.04533       0.04238
     5  C(13)             -0.00156      -1.75066      -0.62468      -0.58396
     6  C(13)              0.00082       0.91693       0.32719       0.30586
     7  H(1)              -0.00057      -2.52814      -0.90210      -0.84330
     8  H(1)              -0.00040      -1.78215      -0.63592      -0.59446

 Normal termination of Gaussian 16 at Tue Apr  8 23:36:39 2025.
