 Gaussian 16, Revision C.01,

 ----------------------------------------------------------------------
 #t hf aug-cc-pvdz symm=none int=(grid=ultrafine) guess=(read,tcheck) s
 table=opt
 ----------------------------------------------------------------------
 -----
 title
 -----
 Symbolic Z-matrix:
 Charge =  0 Multiplicity = 2

 SCF Done:  E(UHF) =  -598.689316266     a.u. after   12 cycles
 Normal termination of Gaussian 16 at Tue Apr  8 22:54:27 2025.
 Gaussian 16:  ES64L-G16RevC.01  3-Jul-2019

 ----------------------------------------------------------------------
 #t hf aug-cc-pvdz iop(5/13=1,5/36=2,99/5=2) pseudo=read geom=check gue
 ss=(read,tcheck) scf=(maxcycle=1)
 ----------------------------------------------------------------------
 -----
 title
 -----
 Structure from the checkpoint file:  "BDE49_expt_1872_mol2.chk"
 Charge =  0 Multiplicity = 2

                         Standard orientation:
 ---------------------------------------------------------------------
 Center     Atomic      Atomic             Coordinates (Angstroms)
 Number     Number       Type             X           Y           Z
 ---------------------------------------------------------------------
      1          6           0       -0.961447   -0.058417    0.000001
      2          8           0        0.238970   -0.759954    0.000011
      3          9           0       -1.075247    0.706757    1.083645
      4          9           0       -1.923387   -0.966281   -0.000011
      5          9           0       -1.075225    0.706764   -1.083641
      6          6           0        1.416633   -0.088483    0.000020
      7          8           0        2.462969   -0.771847   -0.000011
      8          8           0        1.539764    1.138832   -0.000007
 ---------------------------------------------------------------------

 SCF Done:  E(UHF) =  -598.900816291     A.U. after    2 cycles

 The electronic state is 2-A.
 Alpha  occ. eigenvalues --  -26.21141 -26.20442 -26.20431 -20.76126 -20.71402
 Alpha  occ. eigenvalues --  -20.60944 -11.63091 -11.51432  -1.81456  -1.74039
 Alpha  occ. eigenvalues --   -1.73421  -1.58127  -1.47743  -1.37562  -1.08892
 Alpha  occ. eigenvalues --   -0.98163  -0.93691  -0.93605  -0.87280  -0.83132
 Alpha  occ. eigenvalues --   -0.82025  -0.81853  -0.78387  -0.77998  -0.76677
 Alpha  occ. eigenvalues --   -0.76463  -0.75593  -0.71959  -0.66721  -0.65586
 Alpha  occ. eigenvalues --   -0.55166  -0.54441
 Alpha virt. eigenvalues --    0.06215   0.07590   0.07927   0.08873   0.10978
 Alpha virt. eigenvalues --    0.11167   0.11410   0.14465   0.17459   0.19547
 Alpha virt. eigenvalues --    0.20511   0.22957   0.24715   0.24721   0.26050

  Beta  occ. eigenvalues --  -26.21136 -26.20442 -26.20432 -20.71973 -20.71355
  Beta  occ. eigenvalues --  -20.60386 -11.63074 -11.51713  -1.81448  -1.74030
  Beta  occ. eigenvalues --   -1.73423  -1.52737  -1.42426  -1.33116  -1.08186
  Beta  occ. eigenvalues --   -0.97289  -0.93685  -0.93369  -0.83181  -0.81939
  Beta  occ. eigenvalues --   -0.81683  -0.78588  -0.77307  -0.76598  -0.75595
  Beta  occ. eigenvalues --   -0.75174  -0.74240  -0.66454  -0.63639  -0.53134
  Beta  occ. eigenvalues --   -0.52614
  Beta virt. eigenvalues --   -0.02104   0.06418   0.07623   0.07937   0.09145
  Beta virt. eigenvalues --    0.11219   0.11266   0.11541   0.14453   0.17512
  Beta virt. eigenvalues --    0.19791   0.20507   0.23129   0.24843   0.24915

 Mulliken charges and spin densities:
               1          2
     1  C    1.141036   0.003532
     2  O   -0.550778   0.013944
     3  F   -0.261376   0.000649
     4  F   -0.220277   0.000796
     5  F   -0.261375   0.000649
     6  C    0.677917  -0.162737
     7  O   -0.138171   1.048577
     8  O   -0.386976   0.094589
 Sum of Mulliken charges =  -0.00000   1.00000

 Dipole moment (field-independent basis, Debye):
    X=             -0.0736    Y=             -2.2814    Z=              0.0001  Tot=              2.2826
                          Isotropic Fermi Contact Couplings
        Atom                 a.u.       MegaHertz       Gauss      10(-4) cm-1
     1  C(13)              0.00259       2.91709       1.04089       0.97303
     2  O(17)              0.01828     -11.08169      -3.95422      -3.69645
     3  F(19)             -0.00055      -2.31316      -0.82539      -0.77159
     4  F(19)              0.00030       1.25800       0.44889       0.41962
     5  F(19)             -0.00055      -2.31337      -0.82547      -0.77166
     6  C(13)             -0.04974     -55.91588     -19.95218     -18.65153
     7  O(17)              0.28147    -170.62646     -60.88376     -56.91486
     8  O(17)              0.04557     -27.62564      -9.85752      -9.21492

 Normal termination of Gaussian 16 at Tue Apr  8 22:54:30 2025.
