 Gaussian 16, Revision C.01,

 ----------------------------------------------------------------------
 #t hf aug-cc-pvdz symm=none int=(grid=ultrafine) guess=(read,tcheck) s
 table=(opt,rrhf)
 ----------------------------------------------------------------------
 -----
 title
 -----
 Symbolic Z-matrix:
 Charge =  0 Multiplicity = 1

 SCF Done:  E(RHF) =  -663.061662377     A.U. after   13 cycles
 Normal termination of Gaussian 16 at Tue Apr  8 23:37:39 2025.
 Gaussian 16:  ES64L-G16RevC.01  3-Jul-2019

 ----------------------------------------------------------------------
 #t hf aug-cc-pvdz iop(5/13=1,5/36=2,99/5=2) pseudo=read geom=check gue
 ss=(read,tcheck) scf=(maxcycle=1)
 ----------------------------------------------------------------------
 -----
 title
 -----
 Structure from the checkpoint file:  "BDE49_nonexpt_1571_mol1.chk"
 Charge =  0 Multiplicity = 1

                         Standard orientation:
 ---------------------------------------------------------------------
 Center     Atomic      Atomic             Coordinates (Angstroms)
 Number     Number       Type             X           Y           Z
 ---------------------------------------------------------------------
      1          7           0       -1.377579    0.216424    0.381279
      2          8           0       -2.570126   -0.578195    0.298500
      3          8           0       -1.539964    1.300274   -0.535145
      4          6           0        1.283726    0.328914   -0.290758
      5          6           0        2.692820   -0.239900   -0.326396
      6          6           0        2.211731    0.478877    0.897760
      7          1           0        3.405993    0.254206   -0.974703
      8          1           0        2.812704   -1.315820   -0.267804
      9          1           0        2.597998    1.470602    1.100038
     10          1           0        2.003315   -0.110708    1.783199
     11          1           0       -1.762766    2.042095    0.040701
     12          1           0       -3.012981   -0.392156    1.134626
     13         15           0       -0.087939   -0.866448   -0.188159
     14          1           0        1.102128    1.216999   -0.883770
     15          1           0       -0.433197   -0.867442   -1.569329
 ---------------------------------------------------------------------

 SCF Done:  E(RHF) =  -663.186581199     A.U. after    2 cycles

 The electronic state is 1-A.
 Alpha  occ. eigenvalues --  -81.27770 -20.61552 -20.61508 -15.73516 -11.24873
 Alpha  occ. eigenvalues --  -11.24739 -11.24668  -7.77856  -4.91976  -4.91764
 Alpha  occ. eigenvalues --   -4.91473  -1.40877  -1.31126  -1.13717  -1.01439
 Alpha  occ. eigenvalues --   -0.84859  -0.83017  -0.74502  -0.72607  -0.71716
 Alpha  occ. eigenvalues --   -0.68023  -0.64043  -0.61947  -0.60535  -0.53068
 Alpha  occ. eigenvalues --   -0.52278  -0.51625  -0.49386  -0.43239  -0.42598
 Alpha  occ. eigenvalues --   -0.41184  -0.35455
 Alpha virt. eigenvalues --    0.03233   0.04055   0.04724   0.04991   0.06102
 Alpha virt. eigenvalues --    0.06813   0.07228   0.08391   0.10387   0.10492
 Alpha virt. eigenvalues --    0.11760   0.13188   0.13738   0.15090   0.15363

 Mulliken charges:
               1
     1  N   -0.280355
     2  O   -0.405099
     3  O   -0.429116
     4  C    0.417521
     5  C    0.640712
     6  C    0.683124
     7  H   -0.312993
     8  H   -0.347665
     9  H   -0.325981
    10  H   -0.345931
    11  H    0.209356
    12  H    0.197803
    13  P    0.624065
    14  H   -0.455605
    15  H    0.130163
 Sum of Mulliken charges =  -0.00000

 Dipole moment (field-independent basis, Debye):
    X=              0.8454    Y=              1.7827    Z=              1.5654  Tot=              2.5186

 Test job not archived.
 1\1\GINC-SE060\SP\RHF\Aug-CC-pVDZ\C3H8N1O2P1\OHZDE\08-Apr-2025\0\\#t h
 f aug-cc-pvdz iop(5/13=1,5/36=2,99/5=2) pseudo=read geom=check guess=(
 read,tcheck) scf=(maxcycle=1)\\title\\0,1\N,0,-1.377579,0.216424,0.381
 279\O,0,-2.570126,-0.578195,0.2985\O,0,-1.539964,1.300274,-0.535145\C,
 0,1.283726,0.328914,-0.290758\C,0,2.69282,-0.2399,-0.326396\C,0,2.2117
 31,0.478877,0.89776\H,0,3.405993,0.254206,-0.974703\H,0,2.812704,-1.31
 582,-0.267804\H,0,2.597998,1.470602,1.100038\H,0,2.003315,-0.110708,1.
 783199\H,0,-1.762766,2.042095,0.040701\H,0,-3.012981,-0.392156,1.13462

 Normal termination of Gaussian 16 at Tue Apr  8 23:37:44 2025.
