 Gaussian 16, Revision C.01,

 ----------------------------------------------------------------------
 #t hf aug-cc-pvdz symm=none int=(grid=ultrafine) guess=(read,tcheck) s
 table=(opt,rrhf)
 ----------------------------------------------------------------------
 -----
 title
 -----
 Symbolic Z-matrix:
 Charge =  0 Multiplicity = 1

 SCF Done:  E(RHF) =  -908.496850452     A.U. after   13 cycles
 Normal termination of Gaussian 16 at Tue Apr  8 23:39:11 2025.
 Gaussian 16:  ES64L-G16RevC.01  3-Jul-2019

 ----------------------------------------------------------------------
 #t hf aug-cc-pvdz iop(5/13=1,5/36=2,99/5=2) pseudo=read geom=check gue
 ss=(read,tcheck) scf=(maxcycle=1)
 ----------------------------------------------------------------------
 -----
 title
 -----
 Structure from the checkpoint file:  "BDE49_nonexpt_1626_mol1.chk"
 Charge =  0 Multiplicity = 1

                         Standard orientation:
 ---------------------------------------------------------------------
 Center     Atomic      Atomic             Coordinates (Angstroms)
 Number     Number       Type             X           Y           Z
 ---------------------------------------------------------------------
      1         15           0       -1.778890   -0.144226    0.003167
      2         15           0        0.416099   -0.025422    0.125650
      3          8           0        0.987972   -0.499440    1.393777
      4          8           0        0.757505    1.479561   -0.314198
      5          1           0       -1.871554    0.716176   -1.119411
      6          1           0       -1.972397    0.893360    0.948660
      7          1           0        1.687611    1.702336   -0.168634
      8          8           0        0.928366   -0.857681   -1.164758
      9          1           0        1.207460   -1.746659   -0.911437
 ---------------------------------------------------------------------

 SCF Done:  E(RHF) =  -908.653848507     A.U. after    2 cycles

 The electronic state is 1-A.
 Alpha  occ. eigenvalues --  -81.42554 -81.28372 -20.62418 -20.62053 -20.53251
 Alpha  occ. eigenvalues --   -7.90921  -7.78893  -5.05531  -5.05411  -5.05028
 Alpha  occ. eigenvalues --   -4.92769  -4.92742  -4.92495  -1.38492  -1.35196
 Alpha  occ. eigenvalues --   -1.26509  -0.88097  -0.80459  -0.76093  -0.68857
 Alpha  occ. eigenvalues --   -0.66309  -0.63164  -0.58952  -0.58110  -0.54847
 Alpha  occ. eigenvalues --   -0.52034  -0.49448  -0.45724  -0.39242
 Alpha virt. eigenvalues --    0.03002   0.04901   0.04981   0.07167   0.08201
 Alpha virt. eigenvalues --    0.09492   0.09876   0.10583   0.11575   0.12840
 Alpha virt. eigenvalues --    0.14461   0.17136   0.17804   0.18695   0.19101

 Mulliken charges:
               1
     1  P   -0.418192
     2  P    1.903038
     3  O   -0.899494
     4  O   -0.663673
     5  H    0.228403
     6  H    0.232999
     7  H    0.149353
     8  O   -0.678913
     9  H    0.146479
 Sum of Mulliken charges =   0.00000

 Dipole moment (field-independent basis, Debye):
    X=             -0.4716    Y=              0.5677    Z=             -2.0004  Tot=              2.1322

 Test job not archived.
 1\1\GINC-SE220\SP\RHF\Aug-CC-pVDZ\H4O3P2\OHZDE\08-Apr-2025\0\\#t hf au
 g-cc-pvdz iop(5/13=1,5/36=2,99/5=2) pseudo=read geom=check guess=(read
 ,tcheck) scf=(maxcycle=1)\\title\\0,1\P,0,-1.77889,-0.144227,0.003167\
 P,0,0.416099,-0.025422,0.12565\O,0,0.987972,-0.49944,1.393777\O,0,0.75
 7504,1.479561,-0.314198\H,0,-1.871554,0.716175,-1.119411\H,0,-1.972397
 ,0.893359,0.94866\H,0,1.68761,1.702337,-0.168634\O,0,0.928366,-0.85768
 1,-1.164758\H,0,1.207461,-1.746659,-0.911437\\Version=ES64L-G16RevC.01
 \State=1-A\HF=-908.6538485\RMSD=8.431e-03\Dipole=-0.185529,0.2233367,-

 Normal termination of Gaussian 16 at Tue Apr  8 23:39:15 2025.
