 Gaussian 16, Revision C.01,

 ----------------------------------------------------------------------
 #t hf aug-cc-pvdz symm=none int=(grid=ultrafine) guess=(read,tcheck) s
 table=opt
 ----------------------------------------------------------------------
 -----
 title
 -----
 Symbolic Z-matrix:
 Charge =  0 Multiplicity = 2

 SCF Done:  E(UHF) =  -951.728040486     A.U. after   17 cycles
 Normal termination of Gaussian 16 at Wed Apr  9 00:11:50 2025.
 Gaussian 16:  ES64L-G16RevC.01  3-Jul-2019

 ----------------------------------------------------------------------
 #t hf aug-cc-pvdz iop(5/13=1,5/36=2,99/5=2) pseudo=read geom=check gue
 ss=(read,tcheck) scf=(maxcycle=1)
 ----------------------------------------------------------------------
 -----
 title
 -----
 Structure from the checkpoint file:  "BDE49_nonexpt_2424_mol2.chk"
 Charge =  0 Multiplicity = 2

                         Standard orientation:
 ---------------------------------------------------------------------
 Center     Atomic      Atomic             Coordinates (Angstroms)
 Number     Number       Type             X           Y           Z
 ---------------------------------------------------------------------
      1         14           0        1.968775   -0.650507   -0.128465
      2         16           0        0.007898    0.411969    0.033119
      3          1           0        2.971116    0.435695   -0.030356
      4          1           0        2.054672   -1.607597    0.999245
      5          8           0       -0.241757    0.856517    1.391351
      6          8           0       -0.919909   -0.908555   -0.252635
      7          8           0       -0.157938    1.350486   -1.055364
      8          6           0       -2.347550   -0.750277   -0.054739
      9          1           0       -2.770016   -1.735428   -0.239459
     10          1           0       -2.749355   -0.028735   -0.767881
     11          1           0       -2.553498   -0.434262    0.968666
 ---------------------------------------------------------------------

 SCF Done:  E(UHF) =  -951.909203575     A.U. after    2 cycles

 The electronic state is 2-A.
 Alpha  occ. eigenvalues --  -93.80637 -69.13808 -20.63132 -20.57098 -20.56938
 Alpha  occ. eigenvalues --  -11.31311  -9.07050  -6.89032  -6.41633  -6.41574
 Alpha  occ. eigenvalues --   -6.41302  -4.00297  -3.99480  -3.99360  -1.45495
 Alpha  occ. eigenvalues --   -1.34643  -1.31601  -0.99266  -0.86488  -0.77667
 Alpha  occ. eigenvalues --   -0.72130  -0.69883  -0.68014  -0.64583  -0.62718
 Alpha  occ. eigenvalues --   -0.58764  -0.54191  -0.53698  -0.52464  -0.51630
 Alpha  occ. eigenvalues --   -0.48939  -0.46627  -0.38417
 Alpha virt. eigenvalues --    0.02904   0.03792   0.05441   0.05778   0.06023
 Alpha virt. eigenvalues --    0.06857   0.07096   0.08432   0.10051   0.11707
 Alpha virt. eigenvalues --    0.12671   0.13087   0.14164   0.14808   0.15164

  Beta  occ. eigenvalues --  -93.80626 -69.13193 -20.63136 -20.56945 -20.56888
  Beta  occ. eigenvalues --  -11.31317  -9.07035  -6.88081  -6.41640  -6.41577
  Beta  occ. eigenvalues --   -6.41254  -3.99050  -3.98943  -3.98047  -1.45370
  Beta  occ. eigenvalues --   -1.34586  -1.31298  -0.99192  -0.85799  -0.76147
  Beta  occ. eigenvalues --   -0.71708  -0.69776  -0.66126  -0.64346  -0.62001
  Beta  occ. eigenvalues --   -0.58708  -0.53407  -0.53170  -0.52173  -0.51056
  Beta  occ. eigenvalues --   -0.48759  -0.45358
  Beta virt. eigenvalues --   -0.00364   0.03234   0.03925   0.05548   0.06187
  Beta virt. eigenvalues --    0.06534   0.06967   0.07764   0.08949   0.10940
  Beta virt. eigenvalues --    0.11965   0.13362   0.13858   0.14474   0.15349

 Mulliken charges and spin densities:
               1          2
     1  Si   0.445189   0.940576
     2  S    2.147777   0.001837
     3  H   -0.055536   0.030071
     4  H   -0.003634   0.039693
     5  O   -1.026004   0.024735
     6  O   -0.826305  -0.030593
     7  O   -1.001836  -0.002733
     8  C    0.650685  -0.004019
     9  H   -0.228561   0.000278
    10  H   -0.061441   0.000034
    11  H   -0.040335   0.000120
 Sum of Mulliken charges =  -0.00000   1.00000

 Dipole moment (field-independent basis, Debye):
    X=              1.0969    Y=             -3.7903    Z=             -0.4492  Tot=              3.9713
                          Isotropic Fermi Contact Couplings
        Atom                 a.u.       MegaHertz       Gauss      10(-4) cm-1
     1  Si(29)             0.67203    -597.25432    -213.11519    -199.22260
     2  S(33)              0.02729       9.37489       3.34519       3.12713
     3  H(1)               0.00640      28.62408      10.21378       9.54796
     4  H(1)               0.00956      42.73879      15.25026      14.25613
     5  O(17)              0.02303     -13.96287      -4.98230      -4.65751
     6  O(17)             -0.00697       4.22603       1.50795       1.40965
     7  O(17)             -0.00173       1.04859       0.37416       0.34977
     8  C(13)             -0.00064      -0.71597      -0.25547      -0.23882

 1\1\GINC-SE329\SP\UHF\Aug-CC-pVDZ\C1H5O3S1Si1(2)\OHZDE\09-Apr-2025\0\\
 #t hf aug-cc-pvdz iop(5/13=1,5/36=2,99/5=2) pseudo=read geom=check gue
 ss=(read,tcheck) scf=(maxcycle=1)\\title\\0,2\Si,0,1.968775,-0.650507,
 -0.128465\S,0,0.007898,0.411969,0.033119\H,0,2.971116,0.435695,-0.0303
 56\H,0,2.054672,-1.607597,0.999245\O,0,-0.241757,0.856517,1.391351\O,0
 ,-0.919909,-0.908555,-0.252635\O,0,-0.157938,1.350486,-1.055364\C,0,-2
 .34755,-0.750277,-0.054739\H,0,-2.770016,-1.735428,-0.239459\H,0,-2.74
 9355,-0.028735,-0.767881\H,0,-2.553498,-0.434262,0.968666\\Version=ES6

 Normal termination of Gaussian 16 at Wed Apr  9 00:11:55 2025.
