 Gaussian 16, Revision C.01,

 ----------------------------------------------------------------------
 #t hf aug-cc-pvdz symm=none int=(grid=ultrafine) guess=(read,tcheck) s
 table=(opt,rrhf)
 ----------------------------------------------------------------------
 -----
 title
 -----
 Symbolic Z-matrix:
 Charge =  0 Multiplicity = 1

 SCF Done:  E(RHF) =  -625.232865227     A.U. after   13 cycles
 Normal termination of Gaussian 16 at Tue Apr  8 23:34:23 2025.
 Gaussian 16:  ES64L-G16RevC.01  3-Jul-2019

 ----------------------------------------------------------------------
 #t hf aug-cc-pvdz iop(5/13=1,5/36=2,99/5=2) pseudo=read geom=check gue
 ss=(read,tcheck) scf=(maxcycle=1)
 ----------------------------------------------------------------------
 -----
 title
 -----
 Structure from the checkpoint file:  "BDE49_nonexpt_1501_mol1.chk"
 Charge =  0 Multiplicity = 1

                         Standard orientation:
 ---------------------------------------------------------------------
 Center     Atomic      Atomic             Coordinates (Angstroms)
 Number     Number       Type             X           Y           Z
 ---------------------------------------------------------------------
      1         15           0       -0.618824   -0.020915   -0.583665
      2          7           0        0.885470   -0.026542    0.419471
      3          8           0        1.644467   -1.165712    0.042250
      4          8           0        1.610999    1.130250   -0.024953
      5          6           0       -1.420179    1.438866    0.212825
      6          1           0       -0.936075    2.351591   -0.134917
      7          1           0       -1.356402    1.383015    1.302346
      8          6           0       -1.454883   -1.389268    0.330325
      9          1           0       -2.490363   -1.458005   -0.013665
     10          1           0       -1.434446   -1.222509    1.409616
     11          1           0       -0.953155   -2.330677    0.103793
     12          1           0       -2.470779    1.466460   -0.088394
     13          1           0        1.808410   -1.076662   -0.913629
     14          1           0        2.123525    1.372398    0.756248
 ---------------------------------------------------------------------

 SCF Done:  E(RHF) =  -625.348194213     A.U. after    2 cycles

 The electronic state is 1-A.
 Alpha  occ. eigenvalues --  -81.28156 -20.61742 -20.61367 -15.73539 -11.23923
 Alpha  occ. eigenvalues --  -11.23676  -7.78192  -4.92282  -4.92093  -4.91764
 Alpha  occ. eigenvalues --   -1.41314  -1.30866  -1.02506  -0.96369  -0.93942
 Alpha  occ. eigenvalues --   -0.77251  -0.72280  -0.66220  -0.64416  -0.62793
 Alpha  occ. eigenvalues --   -0.59472  -0.57068  -0.56317  -0.56138  -0.51263
 Alpha  occ. eigenvalues --   -0.48677  -0.46820  -0.43243  -0.33543
 Alpha virt. eigenvalues --    0.03647   0.04300   0.04672   0.05373   0.06734
 Alpha virt. eigenvalues --    0.07284   0.07908   0.08158   0.09132   0.11462
 Alpha virt. eigenvalues --    0.12241   0.14093   0.15423   0.16211   0.16527

 Mulliken charges:
               1
     1  P    0.830769
     2  N   -0.046476
     3  O   -0.505235
     4  O   -0.480437
     5  C    0.225524
     6  H   -0.130148
     7  H   -0.118054
     8  C    0.235561
     9  H   -0.119766
    10  H   -0.117028
    11  H   -0.118440
    12  H   -0.113604
    13  H    0.232196
    14  H    0.225137
 Sum of Mulliken charges =  -0.00000

 Dipole moment (field-independent basis, Debye):
    X=             -1.2262    Y=              0.7522    Z=              0.4259  Tot=              1.5003

 Test job not archived.
 1\1\GINC-SE342\SP\RHF\Aug-CC-pVDZ\C2H8N1O2P1\OHZDE\08-Apr-2025\0\\#t h
 f aug-cc-pvdz iop(5/13=1,5/36=2,99/5=2) pseudo=read geom=check guess=(
 read,tcheck) scf=(maxcycle=1)\\title\\0,1\P,0,-0.618824,-0.020915,-0.5
 83665\N,0,0.88547,-0.026542,0.419471\O,0,1.644467,-1.165712,0.04225\O,
 0,1.610999,1.13025,-0.024953\C,0,-1.420179,1.438866,0.212825\H,0,-0.93
 6075,2.351591,-0.134917\H,0,-1.356402,1.383015,1.302346\C,0,-1.454883,
 -1.389268,0.330325\H,0,-2.490363,-1.458005,-0.013665\H,0,-1.434446,-1.
 222509,1.409616\H,0,-0.953155,-2.330677,0.103793\H,0,-2.470779,1.46646

 Normal termination of Gaussian 16 at Tue Apr  8 23:34:27 2025.
