 Gaussian 16, Revision C.01,

 ----------------------------------------------------------------------
 #t hf aug-cc-pvdz symm=none int=(grid=ultrafine) guess=(read,tcheck) s
 table=(opt,rrhf)
 ----------------------------------------------------------------------
 -----
 title
 -----
 Symbolic Z-matrix:
 Charge =  0 Multiplicity = 1

 SCF Done:  E(RHF) =  -1036.11039114     A.U. after   13 cycles
 Normal termination of Gaussian 16 at Tue Apr  8 23:54:17 2025.
 Gaussian 16:  ES64L-G16RevC.01  3-Jul-2019

 ----------------------------------------------------------------------
 #t hf aug-cc-pvdz iop(5/13=1,5/36=2,99/5=2) pseudo=read geom=check gue
 ss=(read,tcheck) scf=(maxcycle=1)
 ----------------------------------------------------------------------
 -----
 title
 -----
 Structure from the checkpoint file:  "BDE49_nonexpt_198_mol1.chk"
 Charge =  0 Multiplicity = 1

                         Standard orientation:
 ---------------------------------------------------------------------
 Center     Atomic      Atomic             Coordinates (Angstroms)
 Number     Number       Type             X           Y           Z
 ---------------------------------------------------------------------
      1         17           0        0.832260   -1.522026   -0.000003
      2         17           0        0.832251    1.522030   -0.000003
      3          5           0       -0.018167   -0.000000    0.000018
      4          6           0       -1.547607   -0.000004    0.000006
      5          7           0       -2.702887   -0.000007   -0.000003
 ---------------------------------------------------------------------

 SCF Done:  E(RHF) =  -1036.17993362     A.U. after    2 cycles

 The electronic state is 1-A.
 Alpha  occ. eigenvalues -- -103.70571-103.70570 -15.68613 -11.29952 -10.74071
 Alpha  occ. eigenvalues --  -10.74038  -8.39750  -8.39744  -8.39513  -8.39512
 Alpha  occ. eigenvalues --   -8.39473  -8.39471  -7.79328  -1.22913  -1.21228
 Alpha  occ. eigenvalues --   -1.18340  -0.83794  -0.67916  -0.63372  -0.58673
 Alpha  occ. eigenvalues --   -0.57010  -0.52158  -0.51443  -0.51255  -0.49996
 Alpha  occ. eigenvalues --   -0.49107
 Alpha virt. eigenvalues --    0.01432   0.04048   0.04812   0.05066   0.05588
 Alpha virt. eigenvalues --    0.10817   0.11183   0.11874   0.12701   0.14039
 Alpha virt. eigenvalues --    0.14050   0.16606   0.17312   0.17865   0.18061

 Mulliken charges:
               1
     1  Cl  -0.247178
     2  Cl  -0.247177
     3  B    0.634754
     4  C    0.063407
     5  N   -0.203806
 Sum of Mulliken charges =  -0.00000

 Dipole moment (field-independent basis, Debye):
    X=              2.1282    Y=              0.0000    Z=              0.0001  Tot=              2.1282

 Test job not archived.
 1\1\GINC-SE252\SP\RHF\Aug-CC-pVDZ\C1B1Cl2N1\OHZDE\08-Apr-2025\0\\#t hf
  aug-cc-pvdz iop(5/13=1,5/36=2,99/5=2) pseudo=read geom=check guess=(r
 ead,tcheck) scf=(maxcycle=1)\\title\\0,1\Cl,0,-0.832256,1.522028,-0.00
 0003\Cl,0,-0.832255,-1.522028,-0.000003\B,0,0.018167,0.,0.000018\C,0,1
 .547607,0.,0.000006\N,0,2.702887,0.,-0.000003\\Version=ES64L-G16RevC.0
 1\State=1-A\HF=-1036.1799336\RMSD=2.302e-03\Dipole=-0.8372805,-0.00000
 07,0.0000214\Quadrupole=-5.0218263,2.0928064,2.9290199,0.0000011,0.000
 0349,0.\PG=C01 [X(C1B1Cl2N1)]\\@

 Normal termination of Gaussian 16 at Tue Apr  8 23:54:19 2025.
