 Gaussian 16, Revision C.01,

 ----------------------------------------------------------------------
 #t hf aug-cc-pvdz symm=none int=(grid=ultrafine) guess=(read,tcheck) s
 table=opt
 ----------------------------------------------------------------------
 -----
 title
 -----
 Symbolic Z-matrix:
 Charge =  0 Multiplicity = 2

 SCF Done:  E(UHF) =  -453.783289702     A.U. after   23 cycles
 Normal termination of Gaussian 16 at Tue Apr  8 23:01:39 2025.
 Gaussian 16:  ES64L-G16RevC.01  3-Jul-2019

 ----------------------------------------------------------------------
 #t hf aug-cc-pvdz iop(5/13=1,5/36=2,99/5=2) pseudo=read geom=check gue
 ss=(read,tcheck) scf=(maxcycle=1)
 ----------------------------------------------------------------------
 -----
 title
 -----
 Structure from the checkpoint file:  "BDE49_expt_268_mol2.chk"
 Charge =  0 Multiplicity = 2

                         Standard orientation:
 ---------------------------------------------------------------------
 Center     Atomic      Atomic             Coordinates (Angstroms)
 Number     Number       Type             X           Y           Z
 ---------------------------------------------------------------------
      1          6           0        2.834306   -0.335276    0.130811
      2          6           0        1.526756    0.256680   -0.013553
      3          1           0        3.588614    0.240269    0.647078
      4          1           0        3.052338   -1.321801   -0.252586
      5          8           0        1.168216    1.337721    0.374717
      6          8           0        0.703031   -0.641309   -0.694966
      7          6           0       -1.425877   -0.237654    0.171606
      8          8           0       -1.110538   -0.786718    1.179886
      9          6           0       -2.739994    0.421342   -0.156417
     10          1           0       -2.687008    1.464905    0.164011
     11          1           0       -3.528595   -0.079797    0.402760
     12          1           0       -2.950130    0.398024   -1.225135
     13          8           0       -0.591505   -0.076213   -0.925988
 ---------------------------------------------------------------------

 SCF Done:  E(UHF) =  -453.928170442     A.U. after    2 cycles

 The electronic state is 2-A.
 Alpha  occ. eigenvalues --  -20.69186 -20.68917 -20.60177 -20.58242 -11.41557
 Alpha  occ. eigenvalues --  -11.40962 -11.29939 -11.26721  -1.50409  -1.40855
 Alpha  occ. eigenvalues --   -1.37783  -1.26896  -1.05585  -1.01720  -0.86285
 Alpha  occ. eigenvalues --   -0.79596  -0.74427  -0.73634  -0.72789  -0.67111
 Alpha  occ. eigenvalues --   -0.65886  -0.65219  -0.62876  -0.61180  -0.57949
 Alpha  occ. eigenvalues --   -0.57029  -0.55218  -0.52537  -0.50635  -0.48543
 Alpha  occ. eigenvalues --   -0.43791
 Alpha virt. eigenvalues --    0.03473   0.04035   0.05245   0.05878   0.06135
 Alpha virt. eigenvalues --    0.07965   0.09741   0.11062   0.12307   0.13025
 Alpha virt. eigenvalues --    0.13121   0.13952   0.14592   0.15174   0.16029

  Beta  occ. eigenvalues --  -20.69211 -20.68920 -20.58723 -20.58244 -11.41719
  Beta  occ. eigenvalues --  -11.41554 -11.27675 -11.26722  -1.50387  -1.39626
  Beta  occ. eigenvalues --   -1.36432  -1.26509  -1.03147  -0.97595  -0.85360
  Beta  occ. eigenvalues --   -0.79259  -0.73318  -0.73109  -0.72489  -0.66245
  Beta  occ. eigenvalues --   -0.65386  -0.63292  -0.61878  -0.59829  -0.57779
  Beta  occ. eigenvalues --   -0.56866  -0.52173  -0.49998  -0.49272  -0.47901
  Beta virt. eigenvalues --    0.02610   0.03529   0.04115   0.05273   0.05881
  Beta virt. eigenvalues --    0.06138   0.07981   0.10511   0.11460   0.12360
  Beta virt. eigenvalues --    0.13142   0.13496   0.13946   0.14950   0.15199

 Mulliken charges and spin densities:
               1          2
     1  C    0.609242   1.225094
     2  C    0.587888  -0.366772
     3  H   -0.200429  -0.095074
     4  H   -0.246104  -0.102667
     5  O   -0.376167   0.335715
     6  O   -0.376557   0.009632
     7  C    0.420587   0.000961
     8  O   -0.419656   0.001334
     9  C    0.264884  -0.000590
    10  H    0.091223   0.000134
    11  H    0.026755  -0.000023
    12  H    0.002289  -0.000057
    13  O   -0.383955  -0.007687
 Sum of Mulliken charges =  -0.00000   1.00000

 Dipole moment (field-independent basis, Debye):
    X=              0.2176    Y=             -0.3357    Z=             -1.5066  Tot=              1.5589
                          Isotropic Fermi Contact Couplings
        Atom                 a.u.       MegaHertz       Gauss      10(-4) cm-1
     1  C(13)              0.18957     213.11287      76.04397      71.08680
     2  C(13)             -0.10434    -117.29585     -41.85408     -39.12568
     3  H(1)              -0.02316    -103.51974     -36.93842     -34.53047
     4  H(1)              -0.02355    -105.28414     -37.56800     -35.11901
     5  O(17)              0.12125     -73.50086     -26.22693     -24.51725
     6  O(17)             -0.01330       8.05949       2.87583       2.68836
     7  C(13)              0.00071       0.79257       0.28281       0.26437
     8  O(17)             -0.00033       0.19872       0.07091       0.06629

 Normal termination of Gaussian 16 at Tue Apr  8 23:01:44 2025.
