 Gaussian 16, Revision C.01,

 ----------------------------------------------------------------------
 #t hf aug-cc-pvdz symm=none int=(grid=ultrafine) guess=(read,tcheck) s
 table=(opt,rrhf)
 ----------------------------------------------------------------------
 -----
 title
 -----
 Symbolic Z-matrix:
 Charge =  0 Multiplicity = 1

 SCF Done:  E(RHF) =  -282.879343930     A.U. after   14 cycles
 Normal termination of Gaussian 16 at Tue Apr  8 22:32:44 2025.
 Gaussian 16:  ES64L-G16RevC.01  3-Jul-2019

 ----------------------------------------------------------------------
 #t hf aug-cc-pvdz iop(5/13=1,5/36=2,99/5=2) pseudo=read geom=check gue
 ss=(read,tcheck) scf=(maxcycle=1)
 ----------------------------------------------------------------------
 -----
 title
 -----
 Structure from the checkpoint file:  "BDE49_expt_1110_mol1.chk"
 Charge =  0 Multiplicity = 1

                         Standard orientation:
 ---------------------------------------------------------------------
 Center     Atomic      Atomic             Coordinates (Angstroms)
 Number     Number       Type             X           Y           Z
 ---------------------------------------------------------------------
      1          6           0        0.640804   -0.794890    0.091927
      2          6           0       -0.695652   -0.038700    0.003948
      3          8           0       -1.754561   -0.598525   -0.074581
      4          8           0       -0.558107    1.293299    0.047838
      5          1           0        0.411527    1.447163    0.094755
      6          7           0        1.778853    0.121942   -0.065620
      7          1           0        0.611794   -1.609421   -0.636820
      8          1           0        0.669998   -1.256193    1.082212
      9          1           0        2.147215    0.103946   -1.009580
     10          1           0        2.537929   -0.095743    0.567461
 ---------------------------------------------------------------------

 SCF Done:  E(RHF) =  -282.969459732     A.U. after    2 cycles

 The electronic state is 1-A.
 Alpha  occ. eigenvalues --  -20.61168 -20.55233 -15.65638 -11.39156 -11.30389
 Alpha  occ. eigenvalues --   -1.41356  -1.32489  -1.19025  -0.97048  -0.82265
 Alpha  occ. eigenvalues --   -0.74316  -0.71410  -0.68502  -0.63784  -0.63103
 Alpha  occ. eigenvalues --   -0.57685  -0.56416  -0.48704  -0.47781  -0.43197
 Alpha virt. eigenvalues --    0.02172   0.03774   0.04388   0.05449   0.07477
 Alpha virt. eigenvalues --    0.10178   0.11432   0.11928   0.12205   0.14687
 Alpha virt. eigenvalues --    0.16136   0.16394   0.16733   0.17254   0.19089

 Mulliken charges:
               1
     1  C    0.560426
     2  C    0.442643
     3  O   -0.466666
     4  O   -0.461829
     5  H    0.269584
     6  N   -0.465796
     7  H   -0.007879
     8  H    0.004385
     9  H    0.061879
    10  H    0.063253
 Sum of Mulliken charges =  -0.00000

 Dipole moment (field-independent basis, Debye):
    X=              6.1226    Y=             -0.8408    Z=              0.0326  Tot=              6.1802

 Test job not archived.
 1\1\GINC-SE083\SP\RHF\Aug-CC-pVDZ\C2H5N1O2\OHZDE\08-Apr-2025\0\\#t hf
 aug-cc-pvdz iop(5/13=1,5/36=2,99/5=2) pseudo=read geom=check guess=(re
 ad,tcheck) scf=(maxcycle=1)\\title\\0,1\C,0,0.640804,-0.79489,0.091927
 \C,0,-0.695652,-0.0387,0.003948\O,0,-1.754561,-0.598525,-0.074581\O,0,
 -0.558107,1.293299,0.047838\H,0,0.411527,1.447163,0.094755\N,0,1.77885
 3,0.121942,-0.06562\H,0,0.611794,-1.609421,-0.63682\H,0,0.669998,-1.25
 6193,1.082212\H,0,2.147215,0.103946,-1.00958\H,0,2.537929,-0.095743,0.
 567461\\Version=ES64L-G16RevC.01\State=1-A\HF=-282.9694597\RMSD=3.433e

 Normal termination of Gaussian 16 at Tue Apr  8 22:32:49 2025.
