 Gaussian 16, Revision C.01,

 ----------------------------------------------------------------------
 #t hf aug-cc-pvdz symm=none int=(grid=ultrafine) guess=(read,tcheck) s
 table=opt
 ----------------------------------------------------------------------
 -----
 title
 -----
 Symbolic Z-matrix:
 Charge =  0 Multiplicity = 2

 SCF Done:  E(UHF) =  -426.307249356     A.U. after   19 cycles
 Normal termination of Gaussian 16 at Wed Apr  9 00:32:30 2025.
 Gaussian 16:  ES64L-G16RevC.01  3-Jul-2019

 ----------------------------------------------------------------------
 #t hf aug-cc-pvdz iop(5/13=1,5/36=2,99/5=2) pseudo=read geom=check gue
 ss=(read,tcheck) scf=(maxcycle=1)
 ----------------------------------------------------------------------
 -----
 title
 -----
 Structure from the checkpoint file:  "BDE49_nonexpt_420_mol2.chk"
 Charge =  0 Multiplicity = 2

                         Standard orientation:
 ---------------------------------------------------------------------
 Center     Atomic      Atomic             Coordinates (Angstroms)
 Number     Number       Type             X           Y           Z
 ---------------------------------------------------------------------
      1          9           0       -2.984105   -0.363892   -0.021826
      2          5           0       -1.703577   -0.462358    0.260138
      3          8           0       -0.866130    0.530800   -0.146843
      4          6           0        0.497242    0.514871   -0.026990
      5          8           0        1.140044    1.512610    0.079717
      6          8           0        0.957078   -0.736435   -0.086619
      7          6           0        2.390821   -0.869068    0.023584
      8          1           0        2.881609   -0.323588   -0.782607
      9          1           0        2.584852   -1.935499   -0.056378
     10          1           0        2.732057   -0.484716    0.985127
 ---------------------------------------------------------------------

 SCF Done:  E(UHF) =  -426.461817659     A.U. after    2 cycles

 The electronic state is 2-A.
 Alpha  occ. eigenvalues --  -26.15280 -20.65175 -20.64854 -20.58746 -11.47783
 Alpha  occ. eigenvalues --  -11.32222  -7.75798  -1.69883  -1.48819  -1.38642
 Alpha  occ. eigenvalues --   -1.36488  -1.01054  -0.91312  -0.84561  -0.80858
 Alpha  occ. eigenvalues --   -0.77088  -0.76266  -0.73662  -0.73062  -0.67838
 Alpha  occ. eigenvalues --   -0.64424  -0.61740  -0.57511  -0.55660  -0.52263
 Alpha  occ. eigenvalues --   -0.51243  -0.40615
 Alpha virt. eigenvalues --    0.03121   0.04588   0.05124   0.05797   0.06255
 Alpha virt. eigenvalues --    0.06650   0.07058   0.11746   0.12115   0.12247
 Alpha virt. eigenvalues --    0.12496   0.13801   0.15245   0.16336   0.16650

  Beta  occ. eigenvalues --  -26.14930 -20.65145 -20.64588 -20.58751 -11.47781
  Beta  occ. eigenvalues --  -11.32223  -7.73558  -1.68770  -1.48553  -1.38088
  Beta  occ. eigenvalues --   -1.36330  -1.00977  -0.90504  -0.82959  -0.80428
  Beta  occ. eigenvalues --   -0.76213  -0.74739  -0.73275  -0.72982  -0.66818
  Beta  occ. eigenvalues --   -0.64284  -0.61038  -0.57364  -0.55565  -0.52214
  Beta  occ. eigenvalues --   -0.51168
  Beta virt. eigenvalues --    0.02652   0.04015   0.04894   0.05274   0.06341
  Beta virt. eigenvalues --    0.06499   0.06741   0.10143   0.12162   0.12497
  Beta virt. eigenvalues --    0.13747   0.14442   0.15302   0.15530   0.16501

 Mulliken charges and spin densities:
               1          2
     1  F   -0.424436  -0.056243
     2  B    0.563257   1.039529
     3  O   -0.556158   0.068971
     4  C    0.711715  -0.001654
     5  O   -0.327529   0.000281
     6  O   -0.415724  -0.041228
     7  C    0.786047  -0.008258
     8  H   -0.061641   0.000987
     9  H   -0.213362  -0.000312
    10  H   -0.062170  -0.002073
 Sum of Mulliken charges =  -0.00000   1.00000

 Dipole moment (field-independent basis, Debye):
    X=              2.2726    Y=             -2.7702    Z=              0.3084  Tot=              3.5964
                          Isotropic Fermi Contact Couplings
        Atom                 a.u.       MegaHertz       Gauss      10(-4) cm-1
     1  F(19)              0.09830     413.59529     147.58109     137.96054
     2  B(11)              0.48500     695.67097     248.23270     232.05086
     3  O(17)              0.04713     -28.56983     -10.19442      -9.52987
     4  C(13)              0.00024       0.27352       0.09760       0.09123
     5  O(17)             -0.00016       0.09663       0.03448       0.03223
     6  O(17)              0.00890      -5.39635      -1.92555      -1.80003
     7  C(13)             -0.00022      -0.25218      -0.08998      -0.08412
     8  H(1)               0.00006       0.25221       0.08999       0.08413

 Normal termination of Gaussian 16 at Wed Apr  9 00:32:34 2025.
