 Gaussian 16, Revision C.01,

 ----------------------------------------------------------------------
 #t hf aug-cc-pvdz symm=none int=(grid=ultrafine) guess=(read,tcheck) s
 table=(opt,rrhf)
 ----------------------------------------------------------------------
 -----
 title
 -----
 Symbolic Z-matrix:
 Charge =  0 Multiplicity = 1

 SCF Done:  E(RHF) =  -842.316266266     A.U. after   17 cycles
 Normal termination of Gaussian 16 at Tue Apr  8 22:50:33 2025.
 Gaussian 16:  ES64L-G16RevC.01  3-Jul-2019

 ----------------------------------------------------------------------
 #t hf aug-cc-pvdz iop(5/13=1,5/36=2,99/5=2) pseudo=read geom=check gue
 ss=(read,tcheck) scf=(maxcycle=1)
 ----------------------------------------------------------------------
 -----
 title
 -----
 Structure from the checkpoint file:  "BDE49_expt_1704_mol1.chk"
 Charge =  0 Multiplicity = 1

                         Standard orientation:
 ---------------------------------------------------------------------
 Center     Atomic      Atomic             Coordinates (Angstroms)
 Number     Number       Type             X           Y           Z
 ---------------------------------------------------------------------
      1          6           0       -2.413335    2.312427    0.000000
      2          6           0       -1.171754    2.989965    0.000000
      3          6           0        0.006248    2.283698   -0.000000
      4          6           0       -2.452783    0.939370    0.000000
      5          6           0       -1.255523    0.178735    0.000000
      6          6           0        0.000000    0.864277    0.000000
      7          1           0       -3.334778    2.883364    0.000000
      8          1           0       -1.154170    4.073918    0.000000
      9          1           0        0.958527    2.803109   -0.000000
     10          1           0       -3.403690    0.417083    0.000000
     11          6           0        1.201391    0.109010   -0.000000
     12          6           0        1.145460   -1.260292   -0.000000
     13          6           0       -0.084982   -1.954235    0.000000
     14          6           0       -1.256957   -1.240441    0.000000
     15         17           0        2.633177   -2.195880   -0.000000
     16          1           0       -0.086966   -3.036410    0.000000
     17          1           0       -2.206487   -1.764854    0.000000
     18          1           0        2.156963    0.618657   -0.000000
 ---------------------------------------------------------------------

 SCF Done:  E(RHF) =  -842.444255616     A.U. after    2 cycles

 The electronic state is 1-A'.
 Alpha  occ. eigenvalues -- -103.66679 -11.31598 -11.26784 -11.26466 -11.26331
 Alpha  occ. eigenvalues --  -11.26208 -11.26204 -11.25720 -11.25692 -11.25570
 Alpha  occ. eigenvalues --  -11.25483 -10.69941  -8.35677  -8.35375  -8.35356
 Alpha  occ. eigenvalues --   -1.20177  -1.16407  -1.10177  -1.05632  -1.00935
 Alpha  occ. eigenvalues --   -0.98627  -0.86961  -0.84272  -0.82921  -0.72048
 Alpha  occ. eigenvalues --   -0.71441  -0.68911  -0.64045  -0.63163  -0.60639
 Alpha  occ. eigenvalues --   -0.60115  -0.57948  -0.56204  -0.54568  -0.51188
 Alpha  occ. eigenvalues --   -0.51027  -0.49626  -0.46844  -0.44555  -0.40026
 Alpha  occ. eigenvalues --   -0.33143  -0.30402
 Alpha virt. eigenvalues --    0.03157   0.03557   0.04108   0.05220   0.05619
 Alpha virt. eigenvalues --    0.06367   0.07456   0.07780   0.08610   0.09428
 Alpha virt. eigenvalues --    0.10135   0.10631   0.11134   0.11984   0.12774

 Mulliken charges:
               1
     1  C    0.511154
     2  C    0.472587
     3  C    0.474022
     4  C    0.666045
     5  C   -0.218271
     6  C    0.530378
     7  H   -0.451003
     8  H   -0.449108
     9  H   -0.557115
    10  H   -0.568911
    11  C    0.908328
    12  C   -0.671818
    13  C    0.483225
    14  C    0.840899
    15  Cl  -0.379264
    16  H   -0.456738
    17  H   -0.626982
    18  H   -0.507430
 Sum of Mulliken charges =  -0.00000

 Dipole moment (field-independent basis, Debye):
    X=             -1.9231    Y=              1.3403    Z=              0.0000  Tot=              2.3441

 Test job not archived.
 1\1\GINC-SE036\SP\RHF\Aug-CC-pVDZ\C10H7Cl1\OHZDE\08-Apr-2025\0\\#t hf
 aug-cc-pvdz iop(5/13=1,5/36=2,99/5=2) pseudo=read geom=check guess=(re
 ad,tcheck) scf=(maxcycle=1)\\title\\0,1\C,0,-2.413335,2.312427,0.\C,0,
 -1.171754,2.989965,0.\C,0,0.006248,2.283698,0.\C,0,-2.452783,0.93937,0
 .\C,0,-1.255523,0.178735,0.\C,0,0.,0.864277,0.\H,0,-3.334778,2.883364,
 0.\H,0,-1.15417,4.073918,0.\H,0,0.958527,2.803109,0.\H,0,-3.40369,0.41
 7083,0.\C,0,1.201391,0.10901,0.\C,0,1.14546,-1.260292,0.\C,0,-0.084982
 ,-1.954235,0.\C,0,-1.256957,-1.240441,0.\Cl,0,2.633177,-2.19588,0.\H,0

 Normal termination of Gaussian 16 at Tue Apr  8 22:50:44 2025.
