 Gaussian 16, Revision C.01,

 ----------------------------------------------------------------------
 #t hf aug-cc-pvdz symm=none int=(grid=ultrafine) guess=(read,tcheck) s
 table=(opt,rrhf)
 ----------------------------------------------------------------------
 -----
 title
 -----
 Symbolic Z-matrix:
 Charge =  0 Multiplicity = 1

 SCF Done:  E(RHF) =  -760.522947105     A.U. after   18 cycles
 Normal termination of Gaussian 16 at Tue Apr  8 23:30:42 2025.
 Gaussian 16:  ES64L-G16RevC.01  3-Jul-2019

 ----------------------------------------------------------------------
 #t hf aug-cc-pvdz iop(5/13=1,5/36=2,99/5=2) pseudo=read geom=check gue
 ss=(read,tcheck) scf=(maxcycle=1)
 ----------------------------------------------------------------------
 -----
 title
 -----
 Structure from the checkpoint file:  "BDE49_nonexpt_1392_mol1.chk"
 Charge =  0 Multiplicity = 1

                         Standard orientation:
 ---------------------------------------------------------------------
 Center     Atomic      Atomic             Coordinates (Angstroms)
 Number     Number       Type             X           Y           Z
 ---------------------------------------------------------------------
      1          6           0        1.634096   -1.403164    0.037931
      2          6           0        2.913516   -0.861189    0.110907
      3          6           0        3.086633    0.522696    0.082947
      4          6           0        1.976803    1.350235   -0.003272
      5          6           0        0.674547    0.821648   -0.053308
      6          6           0        0.505228   -0.581379   -0.030988
      7         15           0       -1.146638   -1.346265   -0.253414
      8          6           0       -2.308812    0.090225    0.064294
      9          1           0        4.081540    0.950114    0.125603
     10          1           0        3.773857   -1.517295    0.177529
     11          1           0        2.105761    2.427361   -0.025049
     12          8           0       -3.484917   -0.137106    0.273063
     13          6           0       -0.451019    1.747443   -0.092045
     14          6           0       -1.766093    1.448172   -0.044019
     15          1           0       -0.178416    2.798888   -0.131788
     16          1           0       -2.508788    2.239919   -0.021527
     17          1           0        1.511932   -2.481622    0.033544
     18          1           0       -1.296375   -1.934668    1.023714
 ---------------------------------------------------------------------

 SCF Done:  E(RHF) =  -760.664730914     A.U. after    2 cycles

 The electronic state is 1-A.
 Alpha  occ. eigenvalues --  -81.27449 -20.56745 -11.35234 -11.29101 -11.27937
 Alpha  occ. eigenvalues --  -11.27748 -11.27059 -11.26937 -11.26750 -11.26497
 Alpha  occ. eigenvalues --  -11.26157  -7.77924  -4.92034  -4.91939  -4.91605
 Alpha  occ. eigenvalues --   -1.35438  -1.17536  -1.10248  -1.03916  -1.01994
 Alpha  occ. eigenvalues --   -0.92132  -0.86075  -0.83097  -0.81776  -0.71992
 Alpha  occ. eigenvalues --   -0.70693  -0.69405  -0.65495  -0.63493  -0.62338
 Alpha  occ. eigenvalues --   -0.59993  -0.58839  -0.57548  -0.54837  -0.53950
 Alpha  occ. eigenvalues --   -0.52442  -0.49601  -0.43579  -0.42312  -0.39112
 Alpha  occ. eigenvalues --   -0.34134  -0.32457
 Alpha virt. eigenvalues --    0.02653   0.03352   0.03433   0.03999   0.05272
 Alpha virt. eigenvalues --    0.05709   0.06714   0.07724   0.07895   0.08456
 Alpha virt. eigenvalues --    0.09454   0.09759   0.10778   0.11332   0.11722

 Mulliken charges:
               1
     1  C    0.716324
     2  C    0.277025
     3  C    0.281912
     4  C    0.731452
     5  C    0.267227
     6  C    0.075755
     7  P    0.287357
     8  C   -0.054509
     9  H   -0.438772
    10  H   -0.438041
    11  H   -0.585081
    12  O   -0.517668
    13  C    0.451389
    14  C    0.354239
    15  H   -0.573803
    16  H   -0.475779
    17  H   -0.550105
    18  H    0.191076
 Sum of Mulliken charges =   0.00000

 Dipole moment (field-independent basis, Debye):
    X=              5.1811    Y=              1.3181    Z=              0.0870  Tot=              5.3468

 Test job not archived.
 1\1\GINC-SE460\SP\RHF\Aug-CC-pVDZ\C9H7O1P1\OHZDE\08-Apr-2025\0\\#t hf
 aug-cc-pvdz iop(5/13=1,5/36=2,99/5=2) pseudo=read geom=check guess=(re
 ad,tcheck) scf=(maxcycle=1)\\title\\0,1\C,0,1.634096,-1.403164,0.03793
 1\C,0,2.913516,-0.861189,0.110907\C,0,3.086633,0.522696,0.082947\C,0,1
 .976803,1.350235,-0.003272\C,0,0.674547,0.821648,-0.053308\C,0,0.50522
 8,-0.581379,-0.030988\P,0,-1.146638,-1.346265,-0.253414\C,0,-2.308812,
 0.090225,0.064294\H,0,4.08154,0.950114,0.125603\H,0,3.773857,-1.517295
 ,0.177529\H,0,2.105761,2.427361,-0.025049\O,0,-3.484917,-0.137106,0.27

 Normal termination of Gaussian 16 at Tue Apr  8 23:30:52 2025.
