 Gaussian 16, Revision C.01,

 ----------------------------------------------------------------------
 #t hf aug-cc-pvdz symm=none int=(grid=ultrafine) guess=(read,tcheck) s
 table=(opt,rrhf)
 ----------------------------------------------------------------------
 -----
 title
 -----
 Symbolic Z-matrix:
 Charge =  0 Multiplicity = 1

 SCF Done:  E(RHF) =  -822.024122098     A.U. after   14 cycles
 Normal termination of Gaussian 16 at Tue Apr  8 23:55:17 2025.
 Gaussian 16:  ES64L-G16RevC.01  3-Jul-2019

 ----------------------------------------------------------------------
 #t hf aug-cc-pvdz iop(5/13=1,5/36=2,99/5=2) pseudo=read geom=check gue
 ss=(read,tcheck) scf=(maxcycle=1)
 ----------------------------------------------------------------------
 -----
 title
 -----
 Structure from the checkpoint file:  "BDE49_nonexpt_1894_mol1.chk"
 Charge =  0 Multiplicity = 1

                         Standard orientation:
 ---------------------------------------------------------------------
 Center     Atomic      Atomic             Coordinates (Angstroms)
 Number     Number       Type             X           Y           Z
 ---------------------------------------------------------------------
      1         14           0       -0.631722    1.758038   -0.443440
      2          6           0        1.223779    1.487749   -0.672523
      3          6           0        1.793151    0.585304    0.411510
      4          8           0        1.830843    0.990083    1.569477
      5          7           0        2.228369   -0.664219    0.058205
      6          6           0       -1.452076    0.019999   -0.574131
      7          1           0       -1.174700    2.513707   -1.595357
      8          1           0       -0.891934    2.533653    0.789402
      9          8           0       -1.057150   -0.588539   -1.574597
     10          7           0       -2.376268   -0.504265    0.278525
     11          6           0        2.862155   -1.494597    1.075621
     12          1           0        2.820934   -0.966960    2.024764
     13          1           0        3.908309   -1.693248    0.815815
     14          1           0        2.340392   -2.452988    1.166841
     15          6           0       -2.848160    0.159854    1.482047
     16          1           0       -2.352861    1.119613    1.606744
     17          1           0       -2.635428   -0.452574    2.364914
     18          1           0       -3.930107    0.325998    1.432629
     19          6           0        2.207350   -1.201417   -1.300606
     20          1           0        1.284844   -0.937451   -1.814039
     21          1           0        2.238019   -2.290500   -1.235664
     22          1           0        3.074691   -0.874558   -1.888054
     23          6           0       -2.933409   -1.826182    0.013619
     24          1           0       -2.512069   -2.196336   -0.917817
     25          1           0       -4.023355   -1.767616   -0.072764
     26          1           0       -2.685453   -2.515337    0.827997
     27          1           0        1.694887    2.465137   -0.534356
     28          1           0        1.416940    1.159711   -1.692262
 ---------------------------------------------------------------------

 SCF Done:  E(RHF) =  -822.215441176     A.U. after    2 cycles

 The electronic state is 1-A.
 Alpha  occ. eigenvalues --  -69.07868 -20.53830 -20.52132 -15.66028 -15.64465
 Alpha  occ. eigenvalues --  -11.35974 -11.35017 -11.28292 -11.26981 -11.26510
 Alpha  occ. eigenvalues --  -11.25919 -11.23587  -6.83122  -3.93890  -3.93861
 Alpha  occ. eigenvalues --   -3.93851  -1.34072  -1.33510  -1.21534  -1.20119
 Alpha  occ. eigenvalues --   -1.00404  -0.97820  -0.95716  -0.93937  -0.90802
 Alpha  occ. eigenvalues --   -0.77428  -0.73082  -0.71612  -0.68577  -0.66846
 Alpha  occ. eigenvalues --   -0.66031  -0.65350  -0.64861  -0.63119  -0.58445
 Alpha  occ. eigenvalues --   -0.57281  -0.57008  -0.56735  -0.56216  -0.55757
 Alpha  occ. eigenvalues --   -0.55309  -0.54292  -0.54079  -0.52681  -0.52189
 Alpha  occ. eigenvalues --   -0.47691  -0.45642  -0.42636  -0.40752  -0.37951
 Alpha  occ. eigenvalues --   -0.36659
 Alpha virt. eigenvalues --    0.02991   0.03638   0.03702   0.04506   0.04989
 Alpha virt. eigenvalues --    0.05383   0.05863   0.06722   0.07315   0.07535
 Alpha virt. eigenvalues --    0.07836   0.08313   0.08453   0.08982   0.09477

 Mulliken charges:
               1
     1  Si   0.124274
     2  C    0.276877
     3  C    0.382507
     4  O   -0.650461
     5  N   -0.463117
     6  C    0.417225
     7  H    0.174416
     8  H    0.124381
     9  O   -0.708954
    10  N   -0.455123
    11  C    0.753041
    12  H   -0.245016
    13  H   -0.078654
    14  H   -0.154942
    15  C    0.904133
    16  H   -0.446201
    17  H   -0.054243
    18  H   -0.087565
    19  C    0.922269
    20  H   -0.215152
    21  H   -0.241283
    22  H   -0.090915
    23  C    0.786262
    24  H   -0.235553
    25  H   -0.124662
    26  H   -0.113761
    27  H   -0.157797
    28  H   -0.341987
 Sum of Mulliken charges =  -0.00000

 Dipole moment (field-independent basis, Debye):
    X=             -1.6847    Y=             -1.2698    Z=             -0.2171  Tot=              2.1208

 Test job not archived.
 1\1\GINC-SE398\SP\RHF\Aug-CC-pVDZ\C7H16N2O2Si1\OHZDE\08-Apr-2025\0\\#t
  hf aug-cc-pvdz iop(5/13=1,5/36=2,99/5=2) pseudo=read geom=check guess
 =(read,tcheck) scf=(maxcycle=1)\\title\\0,1\Si,0,-0.631722,1.758038,-0
 .44344\C,0,1.223779,1.487749,-0.672523\C,0,1.793151,0.585304,0.41151\O
 ,0,1.830843,0.990083,1.569477\N,0,2.228369,-0.664219,0.058205\C,0,-1.4
 52076,0.019999,-0.574131\H,0,-1.1747,2.513707,-1.595357\H,0,-0.891934,
 2.533653,0.789402\O,0,-1.05715,-0.588539,-1.574597\N,0,-2.376268,-0.50
 4265,0.278525\C,0,2.862155,-1.494597,1.075621\H,0,2.820934,-0.96696,2.

 Normal termination of Gaussian 16 at Tue Apr  8 23:55:42 2025.
