 Gaussian 16, Revision C.01,

 ----------------------------------------------------------------------
 #t hf aug-cc-pvdz symm=none int=(grid=ultrafine) guess=(read,tcheck) s
 table=(opt,rrhf)
 ----------------------------------------------------------------------
 -----
 title
 -----
 Symbolic Z-matrix:
 Charge =  0 Multiplicity = 1

 SCF Done:  E(RHF) =  -806.801760456     A.U. after   14 cycles
 Normal termination of Gaussian 16 at Wed Apr  9 00:08:37 2025.
 Gaussian 16:  ES64L-G16RevC.01  3-Jul-2019

 ----------------------------------------------------------------------
 #t hf aug-cc-pvdz iop(5/13=1,5/36=2,99/5=2) pseudo=read geom=check gue
 ss=(read,tcheck) scf=(maxcycle=1)
 ----------------------------------------------------------------------
 -----
 title
 -----
 Structure from the checkpoint file:  "BDE49_nonexpt_2339_mol1.chk"
 Charge =  0 Multiplicity = 1

                         Standard orientation:
 ---------------------------------------------------------------------
 Center     Atomic      Atomic             Coordinates (Angstroms)
 Number     Number       Type             X           Y           Z
 ---------------------------------------------------------------------
      1         14           0        1.239083   -0.900786    0.472129
      2         14           0       -0.842083   -0.896193   -0.636354
      3          6           0       -1.783242    0.704340   -0.088406
      4          1           0       -1.659213   -2.071272   -0.260926
      5          1           0       -0.598285   -0.882900   -2.099428
      6          8           0       -2.454040    0.714575    0.917701
      7          1           0       -1.673296    1.626884   -0.701688
      8          6           0        1.984469    0.836091    0.050692
      9          1           0        1.114925   -0.991989    1.948262
     10          1           0        2.181312   -1.957506    0.023583
     11          8           0        1.307934    1.674242   -0.506315
     12          1           0        3.038047    1.081369    0.324556
 ---------------------------------------------------------------------

 SCF Done:  E(RHF) =  -806.913921076     A.U. after    2 cycles

 The electronic state is 1-A.
 Alpha  occ. eigenvalues --  -69.08825 -69.08219 -20.60247 -20.58598 -11.35162
 Alpha  occ. eigenvalues --  -11.33835  -6.84268  -6.83641  -3.95031  -3.94996
 Alpha  occ. eigenvalues --   -3.94972  -3.94397  -3.94381  -3.94365  -1.37813
 Alpha  occ. eigenvalues --   -1.36315  -0.86081  -0.84679  -0.74956  -0.70243
 Alpha  occ. eigenvalues --   -0.68273  -0.66501  -0.61450  -0.59148  -0.56715
 Alpha  occ. eigenvalues --   -0.54974  -0.50747  -0.49514  -0.43938  -0.41373
 Alpha  occ. eigenvalues --   -0.39373
 Alpha virt. eigenvalues --    0.02983   0.03745   0.04446   0.05401   0.06046
 Alpha virt. eigenvalues --    0.06230   0.06905   0.07157   0.07717   0.07920
 Alpha virt. eigenvalues --    0.08220   0.09784   0.10178   0.10744   0.12143

 Mulliken charges:
               1
     1  Si   0.396214
     2  Si   0.163517
     3  C    0.312296
     4  H    0.038251
     5  H    0.091479
     6  O   -0.453768
     7  H   -0.129441
     8  C    0.231594
     9  H    0.001273
    10  H   -0.002248
    11  O   -0.378569
    12  H   -0.270596
 Sum of Mulliken charges =  -0.00000

 Dipole moment (field-independent basis, Debye):
    X=              3.0969    Y=             -2.3495    Z=             -1.0902  Tot=              4.0373

 Test job not archived.
 1\1\GINC-SE329\SP\RHF\Aug-CC-pVDZ\C2H6O2Si2\OHZDE\09-Apr-2025\0\\#t hf
  aug-cc-pvdz iop(5/13=1,5/36=2,99/5=2) pseudo=read geom=check guess=(r
 ead,tcheck) scf=(maxcycle=1)\\title\\0,1\Si,0,1.239083,-0.900786,0.472
 129\Si,0,-0.842083,-0.896193,-0.636354\C,0,-1.783242,0.70434,-0.088406
 \H,0,-1.659212,-2.071272,-0.260926\H,0,-0.598285,-0.8829,-2.099428\O,0
 ,-2.45404,0.714574,0.917701\H,0,-1.673297,1.626884,-0.701688\C,0,1.984
 469,0.836092,0.050692\H,0,1.114925,-0.991989,1.948262\H,0,2.181312,-1.
 957505,0.023583\O,0,1.307933,1.674242,-0.506315\H,0,3.038047,1.08137,0

 Normal termination of Gaussian 16 at Wed Apr  9 00:08:42 2025.
