 Gaussian 16, Revision C.01,

 ----------------------------------------------------------------------
 #t hf aug-cc-pvdz symm=none int=(grid=ultrafine) guess=(read,tcheck) s
 table=(opt,rrhf)
 ----------------------------------------------------------------------
 -----
 title
 -----
 Symbolic Z-matrix:
 Charge =  0 Multiplicity = 1

 SCF Done:  E(RHF) =  -210.022056862     A.U. after   13 cycles
 Normal termination of Gaussian 16 at Tue Apr  8 23:00:42 2025.
 Gaussian 16:  ES64L-G16RevC.01  3-Jul-2019

 ----------------------------------------------------------------------
 #t hf aug-cc-pvdz iop(5/13=1,5/36=2,99/5=2) pseudo=read geom=check gue
 ss=(read,tcheck) scf=(maxcycle=1)
 ----------------------------------------------------------------------
 -----
 title
 -----
 Structure from the checkpoint file:  "BDE49_expt_300_mol1.chk"
 Charge =  0 Multiplicity = 1

                         Standard orientation:
 ---------------------------------------------------------------------
 Center     Atomic      Atomic             Coordinates (Angstroms)
 Number     Number       Type             X           Y           Z
 ---------------------------------------------------------------------
      1          6           0        1.082452   -0.000128   -0.097183
      2          7           0        2.207949   -0.000069    0.153760
      3          6           0       -0.353954   -0.000005   -0.398533
      4          6           0       -1.019811    1.279321    0.143285
      5          1           0       -0.947612    1.320895    1.232509
      6          1           0       -2.076853    1.288114   -0.132605
      7          1           0       -0.548608    2.175064   -0.265100
      8          6           0       -1.020062   -1.279191    0.143303
      9          1           0       -0.440304   -0.000004   -1.491219
     10          1           0       -0.947840   -1.320783    1.232524
     11          1           0       -0.549064   -2.175032   -0.265102
     12          1           0       -2.077114   -1.287758   -0.132557
 ---------------------------------------------------------------------

 SCF Done:  E(RHF) =  -210.087612601     A.U. after    2 cycles

 The electronic state is 1-A.
 Alpha  occ. eigenvalues --  -15.63392 -11.29833 -11.28199 -11.25559 -11.25554
 Alpha  occ. eigenvalues --   -1.19173  -1.09776  -0.95791  -0.87831  -0.70672
 Alpha  occ. eigenvalues --   -0.64615  -0.60237  -0.56967  -0.56863  -0.53343
 Alpha  occ. eigenvalues --   -0.52654  -0.52574  -0.45252  -0.45186
 Alpha virt. eigenvalues --    0.02725   0.04276   0.04325   0.05347   0.07013
 Alpha virt. eigenvalues --    0.07066   0.07377   0.09681   0.11117   0.12749
 Alpha virt. eigenvalues --    0.14125   0.14527   0.14909   0.15465   0.15856

 Mulliken charges:
               1
     1  C   -0.396214
     2  N   -0.173800
     3  C   -0.460499
     4  C    0.655584
     5  H   -0.021905
     6  H   -0.054913
     7  H   -0.071079
     8  C    0.655564
     9  H    0.015158
    10  H   -0.021914
    11  H   -0.071070
    12  H   -0.054913
 Sum of Mulliken charges =   0.00000

 Dipole moment (field-independent basis, Debye):
    X=             -4.2482    Y=              0.0001    Z=             -0.7584  Tot=              4.3154

 Test job not archived.
 1\1\GINC-SE457\SP\RHF\Aug-CC-pVDZ\C4H7N1\OHZDE\08-Apr-2025\0\\#t hf au
 g-cc-pvdz iop(5/13=1,5/36=2,99/5=2) pseudo=read geom=check guess=(read
 ,tcheck) scf=(maxcycle=1)\\title\\0,1\C,0,-1.082452,0.000128,-0.097183
 \N,0,-2.207949,0.00007,0.15376\C,0,0.353954,0.000005,-0.398533\C,0,1.0
 19811,-1.279321,0.143285\H,0,0.947612,-1.320895,1.232509\H,0,2.076853,
 -1.288114,-0.132605\H,0,0.548608,-2.175064,-0.2651\C,0,1.020062,1.2791
 91,0.143303\H,0,0.440304,0.000004,-1.491219\H,0,0.94784,1.320783,1.232
 524\H,0,0.549064,2.175032,-0.265102\H,0,2.077114,1.287758,-0.132557\\V

 Normal termination of Gaussian 16 at Tue Apr  8 23:00:46 2025.
