 Gaussian 16, Revision C.01,

 ----------------------------------------------------------------------
 #t hf aug-cc-pvdz symm=none int=(grid=ultrafine) guess=(read,tcheck) s
 table=(opt,rrhf)
 ----------------------------------------------------------------------
 -----
 title
 -----
 Symbolic Z-matrix:
 Charge =  0 Multiplicity = 1

 SCF Done:  E(RHF) =  -734.179195399     A.U. after   15 cycles
 Normal termination of Gaussian 16 at Tue Apr  8 23:09:12 2025.
 Gaussian 16:  ES64L-G16RevC.01  3-Jul-2019

 ----------------------------------------------------------------------
 #t hf aug-cc-pvdz iop(5/13=1,5/36=2,99/5=2) pseudo=read geom=check gue
 ss=(read,tcheck) scf=(maxcycle=1)
 ----------------------------------------------------------------------
 -----
 title
 -----
 Structure from the checkpoint file:  "BDE49_expt_503_mol1.chk"
 Charge =  0 Multiplicity = 1

                         Standard orientation:
 ---------------------------------------------------------------------
 Center     Atomic      Atomic             Coordinates (Angstroms)
 Number     Number       Type             X           Y           Z
 ---------------------------------------------------------------------
      1          6           0        3.491333    1.178861    0.000010
      2          6           0        2.110362    1.326973   -0.000025
      3          6           0        4.059776   -0.093621    0.000028
      4          6           0        3.230457   -1.211793    0.000011
      5          6           0        1.843719   -1.081627   -0.000025
      6          6           0        1.280383    0.199067   -0.000044
      7          1           0        1.671037    2.319800   -0.000039
      8          1           0        4.122364    2.060042    0.000023
      9          1           0        3.662220   -2.206089    0.000024
     10          1           0        1.203025   -1.949647   -0.000041
     11          7           0       -0.116754    0.427758   -0.000083
     12          1           0        5.136935   -0.210479    0.000056
     13          6           0       -1.120537   -0.488188   -0.000101
     14          1           0       -0.401347    1.396508   -0.000089
     15          8           0       -1.029330   -1.694812    0.000014
     16          6           0       -2.537894    0.147635    0.000015
     17          9           0       -3.218431   -0.237874   -1.085189
     18          9           0       -2.506377    1.508057    0.000050
     19          9           0       -3.218294   -0.237937    1.085285
 ---------------------------------------------------------------------

 SCF Done:  E(RHF) =  -734.419046126     A.U. after    2 cycles

 The electronic state is 1-A.
 Alpha  occ. eigenvalues --  -26.19212 -26.18466 -26.18457 -20.58451 -15.70426
 Alpha  occ. eigenvalues --  -11.55291 -11.41973 -11.31799 -11.26502 -11.26386
 Alpha  occ. eigenvalues --  -11.26086 -11.25469 -11.25443  -1.78247  -1.71281
 Alpha  occ. eigenvalues --   -1.71043  -1.39827  -1.26188  -1.15439  -1.07529
 Alpha  occ. eigenvalues --   -1.03003  -1.02294  -0.93189  -0.90110  -0.89947
 Alpha  occ. eigenvalues --   -0.87383  -0.84981  -0.80966  -0.79287  -0.78938
 Alpha  occ. eigenvalues --   -0.75290  -0.74930  -0.74179  -0.73627  -0.71480
 Alpha  occ. eigenvalues --   -0.69512  -0.65722  -0.63727  -0.63377  -0.62000
 Alpha  occ. eigenvalues --   -0.60849  -0.54238  -0.54020  -0.52078  -0.48347
 Alpha  occ. eigenvalues --   -0.47057  -0.35856  -0.33253
 Alpha virt. eigenvalues --    0.02727   0.03511   0.04420   0.05635   0.06259
 Alpha virt. eigenvalues --    0.07292   0.07526   0.09100   0.09305   0.09418
 Alpha virt. eigenvalues --    0.10981   0.11102   0.11744   0.12785   0.13115

 Mulliken charges:
               1
     1  C    0.649734
     2  C    0.344817
     3  C    0.595763
     4  C    0.659884
     5  C    0.325685
     6  C    0.584355
     7  H   -0.646749
     8  H   -0.439305
     9  H   -0.446629
    10  H   -0.618052
    11  N   -0.460646
    12  H   -0.450504
    13  C    0.073622
    14  H    0.004156
    15  O   -0.466564
    16  C    1.237900
    17  F   -0.300561
    18  F   -0.346339
    19  F   -0.300566
 Sum of Mulliken charges =  -0.00000

 Dipole moment (field-independent basis, Debye):
    X=              3.0210    Y=              2.9811    Z=             -0.0003  Tot=              4.2442

 Test job not archived.
 1\1\GINC-SE126\SP\RHF\Aug-CC-pVDZ\C8H6F3N1O1\OHZDE\08-Apr-2025\0\\#t h
 f aug-cc-pvdz iop(5/13=1,5/36=2,99/5=2) pseudo=read geom=check guess=(
 read,tcheck) scf=(maxcycle=1)\\title\\0,1\C,0,3.491333,1.178861,0.0000
 1\C,0,2.110362,1.326973,-0.000025\C,0,4.059776,-0.093621,0.000028\C,0,
 3.230457,-1.211793,0.000011\C,0,1.843719,-1.081627,-0.000025\C,0,1.280
 383,0.199067,-0.000044\H,0,1.671037,2.3198,-0.000039\H,0,4.122364,2.06
 0042,0.000023\H,0,3.66222,-2.206089,0.000024\H,0,1.203025,-1.949647,-0
 .000041\N,0,-0.116754,0.427758,-0.000083\H,0,5.136935,-0.210479,0.0000

 Normal termination of Gaussian 16 at Tue Apr  8 23:09:25 2025.
