 Gaussian 16, Revision C.01,

 ----------------------------------------------------------------------
 #t hf aug-cc-pvdz symm=none int=(grid=ultrafine) guess=(read,tcheck) s
 table=(opt,rrhf)
 ----------------------------------------------------------------------
 -----
 title
 -----
 Symbolic Z-matrix:
 Charge =  0 Multiplicity = 1

 SCF Done:  E(RHF) =  -686.753488131     A.U. after   13 cycles
 Normal termination of Gaussian 16 at Tue Apr  8 22:32:22 2025.
 Gaussian 16:  ES64L-G16RevC.01  3-Jul-2019

 ----------------------------------------------------------------------
 #t hf aug-cc-pvdz iop(5/13=1,5/36=2,99/5=2) pseudo=read geom=check gue
 ss=(read,tcheck) scf=(maxcycle=1)
 ----------------------------------------------------------------------
 -----
 title
 -----
 Structure from the checkpoint file:  "BDE49_expt_1109_mol1.chk"
 Charge =  0 Multiplicity = 1

                         Standard orientation:
 ---------------------------------------------------------------------
 Center     Atomic      Atomic             Coordinates (Angstroms)
 Number     Number       Type             X           Y           Z
 ---------------------------------------------------------------------
      1          6           0       -0.225918   -0.787706    0.000016
      2          6           0        0.964161    0.175412    0.000068
      3          8           0        0.903032    1.363608    0.000008
      4          8           0        2.162880   -0.468855   -0.000018
      5          1           0        2.048853   -1.427354   -0.000033
      6         17           0       -1.802141    0.046410   -0.000024
      7          1           0       -0.184627   -1.422951    0.886725
      8          1           0       -0.184572   -1.422932   -0.886704
 ---------------------------------------------------------------------

 SCF Done:  E(RHF) =  -686.845303962     A.U. after    2 cycles

 The electronic state is 1-A.
 Alpha  occ. eigenvalues -- -103.67422 -20.64843 -20.58328 -11.42489 -11.34756
 Alpha  occ. eigenvalues --  -10.70672  -8.36405  -8.36081  -8.36079  -1.44285
 Alpha  occ. eigenvalues --   -1.35674  -1.18875  -1.00092  -0.86310  -0.75825
 Alpha  occ. eigenvalues --   -0.70021  -0.69716  -0.63954  -0.62593  -0.57613
 Alpha  occ. eigenvalues --   -0.52083  -0.49833  -0.46969  -0.46872
 Alpha virt. eigenvalues --    0.01852   0.04425   0.04986   0.07435   0.09418
 Alpha virt. eigenvalues --    0.11291   0.11725   0.12797   0.13445   0.14790
 Alpha virt. eigenvalues --    0.14810   0.15973   0.17114   0.18007   0.18585

 Mulliken charges:
               1
     1  C   -0.191391
     2  C    0.679307
     3  O   -0.367021
     4  O   -0.498839
     5  H    0.190610
     6  Cl  -0.067533
     7  H    0.127445
     8  H    0.127422
 Sum of Mulliken charges =  -0.00000

 Dipole moment (field-independent basis, Debye):
    X=              0.2568    Y=             -5.2392    Z=              0.0002  Tot=              5.2455

 Test job not archived.
 1\1\GINC-SE073\SP\RHF\Aug-CC-pVDZ\C2H3Cl1O2\OHZDE\08-Apr-2025\0\\#t hf
  aug-cc-pvdz iop(5/13=1,5/36=2,99/5=2) pseudo=read geom=check guess=(r
 ead,tcheck) scf=(maxcycle=1)\\title\\0,1\C,0,0.225918,-0.787706,-0.000
 016\C,0,-0.964161,0.175412,-0.000068\O,0,-0.903032,1.363608,-0.000008\
 O,0,-2.16288,-0.468855,0.000018\H,0,-2.048853,-1.427354,0.000033\Cl,0,
 1.802141,0.04641,0.000024\H,0,0.184627,-1.422951,-0.886725\H,0,0.18457
 2,-1.422932,0.886704\\Version=ES64L-G16RevC.01\State=1-A\HF=-686.84530
 4\RMSD=3.501e-03\Dipole=-0.1010385,-2.061248,-0.0000598\Quadrupole=-3.

 Normal termination of Gaussian 16 at Tue Apr  8 22:32:24 2025.
