 Gaussian 16, Revision C.01,

 ----------------------------------------------------------------------
 #t hf aug-cc-pvdz symm=none int=(grid=ultrafine) guess=(read,tcheck) s
 table=opt
 ----------------------------------------------------------------------
 -----
 title
 -----
 Symbolic Z-matrix:
 Charge =  0 Multiplicity = 2

 SCF Done:  E(UHF) =  -234.764517677     A.U. after   16 cycles
 Normal termination of Gaussian 16 at Tue Apr  8 22:48:27 2025.
 Gaussian 16:  ES64L-G16RevC.01  3-Jul-2019

 ----------------------------------------------------------------------
 #t hf aug-cc-pvdz iop(5/13=1,5/36=2,99/5=2) pseudo=read geom=check gue
 ss=(read,tcheck) scf=(maxcycle=1)
 ----------------------------------------------------------------------
 -----
 title
 -----
 Structure from the checkpoint file:  "BDE49_expt_16_mol2.chk"
 Charge =  0 Multiplicity = 2

                         Standard orientation:
 ---------------------------------------------------------------------
 Center     Atomic      Atomic             Coordinates (Angstroms)
 Number     Number       Type             X           Y           Z
 ---------------------------------------------------------------------
      1          6           0       -2.354737    1.045994    0.247758
      2          6           0       -2.067559   -0.345551   -0.323819
      3          1           0       -1.569954    1.756423   -0.025831
      4          1           0       -2.406652    1.017234    1.340957
      5          1           0       -3.306930    1.438161   -0.120111
      6          6           0       -0.733000   -0.943176    0.154320
      7          1           0       -2.063671   -0.299914   -1.419564
      8          1           0       -2.880455   -1.026959   -0.050420
      9          6           0        0.477435   -0.212387   -0.325632
     10          1           0       -0.686260   -1.997509   -0.175307
     11          1           0       -0.725379   -0.990983    1.252857
     12          6           0        1.814754   -0.389866    0.313543
     13          1           0        0.437687    0.251384   -1.309467
     14          6           0        2.852496    0.654436   -0.116059
     15          1           0        2.210167   -1.396927    0.085984
     16          1           0        1.703296   -0.375555    1.406651
     17          1           0        3.009777    0.627553   -1.198506
     18          1           0        3.817935    0.476764    0.364944
     19          1           0        2.524103    1.663627    0.147151
 ---------------------------------------------------------------------

 SCF Done:  E(UHF) =  -234.839827060     A.U. after    2 cycles

 The electronic state is 2-A.
 Alpha  occ. eigenvalues --  -11.22950 -11.22863 -11.22739 -11.22634 -11.22246
 Alpha  occ. eigenvalues --  -11.21850  -1.08183  -1.02948  -0.95669  -0.87786
 Alpha  occ. eigenvalues --   -0.80592  -0.76979  -0.63177  -0.62313  -0.60138
 Alpha  occ. eigenvalues --   -0.57936  -0.57186  -0.53359  -0.51209  -0.50372
 Alpha  occ. eigenvalues --   -0.48944  -0.47548  -0.46673  -0.45764  -0.32537
 Alpha virt. eigenvalues --    0.03670   0.04136   0.04521   0.04690   0.05936
 Alpha virt. eigenvalues --    0.06191   0.06582   0.06871   0.07955   0.08754
 Alpha virt. eigenvalues --    0.08873   0.09334   0.10109   0.12491   0.14348

  Beta  occ. eigenvalues --  -11.23208 -11.22978 -11.22672 -11.22196 -11.21844
  Beta  occ. eigenvalues --  -11.20431  -1.06080  -1.02522  -0.94394  -0.86538
  Beta  occ. eigenvalues --   -0.80070  -0.73872  -0.62000  -0.60698  -0.59666
  Beta  occ. eigenvalues --   -0.57175  -0.56760  -0.52731  -0.50872  -0.49085
  Beta  occ. eigenvalues --   -0.48500  -0.47009  -0.46292  -0.45354
  Beta virt. eigenvalues --    0.03659   0.04142   0.04541   0.04708   0.05948
  Beta virt. eigenvalues --    0.06203   0.06580   0.06745   0.07956   0.08727
  Beta virt. eigenvalues --    0.08883   0.09319   0.10090   0.11985   0.12910

 Mulliken charges and spin densities:
               1          2
     1  C    0.371011   0.005122
     2  C    0.356886   0.020839
     3  H   -0.080598  -0.010782
     4  H   -0.072003   0.001936
     5  H   -0.088454  -0.000691
     6  C    0.067231  -0.299148
     7  H   -0.128660  -0.002137
     8  H   -0.076265  -0.002895
     9  C    0.085049   1.554390
    10  H   -0.041834   0.048482
    11  H   -0.122617   0.011542
    12  C    0.029442  -0.290912
    13  H   -0.541430  -0.108828
    14  C    0.531671   0.015356
    15  H   -0.034020   0.047028
    16  H   -0.040109   0.015417
    17  H   -0.073876  -0.002102
    18  H   -0.074712  -0.001718
    19  H   -0.066710  -0.000898
 Sum of Mulliken charges =  -0.00000   1.00000

 Dipole moment (field-independent basis, Debye):
    X=              0.0199    Y=             -0.2395    Z=             -0.0109  Tot=              0.2406
                          Isotropic Fermi Contact Couplings
        Atom                 a.u.       MegaHertz       Gauss      10(-4) cm-1
     1  C(13)             -0.00064      -0.72381      -0.25827      -0.24144
     2  C(13)              0.01261      14.17280       5.05721       4.72754
     3  H(1)               0.00017       0.73798       0.26333       0.24616
     4  H(1)               0.00004       0.18400       0.06565       0.06137
     5  H(1)              -0.00019      -0.83106      -0.29654      -0.27721
     6  C(13)             -0.06239     -70.13650     -25.02645     -23.39502
     7  H(1)              -0.00077      -3.42819      -1.22326      -1.14352
     8  H(1)              -0.00110      -4.90259      -1.74937      -1.63533

 Normal termination of Gaussian 16 at Tue Apr  8 22:48:34 2025.
