 Gaussian 16, Revision C.01,

 ----------------------------------------------------------------------
 #t hf aug-cc-pvdz symm=none int=(grid=ultrafine) guess=(read,tcheck) s
 table=(opt,rrhf)
 ----------------------------------------------------------------------
 -----
 title
 -----
 Symbolic Z-matrix:
 Charge =  0 Multiplicity = 1

 SCF Done:  E(RHF) =  -1690.51930373     A.U. after   15 cycles
 Normal termination of Gaussian 16 at Wed Apr  9 00:16:35 2025.
 Gaussian 16:  ES64L-G16RevC.01  3-Jul-2019

 ----------------------------------------------------------------------
 #t hf aug-cc-pvdz iop(5/13=1,5/36=2,99/5=2) pseudo=read geom=check gue
 ss=(read,tcheck) scf=(maxcycle=1)
 ----------------------------------------------------------------------
 -----
 title
 -----
 Structure from the checkpoint file:  "BDE49_nonexpt_2575_mol1.chk"
 Charge =  0 Multiplicity = 1

                         Standard orientation:
 ---------------------------------------------------------------------
 Center     Atomic      Atomic             Coordinates (Angstroms)
 Number     Number       Type             X           Y           Z
 ---------------------------------------------------------------------
      1         17           0       -2.377830   -0.035929   -0.000067
      2         16           0       -0.529542   -1.093975    0.000052
      3          6           0        0.769745    0.051003    0.000098
      4         16           0        2.189819   -0.780550   -0.000040
      5         16           0        0.622862    1.778646    0.000020
      6          1           0       -0.725578    1.838836    0.000045
 ---------------------------------------------------------------------

 SCF Done:  E(RHF) =  -1690.60880150     A.U. after    2 cycles

 The electronic state is 1-A.
 Alpha  occ. eigenvalues -- -103.70233 -93.64879 -93.60571 -93.54047 -11.41546
 Alpha  occ. eigenvalues --  -10.73357  -8.94146  -8.90381  -8.83951  -8.39071
 Alpha  occ. eigenvalues --   -8.38763  -8.38710  -6.28183  -6.27881  -6.27464
 Alpha  occ. eigenvalues --   -6.24518  -6.24290  -6.23944  -6.18107  -6.17630
 Alpha  occ. eigenvalues --   -6.17517  -1.19834  -1.14131  -1.01284  -0.94628
 Alpha  occ. eigenvalues --   -0.73728  -0.66737  -0.58921  -0.56446  -0.53777
 Alpha  occ. eigenvalues --   -0.50789  -0.50781  -0.49098  -0.41367  -0.36670
 Alpha  occ. eigenvalues --   -0.35929
 Alpha virt. eigenvalues --    0.01922   0.01979   0.04198   0.07365   0.07903
 Alpha virt. eigenvalues --    0.08192   0.10430   0.11410   0.11609   0.13282
 Alpha virt. eigenvalues --    0.13431   0.14529   0.14591   0.16243   0.16947

 Mulliken charges:
               1
     1  Cl  -0.387500
     2  S    0.643416
     3  C   -0.744477
     4  S    0.052428
     5  S    0.305990
     6  H    0.130144
 Sum of Mulliken charges =  -0.00000

 Dipole moment (field-independent basis, Debye):
    X=             -1.1566    Y=              1.3066    Z=              0.0000  Tot=              1.7449

 Test job not archived.
 1\1\GINC-SE453\SP\RHF\Aug-CC-pVDZ\C1H1Cl1S3\OHZDE\09-Apr-2025\0\\#t hf
  aug-cc-pvdz iop(5/13=1,5/36=2,99/5=2) pseudo=read geom=check guess=(r
 ead,tcheck) scf=(maxcycle=1)\\title\\0,1\Cl,0,-2.37783,-0.035929,-0.00
 0067\S,0,-0.529542,-1.093975,0.000052\C,0,0.769745,0.051003,0.000098\S
 ,0,2.189819,-0.780549,-0.00004\S,0,0.622862,1.778646,0.00002\H,0,-0.72
 5578,1.838836,0.000045\\Version=ES64L-G16RevC.01\State=1-A\HF=-1690.60
 88015\RMSD=6.632e-03\Dipole=-0.4550258,0.5140508,0.0000156\Quadrupole=
 -2.1219655,3.2397916,-1.117826,-0.6119764,-0.0001228,-0.0000177\PG=C01

 Normal termination of Gaussian 16 at Wed Apr  9 00:16:38 2025.
