 Gaussian 16, Revision C.01,

 ----------------------------------------------------------------------
 #t hf aug-cc-pvdz symm=none int=(grid=ultrafine) guess=(read,tcheck) s
 table=(opt,rrhf)
 ----------------------------------------------------------------------
 -----
 title
 -----
 Symbolic Z-matrix:
 Charge =  0 Multiplicity = 1

 SCF Done:  E(RHF) =  -686.760295231     A.U. after   13 cycles
 Normal termination of Gaussian 16 at Tue Apr  8 23:06:45 2025.
 Gaussian 16:  ES64L-G16RevC.01  3-Jul-2019

 ----------------------------------------------------------------------
 #t hf aug-cc-pvdz iop(5/13=1,5/36=2,99/5=2) pseudo=read geom=check gue
 ss=(read,tcheck) scf=(maxcycle=1)
 ----------------------------------------------------------------------
 -----
 title
 -----
 Structure from the checkpoint file:  "BDE49_expt_593_mol1.chk"
 Charge =  0 Multiplicity = 1

                         Standard orientation:
 ---------------------------------------------------------------------
 Center     Atomic      Atomic             Coordinates (Angstroms)
 Number     Number       Type             X           Y           Z
 ---------------------------------------------------------------------
      1          6           0        1.080454   -0.020838    0.000061
      2          8           0        2.145475   -0.568748   -0.000041
      3          8           0        0.946849    1.310473   -0.000011
      4          1           0        0.004623    1.542046   -0.000001
      5          6           0       -0.190301   -0.876199    0.000017
      6         17           0       -1.747624    0.053880   -0.000004
      7          1           0       -0.187278   -1.504802    0.887816
      8          1           0       -0.187241   -1.504779   -0.887799
 ---------------------------------------------------------------------

 SCF Done:  E(RHF) =  -686.851639873     A.U. after    2 cycles

 The electronic state is 1-A.
 Alpha  occ. eigenvalues -- -103.69419 -20.64465 -20.58016 -11.42708 -11.35056
 Alpha  occ. eigenvalues --  -10.72695  -8.38407  -8.38142  -8.38101  -1.44446
 Alpha  occ. eigenvalues --   -1.35555  -1.20123  -1.00297  -0.86349  -0.76565
 Alpha  occ. eigenvalues --   -0.70075  -0.70014  -0.62789  -0.61895  -0.59096
 Alpha  occ. eigenvalues --   -0.52150  -0.52031  -0.48471  -0.47408
 Alpha virt. eigenvalues --    0.03248   0.04785   0.05043   0.07542   0.09729
 Alpha virt. eigenvalues --    0.11035   0.11855   0.11998   0.14235   0.14481
 Alpha virt. eigenvalues --    0.15065   0.15762   0.16876   0.17159   0.18350

 Mulliken charges:
               1
     1  C    0.516251
     2  O   -0.442607
     3  O   -0.430510
     4  H    0.214251
     5  C   -0.069021
     6  Cl  -0.119148
     7  H    0.165395
     8  H    0.165388
 Sum of Mulliken charges =  -0.00000

 Dipole moment (field-independent basis, Debye):
    X=             -3.1933    Y=             -0.6228    Z=              0.0003  Tot=              3.2535

 Test job not archived.
 1\1\GINC-SE339\SP\RHF\Aug-CC-pVDZ\C2H3Cl1O2\OHZDE\08-Apr-2025\0\\#t hf
  aug-cc-pvdz iop(5/13=1,5/36=2,99/5=2) pseudo=read geom=check guess=(r
 ead,tcheck) scf=(maxcycle=1)\\title\\0,1\C,0,1.080454,-0.020838,0.0000
 61\O,0,2.145475,-0.568748,-0.000041\O,0,0.946849,1.310473,-0.000011\H,
 0,0.004623,1.542046,-0.000001\C,0,-0.190301,-0.876199,0.000017\Cl,0,-1
 .747624,0.05388,-0.000004\H,0,-0.187278,-1.504802,0.887816\H,0,-0.1872
 41,-1.504779,-0.887799\\Version=ES64L-G16RevC.01\State=1-A\HF=-686.851
 6399\RMSD=3.553e-03\Dipole=-1.2563549,-0.2450258,0.0001062\Quadrupole=

 Normal termination of Gaussian 16 at Tue Apr  8 23:06:47 2025.
