 Gaussian 16, Revision C.01,

 ----------------------------------------------------------------------
 #t hf aug-cc-pvdz symm=none int=(grid=ultrafine) guess=(read,tcheck) s
 table=(opt,rrhf)
 ----------------------------------------------------------------------
 -----
 title
 -----
 Symbolic Z-matrix:
 Charge =  0 Multiplicity = 1

 SCF Done:  E(RHF) =  -282.747949778     A.U. after   14 cycles
 Normal termination of Gaussian 16 at Tue Apr  8 22:42:29 2025.
 Gaussian 16:  ES64L-G16RevC.01  3-Jul-2019

 ----------------------------------------------------------------------
 #t hf aug-cc-pvdz iop(5/13=1,5/36=2,99/5=2) pseudo=read geom=check gue
 ss=(read,tcheck) scf=(maxcycle=1)
 ----------------------------------------------------------------------
 -----
 title
 -----
 Structure from the checkpoint file:  "BDE49_expt_1478_mol1.chk"
 Charge =  0 Multiplicity = 1

                         Standard orientation:
 ---------------------------------------------------------------------
 Center     Atomic      Atomic             Coordinates (Angstroms)
 Number     Number       Type             X           Y           Z
 ---------------------------------------------------------------------
      1          6           0       -0.721781    0.469173    0.000361
      2          8           0        0.102173   -0.723430   -0.000071
      3          7           0        1.488296   -0.527679    0.000206
      4          8           0        1.828732    0.603427   -0.000280
      5          6           0       -2.164437    0.004545   -0.000200
      6          1           0       -0.478271    1.066954   -0.882537
      7          1           0       -0.478685    1.066102    0.883946
      8          1           0       -2.379613   -0.595655   -0.886209
      9          1           0       -2.831423    0.870582    0.000069
     10          1           0       -2.380018   -0.596515    0.885128
 ---------------------------------------------------------------------

 SCF Done:  E(RHF) =  -282.837403163     A.U. after    2 cycles

 The electronic state is 1-A.
 Alpha  occ. eigenvalues --  -20.66449 -20.64323 -15.85108 -11.30968 -11.24519
 Alpha  occ. eigenvalues --   -1.54287  -1.35823  -1.05537  -0.93164  -0.84339
 Alpha  occ. eigenvalues --   -0.77237  -0.72094  -0.71495  -0.63089  -0.59005
 Alpha  occ. eigenvalues --   -0.57194  -0.54526  -0.53256  -0.48796  -0.46245
 Alpha virt. eigenvalues --    0.03385   0.04867   0.04874   0.06023   0.07760
 Alpha virt. eigenvalues --    0.09115   0.10773   0.11590   0.13910   0.14190
 Alpha virt. eigenvalues --    0.15164   0.16131   0.16822   0.17057   0.17242

 Mulliken charges:
               1
     1  C    0.789444
     2  O   -0.575635
     3  N    0.333957
     4  O   -0.309349
     5  C    0.111016
     6  H   -0.141029
     7  H   -0.141032
     8  H   -0.037020
     9  H    0.006686
    10  H   -0.037038
 Sum of Mulliken charges =  -0.00000

 Dipole moment (field-independent basis, Debye):
    X=             -2.0872    Y=              0.8999    Z=              0.0008  Tot=              2.2729

 Test job not archived.
 1\1\GINC-SE247\SP\RHF\Aug-CC-pVDZ\C2H5N1O2\OHZDE\08-Apr-2025\0\\#t hf
 aug-cc-pvdz iop(5/13=1,5/36=2,99/5=2) pseudo=read geom=check guess=(re
 ad,tcheck) scf=(maxcycle=1)\\title\\0,1\C,0,-0.721781,0.469173,0.00036
 1\O,0,0.102173,-0.72343,-0.000071\N,0,1.488296,-0.527679,0.000206\O,0,
 1.828732,0.603427,-0.00028\C,0,-2.164437,0.004545,-0.0002\H,0,-0.47827
 1,1.066954,-0.882537\H,0,-0.478685,1.066102,0.883946\H,0,-2.379613,-0.
 595655,-0.886209\H,0,-2.831423,0.870582,0.000069\H,0,-2.380018,-0.5965
 15,0.885128\\Version=ES64L-G16RevC.01\State=1-A\HF=-282.8374032\RMSD=3

 Normal termination of Gaussian 16 at Tue Apr  8 22:42:32 2025.
