 Gaussian 16, Revision C.01,

 ----------------------------------------------------------------------
 #t hf aug-cc-pvdz symm=none int=(grid=ultrafine) guess=(read,tcheck) s
 table=(opt,rrhf)
 ----------------------------------------------------------------------
 -----
 title
 -----
 Symbolic Z-matrix:
 Charge =  0 Multiplicity = 1

 SCF Done:  E(RHF) =  -643.086865883     A.U. after   15 cycles
 Normal termination of Gaussian 16 at Tue Apr  8 23:35:48 2025.
 Gaussian 16:  ES64L-G16RevC.01  3-Jul-2019

 ----------------------------------------------------------------------
 #t hf aug-cc-pvdz iop(5/13=1,5/36=2,99/5=2) pseudo=read geom=check gue
 ss=(read,tcheck) scf=(maxcycle=1)
 ----------------------------------------------------------------------
 -----
 title
 -----
 Structure from the checkpoint file:  "BDE49_nonexpt_1512_mol1.chk"
 Charge =  0 Multiplicity = 1

                         Standard orientation:
 ---------------------------------------------------------------------
 Center     Atomic      Atomic             Coordinates (Angstroms)
 Number     Number       Type             X           Y           Z
 ---------------------------------------------------------------------
      1          6           0        0.095886   -0.215874   -0.057073
      2          6           0       -0.394257    1.088959   -0.132631
      3          6           0       -1.770830    1.298325   -0.071213
      4          7           0       -2.671249    0.319588    0.051247
      5          6           0       -2.195365   -0.929207    0.115884
      6          6           0       -0.842448   -1.246887    0.064709
      7          1           0        0.287535    1.925155   -0.229731
      8          1           0       -2.169090    2.308562   -0.122579
      9          1           0       -2.936635   -1.717597    0.217044
     10          1           0       -0.532845   -2.285487    0.127429
     11          7           0        2.620604    0.842436    0.267541
     12         15           0        1.886883   -0.605777   -0.248233
     13          1           0        1.955645   -1.433705    0.907983
     14          1           0        3.506483    1.057332   -0.163195
     15          1           0        2.582268    1.126335    1.236973
 ---------------------------------------------------------------------

 SCF Done:  E(RHF) =  -643.201408498     A.U. after    2 cycles

 The electronic state is 1-A.
 Alpha  occ. eigenvalues --  -81.29066 -15.63115 -15.62799 -11.28460 -11.28435
 Alpha  occ. eigenvalues --  -11.27010 -11.25141 -11.24771  -7.79042  -4.93193
 Alpha  occ. eigenvalues --   -4.93040  -4.92697  -1.22838  -1.13592  -1.07539
 Alpha  occ. eigenvalues --   -1.02581  -0.86653  -0.85544  -0.77688  -0.69224
 Alpha  occ. eigenvalues --   -0.67974  -0.66981  -0.64906  -0.60058  -0.58052
 Alpha  occ. eigenvalues --   -0.54727  -0.52807  -0.51799  -0.42451  -0.41808
 Alpha  occ. eigenvalues --   -0.39833  -0.34901  -0.33420
 Alpha virt. eigenvalues --    0.02921   0.03740   0.04405   0.05025   0.05657
 Alpha virt. eigenvalues --    0.06326   0.07728   0.08159   0.09067   0.10352
 Alpha virt. eigenvalues --    0.10692   0.11017   0.11626   0.12768   0.13954

 Mulliken charges:
               1
     1  C   -0.795329
     2  C    1.044314
     3  C    0.299079
     4  N   -0.420529
     5  C    0.373074
     6  C    0.978433
     7  H   -0.512550
     8  H   -0.331700
     9  H   -0.332290
    10  H   -0.515341
    11  N   -0.425887
    12  P    0.603090
    13  H    0.068797
    14  H    0.005456
    15  H   -0.038618
 Sum of Mulliken charges =  -0.00000

 Dipole moment (field-independent basis, Debye):
    X=              3.0573    Y=              0.2484    Z=              1.1778  Tot=              3.2858

 Test job not archived.
 1\1\GINC-SE150\SP\RHF\Aug-CC-pVDZ\C5H7N2P1\OHZDE\08-Apr-2025\0\\#t hf
 aug-cc-pvdz iop(5/13=1,5/36=2,99/5=2) pseudo=read geom=check guess=(re
 ad,tcheck) scf=(maxcycle=1)\\title\\0,1\C,0,0.095886,-0.215874,-0.0570
 73\C,0,-0.394257,1.088959,-0.132631\C,0,-1.77083,1.298325,-0.071213\N,
 0,-2.671249,0.319588,0.051247\C,0,-2.195365,-0.929207,0.115884\C,0,-0.
 842448,-1.246887,0.064709\H,0,0.287535,1.925155,-0.229731\H,0,-2.16909
 ,2.308562,-0.122579\H,0,-2.936635,-1.717597,0.217044\H,0,-0.532845,-2.
 285487,0.127429\N,0,2.620604,0.842436,0.267541\P,0,1.886883,-0.605777,

 Normal termination of Gaussian 16 at Tue Apr  8 23:35:55 2025.
