 Gaussian 16, Revision C.01,

 ----------------------------------------------------------------------
 #t hf aug-cc-pvdz symm=none int=(grid=ultrafine) guess=(read,tcheck) s
 table=(opt,rrhf)
 ----------------------------------------------------------------------
 -----
 title
 -----
 Symbolic Z-matrix:
 Charge =  0 Multiplicity = 1

 SCF Done:  E(RHF) =  -644.458021236     A.U. after   17 cycles
 Normal termination of Gaussian 16 at Tue Apr  8 23:14:05 2025.
 Gaussian 16:  ES64L-G16RevC.01  3-Jul-2019

 ----------------------------------------------------------------------
 #t hf aug-cc-pvdz iop(5/13=1,5/36=2,99/5=2) pseudo=read geom=check gue
 ss=(read,tcheck) scf=(maxcycle=1)
 ----------------------------------------------------------------------
 -----
 title
 -----
 Structure from the checkpoint file:  "BDE49_nonexpt_1010_mol1.chk"
 Charge =  0 Multiplicity = 1

                         Standard orientation:
 ---------------------------------------------------------------------
 Center     Atomic      Atomic             Coordinates (Angstroms)
 Number     Number       Type             X           Y           Z
 ---------------------------------------------------------------------
      1         16           0       -0.769612   -1.004337   -0.407798
      2          7           0       -1.846296    0.508688   -0.267972
      3          8           0       -1.518732    1.328882    0.512386
      4          6           0        0.538096   -0.674166    0.811274
      5          6           0        1.897764   -0.295997    0.207506
      6          1           0        0.613244   -1.566607    1.435598
      7          1           0        0.148148    0.141237    1.433664
      8          6           0        1.905473    1.050005   -0.519670
      9          1           0        2.228332   -1.089497   -0.470248
     10          1           0        2.622229   -0.272635    1.030158
     11          1           0        1.197229    1.054289   -1.352372
     12          1           0        2.896476    1.265970   -0.926062
     13          1           0        1.634067    1.865705    0.156083
 ---------------------------------------------------------------------

 SCF Done:  E(RHF) =  -644.555150351     A.U. after    2 cycles

 The electronic state is 1-A.
 Alpha  occ. eigenvalues --  -93.56688 -20.67615 -15.82109 -11.27981 -11.24962
 Alpha  occ. eigenvalues --  -11.23122  -8.86310  -6.20393  -6.20146  -6.19853
 Alpha  occ. eigenvalues --   -1.51832  -1.09017  -1.01875  -0.94615  -0.86138
 Alpha  occ. eigenvalues --   -0.79238  -0.71807  -0.69106  -0.65086  -0.62719
 Alpha  occ. eigenvalues --   -0.61897  -0.57635  -0.51879  -0.51081  -0.49873
 Alpha  occ. eigenvalues --   -0.45842  -0.39244  -0.37497
 Alpha virt. eigenvalues --    0.03341   0.04389   0.04924   0.05718   0.06888
 Alpha virt. eigenvalues --    0.07236   0.07464   0.07788   0.08818   0.09763
 Alpha virt. eigenvalues --    0.12523   0.14083   0.14316   0.14521   0.15330

 Mulliken charges:
               1
     1  S    0.637446
     2  N   -0.177359
     3  O   -0.361138
     4  C   -0.003615
     5  C    0.013137
     6  H   -0.082059
     7  H   -0.006630
     8  C    0.338467
     9  H   -0.100735
    10  H   -0.048291
    11  H   -0.061042
    12  H   -0.091994
    13  H   -0.056188
 Sum of Mulliken charges =   0.00000

 Dipole moment (field-independent basis, Debye):
    X=              2.0215    Y=             -0.8731    Z=              0.6471  Tot=              2.2951

 Test job not archived.
 1\1\GINC-SE365\SP\RHF\Aug-CC-pVDZ\C3H7N1O1S1\OHZDE\08-Apr-2025\0\\#t h
 f aug-cc-pvdz iop(5/13=1,5/36=2,99/5=2) pseudo=read geom=check guess=(
 read,tcheck) scf=(maxcycle=1)\\title\\0,1\S,0,-0.769612,-1.004337,-0.4
 07798\N,0,-1.846296,0.508688,-0.267972\O,0,-1.518732,1.328882,0.512386
 \C,0,0.538096,-0.674166,0.811274\C,0,1.897764,-0.295997,0.207506\H,0,0
 .613244,-1.566607,1.435598\H,0,0.148148,0.141237,1.433664\C,0,1.905473
 ,1.050005,-0.51967\H,0,2.228332,-1.089497,-0.470248\H,0,2.622229,-0.27
 2635,1.030158\H,0,1.197229,1.054289,-1.352372\H,0,2.896476,1.26597,-0.

 Normal termination of Gaussian 16 at Tue Apr  8 23:14:09 2025.
