 Gaussian 16, Revision C.01,

 ----------------------------------------------------------------------
 #t hf aug-cc-pvdz symm=none int=(grid=ultrafine) guess=(read,tcheck) s
 table=(opt,rrhf)
 ----------------------------------------------------------------------
 -----
 title
 -----
 Symbolic Z-matrix:
 Charge =  0 Multiplicity = 1

 SCF Done:  E(RHF) =  -616.248327108     A.U. after   12 cycles

 1\1\GINC-SE364\Stability\RHF\Aug-CC-pVDZ\C4H9Cl1\OHZDE\08-Apr-2025\0\\
 #t hf aug-cc-pvdz symm=none int=(grid=ultrafine) guess=(read,tcheck) s
 table=(opt,rrhf)\\title\\0,1\C,0,0.816605,-1.459295,0.061977\C,0,0.372
 996,-0.000019,0.000003\C,0,0.816746,0.675935,-1.294705\H,0,0.4503,-2.0
 17999,-0.800888\H,0,0.450198,-1.94292,0.96902\H,0,1.910888,-1.50492,0.
 063961\C,0,0.816717,0.783276,1.232742\Cl,0,-1.492557,0.000047,-0.00001
 1\H,0,0.450364,0.132293,-2.167107\H,0,1.911038,0.696972,-1.335114\H,0,
 0.450237,0.315552,2.148055\H,0,0.450538,1.810686,1.197899\H,0,1.911009

 Normal termination of Gaussian 16 at Tue Apr  8 22:46:45 2025.
 Gaussian 16:  ES64L-G16RevC.01  3-Jul-2019

 ----------------------------------------------------------------------
 #t hf aug-cc-pvdz iop(5/13=1,5/36=2,99/5=2) pseudo=read geom=check gue
 ss=(read,tcheck) scf=(maxcycle=1)
 ----------------------------------------------------------------------
 -----
 title
 -----
 Structure from the checkpoint file:  "BDE49_expt_1656_mol1.chk"
 Charge =  0 Multiplicity = 1

                         Standard orientation:
 ---------------------------------------------------------------------
 Center     Atomic      Atomic             Coordinates (Angstroms)
 Number     Number       Type             X           Y           Z
 ---------------------------------------------------------------------
      1          6           0        0.816605    1.459409   -0.059238
      2          6           0        0.372996    0.000019   -0.000003
      3          6           0        0.816746   -0.678364    1.293434
      4          1           0        0.450300    2.016492    0.804674
      5          1           0        0.450198    1.944735   -0.965372
      6          1           0        1.910888    1.505038   -0.061137
      7          6           0        0.816717   -0.780961   -1.234210
      8         17           0       -1.492557   -0.000047    0.000011
      9          1           0        0.450365   -0.136360    2.166855
     10          1           0        1.911038   -0.699476    1.333803
     11          1           0        0.450237   -0.311520   -2.148644
     12          1           0        0.450538   -1.808434   -1.201296
     13          1           0        1.911009   -0.805188   -1.272862
     14          1           0        0.450511   -1.705102    1.343890
 ---------------------------------------------------------------------

 SCF Done:  E(RHF) =  -616.316099372     A.U. after    2 cycles

 The electronic state is 1-A.
 Alpha  occ. eigenvalues -- -103.63228 -11.31920 -11.24074 -11.24074 -11.24059
 Alpha  occ. eigenvalues --  -10.66508  -8.32206  -8.31950  -8.31950  -1.16067
 Alpha  occ. eigenvalues --   -1.04491  -0.95033  -0.95033  -0.75741  -0.63726
 Alpha  occ. eigenvalues --   -0.62487  -0.62487  -0.56417  -0.56417  -0.53301
 Alpha  occ. eigenvalues --   -0.50331  -0.50331  -0.47928  -0.43472  -0.43472
 Alpha virt. eigenvalues --    0.03296   0.04738   0.04738   0.05516   0.06968
 Alpha virt. eigenvalues --    0.06968   0.07489   0.07490   0.09422   0.10049
 Alpha virt. eigenvalues --    0.12163   0.14424   0.14424   0.14887   0.16279

 Mulliken charges:
               1
     1  C    0.920990
     2  C   -2.322280
     3  C    0.920909
     4  H   -0.042477
     5  H   -0.042481
     6  H    0.026542
     7  C    0.920931
     8  Cl  -0.265314
     9  H   -0.042522
    10  H    0.026599
    11  H   -0.042511
    12  H   -0.042469
    13  H    0.026567
    14  H   -0.042483
 Sum of Mulliken charges =   0.00000

 Dipole moment (field-independent basis, Debye):
    X=              2.7800    Y=              0.0001    Z=             -0.0000  Tot=              2.7800

 Test job not archived.
 1\1\GINC-SE364\SP\RHF\Aug-CC-pVDZ\C4H9Cl1\OHZDE\08-Apr-2025\0\\#t hf a
 ug-cc-pvdz iop(5/13=1,5/36=2,99/5=2) pseudo=read geom=check guess=(rea
 d,tcheck) scf=(maxcycle=1)\\title\\0,1\C,0,0.816605,-1.459295,0.061977
 \C,0,0.372996,-0.000019,0.000003\C,0,0.816746,0.675935,-1.294705\H,0,0
 .4503,-2.017999,-0.800888\H,0,0.450198,-1.94292,0.96902\H,0,1.910888,-
 1.50492,0.063961\C,0,0.816717,0.783276,1.232742\Cl,0,-1.492557,0.00004
 7,-0.000011\H,0,0.450364,0.132293,-2.167107\H,0,1.911038,0.696972,-1.3
 35114\H,0,0.450237,0.315552,2.148055\H,0,0.450538,1.810686,1.197899\H,

 Normal termination of Gaussian 16 at Tue Apr  8 22:46:49 2025.
