 Gaussian 16, Revision C.01,

 ----------------------------------------------------------------------
 #t hf aug-cc-pvdz symm=none int=(grid=ultrafine) guess=(read,tcheck) s
 table=(opt,rrhf)
 ----------------------------------------------------------------------
 -----
 title
 -----
 Symbolic Z-matrix:
 Charge =  0 Multiplicity = 1

 SCF Done:  E(RHF) =  -649.179768031     A.U. after   16 cycles
 Normal termination of Gaussian 16 at Tue Apr  8 23:19:52 2025.
 Gaussian 16:  ES64L-G16RevC.01  3-Jul-2019

 ----------------------------------------------------------------------
 #t hf aug-cc-pvdz iop(5/13=1,5/36=2,99/5=2) pseudo=read geom=check gue
 ss=(read,tcheck) scf=(maxcycle=1)
 ----------------------------------------------------------------------
 -----
 title
 -----
 Structure from the checkpoint file:  "BDE49_nonexpt_1146_mol1.chk"
 Charge =  0 Multiplicity = 1

                         Standard orientation:
 ---------------------------------------------------------------------
 Center     Atomic      Atomic             Coordinates (Angstroms)
 Number     Number       Type             X           Y           Z
 ---------------------------------------------------------------------
      1          9           0       -2.099738   -0.508945    0.000006
      2          8           0       -0.622479   -0.899655    0.000008
      3          6           0        0.155242    0.180299    0.000010
      4         16           0        1.727767   -0.255211   -0.000012
      5          6           0       -0.466069    1.533801    0.000003
      6          1           0       -1.107958    1.643131    0.877868
      7          1           0       -1.107970    1.643117   -0.877855
      8          1           0        0.314099    2.290279   -0.000009
 ---------------------------------------------------------------------

 SCF Done:  E(RHF) =  -649.281350233     A.U. after    2 cycles

 The electronic state is 1-A.
 Alpha  occ. eigenvalues --  -93.53504 -26.18871 -20.77236 -11.42804 -11.28759
 Alpha  occ. eigenvalues --   -8.83448  -6.17648  -6.17158  -6.17003  -1.67340
 Alpha  occ. eigenvalues --   -1.42482  -1.08846  -0.99206  -0.85171  -0.78953
 Alpha  occ. eigenvalues --   -0.75789  -0.73299  -0.67487  -0.65421  -0.60695
 Alpha  occ. eigenvalues --   -0.60669  -0.54824  -0.39865  -0.37150
 Alpha virt. eigenvalues --    0.02222   0.03404   0.04395   0.05894   0.06181
 Alpha virt. eigenvalues --    0.07472   0.09190   0.12297   0.13231   0.13781
 Alpha virt. eigenvalues --    0.14218   0.15696   0.16067   0.16955   0.17106

 Mulliken charges:
               1
     1  F   -0.359142
     2  O   -0.127416
     3  C   -0.055124
     4  S    0.061934
     5  C    0.319373
     6  H    0.091506
     7  H    0.091508
     8  H   -0.022639
 Sum of Mulliken charges =  -0.00000

 Dipole moment (field-independent basis, Debye):
    X=             -0.3019    Y=              2.6402    Z=              0.0000  Tot=              2.6574

 Test job not archived.
 1\1\GINC-SE179\SP\RHF\Aug-CC-pVDZ\C2H3F1O1S1\OHZDE\08-Apr-2025\0\\#t h
 f aug-cc-pvdz iop(5/13=1,5/36=2,99/5=2) pseudo=read geom=check guess=(
 read,tcheck) scf=(maxcycle=1)\\title\\0,1\F,0,-2.099738,-0.508946,0.00
 0006\O,0,-0.622479,-0.899655,0.000008\C,0,0.155242,0.180299,0.00001\S,
 0,1.727767,-0.255211,-0.000012\C,0,-0.466069,1.533801,0.000003\H,0,-1.
 107958,1.643131,0.877868\H,0,-1.10797,1.643117,-0.877855\H,0,0.314099,
 2.290279,-0.000009\\Version=ES64L-G16RevC.01\State=1-A\HF=-649.2813502
 \RMSD=5.766e-03\Dipole=-0.1187702,1.0387337,0.000004\Quadrupole=-2.739

 Normal termination of Gaussian 16 at Tue Apr  8 23:19:55 2025.
