 Gaussian 16, Revision C.01,

 ----------------------------------------------------------------------
 #t hf aug-cc-pvdz symm=none int=(grid=ultrafine) guess=(read,tcheck) s
 table=(opt,rrhf)
 ----------------------------------------------------------------------
 -----
 title
 -----
 Symbolic Z-matrix:
 Charge =  0 Multiplicity = 1

 SCF Done:  E(RHF) =  -347.308987831     A.U. after   13 cycles
 Normal termination of Gaussian 16 at Wed Apr  9 00:37:16 2025.
 Gaussian 16:  ES64L-G16RevC.01  3-Jul-2019

 ----------------------------------------------------------------------
 #t hf aug-cc-pvdz iop(5/13=1,5/36=2,99/5=2) pseudo=read geom=check gue
 ss=(read,tcheck) scf=(maxcycle=1)
 ----------------------------------------------------------------------
 -----
 title
 -----
 Structure from the checkpoint file:  "BDE49_nonexpt_584_mol1.chk"
 Charge =  0 Multiplicity = 1

                         Standard orientation:
 ---------------------------------------------------------------------
 Center     Atomic      Atomic             Coordinates (Angstroms)
 Number     Number       Type             X           Y           Z
 ---------------------------------------------------------------------
      1          6           0        0.894567   -0.842450   -0.159633
      2          5           0       -1.485221    0.069683   -0.013437
      3          8           0       -1.206480    1.399519   -0.204711
      4          8           0       -2.785048   -0.320068    0.186632
      5          6           0        1.656654    0.176159    0.261353
      6          6           0        3.137892    0.257348    0.026712
      7          1           0        1.208266    0.978372    0.842694
      8          1           0        3.507073   -0.630145   -0.494328
      9          1           0        3.686962    0.345364    0.970855
     10          1           0        3.410250    1.130492   -0.577572
     11          1           0       -0.288746    1.551709   -0.452992
     12          1           0       -3.385309    0.428794    0.133714
     13          7           0       -0.492608   -0.963418   -0.036894
     14          1           0        1.373329   -1.680634   -0.663387
     15          1           0       -0.839923   -1.910392   -0.059511
 ---------------------------------------------------------------------

 SCF Done:  E(RHF) =  -347.425493071     A.U. after    2 cycles

 The electronic state is 1-A.
 Alpha  occ. eigenvalues --  -20.57564 -20.57116 -15.62112 -11.28493 -11.23593
 Alpha  occ. eigenvalues --  -11.23456  -7.66702  -1.33928  -1.30206  -1.17697
 Alpha  occ. eigenvalues --   -1.04187  -0.91815  -0.79835  -0.76902  -0.73364
 Alpha  occ. eigenvalues --   -0.69809  -0.65390  -0.60712  -0.59104  -0.57639
 Alpha  occ. eigenvalues --   -0.57079  -0.55757  -0.54138  -0.52210  -0.50559
 Alpha  occ. eigenvalues --   -0.47037  -0.32168
 Alpha virt. eigenvalues --    0.03339   0.04097   0.04279   0.05107   0.06223
 Alpha virt. eigenvalues --    0.06718   0.06983   0.08271   0.08630   0.08988
 Alpha virt. eigenvalues --    0.09554   0.11107   0.12466   0.13393   0.14528

 Mulliken charges:
               1
     1  C    0.608520
     2  B    0.690161
     3  O   -0.481315
     4  O   -0.496620
     5  C    0.429429
     6  C    0.068195
     7  H   -0.535023
     8  H   -0.118834
     9  H    0.035086
    10  H    0.023677
    11  H    0.217230
    12  H    0.210075
    13  N   -0.235700
    14  H   -0.345005
    15  H   -0.069876
 Sum of Mulliken charges =  -0.00000

 Dipole moment (field-independent basis, Debye):
    X=              1.3530    Y=             -0.2827    Z=             -0.6026  Tot=              1.5078

 Test job not archived.
 1\1\GINC-SE096\SP\RHF\Aug-CC-pVDZ\C3H8B1N1O2\OHZDE\09-Apr-2025\0\\#t h
 f aug-cc-pvdz iop(5/13=1,5/36=2,99/5=2) pseudo=read geom=check guess=(
 read,tcheck) scf=(maxcycle=1)\\title\\0,1\C,0,0.894567,-0.84245,-0.159
 633\B,0,-1.485221,0.069683,-0.013437\O,0,-1.20648,1.399519,-0.204711\O
 ,0,-2.785048,-0.320068,0.186632\C,0,1.656654,0.176159,0.261353\C,0,3.1
 37892,0.257348,0.026712\H,0,1.208266,0.978372,0.842694\H,0,3.507073,-0
 .630145,-0.494328\H,0,3.686962,0.345364,0.970855\H,0,3.41025,1.130492,
 -0.577572\H,0,-0.288746,1.551709,-0.452992\H,0,-3.385309,0.428794,0.13

 Normal termination of Gaussian 16 at Wed Apr  9 00:37:21 2025.
