 Gaussian 16, Revision C.01,

 ----------------------------------------------------------------------
 #t hf aug-cc-pvdz symm=none int=(grid=ultrafine) guess=(read,tcheck) s
 table=(opt,rrhf)
 ----------------------------------------------------------------------
 -----
 title
 -----
 Symbolic Z-matrix:
 Charge =  0 Multiplicity = 1

 SCF Done:  E(RHF) =  -1247.42923422     A.U. after   17 cycles
 Normal termination of Gaussian 16 at Tue Apr  8 22:47:59 2025.
 Gaussian 16:  ES64L-G16RevC.01  3-Jul-2019

 ----------------------------------------------------------------------
 #t hf aug-cc-pvdz iop(5/13=1,5/36=2,99/5=2) pseudo=read geom=check gue
 ss=(read,tcheck) scf=(maxcycle=1)
 ----------------------------------------------------------------------
 -----
 title
 -----
 Structure from the checkpoint file:  "BDE49_expt_1680_mol1.chk"
 Charge =  0 Multiplicity = 1

                         Standard orientation:
 ---------------------------------------------------------------------
 Center     Atomic      Atomic             Coordinates (Angstroms)
 Number     Number       Type             X           Y           Z
 ---------------------------------------------------------------------
      1          6           0       -0.003770   -1.670001   -0.000000
      2          6           0       -1.206238   -0.970340   -0.000000
      3          6           0       -1.213290    0.421219    0.000000
      4          6           0       -0.000000    1.106117    0.000000
      5          6           0        1.209638    0.428562   -0.000000
      6          6           0        1.194066   -0.961710   -0.000000
      7          1           0        0.002052   -2.751449   -0.000000
      8          1           0       -2.148341   -1.502838    0.000000
      9          1           0        2.134120    0.989561   -0.000000
     10         17           0        2.713841   -1.830428   -0.000000
     11          9           0        0.010105    2.446091    0.000000
     12         17           0       -2.711559    1.308476    0.000000
 ---------------------------------------------------------------------

 SCF Done:  E(RHF) =  -1247.56950813     A.U. after    2 cycles

 The electronic state is 1-A'.
 Alpha  occ. eigenvalues -- -103.68462-103.68438 -26.16049 -11.37490 -11.34071
 Alpha  occ. eigenvalues --  -11.33500 -11.29027 -11.28525 -11.28148 -10.71730
 Alpha  occ. eigenvalues --  -10.71699  -8.37469  -8.37441  -8.37155  -8.37138
 Alpha  occ. eigenvalues --   -8.37116  -8.37102  -1.70148  -1.23134  -1.20460
 Alpha  occ. eigenvalues --   -1.14190  -1.06087  -1.01432  -0.90294  -0.87422
 Alpha  occ. eigenvalues --   -0.78753  -0.77562  -0.76728  -0.70937  -0.66836
 Alpha  occ. eigenvalues --   -0.65215  -0.61649  -0.58204  -0.57889  -0.54850
 Alpha  occ. eigenvalues --   -0.53489  -0.48849  -0.48410  -0.47678  -0.38019
 Alpha  occ. eigenvalues --   -0.35734
 Alpha virt. eigenvalues --    0.03362   0.04201   0.05088   0.06949   0.07632
 Alpha virt. eigenvalues --    0.08277   0.08547   0.10571   0.10851   0.11634
 Alpha virt. eigenvalues --    0.12690   0.12881   0.13341   0.13416   0.14117

 Mulliken charges:
               1
     1  C    0.676334
     2  C    0.968005
     3  C   -0.439551
     4  C    0.641724
     5  C    0.721308
     6  C   -0.397462
     7  H   -0.422138
     8  H   -0.420182
     9  H   -0.389402
    10  Cl  -0.343880
    11  F   -0.250694
    12  Cl  -0.344061
 Sum of Mulliken charges =  -0.00000

 Dipole moment (field-independent basis, Debye):
    X=             -0.1081    Y=             -1.9135    Z=              0.0000  Tot=              1.9166

 Test job not archived.
 1\1\GINC-SE045\SP\RHF\Aug-CC-pVDZ\C6H3Cl2F1\OHZDE\08-Apr-2025\0\\#t hf
  aug-cc-pvdz iop(5/13=1,5/36=2,99/5=2) pseudo=read geom=check guess=(r
 ead,tcheck) scf=(maxcycle=1)\\title\\0,1\C,0,0.003771,-1.670001,0.\C,0
 ,1.206238,-0.97034,0.\C,0,1.21329,0.421219,0.\C,0,0.,1.106117,0.\C,0,-
 1.209638,0.428562,0.\C,0,-1.194066,-0.96171,0.\H,0,-0.002051,-2.751449
 ,0.\H,0,2.148342,-1.502837,0.\H,0,-2.13412,0.989561,0.\Cl,0,-2.71384,-
 1.830428,0.\F,0,-0.010105,2.446091,0.\Cl,0,2.711559,1.308477,0.\\Versi
 on=ES64L-G16RevC.01\State=1-A'\HF=-1247.5695081\RMSD=1.941e-02\Dipole=

 Normal termination of Gaussian 16 at Tue Apr  8 22:48:08 2025.
