 Gaussian 16, Revision C.01,

 ----------------------------------------------------------------------
 #t hf aug-cc-pvdz symm=none int=(grid=ultrafine) guess=(read,tcheck) s
 table=(opt,rrhf)
 ----------------------------------------------------------------------
 -----
 title
 -----
 Symbolic Z-matrix:
 Charge =  0 Multiplicity = 1

 SCF Done:  E(RHF) =  -674.233743693     A.U. after   13 cycles
 Normal termination of Gaussian 16 at Wed Apr  9 00:09:33 2025.
 Gaussian 16:  ES64L-G16RevC.01  3-Jul-2019

 ----------------------------------------------------------------------
 #t hf aug-cc-pvdz iop(5/13=1,5/36=2,99/5=2) pseudo=read geom=check gue
 ss=(read,tcheck) scf=(maxcycle=1)
 ----------------------------------------------------------------------
 -----
 title
 -----
 Structure from the checkpoint file:  "BDE49_nonexpt_2380_mol1.chk"
 Charge =  0 Multiplicity = 1

                         Standard orientation:
 ---------------------------------------------------------------------
 Center     Atomic      Atomic             Coordinates (Angstroms)
 Number     Number       Type             X           Y           Z
 ---------------------------------------------------------------------
      1         14           0        1.904779   -0.396995   -0.049961
      2         14           0       -0.121269    0.815045    0.004523
      3          6           0       -1.586960   -0.304878    0.470198
      4          1           0       -0.423106    1.390344   -1.331019
      5          1           0       -0.004491    1.913556    0.996905
      6          1           0        2.156589   -1.023247    1.270423
      7          1           0        3.033656    0.509789   -0.369728
      8          7           0       -2.566001   -0.632056   -0.278793
      9          1           0        1.838236   -1.461927   -1.078770
     10          1           0       -2.484352   -0.196016   -1.203509
     11          1           0       -1.601904   -0.731537    1.482191
 ---------------------------------------------------------------------

 SCF Done:  E(RHF) =  -674.302916639     A.U. after    2 cycles

 The electronic state is 1-A.
 Alpha  occ. eigenvalues --  -69.07662 -69.07134 -15.63770 -11.28821  -6.83098
 Alpha  occ. eigenvalues --   -6.82560  -3.93868  -3.93842  -3.93809  -3.93315
 Alpha  occ. eigenvalues --   -3.93312  -3.93288  -1.17805  -0.83445  -0.74640
 Alpha  occ. eigenvalues --   -0.68710  -0.61214  -0.56942  -0.50720  -0.49402
 Alpha  occ. eigenvalues --   -0.48288  -0.46173  -0.41149  -0.38487
 Alpha virt. eigenvalues --    0.03338   0.03983   0.04743   0.05471   0.06639
 Alpha virt. eigenvalues --    0.06776   0.07038   0.08137   0.08580   0.08846
 Alpha virt. eigenvalues --    0.09424   0.09851   0.10033   0.10724   0.13462

 Mulliken charges:
               1
     1  Si  -0.117163
     2  Si   0.328456
     3  C    0.277044
     4  H   -0.030792
     5  H    0.014896
     6  H    0.034959
     7  H    0.010943
     8  N   -0.332122
     9  H    0.034532
    10  H    0.027947
    11  H   -0.248700
 Sum of Mulliken charges =  -0.00000

 Dipole moment (field-independent basis, Debye):
    X=              1.7628    Y=              1.0465    Z=             -0.0608  Tot=              2.0509

 Test job not archived.
 1\1\GINC-SE072\SP\RHF\Aug-CC-pVDZ\C1H7N1Si2\OHZDE\09-Apr-2025\0\\#t hf
  aug-cc-pvdz iop(5/13=1,5/36=2,99/5=2) pseudo=read geom=check guess=(r
 ead,tcheck) scf=(maxcycle=1)\\title\\0,1\Si,0,1.904779,-0.396995,-0.04
 9961\Si,0,-0.121269,0.815045,0.004523\C,0,-1.58696,-0.304878,0.470198\
 H,0,-0.423106,1.390344,-1.331019\H,0,-0.004491,1.913556,0.996905\H,0,2
 .156589,-1.023247,1.270423\H,0,3.033656,0.509789,-0.369728\N,0,-2.5660
 01,-0.632056,-0.278793\H,0,1.838236,-1.461927,-1.07877\H,0,-2.484352,-
 0.196016,-1.203509\H,0,-1.601904,-0.731537,1.482191\\Version=ES64L-G16

 Normal termination of Gaussian 16 at Wed Apr  9 00:09:37 2025.
