 Gaussian 16, Revision C.01,

 ----------------------------------------------------------------------
 #t hf aug-cc-pvdz symm=none int=(grid=ultrafine) guess=(read,tcheck) s
 table=(opt,rrhf)
 ----------------------------------------------------------------------
 -----
 title
 -----
 Symbolic Z-matrix:
 Charge =  0 Multiplicity = 1

 SCF Done:  E(RHF) =  -744.688557068     A.U. after   14 cycles
 Normal termination of Gaussian 16 at Tue Apr  8 22:49:04 2025.
 Gaussian 16:  ES64L-G16RevC.01  3-Jul-2019

 ----------------------------------------------------------------------
 #t hf aug-cc-pvdz iop(5/13=1,5/36=2,99/5=2) pseudo=read geom=check gue
 ss=(read,tcheck) scf=(maxcycle=1)
 ----------------------------------------------------------------------
 -----
 title
 -----
 Structure from the checkpoint file:  "BDE49_expt_1728_mol1.chk"
 Charge =  0 Multiplicity = 1

                         Standard orientation:
 ---------------------------------------------------------------------
 Center     Atomic      Atomic             Coordinates (Angstroms)
 Number     Number       Type             X           Y           Z
 ---------------------------------------------------------------------
      1          6           0        2.004844   -1.139734   -0.172619
      2          6           0        0.674016   -1.193821    0.232026
      3          7           0        2.673022   -0.000008   -0.374135
      4          6           0        2.004853    1.139726   -0.172630
      5          6           0        0.674026    1.193827    0.232014
      6          6           0       -0.016952    0.000007    0.443087
      7          1           0        2.562769   -2.056718   -0.340134
      8          1           0        0.186525   -2.151483    0.376827
      9          1           0        2.562785    2.056703   -0.340153
     10          1           0        0.186542    2.151494    0.376807
     11          6           0       -1.447894    0.000015    0.888667
     12         17           0       -2.598634   -0.000006   -0.534329
     13          1           0       -1.695177    0.890007    1.462945
     14          1           0       -1.695179   -0.889960    1.462972
 ---------------------------------------------------------------------

 SCF Done:  E(RHF) =  -744.788923278     A.U. after    2 cycles

 The electronic state is 1-A.
 Alpha  occ. eigenvalues -- -103.65874 -15.63941 -11.32608 -11.29445 -11.29433
 Alpha  occ. eigenvalues --  -11.28883 -11.26157 -11.26152 -10.69106  -8.34822
 Alpha  occ. eigenvalues --   -8.34530  -8.34524  -1.24068  -1.17253  -1.09495
 Alpha  occ. eigenvalues --   -1.03825  -0.95523  -0.87043  -0.83410  -0.71569
 Alpha  occ. eigenvalues --   -0.69744  -0.66501  -0.61965  -0.60703  -0.60338
 Alpha  occ. eigenvalues --   -0.57447  -0.53882  -0.52863  -0.46160  -0.45627
 Alpha  occ. eigenvalues --   -0.42233  -0.38605  -0.35904
 Alpha virt. eigenvalues --    0.03073   0.03595   0.04201   0.05661   0.05963
 Alpha virt. eigenvalues --    0.06742   0.07719   0.08057   0.09854   0.10620
 Alpha virt. eigenvalues --    0.11090   0.11706   0.12765   0.13247   0.14368

 Mulliken charges:
               1
     1  C    0.315906
     2  C    0.888930
     3  N   -0.452551
     4  C    0.315912
     5  C    0.888940
     6  C   -0.393740
     7  H   -0.328072
     8  H   -0.490183
     9  H   -0.328074
    10  H   -0.490183
    11  C    0.461840
    12  Cl  -0.151063
    13  H   -0.118834
    14  H   -0.118828
 Sum of Mulliken charges =  -0.00000

 Dipole moment (field-independent basis, Debye):
    X=             -0.5004    Y=              0.0000    Z=              2.1821  Tot=              2.2388

 Test job not archived.
 1\1\GINC-SE458\SP\RHF\Aug-CC-pVDZ\C6H6Cl1N1\OHZDE\08-Apr-2025\0\\#t hf
  aug-cc-pvdz iop(5/13=1,5/36=2,99/5=2) pseudo=read geom=check guess=(r
 ead,tcheck) scf=(maxcycle=1)\\title\\0,1\C,0,2.004844,-1.139734,-0.172
 619\C,0,0.674016,-1.193821,0.232026\N,0,2.673022,-0.000008,-0.374135\C
 ,0,2.004853,1.139726,-0.17263\C,0,0.674026,1.193827,0.232014\C,0,-0.01
 6952,0.000007,0.443087\H,0,2.562769,-2.056718,-0.340134\H,0,0.186525,-
 2.151483,0.376827\H,0,2.562785,2.056703,-0.340153\H,0,0.186542,2.15149
 4,0.376807\C,0,-1.447894,0.000015,0.888667\Cl,0,-2.598634,-0.000006,-0

 Normal termination of Gaussian 16 at Tue Apr  8 22:49:10 2025.
