 Gaussian 16, Revision C.01,

 ----------------------------------------------------------------------
 #t hf aug-cc-pvdz symm=none int=(grid=ultrafine) guess=(read,tcheck) s
 table=(opt,rrhf)
 ----------------------------------------------------------------------
 -----
 title
 -----
 Symbolic Z-matrix:
 Charge =  0 Multiplicity = 1

 SCF Done:  E(RHF) =  -595.744819121     A.U. after   14 cycles
 Normal termination of Gaussian 16 at Wed Apr  9 00:03:40 2025.
 Gaussian 16:  ES64L-G16RevC.01  3-Jul-2019

 ----------------------------------------------------------------------
 #t hf aug-cc-pvdz iop(5/13=1,5/36=2,99/5=2) pseudo=read geom=check gue
 ss=(read,tcheck) scf=(maxcycle=1)
 ----------------------------------------------------------------------
 -----
 title
 -----
 Structure from the checkpoint file:  "BDE49_nonexpt_2211_mol1.chk"
 Charge =  0 Multiplicity = 1

                         Standard orientation:
 ---------------------------------------------------------------------
 Center     Atomic      Atomic             Coordinates (Angstroms)
 Number     Number       Type             X           Y           Z
 ---------------------------------------------------------------------
      1          6           0       -0.632219   -1.204301   -0.111816
      2          6           0       -2.009728   -1.206629    0.092439
      3          6           0        0.082294    0.000001   -0.213088
      4          6           0       -0.632220    1.204302   -0.111813
      5          6           0       -2.009730    1.206628    0.092443
      6          6           0       -2.699375   -0.000001    0.195710
      7          8           0        2.657738   -0.000005    1.013457
      8          1           0       -0.107693   -2.151010   -0.195691
      9          1           0       -2.545119   -2.146588    0.168954
     10          1           0       -3.772429   -0.000002    0.352811
     11          1           0       -2.545121    2.146586    0.168959
     12          1           0       -0.107696    2.151012   -0.195685
     13         14           0        1.926084    0.000003   -0.474049
     14          1           0        3.616875   -0.000005    1.052958
     15          1           0        2.319990   -1.207522   -1.243267
     16          1           0        2.319989    1.207536   -1.243255
 ---------------------------------------------------------------------

 SCF Done:  E(RHF) =  -595.869060231     A.U. after    2 cycles

 The electronic state is 1-A.
 Alpha  occ. eigenvalues --  -69.09002 -20.56823 -11.25195 -11.25190 -11.25168
 Alpha  occ. eigenvalues --  -11.24650 -11.24641 -11.23245  -6.83852  -3.94716
 Alpha  occ. eigenvalues --   -3.94620  -3.94590  -1.29751  -1.14229  -1.01230
 Alpha  occ. eigenvalues --   -1.00958  -0.82877  -0.82864  -0.75409  -0.70611
 Alpha  occ. eigenvalues --   -0.64858  -0.63162  -0.63126  -0.59435  -0.57437
 Alpha  occ. eigenvalues --   -0.56017  -0.53188  -0.50656  -0.49864  -0.45637
 Alpha  occ. eigenvalues --   -0.44993  -0.34474  -0.34243
 Alpha virt. eigenvalues --    0.03076   0.03858   0.04265   0.05290   0.05906
 Alpha virt. eigenvalues --    0.06063   0.07223   0.07429   0.08244   0.09080
 Alpha virt. eigenvalues --    0.09432   0.10306   0.10867   0.12283   0.13402

 Mulliken charges:
               1
     1  C    0.546209
     2  C    0.695277
     3  C   -0.704049
     4  C    0.546206
     5  C    0.695279
     6  C    0.619556
     7  O   -0.817815
     8  H   -0.601257
     9  H   -0.437289
    10  H   -0.440480
    11  H   -0.437291
    12  H   -0.601258
    13  Si   0.983381
    14  H    0.094810
    15  H   -0.070639
    16  H   -0.070640
 Sum of Mulliken charges =  -0.00000

 Dipole moment (field-independent basis, Debye):
    X=              0.3059    Y=              0.0000    Z=             -0.5042  Tot=              0.5898

 Test job not archived.
 1\1\GINC-SE247\SP\RHF\Aug-CC-pVDZ\C6H8O1Si1\OHZDE\09-Apr-2025\0\\#t hf
  aug-cc-pvdz iop(5/13=1,5/36=2,99/5=2) pseudo=read geom=check guess=(r
 ead,tcheck) scf=(maxcycle=1)\\title\\0,1\C,0,-0.632219,-1.204301,-0.11
 1816\C,0,-2.009728,-1.206629,0.092439\C,0,0.082294,0.000001,-0.213088\
 C,0,-0.63222,1.204302,-0.111813\C,0,-2.00973,1.206628,0.092443\C,0,-2.
 699375,-0.000001,0.19571\O,0,2.657738,-0.000005,1.013457\H,0,-0.107693
 ,-2.15101,-0.195691\H,0,-2.545119,-2.146588,0.168954\H,0,-3.772429,-0.
 000002,0.352811\H,0,-2.545121,2.146586,0.168959\H,0,-0.107696,2.151012

 Normal termination of Gaussian 16 at Wed Apr  9 00:03:47 2025.
