 Gaussian 16, Revision C.01,

 ----------------------------------------------------------------------
 #t hf aug-cc-pvdz symm=none int=(grid=ultrafine) guess=(read,tcheck) s
 table=(opt,rrhf)
 ----------------------------------------------------------------------
 -----
 title
 -----
 Symbolic Z-matrix:
 Charge =  0 Multiplicity = 1

 SCF Done:  E(RHF) =  -1257.16057343     A.U. after   16 cycles
 Normal termination of Gaussian 16 at Tue Apr  8 23:31:04 2025.
 Gaussian 16:  ES64L-G16RevC.01  3-Jul-2019

 ----------------------------------------------------------------------
 #t hf aug-cc-pvdz iop(5/13=1,5/36=2,99/5=2) pseudo=read geom=check gue
 ss=(read,tcheck) scf=(maxcycle=1)
 ----------------------------------------------------------------------
 -----
 title
 -----
 Structure from the checkpoint file:  "BDE49_nonexpt_1355_mol1.chk"
 Charge =  0 Multiplicity = 1

                         Standard orientation:
 ---------------------------------------------------------------------
 Center     Atomic      Atomic             Coordinates (Angstroms)
 Number     Number       Type             X           Y           Z
 ---------------------------------------------------------------------
      1          9           0       -1.845310    2.154799   -0.366413
      2         16           0       -1.445788   -0.700757    0.382346
      3          8           0       -1.760744   -1.960865   -0.277137
      4          8           0       -1.817640   -0.440655    1.760810
      5         15           0       -2.520999    0.766609   -0.886609
      6          6           0        0.301660   -0.381346    0.208776
      7          6           0        1.046636   -1.117793   -0.711146
      8          6           0        2.405630   -0.857390   -0.838776
      9          6           0        3.028587    0.134936   -0.070692
     10          6           0        2.254289    0.856559    0.845630
     11          6           0        0.894808    0.606361    0.993534
     12          6           0        4.497293    0.430358   -0.242501
     13          1           0        0.566624   -1.894260   -1.293391
     14          1           0        2.994424   -1.438407   -1.540580
     15          1           0        2.723251    1.618970    1.458110
     16          1           0        0.302706    1.151580    1.716846
     17          1           0        5.061344   -0.475746   -0.474179
     18          1           0        4.922519    0.877621    0.657913
     19          1           0        4.656176    1.134289   -1.066578
     20          1           0       -1.618008    0.527785   -1.957147
 ---------------------------------------------------------------------

 SCF Done:  E(RHF) =  -1257.41765586     A.U. after    2 cycles

 The electronic state is 1-A.
 Alpha  occ. eigenvalues --  -93.78419 -81.37575 -26.15024 -20.56936 -20.56566
 Alpha  occ. eigenvalues --  -11.29112 -11.28601 -11.28172 -11.28151 -11.26643
 Alpha  occ. eigenvalues --  -11.26595 -11.25661  -9.05253  -7.86992  -6.39873
 Alpha  occ. eigenvalues --   -6.39622  -6.39555  -5.00998  -5.00663  -5.00427
 Alpha  occ. eigenvalues --   -1.67116  -1.42153  -1.31234  -1.17961  -1.07936
 Alpha  occ. eigenvalues --   -1.04115  -0.97986  -0.91951  -0.86392  -0.86342
 Alpha  occ. eigenvalues --   -0.81113  -0.76620  -0.76228  -0.74509  -0.71427
 Alpha  occ. eigenvalues --   -0.68447  -0.66659  -0.65095  -0.64071  -0.63464
 Alpha  occ. eigenvalues --   -0.62188  -0.60115  -0.56810  -0.54549  -0.53453
 Alpha  occ. eigenvalues --   -0.52942  -0.52134  -0.50924  -0.50237  -0.46286
 Alpha  occ. eigenvalues --   -0.40891  -0.36850  -0.36020
 Alpha virt. eigenvalues --    0.02670   0.03624   0.03894   0.04301   0.04669
 Alpha virt. eigenvalues --    0.05499   0.06242   0.07045   0.07216   0.08137
 Alpha virt. eigenvalues --    0.08758   0.08966   0.09330   0.09930   0.11666

 Mulliken charges:
               1
     1  F   -0.668366
     2  S    2.615331
     3  O   -1.165992
     4  O   -1.180031
     5  P    0.814372
     6  C    0.222779
     7  C   -0.253893
     8  C    0.831463
     9  C   -0.363508
    10  C    0.918998
    11  C   -0.145695
    12  C    0.605403
    13  H   -0.582997
    14  H   -0.588714
    15  H   -0.582852
    16  H   -0.569405
    17  H   -0.046259
    18  H   -0.094853
    19  H    0.106508
    20  H    0.127712
 Sum of Mulliken charges =  -0.00000

 Dipole moment (field-independent basis, Debye):
    X=              4.4808    Y=              2.2446    Z=             -3.3277  Tot=              6.0157

 Test job not archived.
 1\1\GINC-SE331\SP\RHF\Aug-CC-pVDZ\C7H8F1O2P1S1\OHZDE\08-Apr-2025\0\\#t
  hf aug-cc-pvdz iop(5/13=1,5/36=2,99/5=2) pseudo=read geom=check guess
 =(read,tcheck) scf=(maxcycle=1)\\title\\0,1\F,0,-1.84531,2.154799,-0.3
 66413\S,0,-1.445788,-0.700757,0.382346\O,0,-1.760744,-1.960865,-0.2771
 37\O,0,-1.81764,-0.440655,1.76081\P,0,-2.520999,0.766609,-0.886609\C,0
 ,0.30166,-0.381346,0.208776\C,0,1.046636,-1.117793,-0.711146\C,0,2.405
 63,-0.85739,-0.838776\C,0,3.028587,0.134936,-0.070692\C,0,2.254289,0.8
 56559,0.84563\C,0,0.894808,0.606361,0.993534\C,0,4.497293,0.430358,-0.

 Normal termination of Gaussian 16 at Tue Apr  8 23:31:18 2025.
