 Gaussian 16, Revision C.01,

 ----------------------------------------------------------------------
 #t hf aug-cc-pvdz symm=none int=(grid=ultrafine) guess=(read,tcheck) s
 table=opt
 ----------------------------------------------------------------------
 -----
 title
 -----
 Symbolic Z-matrix:
 Charge =  0 Multiplicity = 2

 SCF Done:  E(UHF) =  -1441.62893276     A.U. after   18 cycles
 Normal termination of Gaussian 16 at Tue Apr  8 23:41:13 2025.
 Gaussian 16:  ES64L-G16RevC.01  3-Jul-2019

 ----------------------------------------------------------------------
 #t hf aug-cc-pvdz iop(5/13=1,5/36=2,99/5=2) pseudo=read geom=check gue
 ss=(read,tcheck) scf=(maxcycle=1)
 ----------------------------------------------------------------------
 -----
 title
 -----
 Structure from the checkpoint file:  "BDE49_nonexpt_168_mol2.chk"
 Charge =  0 Multiplicity = 2

                         Standard orientation:
 ---------------------------------------------------------------------
 Center     Atomic      Atomic             Coordinates (Angstroms)
 Number     Number       Type             X           Y           Z
 ---------------------------------------------------------------------
      1         17           0       -2.203103   -0.113767   -0.185438
      2          5           0       -0.869584   -0.419898    0.851727
      3          6           0        0.615292    0.033312    0.690492
      4         17           0        1.290200   -1.383754   -0.239217
      5         17           0        0.881434    1.604117   -0.164153
      6          1           0        1.191133    0.087479    1.608155
 ---------------------------------------------------------------------

 SCF Done:  E(UHF) =  -1441.70102908     A.U. after    2 cycles

 The electronic state is 2-A.
 Alpha  occ. eigenvalues -- -103.69084-103.69043-103.68288 -11.38109 -10.72547
 Alpha  occ. eigenvalues --  -10.72307 -10.71533  -8.38291  -8.38029  -8.38017
 Alpha  occ. eigenvalues --   -8.37955  -8.37703  -8.37693  -8.37355  -8.36917
 Alpha  occ. eigenvalues --   -8.36909  -7.72808  -1.22448  -1.18667  -1.15187
 Alpha  occ. eigenvalues --   -0.93030  -0.72843  -0.64850  -0.62034  -0.60455
 Alpha  occ. eigenvalues --   -0.53457  -0.52441  -0.49444  -0.48991  -0.47287
 Alpha  occ. eigenvalues --   -0.46716  -0.36857
 Alpha virt. eigenvalues --    0.03041   0.03732   0.05226   0.05924   0.06591
 Alpha virt. eigenvalues --    0.08086   0.09883   0.10811   0.12605   0.13314
 Alpha virt. eigenvalues --    0.14543   0.15193   0.16576   0.16976   0.17616

  Beta  occ. eigenvalues -- -103.69080-103.68971-103.68218 -11.38014 -10.72464
  Beta  occ. eigenvalues --  -10.72303 -10.71459  -8.38170  -8.38007  -8.37984
  Beta  occ. eigenvalues --   -8.37767  -8.37711  -8.37687  -8.37078  -8.36877
  Beta  occ. eigenvalues --   -8.36860  -7.70754  -1.22073  -1.17951  -1.14854
  Beta  occ. eigenvalues --   -0.92077  -0.70972  -0.62896  -0.61304  -0.59607
  Beta  occ. eigenvalues --   -0.52573  -0.50991  -0.49158  -0.48689  -0.47099
  Beta  occ. eigenvalues --   -0.46187
  Beta virt. eigenvalues --    0.02515   0.04721   0.04870   0.05529   0.06517
  Beta virt. eigenvalues --    0.07616   0.08257   0.10840   0.12475   0.13213
  Beta virt. eigenvalues --    0.14450   0.14655   0.15497   0.16749   0.17622

 Mulliken charges and spin densities:
               1          2
     1  Cl  -0.182216   0.003382
     2  B    0.476791   1.011654
     3  C   -0.107956  -0.063465
     4  Cl  -0.123451   0.003528
     5  Cl  -0.135896   0.051895
     6  H    0.072728  -0.006994
 Sum of Mulliken charges =  -0.00000   1.00000

 Dipole moment (field-independent basis, Debye):
    X=              0.0278    Y=             -0.0475    Z=              1.5687  Tot=              1.5697
                          Isotropic Fermi Contact Couplings
        Atom                 a.u.       MegaHertz       Gauss      10(-4) cm-1
     1  Cl(35)             0.07154      31.36938      11.19338      10.46370
     2  B(11)              0.35746     512.73449     182.95642     171.02982
     3  C(13)              0.06948      78.10772      27.87078      26.05393
     4  Cl(35)            -0.00208      -0.91228      -0.32553      -0.30431
     5  Cl(35)             0.01936       8.48672       3.02827       2.83087
     6  H(1)               0.00233      10.42721       3.72069       3.47814
 --------------------------------------------------------
       Center         ----  Spin Dipole Couplings  ----

 Normal termination of Gaussian 16 at Tue Apr  8 23:41:16 2025.
