 Gaussian 16, Revision C.01,

 ----------------------------------------------------------------------
 #t hf aug-cc-pvdz symm=none int=(grid=ultrafine) guess=(read,tcheck) s
 table=opt
 ----------------------------------------------------------------------
 -----
 title
 -----
 Symbolic Z-matrix:
 Charge =  0 Multiplicity = 2

 SCF Done:  E(UHF) =  -1020.14859691     A.U. after   23 cycles
 Normal termination of Gaussian 16 at Wed Apr  9 00:15:37 2025.
 Gaussian 16:  ES64L-G16RevC.01  3-Jul-2019

 ----------------------------------------------------------------------
 #t hf aug-cc-pvdz iop(5/13=1,5/36=2,99/5=2) pseudo=read geom=check gue
 ss=(read,tcheck) scf=(maxcycle=1)
 ----------------------------------------------------------------------
 -----
 title
 -----
 Structure from the checkpoint file:  "BDE49_nonexpt_2550_mol2.chk"
 Charge =  0 Multiplicity = 2

                         Standard orientation:
 ---------------------------------------------------------------------
 Center     Atomic      Atomic             Coordinates (Angstroms)
 Number     Number       Type             X           Y           Z
 ---------------------------------------------------------------------
      1         16           0       -1.671321   -0.055067   -0.101118
      2         16           0        0.381037    0.122321    0.090951
      3          8           0        0.809689    1.384267   -0.423099
      4          8           0        0.647183   -0.322602    1.436319
      5          8           0        1.005067   -0.965904   -0.928268
      6          1           0        0.949029   -1.842146   -0.516946
 ---------------------------------------------------------------------

 SCF Done:  E(UHF) =  -1020.32188709     A.U. after    2 cycles

 The electronic state is 2-A.
 Alpha  occ. eigenvalues --  -93.86970 -93.63006 -20.67200 -20.60884 -20.60503
 Alpha  occ. eigenvalues --   -9.12920  -8.92804  -6.47553  -6.47463  -6.47238
 Alpha  occ. eigenvalues --   -6.28076  -6.26433  -6.25884  -1.50462  -1.38460
 Alpha  occ. eigenvalues --   -1.36309  -1.06303  -0.89831  -0.78547  -0.73251
 Alpha  occ. eigenvalues --   -0.72978  -0.67746  -0.62032  -0.58559  -0.57797
 Alpha  occ. eigenvalues --   -0.54448  -0.51111  -0.50037  -0.45210
 Alpha virt. eigenvalues --    0.02990   0.05011   0.08508   0.09875   0.10150
 Alpha virt. eigenvalues --    0.11522   0.11624   0.13357   0.14532   0.17426
 Alpha virt. eigenvalues --    0.18330   0.20787   0.21694   0.22777   0.24036

  Beta  occ. eigenvalues --  -93.87005 -93.62078 -20.67233 -20.60667 -20.60426
  Beta  occ. eigenvalues --   -9.12968  -8.91774  -6.47594  -6.47485  -6.47352
  Beta  occ. eigenvalues --   -6.25893  -6.25324  -6.23986  -1.50359  -1.38435
  Beta  occ. eigenvalues --   -1.35919  -1.00330  -0.88000  -0.77507  -0.73155
  Beta  occ. eigenvalues --   -0.71061  -0.67327  -0.61681  -0.57796  -0.56210
  Beta  occ. eigenvalues --   -0.53885  -0.49562  -0.42957
  Beta virt. eigenvalues --   -0.04503   0.03107   0.05646   0.09012   0.10308
  Beta virt. eigenvalues --    0.10873   0.11627   0.12413   0.13682   0.14924
  Beta virt. eigenvalues --    0.17539   0.18368   0.21074   0.22175   0.24118

 Mulliken charges and spin densities:
               1          2
     1  S    0.194505   1.051208
     2  S    1.996212  -0.065449
     3  O   -0.821910   0.004774
     4  O   -0.874466   0.019615
     5  O   -0.674536  -0.012603
     6  H    0.180195   0.002456
 Sum of Mulliken charges =   0.00000   1.00000

 Dipole moment (field-independent basis, Debye):
    X=             -2.4343    Y=             -3.0271    Z=             -0.9468  Tot=              3.9982
                          Isotropic Fermi Contact Couplings
        Atom                 a.u.       MegaHertz       Gauss      10(-4) cm-1
     1  S(33)              0.19017      65.31923      23.30753      21.78815
     2  S(33)             -0.04416     -15.16764      -5.41219      -5.05938
     3  O(17)              0.00751      -4.55097      -1.62390      -1.51804
     4  O(17)              0.02333     -14.14515      -5.04734      -4.71831
     5  O(17)             -0.00479       2.90636       1.03706       0.96946
     6  H(1)               0.00015       0.67537       0.24099       0.22528
 --------------------------------------------------------
       Center         ----  Spin Dipole Couplings  ----

 Normal termination of Gaussian 16 at Wed Apr  9 00:15:39 2025.
