 Gaussian 16, Revision C.01,

 ----------------------------------------------------------------------
 #t hf aug-cc-pvdz symm=none int=(grid=ultrafine) guess=(read,tcheck) s
 table=(opt,rrhf)
 ----------------------------------------------------------------------
 -----
 title
 -----
 Symbolic Z-matrix:
 Charge =  0 Multiplicity = 1

 SCF Done:  E(RHF) =  -581.340695512     A.U. after    9 cycles
 Normal termination of Gaussian 16 at Tue Apr  8 22:56:35 2025.
 Gaussian 16:  ES64L-G16RevC.01  3-Jul-2019

 ----------------------------------------------------------------------
 #t hf aug-cc-pvdz iop(5/13=1,5/36=2,99/5=2) pseudo=read geom=check gue
 ss=(read,tcheck) scf=(maxcycle=1)
 ----------------------------------------------------------------------
 -----
 title
 -----
 Structure from the checkpoint file:  "BDE49_expt_1938_mol1.chk"
 Charge =  0 Multiplicity = 1

                         Standard orientation:
 ---------------------------------------------------------------------
 Center     Atomic      Atomic             Coordinates (Angstroms)
 Number     Number       Type             X           Y           Z
 ---------------------------------------------------------------------
      1         14           0        1.178156    0.000000   -0.000001
      2         14           0       -1.178156   -0.000000    0.000001
      3          1           0        1.693928    1.270461   -0.565073
      4          1           0        1.693928   -1.124613   -0.817693
      5          1           0        1.693898   -0.145853    1.382799
      6          1           0       -1.693902    0.145852   -1.382798
      7          1           0       -1.693926    1.124613    0.817693
      8          1           0       -1.693926   -1.270460    0.565075
 ---------------------------------------------------------------------

 SCF Done:  E(RHF) =  -581.382984112     A.U. after    2 cycles

 The electronic state is 1-A.
 Alpha  occ. eigenvalues --  -69.06327 -69.06327  -6.81769  -6.81762  -3.92537
 Alpha  occ. eigenvalues --   -3.92526  -3.92526  -3.92515  -3.92515  -3.92453
 Alpha  occ. eigenvalues --   -0.74087  -0.66658  -0.49835  -0.49835  -0.47308
 Alpha  occ. eigenvalues --   -0.47308  -0.40073
 Alpha virt. eigenvalues --    0.03767   0.04159   0.06589   0.06589   0.07189
 Alpha virt. eigenvalues --    0.07189   0.07536   0.09018   0.09018   0.10179
 Alpha virt. eigenvalues --    0.10179   0.10265   0.13978   0.15673   0.15673

 Mulliken charges:
               1
     1  Si   0.028316
     2  Si   0.028317
     3  H   -0.009440
     4  H   -0.009440
     5  H   -0.009436
     6  H   -0.009437
     7  H   -0.009440
     8  H   -0.009440
 Sum of Mulliken charges =  -0.00000

 Dipole moment (field-independent basis, Debye):
    X=             -0.0000    Y=             -0.0000    Z=             -0.0000  Tot=              0.0000

 Test job not archived.
 1\1\GINC-SE128\SP\RHF\Aug-CC-pVDZ\H6Si2\OHZDE\08-Apr-2025\0\\#t hf aug
 -cc-pvdz iop(5/13=1,5/36=2,99/5=2) pseudo=read geom=check guess=(read,
 tcheck) scf=(maxcycle=1)\\title\\0,1\Si,0,1.178156,0.,-0.000001\Si,0,-
 1.178156,0.,0.000001\H,0,1.693928,1.26476,-0.577719\H,0,1.693928,-1.13
 2715,-0.806433\H,0,1.693898,-0.132051,1.384185\H,0,-1.693902,0.13205,-
 1.384184\H,0,-1.693926,1.132715,0.806433\H,0,-1.693926,-1.264759,0.577
 721\\Version=ES64L-G16RevC.01\State=1-A\HF=-581.3829841\RMSD=6.342e-03
 \Dipole=0.,0.,-0.0000005\Quadrupole=-0.4982926,0.249164,0.2491286,0.00

 Normal termination of Gaussian 16 at Tue Apr  8 22:56:38 2025.
