 Gaussian 16, Revision C.01,

 ----------------------------------------------------------------------
 #t hf aug-cc-pvdz symm=none int=(grid=ultrafine) guess=(read,tcheck) s
 table=(opt,rrhf)
 ----------------------------------------------------------------------
 -----
 title
 -----
 Symbolic Z-matrix:
 Charge =  0 Multiplicity = 1

 SCF Done:  E(RHF) =  -2417.26579090     A.U. after   10 cycles
 Normal termination of Gaussian 16 at Wed Apr  9 00:07:32 2025.
 Gaussian 16:  ES64L-G16RevC.01  3-Jul-2019

 ----------------------------------------------------------------------
 #t hf aug-cc-pvdz iop(5/13=1,5/36=2,99/5=2) pseudo=read geom=check gue
 ss=(read,tcheck) scf=(maxcycle=1)
 ----------------------------------------------------------------------
 -----
 title
 -----
 Structure from the checkpoint file:  "BDE49_nonexpt_2315_mol1.chk"
 Charge =  0 Multiplicity = 1

                         Standard orientation:
 ---------------------------------------------------------------------
 Center     Atomic      Atomic             Coordinates (Angstroms)
 Number     Number       Type             X           Y           Z
 ---------------------------------------------------------------------
      1         14           0        0.369134    1.118944    0.000000
      2         14           0       -0.369134   -1.118944    0.000000
      3         17           0        0.369134   -2.055750    1.691939
      4         17           0       -0.369136    2.055749   -1.691939
      5         17           0        0.369136   -2.055749   -1.691939
      6          1           0       -1.833952   -1.259565   -0.000001
      7         17           0       -0.369134    2.055750    1.691939
      8          1           0        1.833952    1.259565   -0.000001
 ---------------------------------------------------------------------

 SCF Done:  E(RHF) =  -2417.38626225     A.U. after    2 cycles

 The electronic state is 1-A.
 Alpha  occ. eigenvalues -- -103.67862-103.67862-103.67861-103.67861 -69.17785
 Alpha  occ. eigenvalues --  -69.17785 -10.71308 -10.71306 -10.71296 -10.71295
 Alpha  occ. eigenvalues --   -8.36998  -8.36996  -8.36991  -8.36990  -8.36758
 Alpha  occ. eigenvalues --   -8.36756  -8.36755  -8.36754  -8.36753  -8.36752
 Alpha  occ. eigenvalues --   -8.36752  -8.36752  -6.92221  -6.92217  -4.03071
 Alpha  occ. eigenvalues --   -4.03061  -4.02968  -4.02952  -4.02857  -4.02792
 Alpha  occ. eigenvalues --   -1.17592  -1.17008  -1.15194  -1.15115  -0.75768
 Alpha  occ. eigenvalues --   -0.69635  -0.58512  -0.58425  -0.56910  -0.56796
 Alpha  occ. eigenvalues --   -0.56320  -0.51752  -0.50621  -0.50283  -0.49957
 Alpha  occ. eigenvalues --   -0.49012  -0.48947  -0.48316  -0.42175
 Alpha virt. eigenvalues --    0.04158   0.04485   0.04903   0.04959   0.07259
 Alpha virt. eigenvalues --    0.07509   0.07529   0.08815   0.09645   0.09891
 Alpha virt. eigenvalues --    0.10424   0.11451   0.11600   0.13756   0.14549

 Mulliken charges:
               1
     1  Si   0.984983
     2  Si   0.984983
     3  Cl  -0.513890
     4  Cl  -0.513890
     5  Cl  -0.513890
     6  H    0.042797
     7  Cl  -0.513890
     8  H    0.042797
 Sum of Mulliken charges =  -0.00000

 Dipole moment (field-independent basis, Debye):
    X=             -0.0000    Y=             -0.0000    Z=              0.0000  Tot=              0.0000

 Test job not archived.
 1\1\GINC-SE345\SP\RHF\Aug-CC-pVDZ\Cl4H2Si2\OHZDE\09-Apr-2025\0\\#t hf
 aug-cc-pvdz iop(5/13=1,5/36=2,99/5=2) pseudo=read geom=check guess=(re
 ad,tcheck) scf=(maxcycle=1)\\title\\0,1\Si,0,0.369134,1.118944,0.\Si,0
 ,-0.369134,-1.118944,0.\Cl,0,0.369134,-2.05575,1.691939\Cl,0,-0.369136
 ,2.055749,-1.691939\Cl,0,0.369136,-2.055749,-1.691939\H,0,-1.833952,-1
 .259565,-0.000001\Cl,0,-0.369134,2.05575,1.691939\H,0,1.833952,1.25956
 5,-0.000001\\Version=ES64L-G16RevC.01\State=1-A\HF=-2417.3862622\RMSD=
 4.234e-03\Dipole=0.,0.,0.0000012\Quadrupole=3.2829105,-1.9926239,-1.29

 Normal termination of Gaussian 16 at Wed Apr  9 00:07:35 2025.
