 Gaussian 16, Revision C.01,

 ----------------------------------------------------------------------
 #t hf aug-cc-pvdz symm=none int=(grid=ultrafine) guess=(read,tcheck) s
 table=opt
 ----------------------------------------------------------------------
 -----
 title
 -----
 Symbolic Z-matrix:
 Charge =  0 Multiplicity = 2

 SCF Done:  E(UHF) =  -1491.31857197     A.U. after   19 cycles
 Normal termination of Gaussian 16 at Wed Apr  9 00:47:06 2025.
 Gaussian 16:  ES64L-G16RevC.01  3-Jul-2019

 ----------------------------------------------------------------------
 #t hf aug-cc-pvdz iop(5/13=1,5/36=2,99/5=2) pseudo=read geom=check gue
 ss=(read,tcheck) scf=(maxcycle=1)
 ----------------------------------------------------------------------
 -----
 title
 -----
 Structure from the checkpoint file:  "BDE49_nonexpt_867_mol2.chk"
 Charge =  0 Multiplicity = 2

                         Standard orientation:
 ---------------------------------------------------------------------
 Center     Atomic      Atomic             Coordinates (Angstroms)
 Number     Number       Type             X           Y           Z
 ---------------------------------------------------------------------
      1         16           0       -2.417694    0.098459   -0.000006
      2         16           0       -0.735457   -0.940013    0.000011
      3          6           0        0.617555    0.349836    0.000002
      4         17           0        2.175170   -0.530254   -0.000007
      5          9           0        0.542627    1.132233    1.080904
      6          9           0        0.542615    1.132230   -1.080901
 ---------------------------------------------------------------------

 SCF Done:  E(UHF) =  -1491.46389878     A.U. after    2 cycles

 The electronic state is 2-A.
 Alpha  occ. eigenvalues -- -103.70554 -93.62333 -93.60012 -26.18947 -26.18935
 Alpha  occ. eigenvalues --  -11.54163 -10.73898  -8.91940  -8.89730  -8.39610
 Alpha  occ. eigenvalues --   -8.39278  -8.39277  -6.25921  -6.25769  -6.25632
 Alpha  occ. eigenvalues --   -6.24792  -6.23433  -6.22909  -1.76458  -1.71441
 Alpha  occ. eigenvalues --   -1.21999  -1.10904  -1.00487  -0.90815  -0.87763
 Alpha  occ. eigenvalues --   -0.84207  -0.80855  -0.77949  -0.74643  -0.66973
 Alpha  occ. eigenvalues --   -0.56859  -0.54075  -0.52996  -0.51643  -0.50071
 Alpha  occ. eigenvalues --   -0.41060  -0.39616
 Alpha virt. eigenvalues --    0.05663   0.06572   0.08167   0.09769   0.09857
 Alpha virt. eigenvalues --    0.10444   0.12276   0.12676   0.13121   0.13299
 Alpha virt. eigenvalues --    0.13444   0.14824   0.16792   0.19283   0.20318

  Beta  occ. eigenvalues -- -103.70557 -93.62139 -93.59170 -26.18935 -26.18923
  Beta  occ. eigenvalues --  -11.54212 -10.73900  -8.91720  -8.88795  -8.39621
  Beta  occ. eigenvalues --   -8.39286  -8.39270  -6.25836  -6.25580  -6.24868
  Beta  occ. eigenvalues --   -6.22961  -6.22381  -6.21118  -1.76427  -1.71402
  Beta  occ. eigenvalues --   -1.21956  -1.08658  -0.99292  -0.87633  -0.87599
  Beta  occ. eigenvalues --   -0.84184  -0.78075  -0.77945  -0.74621  -0.66144
  Beta  occ. eigenvalues --   -0.56431  -0.52369  -0.51823  -0.49147  -0.44044
  Beta  occ. eigenvalues --   -0.39186
  Beta virt. eigenvalues --   -0.01180   0.06034   0.06724   0.08195   0.09836
  Beta virt. eigenvalues --    0.09922   0.10835   0.12413   0.13139   0.13242
  Beta virt. eigenvalues --    0.13821   0.14360   0.15146   0.17281   0.19390

 Mulliken charges and spin densities:
               1          2
     1  S    0.013708   0.923924
     2  S    0.256854   0.097835
     3  C    0.282478  -0.013862
     4  Cl  -0.049395  -0.003408
     5  F   -0.251823  -0.002244
     6  F   -0.251822  -0.002245
 Sum of Mulliken charges =   0.00000   1.00000

 Dipole moment (field-independent basis, Debye):
    X=             -0.3903    Y=             -0.9562    Z=              0.0000  Tot=              1.0328
                          Isotropic Fermi Contact Couplings
        Atom                 a.u.       MegaHertz       Gauss      10(-4) cm-1
     1  S(33)              0.20102      69.04505      24.63699      23.03095
     2  S(33)              0.08865      30.44737      10.86438      10.15615
     3  C(13)             -0.01082     -12.16663      -4.34136      -4.05835
     4  Cl(35)            -0.00179      -0.78677      -0.28074      -0.26244
     5  F(19)              0.00095       4.00458       1.42893       1.33578
     6  F(19)              0.00095       4.00385       1.42867       1.33554
 --------------------------------------------------------
       Center         ----  Spin Dipole Couplings  ----

 Normal termination of Gaussian 16 at Wed Apr  9 00:47:11 2025.
