 Gaussian 16, Revision C.01,

 ----------------------------------------------------------------------
 #t hf aug-cc-pvdz symm=none int=(grid=ultrafine) guess=(read,tcheck) s
 table=(opt,rrhf)
 ----------------------------------------------------------------------
 -----
 title
 -----
 Symbolic Z-matrix:
 Charge =  0 Multiplicity = 1

 SCF Done:  E(RHF) =  -805.937523466     A.U. after   12 cycles
 Normal termination of Gaussian 16 at Wed Apr  9 00:12:52 2025.
 Gaussian 16:  ES64L-G16RevC.01  3-Jul-2019

 ----------------------------------------------------------------------
 #t hf aug-cc-pvdz iop(5/13=1,5/36=2,99/5=2) pseudo=read geom=check gue
 ss=(read,tcheck) scf=(maxcycle=1)
 ----------------------------------------------------------------------
 -----
 title
 -----
 Structure from the checkpoint file:  "BDE49_nonexpt_2471_mol1.chk"
 Charge =  0 Multiplicity = 1

                         Standard orientation:
 ---------------------------------------------------------------------
 Center     Atomic      Atomic             Coordinates (Angstroms)
 Number     Number       Type             X           Y           Z
 ---------------------------------------------------------------------
      1         16           0        1.832926    0.000097   -0.690827
      2         14           0        0.455101   -0.000139    0.994261
      3          1           0        2.942184   -0.000026    0.069336
      4          6           0       -1.312901   -0.000043    0.323814
      5          6           0       -1.648349   -1.274433   -0.473251
      6          1           0       -1.060432   -1.336553   -1.393693
      7          1           0       -2.705551   -1.281302   -0.758928
      8          1           0       -1.454894   -2.182380    0.104502
      9          6           0       -1.648343    1.274565   -0.472903
     10          1           0       -1.060426    1.336934   -1.393327
     11          1           0       -1.454883    2.182354    0.105099
     12          1           0       -2.705545    1.281518   -0.758577
     13          1           0       -1.929982   -0.000166    1.234546
     14          1           0        0.694427    1.201446    1.829499
     15          1           0        0.694426   -1.201960    1.829160
 ---------------------------------------------------------------------

 SCF Done:  E(RHF) =  -806.017788880     A.U. after    2 cycles

 The electronic state is 1-A.
 Alpha  occ. eigenvalues --  -93.52577 -69.08485 -11.23735 -11.23353 -11.23345
 Alpha  occ. eigenvalues --   -8.82491  -6.83555  -6.16671  -6.16430  -6.16150
 Alpha  occ. eigenvalues --   -3.94358  -3.94263  -3.94262  -1.05335  -0.94505
 Alpha  occ. eigenvalues --   -0.93250  -0.81019  -0.67816  -0.62459  -0.58914
 Alpha  occ. eigenvalues --   -0.57001  -0.54453  -0.53883  -0.49712  -0.49116
 Alpha  occ. eigenvalues --   -0.48044  -0.43436  -0.41771  -0.36785
 Alpha virt. eigenvalues --    0.03244   0.04606   0.04830   0.05012   0.06522
 Alpha virt. eigenvalues --    0.06706   0.06899   0.07391   0.08024   0.09552
 Alpha virt. eigenvalues --    0.09874   0.09961   0.11350   0.12413   0.14128

 Mulliken charges:
               1
     1  S   -0.447437
     2  Si   0.148608
     3  H   -0.008142
     4  C   -0.251199
     5  C    0.452255
     6  H   -0.077072
     7  H   -0.077461
     8  H   -0.133076
     9  C    0.452254
    10  H   -0.077076
    11  H   -0.133071
    12  H   -0.077461
    13  H   -0.077449
    14  H    0.153164
    15  H    0.153164
 Sum of Mulliken charges =  -0.00000

 Dipole moment (field-independent basis, Debye):
    X=             -0.9448    Y=             -0.0001    Z=              0.9983  Tot=              1.3745

 Test job not archived.
 1\1\GINC-SE069\SP\RHF\Aug-CC-pVDZ\C3H10S1Si1\OHZDE\09-Apr-2025\0\\#t h
 f aug-cc-pvdz iop(5/13=1,5/36=2,99/5=2) pseudo=read geom=check guess=(
 read,tcheck) scf=(maxcycle=1)\\title\\0,1\S,0,1.832926,0.000097,-0.690
 827\Si,0,0.455101,-0.000139,0.994261\H,0,2.942184,-0.000025,0.069336\C
 ,0,-1.312901,-0.000043,0.323814\C,0,-1.648349,-1.274433,-0.473251\H,0,
 -1.060432,-1.336553,-1.393693\H,0,-2.705551,-1.281302,-0.758928\H,0,-1
 .454894,-2.18238,0.104502\C,0,-1.648343,1.274565,-0.472903\H,0,-1.0604
 26,1.336934,-1.393327\H,0,-1.454883,2.182354,0.105099\H,0,-2.705545,1.

 Normal termination of Gaussian 16 at Wed Apr  9 00:12:57 2025.
