 Gaussian 16, Revision C.01,

 ----------------------------------------------------------------------
 #t hf aug-cc-pvdz symm=none int=(grid=ultrafine) guess=(read,tcheck) s
 table=(opt,rrhf)
 ----------------------------------------------------------------------
 -----
 title
 -----
 Symbolic Z-matrix:
 Charge =  0 Multiplicity = 1

 SCF Done:  E(RHF) =  -1265.16620599     A.U. after   13 cycles
 Normal termination of Gaussian 16 at Wed Apr  9 00:10:29 2025.
 Gaussian 16:  ES64L-G16RevC.01  3-Jul-2019

 ----------------------------------------------------------------------
 #t hf aug-cc-pvdz iop(5/13=1,5/36=2,99/5=2) pseudo=read geom=check gue
 ss=(read,tcheck) scf=(maxcycle=1)
 ----------------------------------------------------------------------
 -----
 title
 -----
 Structure from the checkpoint file:  "BDE49_nonexpt_235_mol1.chk"
 Charge =  0 Multiplicity = 1

                         Standard orientation:
 ---------------------------------------------------------------------
 Center     Atomic      Atomic             Coordinates (Angstroms)
 Number     Number       Type             X           Y           Z
 ---------------------------------------------------------------------
      1         17           0       -1.735935    1.521137    0.620428
      2          5           0       -1.331392   -0.062770   -0.030961
      3         17           0       -2.624754   -1.240955   -0.294981
      4          8           0       -0.074317   -0.480366   -0.290475
      5          6           0        1.072465    0.321802   -0.427579
      6          8           0        1.030945    1.394149   -0.969002
      7          7           0        2.165347   -0.305775    0.066737
      8          6           0        2.164557   -1.607286    0.724448
      9          1           0        2.399460   -1.500463    1.789269
     10          1           0        2.925379   -2.246547    0.266525
     11          1           0        1.196460   -2.085189    0.619211
     12          6           0        3.450657    0.378634   -0.017966
     13          1           0        4.167363   -0.234778   -0.572853
     14          1           0        3.849790    0.561776    0.984912
     15          1           0        3.313698    1.327208   -0.529597
 ---------------------------------------------------------------------

 SCF Done:  E(RHF) =  -1265.31632982     A.U. after    2 cycles

 The electronic state is 1-A.
 Alpha  occ. eigenvalues -- -103.66948-103.66940 -20.63813 -20.56191 -15.67812
 Alpha  occ. eigenvalues --  -11.44577 -11.29244 -11.28492 -10.70437 -10.70403
 Alpha  occ. eigenvalues --   -8.36126  -8.36115  -8.35891  -8.35887  -8.35864
 Alpha  occ. eigenvalues --   -8.35860  -7.77332  -1.43878  -1.34767  -1.24176
 Alpha  occ. eigenvalues --   -1.17824  -1.14719  -0.99087  -0.97551  -0.85520
 Alpha  occ. eigenvalues --   -0.74680  -0.73050  -0.70444  -0.66762  -0.64803
 Alpha  occ. eigenvalues --   -0.63379  -0.62036  -0.58589  -0.57925  -0.57047
 Alpha  occ. eigenvalues --   -0.55520  -0.54456  -0.51197  -0.50404  -0.48803
 Alpha  occ. eigenvalues --   -0.47826  -0.46759  -0.40018
 Alpha virt. eigenvalues --    0.02720   0.04113   0.04243   0.05297   0.06435
 Alpha virt. eigenvalues --    0.06792   0.07037   0.07528   0.08050   0.09195
 Alpha virt. eigenvalues --    0.10676   0.11348   0.12262   0.12831   0.13348

 Mulliken charges:
               1
     1  Cl  -0.274392
     2  B    0.537352
     3  Cl  -0.335295
     4  O   -0.407598
     5  C    0.538044
     6  O   -0.386856
     7  N   -0.418883
     8  C    0.835390
     9  H   -0.082824
    10  H   -0.112213
    11  H   -0.248396
    12  C    0.757939
    13  H   -0.097990
    14  H   -0.071640
    15  H   -0.232639
 Sum of Mulliken charges =   0.00000

 Dipole moment (field-independent basis, Debye):
    X=              3.4537    Y=             -2.5600    Z=              1.7995  Tot=              4.6605

 Test job not archived.
 1\1\GINC-SE044\SP\RHF\Aug-CC-pVDZ\C3H6B1Cl2N1O2\OHZDE\09-Apr-2025\0\\#
 t hf aug-cc-pvdz iop(5/13=1,5/36=2,99/5=2) pseudo=read geom=check gues
 s=(read,tcheck) scf=(maxcycle=1)\\title\\0,1\Cl,0,-1.735935,1.521137,0
 .620428\B,0,-1.331392,-0.06277,-0.030961\Cl,0,-2.624754,-1.240955,-0.2
 94981\O,0,-0.074317,-0.480366,-0.290475\C,0,1.072465,0.321802,-0.42757
 9\O,0,1.030945,1.394149,-0.969002\N,0,2.165347,-0.305775,0.066737\C,0,
 2.164557,-1.607286,0.724448\H,0,2.39946,-1.500463,1.789269\H,0,2.92537
 9,-2.246547,0.266525\H,0,1.19646,-2.085189,0.619211\C,0,3.450657,0.378

 Normal termination of Gaussian 16 at Wed Apr  9 00:10:49 2025.
