 Gaussian 16, Revision C.01,

 ----------------------------------------------------------------------
 #t hf aug-cc-pvdz symm=none int=(grid=ultrafine) guess=(read,tcheck) s
 table=opt
 ----------------------------------------------------------------------
 -----
 title
 -----
 Symbolic Z-matrix:
 Charge =  0 Multiplicity = 2

 SCF Done:  E(UHF) =  -253.197241418     A.U. after   15 cycles
 Normal termination of Gaussian 16 at Tue Apr  8 22:38:21 2025.
 Gaussian 16:  ES64L-G16RevC.01  3-Jul-2019

 ----------------------------------------------------------------------
 #t hf aug-cc-pvdz iop(5/13=1,5/36=2,99/5=2) pseudo=read geom=check gue
 ss=(read,tcheck) scf=(maxcycle=1)
 ----------------------------------------------------------------------
 -----
 title
 -----
 Structure from the checkpoint file:  "BDE49_expt_1275_mol3.chk"
 Charge =  0 Multiplicity = 2

                         Standard orientation:
 ---------------------------------------------------------------------
 Center     Atomic      Atomic             Coordinates (Angstroms)
 Number     Number       Type             X           Y           Z
 ---------------------------------------------------------------------
      1          7           0        0.000000   -0.000000    0.603513
      2          9           0        0.000000    1.064992   -0.234699
      3          9           0       -0.000000   -1.064992   -0.234699
 ---------------------------------------------------------------------

 SCF Done:  E(UHF) =  -253.284944913     A.U. after    2 cycles

 The electronic state is 2-B1.
 Alpha  occ. eigenvalues --  -26.20910 -26.20902 -15.90214  -1.78297  -1.71016
 Alpha  occ. eigenvalues --   -1.15552  -0.88699  -0.86416  -0.85391  -0.79705
 Alpha  occ. eigenvalues --   -0.74082  -0.63757  -0.56678
 Alpha virt. eigenvalues --    0.10727   0.10848   0.12704   0.13606   0.23544
 Alpha virt. eigenvalues --    0.25002   0.27015   0.27914   0.28089   0.29069
 Alpha virt. eigenvalues --    0.30667   0.35374   0.46315   0.50072   0.72868

  Beta  occ. eigenvalues --  -26.20574 -26.20564 -15.86325  -1.76422  -1.70196
  Beta  occ. eigenvalues --   -1.06927  -0.86163  -0.84550  -0.80178  -0.74699
  Beta  occ. eigenvalues --   -0.74262  -0.59730
  Beta virt. eigenvalues --    0.06743   0.10932   0.11063   0.13334   0.18006
  Beta virt. eigenvalues --    0.24971   0.26178   0.28095   0.28231   0.29328
  Beta virt. eigenvalues --    0.29599   0.33071   0.35390   0.46500   0.50434

 Mulliken charges and spin densities:
               1          2
     1  N    0.605416   1.024146
     2  F   -0.302708  -0.012073
     3  F   -0.302708  -0.012073
 Sum of Mulliken charges =  -0.00000   1.00000

 Dipole moment (field-independent basis, Debye):
    X=              0.0000    Y=              0.0000    Z=              0.7650  Tot=              0.7650
                          Isotropic Fermi Contact Couplings
        Atom                 a.u.       MegaHertz       Gauss      10(-4) cm-1
     1  N(14)              0.32987     106.58129      38.03085      35.55169
     2  F(19)              0.05449     229.28214      81.81357      76.48029
     3  F(19)              0.05449     229.28214      81.81357      76.48029
 --------------------------------------------------------
       Center         ----  Spin Dipole Couplings  ----
                      3XX-RR        3YY-RR        3ZZ-RR
 --------------------------------------------------------
     1   Atom        2.592789     -1.229031     -1.363758

 Normal termination of Gaussian 16 at Tue Apr  8 22:38:22 2025.
