 Gaussian 16, Revision C.01,

 ----------------------------------------------------------------------
 #t hf aug-cc-pvdz symm=none int=(grid=ultrafine) guess=(read,tcheck) s
 table=opt
 ----------------------------------------------------------------------
 -----
 title
 -----
 Symbolic Z-matrix:
 Charge =  0 Multiplicity = 2

 SCF Done:  E(UHF) =  -886.085200786     A.U. after   15 cycles
 Normal termination of Gaussian 16 at Wed Apr  9 00:19:36 2025.
 Gaussian 16:  ES64L-G16RevC.01  3-Jul-2019

 ----------------------------------------------------------------------
 #t hf aug-cc-pvdz iop(5/13=1,5/36=2,99/5=2) pseudo=read geom=check gue
 ss=(read,tcheck) scf=(maxcycle=1)
 ----------------------------------------------------------------------
 -----
 title
 -----
 Structure from the checkpoint file:  "BDE49_nonexpt_2625_mol2.chk"
 Charge =  0 Multiplicity = 2

                         Standard orientation:
 ---------------------------------------------------------------------
 Center     Atomic      Atomic             Coordinates (Angstroms)
 Number     Number       Type             X           Y           Z
 ---------------------------------------------------------------------
      1         16           0       -1.672116   -0.000004   -0.102804
      2         14           0        0.403043   -0.000001    0.344659
      3          9           0        1.142132   -1.267050   -0.276921
      4          9           0        1.142114    1.267060   -0.276918
      5          1           0        0.553041   -0.000007    1.804196
 ---------------------------------------------------------------------

 SCF Done:  E(UHF) =  -886.216364651     A.U. after    2 cycles

 The electronic state is 2-A.
 Alpha  occ. eigenvalues --  -93.58254 -69.20336 -26.13723 -26.13723  -8.88143
 Alpha  occ. eigenvalues --   -6.94203  -6.23479  -6.21716  -6.21394  -4.05184
 Alpha  occ. eigenvalues --   -4.05100  -4.04973  -1.67311  -1.66011  -0.99148
 Alpha  occ. eigenvalues --   -0.84899  -0.79237  -0.76670  -0.75893  -0.73747
 Alpha  occ. eigenvalues --   -0.72196  -0.60918  -0.50053  -0.48177  -0.42828
 Alpha virt. eigenvalues --    0.04803   0.05313   0.05957   0.06103   0.09375
 Alpha virt. eigenvalues --    0.11876   0.13107   0.13478   0.15989   0.16507
 Alpha virt. eigenvalues --    0.19348   0.20576   0.20760   0.24721   0.26352

  Beta  occ. eigenvalues --  -93.57388 -69.20368 -26.13721 -26.13721  -8.87183
  Beta  occ. eigenvalues --   -6.94251  -6.21222  -6.20861  -6.19637  -4.05211
  Beta  occ. eigenvalues --   -4.05163  -4.05024  -1.67297  -1.65999  -0.90805
  Beta  occ. eigenvalues --   -0.83742  -0.79216  -0.76579  -0.75585  -0.73753
  Beta  occ. eigenvalues --   -0.72189  -0.59671  -0.47918  -0.40487
  Beta virt. eigenvalues --   -0.03471   0.04937   0.05410   0.06129   0.06351
  Beta virt. eigenvalues --    0.09599   0.12368   0.13167   0.14489   0.16226
  Beta virt. eigenvalues --    0.18252   0.20901   0.21233   0.21848   0.24979

 Mulliken charges and spin densities:
               1          2
     1  S   -0.341575   1.087253
     2  Si   1.940653  -0.123803
     3  F   -0.754891   0.007502
     4  F   -0.754890   0.007502
     5  H   -0.089297   0.021546
 Sum of Mulliken charges =   0.00000   1.00000

 Dipole moment (field-independent basis, Debye):
    X=             -0.9550    Y=             -0.0000    Z=              1.3111  Tot=              1.6220
                          Isotropic Fermi Contact Couplings
        Atom                 a.u.       MegaHertz       Gauss      10(-4) cm-1
     1  S(33)              0.14995      51.50453      18.37810      17.18006
     2  Si(29)            -0.04097      36.41035      12.99212      12.14519
     3  F(19)              0.00116       4.86190       1.73485       1.62176
     4  F(19)              0.00116       4.86329       1.73534       1.62222
     5  H(1)               0.00526      23.53015       8.39614       7.84881
 --------------------------------------------------------
       Center         ----  Spin Dipole Couplings  ----
                      3XX-RR        3YY-RR        3ZZ-RR

 Normal termination of Gaussian 16 at Wed Apr  9 00:19:39 2025.
