 Gaussian 16, Revision C.01,

 ----------------------------------------------------------------------
 #t hf aug-cc-pvdz symm=none int=(grid=ultrafine) guess=(read,tcheck) s
 table=(opt,rrhf)
 ----------------------------------------------------------------------
 -----
 title
 -----
 Symbolic Z-matrix:
 Charge =  0 Multiplicity = 1

 SCF Done:  E(RHF) =  -1329.37519980     A.U. after   17 cycles
 Normal termination of Gaussian 16 at Wed Apr  9 00:28:33 2025.
 Gaussian 16:  ES64L-G16RevC.01  3-Jul-2019

 ----------------------------------------------------------------------
 #t hf aug-cc-pvdz iop(5/13=1,5/36=2,99/5=2) pseudo=read geom=check gue
 ss=(read,tcheck) scf=(maxcycle=1)
 ----------------------------------------------------------------------
 -----
 title
 -----
 Structure from the checkpoint file:  "BDE49_nonexpt_2724_mol1.chk"
 Charge =  0 Multiplicity = 1

                         Standard orientation:
 ---------------------------------------------------------------------
 Center     Atomic      Atomic             Coordinates (Angstroms)
 Number     Number       Type             X           Y           Z
 ---------------------------------------------------------------------
      1          6           0        0.700328    0.063523   -0.548763
      2          8           0        0.131454    0.872109   -1.227972
      3         16           0       -0.192575   -1.378341    0.190846
      4         16           0       -2.039718   -1.194482   -0.706298
      5          6           0       -2.825814    0.147277    0.289882
      6          8           0       -2.299738    0.656392    1.232213
      7          6           0        2.143207    0.144500   -0.181211
      8          6           0        2.806037    1.350353   -0.447159
      9          6           0        4.151022    1.491309   -0.131691
     10          6           0        4.848023    0.429188    0.444838
     11          6           0        4.196561   -0.775169    0.703748
     12          6           0        2.848379   -0.919656    0.392644
     13          1           0        2.356139   -1.865634    0.583499
     14          1           0        2.247651    2.160825   -0.898182
     15          1           0        4.657787    2.427644   -0.334727
     16          1           0        5.898418    0.539325    0.689610
     17          1           0        4.738968   -1.603549    1.144036
     18          6           0       -4.183591    0.521393   -0.278265
     19          6           0       -5.068845    1.247717    0.735057
     20          1           0       -4.670779   -0.376647   -0.671220
     21          1           0       -3.980423    1.160563   -1.146036
     22          1           0       -5.309618    0.601003    1.581582
     23          1           0       -6.004168    1.559414    0.265359
     24          1           0       -4.562871    2.131616    1.124916
 ---------------------------------------------------------------------

 SCF Done:  E(RHF) =  -1329.57503183     A.U. after    2 cycles

 The electronic state is 1-A.
 Alpha  occ. eigenvalues --  -93.57605 -93.57440 -20.58455 -20.58345 -11.38839
 Alpha  occ. eigenvalues --  -11.38283 -11.27435 -11.27314 -11.27030 -11.26751
 Alpha  occ. eigenvalues --  -11.26661 -11.26265 -11.26123 -11.23978  -8.87253
 Alpha  occ. eigenvalues --   -8.87088  -6.21419  -6.21228  -6.21110  -6.20930
 Alpha  occ. eigenvalues --   -6.20787  -6.20626  -1.38484  -1.38215  -1.16766
 Alpha  occ. eigenvalues --   -1.07555  -1.05952  -1.03846  -1.03139  -0.94458
 Alpha  occ. eigenvalues --   -0.89355  -0.86064  -0.84140  -0.77501  -0.74238
 Alpha  occ. eigenvalues --   -0.72160  -0.67702  -0.67349  -0.66758  -0.65153
 Alpha  occ. eigenvalues --   -0.63959  -0.63364  -0.61345  -0.60332  -0.58932
 Alpha  occ. eigenvalues --   -0.56748  -0.55435  -0.53995  -0.52964  -0.51875
 Alpha  occ. eigenvalues --   -0.51799  -0.50966  -0.47538  -0.43762  -0.43342
 Alpha  occ. eigenvalues --   -0.38783  -0.37563  -0.35926  -0.35801
 Alpha virt. eigenvalues --    0.03046   0.03572   0.04038   0.04856   0.05192
 Alpha virt. eigenvalues --    0.05352   0.05398   0.06280   0.06641   0.07779
 Alpha virt. eigenvalues --    0.07860   0.08805   0.09454   0.09759   0.10672

 Mulliken charges:
               1
     1  C   -0.644693
     2  O   -0.428751
     3  S    0.038588
     4  S    0.050079
     5  C   -0.095882
     6  O   -0.440526
     7  C    1.386462
     8  C    0.024597
     9  C    0.676319
    10  C    0.474681
    11  C    0.559960
    12  C    0.308657
    13  H   -0.490368
    14  H   -0.600104
    15  H   -0.418619
    16  H   -0.430274
    17  H   -0.456908
    18  C    0.061157
    19  C    0.528151
    20  H   -0.020845
    21  H    0.070612
    22  H   -0.067898
    23  H   -0.033670
    24  H   -0.050725
 Sum of Mulliken charges =  -0.00000

 Dipole moment (field-independent basis, Debye):
    X=              1.0384    Y=             -0.6433    Z=             -0.2280  Tot=              1.2426

 Test job not archived.
 1\1\GINC-SE141\SP\RHF\Aug-CC-pVDZ\C10H10O2S2\OHZDE\09-Apr-2025\0\\#t h
 f aug-cc-pvdz iop(5/13=1,5/36=2,99/5=2) pseudo=read geom=check guess=(
 read,tcheck) scf=(maxcycle=1)\\title\\0,1\C,0,0.700328,0.063523,-0.548
 763\O,0,0.131454,0.872109,-1.227972\S,0,-0.192575,-1.378341,0.190846\S
 ,0,-2.039718,-1.194482,-0.706298\C,0,-2.825814,0.147277,0.289882\O,0,-
 2.299738,0.656392,1.232213\C,0,2.143207,0.1445,-0.181211\C,0,2.806037,
 1.350353,-0.447159\C,0,4.151022,1.491309,-0.131691\C,0,4.848023,0.4291
 88,0.444838\C,0,4.196561,-0.775169,0.703748\C,0,2.848379,-0.919656,0.3

 Normal termination of Gaussian 16 at Wed Apr  9 00:28:55 2025.
