 Gaussian 16, Revision C.01,

 ----------------------------------------------------------------------
 #t hf aug-cc-pvdz symm=none int=(grid=ultrafine) guess=(read,tcheck) s
 table=(opt,rrhf)
 ----------------------------------------------------------------------
 -----
 title
 -----
 Symbolic Z-matrix:
 Charge =  0 Multiplicity = 1

 SCF Done:  E(RHF) =  -440.393471864     A.U. after   11 cycles
 Normal termination of Gaussian 16 at Tue Apr  8 23:50:20 2025.
 Gaussian 16:  ES64L-G16RevC.01  3-Jul-2019

 ----------------------------------------------------------------------
 #t hf aug-cc-pvdz iop(5/13=1,5/36=2,99/5=2) pseudo=read geom=check gue
 ss=(read,tcheck) scf=(maxcycle=1)
 ----------------------------------------------------------------------
 -----
 title
 -----
 Structure from the checkpoint file:  "BDE49_nonexpt_1900_mol1.chk"
 Charge =  0 Multiplicity = 1

                         Standard orientation:
 ---------------------------------------------------------------------
 Center     Atomic      Atomic             Coordinates (Angstroms)
 Number     Number       Type             X           Y           Z
 ---------------------------------------------------------------------
      1          6           0       -1.057050   -0.508384   -0.430718
      2         14           0        0.732115   -0.570899    0.166320
      3          7           0        1.411594    0.962459   -0.224001
      4          1           0        1.499530   -1.641617   -0.516885
      5          1           0        0.708875   -0.914333    1.620833
      6          7           0       -1.723559    0.638875    0.225206
      7          1           0       -1.872101    0.437780    1.209530
      8          1           0       -2.642353    0.799657   -0.176291
      9          1           0        0.804784    1.758649   -0.075142
     10          1           0        2.373021    1.186114   -0.013473
     11          1           0       -1.566076   -1.475582   -0.292937
     12          1           0       -1.029246   -0.317123   -1.508247
 ---------------------------------------------------------------------

 SCF Done:  E(RHF) =  -440.471312964     A.U. after    2 cycles

 The electronic state is 1-A.
 Alpha  occ. eigenvalues --  -69.06226 -15.61455 -15.58925 -11.24418  -6.81294
 Alpha  occ. eigenvalues --   -3.92165  -3.92101  -3.92041  -1.14049  -1.08796
 Alpha  occ. eigenvalues --   -0.88473  -0.69067  -0.65076  -0.64818  -0.60207
 Alpha  occ. eigenvalues --   -0.54925  -0.53176  -0.47490  -0.44799  -0.39459
 Alpha  occ. eigenvalues --   -0.37715
 Alpha virt. eigenvalues --    0.03300   0.04210   0.04708   0.04964   0.06984
 Alpha virt. eigenvalues --    0.07231   0.07632   0.08236   0.09912   0.10541
 Alpha virt. eigenvalues --    0.10730   0.13270   0.15369   0.15789   0.16732

 Mulliken charges:
               1
     1  C    0.576111
     2  Si   1.019366
     3  N   -0.512483
     4  H   -0.085088
     5  H   -0.078030
     6  N   -0.436343
     7  H    0.041474
     8  H   -0.015794
     9  H    0.027546
    10  H   -0.070499
    11  H   -0.223280
    12  H   -0.242981
 Sum of Mulliken charges =  -0.00000

 Dipole moment (field-independent basis, Debye):
    X=             -0.9604    Y=              0.0616    Z=              0.5274  Tot=              1.0974

 Test job not archived.
 1\1\GINC-SE367\SP\RHF\Aug-CC-pVDZ\C1H8N2Si1\OHZDE\08-Apr-2025\0\\#t hf
  aug-cc-pvdz iop(5/13=1,5/36=2,99/5=2) pseudo=read geom=check guess=(r
 ead,tcheck) scf=(maxcycle=1)\\title\\0,1\C,0,-1.05705,-0.508384,-0.430
 718\Si,0,0.732115,-0.570899,0.16632\N,0,1.411594,0.962459,-0.224001\H,
 0,1.49953,-1.641617,-0.516885\H,0,0.708875,-0.914333,1.620833\N,0,-1.7
 23559,0.638875,0.225206\H,0,-1.872101,0.43778,1.20953\H,0,-2.642353,0.
 799657,-0.176291\H,0,0.804784,1.758649,-0.075142\H,0,2.373021,1.186114
 ,-0.013473\H,0,-1.566076,-1.475582,-0.292937\H,0,-1.029246,-0.317123,-

 Normal termination of Gaussian 16 at Tue Apr  8 23:50:24 2025.
