 Gaussian 16, Revision C.01,

 ----------------------------------------------------------------------
 #t hf aug-cc-pvdz symm=none int=(grid=ultrafine) guess=(read,tcheck) s
 table=(opt,rrhf)
 ----------------------------------------------------------------------
 -----
 title
 -----
 Symbolic Z-matrix:
 Charge =  0 Multiplicity = 1

 SCF Done:  E(RHF) =  -689.148774721     A.U. after   15 cycles

 1\1\GINC-SE186\Stability\RHF\Aug-CC-pVDZ\C9H13P1\OHZDE\08-Apr-2025\0\\
 #t hf aug-cc-pvdz symm=none int=(grid=ultrafine) guess=(read,tcheck) s
 table=(opt,rrhf)\\title\\0,1\C,0,0.313645,0.13325,0.125177\C,0,0.93877
 7,-1.10173,0.364581\C,0,2.315541,-1.253281,0.240577\C,0,3.111335,-0.17
 0886,-0.129792\C,0,2.510186,1.058406,-0.375291\C,0,1.128724,1.207336,-
 0.251565\P,0,-1.986009,-0.957149,-0.968415\H,0,2.766885,-2.220594,0.43
 1883\H,0,4.184827,-0.286788,-0.226676\H,0,3.114172,1.911233,-0.665358\
 H,0,0.694701,2.178249,-0.449638\H,0,0.341305,-1.961682,0.644014\C,0,-1

 Normal termination of Gaussian 16 at Tue Apr  8 23:30:38 2025.
 Gaussian 16:  ES64L-G16RevC.01  3-Jul-2019

 ----------------------------------------------------------------------
 #t hf aug-cc-pvdz iop(5/13=1,5/36=2,99/5=2) pseudo=read geom=check gue
 ss=(read,tcheck) scf=(maxcycle=1)
 ----------------------------------------------------------------------
 -----
 title
 -----
 Structure from the checkpoint file:  "BDE49_nonexpt_1350_mol1.chk"
 Charge =  0 Multiplicity = 1

                         Standard orientation:
 ---------------------------------------------------------------------
 Center     Atomic      Atomic             Coordinates (Angstroms)
 Number     Number       Type             X           Y           Z
 ---------------------------------------------------------------------
      1          6           0        0.313645    0.133250    0.125177
      2          6           0        0.938777   -1.101730    0.364581
      3          6           0        2.315541   -1.253281    0.240577
      4          6           0        3.111335   -0.170886   -0.129792
      5          6           0        2.510186    1.058406   -0.375291
      6          6           0        1.128724    1.207336   -0.251565
      7         15           0       -1.986009   -0.957149   -0.968415
      8          1           0        2.766885   -2.220594    0.431883
      9          1           0        4.184827   -0.286788   -0.226676
     10          1           0        3.114172    1.911233   -0.665358
     11          1           0        0.694701    2.178249   -0.449638
     12          1           0        0.341305   -1.961682    0.644014
     13          6           0       -1.207439    0.268623    0.273720
     14          6           0       -1.711607    1.699794    0.028223
     15          1           0       -1.483058    2.052830   -0.979436
     16          1           0       -1.268349    2.399452    0.745846
     17          1           0       -2.795576    1.740759    0.153927
     18          6           0       -1.651480   -0.169490    1.689609
     19          1           0       -1.198233    0.485086    2.440377
     20          1           0       -1.358473   -1.194983    1.919395
     21          1           0       -2.738451   -0.100062    1.793132
     22          1           0       -1.648446   -0.245774   -2.149128
     23          1           0       -3.307252   -0.432633   -0.923549
 ---------------------------------------------------------------------

 SCF Done:  E(RHF) =  -689.271553409     A.U. after    2 cycles

 The electronic state is 1-A.
 Alpha  occ. eigenvalues --  -81.25036 -11.26716 -11.25515 -11.24489 -11.24468
 Alpha  occ. eigenvalues --  -11.24192 -11.24171 -11.24115 -11.23475 -11.23359
 Alpha  occ. eigenvalues --   -7.75378  -4.89399  -4.89356  -4.89058  -1.14884
 Alpha  occ. eigenvalues --   -1.08023  -1.00982  -0.99357  -0.93769  -0.85559
 Alpha  occ. eigenvalues --   -0.82636  -0.80098  -0.74113  -0.69704  -0.63764
 Alpha  occ. eigenvalues --   -0.63122  -0.61780  -0.59979  -0.59036  -0.56658
 Alpha  occ. eigenvalues --   -0.54748  -0.53287  -0.51846  -0.51037  -0.49625
 Alpha  occ. eigenvalues --   -0.47895  -0.47476  -0.44351  -0.35036  -0.33683
 Alpha  occ. eigenvalues --   -0.32678
 Alpha virt. eigenvalues --    0.03226   0.03844   0.04209   0.05151   0.05447
 Alpha virt. eigenvalues --    0.05654   0.06663   0.07125   0.07506   0.07759
 Alpha virt. eigenvalues --    0.08254   0.09495   0.10003   0.10417   0.10810

 Mulliken charges:
               1
     1  C    1.177599
     2  C    0.464404
     3  C    0.236118
     4  C    0.791352
     5  C    0.172147
     6  C    0.740791
     7  P   -0.065708
     8  H   -0.461174
     9  H   -0.445845
    10  H   -0.472658
    11  H   -0.714220
    12  H   -0.671717
    13  C   -2.640814
    14  C    1.166054
    15  H   -0.053127
    16  H    0.080973
    17  H   -0.190261
    18  C    0.839679
    19  H   -0.045443
    20  H   -0.133559
    21  H   -0.071167
    22  H    0.156666
    23  H    0.139908
 Sum of Mulliken charges =   0.00000

 Dipole moment (field-independent basis, Debye):
    X=             -0.0465    Y=              0.9926    Z=              0.4683  Tot=              1.0986

 Test job not archived.
 1\1\GINC-SE186\SP\RHF\Aug-CC-pVDZ\C9H13P1\OHZDE\08-Apr-2025\0\\#t hf a
 ug-cc-pvdz iop(5/13=1,5/36=2,99/5=2) pseudo=read geom=check guess=(rea
 d,tcheck) scf=(maxcycle=1)\\title\\0,1\C,0,0.313645,0.13325,0.125177\C
 ,0,0.938777,-1.10173,0.364581\C,0,2.315541,-1.253281,0.240577\C,0,3.11
 1335,-0.170886,-0.129792\C,0,2.510186,1.058406,-0.375291\C,0,1.128724,
 1.207336,-0.251565\P,0,-1.986009,-0.957149,-0.968415\H,0,2.766885,-2.2
 20594,0.431883\H,0,4.184827,-0.286788,-0.226676\H,0,3.114172,1.911233,
 -0.665358\H,0,0.694701,2.178249,-0.449638\H,0,0.341305,-1.961682,0.644

 Normal termination of Gaussian 16 at Tue Apr  8 23:30:55 2025.
