 Gaussian 16, Revision C.01,

 ----------------------------------------------------------------------
 #t hf aug-cc-pvdz symm=none int=(grid=ultrafine) guess=(read,tcheck) s
 table=opt
 ----------------------------------------------------------------------
 -----
 title
 -----
 Symbolic Z-matrix:
 Charge =  0 Multiplicity = 2

 SCF Done:  E(UHF) =  -1006.66165025     A.U. after   21 cycles

 1\1\GINC-SE096\Stability\UHF\Aug-CC-pVDZ\Cl1O2S1\OHZDE\08-Apr-2025\0\\
 #t hf aug-cc-pvdz symm=none int=(grid=ultrafine) guess=(read,tcheck) s
 table=opt\\title\\0,2\S,0,-0.57745,0.000008,0.255567\Cl,0,1.577619,-0.
 000114,-0.046852\O,0,-1.098519,1.267439,-0.205774\O,0,-1.099022,-1.267
 213,-0.205798\\Version=ES64L-G16RevC.01\HF=-1006.6616502\S2=0.820549\S
 2-1=0.\S2A=0.752866\RMSD=5.864e-09\Dipole=0.3613937,-0.0000808,0.51434
 41\Quadrupole=0.6780422,-2.699443,2.0214008,-0.0004576,-1.4136974,0.00
 00297\PG=Unknown\\@

 Normal termination of Gaussian 16 at Tue Apr  8 22:56:35 2025.
 Gaussian 16:  ES64L-G16RevC.01  3-Jul-2019

 ----------------------------------------------------------------------
 #t hf aug-cc-pvdz iop(5/13=1,5/36=2,99/5=2) pseudo=read geom=check gue
 ss=(read,tcheck) scf=(maxcycle=1)
 ----------------------------------------------------------------------
 -----
 title
 -----
 Structure from the checkpoint file:  "BDE49_expt_1937_mol2.chk"
 Charge =  0 Multiplicity = 2

                         Standard orientation:
 ---------------------------------------------------------------------
 Center     Atomic      Atomic             Coordinates (Angstroms)
 Number     Number       Type             X           Y           Z
 ---------------------------------------------------------------------
      1         16           0       -0.577450    0.000008    0.255567
      2         17           0        1.577619   -0.000113   -0.046852
      3          8           0       -1.098519    1.267439   -0.205774
      4          8           0       -1.099021   -1.267213   -0.205798
 ---------------------------------------------------------------------

 SCF Done:  E(UHF) =  -1006.79378800     A.U. after    2 cycles

 The electronic state is 2-A.
 Alpha  occ. eigenvalues -- -103.72247 -93.83768 -20.65933 -20.65932 -10.75441
 Alpha  occ. eigenvalues --   -9.10847  -8.41977  -8.40653  -8.40637  -6.45364
 Alpha  occ. eigenvalues --   -6.45016  -6.44506  -1.49778  -1.39937  -1.20541
 Alpha  occ. eigenvalues --   -0.91996  -0.74787  -0.74500  -0.73963  -0.61175
 Alpha  occ. eigenvalues --   -0.59840  -0.59208  -0.52932  -0.52092  -0.48440
 Alpha virt. eigenvalues --    0.02306   0.07625   0.08187   0.09219   0.09243
 Alpha virt. eigenvalues --    0.13974   0.14685   0.14986   0.18486   0.20037
 Alpha virt. eigenvalues --    0.21559   0.23003   0.25330   0.25813   0.28599

  Beta  occ. eigenvalues -- -103.71720 -93.83449 -20.64839 -20.64837 -10.74905
  Beta  occ. eigenvalues --   -9.10375  -8.40380  -8.40341  -8.39728  -6.45013
  Beta  occ. eigenvalues --   -6.44886  -6.43712  -1.47209  -1.36595  -1.15985
  Beta  occ. eigenvalues --   -0.86880  -0.72983  -0.71019  -0.67865  -0.58701
  Beta  occ. eigenvalues --   -0.54251  -0.53101  -0.51713  -0.51233
  Beta virt. eigenvalues --   -0.07079   0.04583   0.08209   0.08653   0.09415
  Beta virt. eigenvalues --    0.09584   0.14750   0.14926   0.15314   0.19302
  Beta virt. eigenvalues --    0.20727   0.21848   0.23736   0.25595   0.26288

 Mulliken charges and spin densities:
               1          2
     1  S    1.554627   0.215706
     2  Cl  -0.161712   0.370225
     3  O   -0.696437   0.207078
     4  O   -0.696478   0.206991
 Sum of Mulliken charges =   0.00000   1.00000

 Dipole moment (field-independent basis, Debye):
    X=              1.0651    Y=             -0.0002    Z=              1.4553  Tot=              1.8034
                          Isotropic Fermi Contact Couplings
        Atom                 a.u.       MegaHertz       Gauss      10(-4) cm-1
     1  S(33)              0.80783     277.46620      99.00684      92.55276
     2  Cl(35)             0.06017      26.38402       9.41447       8.80076
     3  O(17)              0.06841     -41.47267     -14.79848     -13.83379
     4  O(17)              0.06840     -41.46101     -14.79432     -13.82991
 --------------------------------------------------------
       Center         ----  Spin Dipole Couplings  ----
                      3XX-RR        3YY-RR        3ZZ-RR
 --------------------------------------------------------

 Normal termination of Gaussian 16 at Tue Apr  8 22:56:37 2025.
