 Gaussian 16, Revision C.01,

 ----------------------------------------------------------------------
 #t hf aug-cc-pvdz symm=none int=(grid=ultrafine) guess=(read,tcheck) s
 table=(opt,rrhf)
 ----------------------------------------------------------------------
 -----
 title
 -----
 Symbolic Z-matrix:
 Charge =  0 Multiplicity = 1

 SCF Done:  E(RHF) =  -861.760124551     A.U. after   18 cycles
 Normal termination of Gaussian 16 at Tue Apr  8 23:32:22 2025.
 Gaussian 16:  ES64L-G16RevC.01  3-Jul-2019

 ----------------------------------------------------------------------
 #t hf aug-cc-pvdz iop(5/13=1,5/36=2,99/5=2) pseudo=read geom=check gue
 ss=(read,tcheck) scf=(maxcycle=1)
 ----------------------------------------------------------------------
 -----
 title
 -----
 Structure from the checkpoint file:  "BDE49_nonexpt_1354_mol1.chk"
 Charge =  0 Multiplicity = 1

                         Standard orientation:
 ---------------------------------------------------------------------
 Center     Atomic      Atomic             Coordinates (Angstroms)
 Number     Number       Type             X           Y           Z
 ---------------------------------------------------------------------
      1          9           0       -1.945731   -1.801156   -0.360812
      2          1           0        0.374280    1.791153   -1.334450
      3          1           0        2.742099    2.004426   -0.719895
      4         15           0       -1.602780   -0.317105   -0.993392
      5          6           0       -2.310410    0.787166    0.373549
      6          6           0        0.152712   -0.181453   -0.481772
      7          6           0        2.876073    0.064792    0.205643
      8          6           0       -3.047992    0.162141    1.530361
      9          1           0       -2.398765   -0.550080    2.046823
     10          1           0       -3.906584   -0.406811    1.161480
     11          6           0        0.866943    0.976506   -0.815025
     12          8           0       -2.157775    1.975601    0.218734
     13          6           0        4.340549    0.190056    0.547184
     14          6           0        2.205991    1.095993   -0.464280
     15          1           0        0.269543   -2.120128    0.446740
     16          1           0        2.650409   -1.901809    1.044533
     17          1           0       -3.380916    0.942335    2.215748
     18          6           0        0.808873   -1.217171    0.188679
     19          6           0        2.154929   -1.089039    0.523075
     20          1           0        4.966062   -0.007359   -0.330119
     21          1           0        4.630580   -0.519787    1.324478
     22          1           0        4.582762    1.196271    0.898506
 ---------------------------------------------------------------------

 SCF Done:  E(RHF) =  -861.947551278     A.U. after    2 cycles

 The electronic state is 1-A.
 Alpha  occ. eigenvalues --  -81.33583 -26.12454 -20.58341 -11.35796 -11.26417
 Alpha  occ. eigenvalues --  -11.26167 -11.25946 -11.25892 -11.25469 -11.25022
 Alpha  occ. eigenvalues --  -11.25013 -11.24367  -7.83126  -4.97289  -4.97021
 Alpha  occ. eigenvalues --   -4.96685  -1.64441  -1.37234  -1.15743  -1.05460
 Alpha  occ. eigenvalues --   -1.02054  -1.01843  -0.94922  -0.87149  -0.84377
 Alpha  occ. eigenvalues --   -0.80413  -0.77628  -0.74408  -0.73529  -0.70781
 Alpha  occ. eigenvalues --   -0.67194  -0.65252  -0.64429  -0.64050  -0.61563
 Alpha  occ. eigenvalues --   -0.59983  -0.59073  -0.58665  -0.55724  -0.55271
 Alpha  occ. eigenvalues --   -0.53341  -0.51516  -0.50438  -0.50100  -0.42927
 Alpha  occ. eigenvalues --   -0.39022  -0.35102  -0.32379
 Alpha virt. eigenvalues --    0.03167   0.03823   0.04273   0.04921   0.05226
 Alpha virt. eigenvalues --    0.05941   0.06092   0.06937   0.07257   0.08273
 Alpha virt. eigenvalues --    0.08458   0.08523   0.09237   0.09968   0.10321

 Mulliken charges:
               1
     1  F   -0.664823
     2  H   -0.577802
     3  H   -0.601163
     4  P    0.822680
     5  C    0.079546
     6  C    0.153714
     7  C   -0.295857
     8  C    0.224007
     9  H    0.044833
    10  H    0.057755
    11  C   -0.063332
    12  O   -0.550009
    13  C    0.632188
    14  C    1.052823
    15  H   -0.624492
    16  H   -0.587601
    17  H   -0.071672
    18  C    0.121919
    19  C    0.924071
    20  H    0.094234
    21  H   -0.142985
    22  H   -0.028034
 Sum of Mulliken charges =  -0.00000

 Dipole moment (field-independent basis, Debye):
    X=              1.7235    Y=             -1.1660    Z=              1.2300  Tot=              2.4171

 Test job not archived.
 1\1\GINC-SE273\SP\RHF\Aug-CC-pVDZ\C9H10F1O1P1\OHZDE\08-Apr-2025\0\\#t
 hf aug-cc-pvdz iop(5/13=1,5/36=2,99/5=2) pseudo=read geom=check guess=
 (read,tcheck) scf=(maxcycle=1)\\title\\0,1\F,0,-1.945731,-1.801156,-0.
 360812\H,0,0.37428,1.791153,-1.33445\H,0,2.742099,2.004426,-0.719895\P
 ,0,-1.60278,-0.317105,-0.993392\C,0,-2.31041,0.787166,0.373549\C,0,0.1
 52712,-0.181453,-0.481772\C,0,2.876073,0.064792,0.205643\C,0,-3.047992
 ,0.162141,1.530361\H,0,-2.398765,-0.55008,2.046823\H,0,-3.906584,-0.40
 6811,1.16148\C,0,0.866943,0.976506,-0.815025\O,0,-2.157775,1.975601,0.

 Normal termination of Gaussian 16 at Tue Apr  8 23:32:39 2025.
