 Gaussian 16, Revision C.01,

 ----------------------------------------------------------------------
 #t hf aug-cc-pvdz symm=none int=(grid=ultrafine) guess=(read,tcheck) s
 table=(opt,rrhf)
 ----------------------------------------------------------------------
 -----
 title
 -----
 Symbolic Z-matrix:
 Charge =  0 Multiplicity = 1

 SCF Done:  E(RHF) =  -648.473706086     A.U. after   11 cycles
 Normal termination of Gaussian 16 at Tue Apr  8 22:48:49 2025.
 Gaussian 16:  ES64L-G16RevC.01  3-Jul-2019

 ----------------------------------------------------------------------
 #t hf aug-cc-pvdz iop(5/13=1,5/36=2,99/5=2) pseudo=read geom=check gue
 ss=(read,tcheck) scf=(maxcycle=1)
 ----------------------------------------------------------------------
 -----
 title
 -----
 Structure from the checkpoint file:  "BDE49_expt_172_mol1.chk"
 Charge =  0 Multiplicity = 1

                         Standard orientation:
 ---------------------------------------------------------------------
 Center     Atomic      Atomic             Coordinates (Angstroms)
 Number     Number       Type             X           Y           Z
 ---------------------------------------------------------------------
      1          6           0        1.291565   -0.053242    0.222588
      2          8           0        0.169702   -0.335276   -0.562447
      3          9           0        1.770922    1.163542   -0.102375
      4          9           0        2.214756   -0.969142   -0.098950
      5          1           0        1.076770   -0.089370    1.290734
      6          6           0       -1.049205   -0.037560   -0.035366
      7          9           0       -1.270729   -0.707181    1.113375
      8          9           0       -1.968516   -0.388147   -0.920874
      9          9           0       -1.178494    1.269416    0.240548
 ---------------------------------------------------------------------

 SCF Done:  E(RHF) =  -648.710122814     A.U. after    2 cycles

 The electronic state is 1-A.
 Alpha  occ. eigenvalues --  -26.20037 -26.19942 -26.19773 -26.17857 -26.17399
 Alpha  occ. eigenvalues --  -20.67986 -11.61515 -11.52442  -1.80387  -1.75227
 Alpha  occ. eigenvalues --   -1.73072  -1.72513  -1.70051  -1.46400  -1.08968
 Alpha  occ. eigenvalues --   -1.01520  -0.93148  -0.92846  -0.92674  -0.87196
 Alpha  occ. eigenvalues --   -0.86564  -0.82098  -0.80801  -0.80472  -0.76933
 Alpha  occ. eigenvalues --   -0.76476  -0.75997  -0.74985  -0.73387  -0.72826
 Alpha  occ. eigenvalues --   -0.70185  -0.63214  -0.60923
 Alpha virt. eigenvalues --    0.03791   0.07604   0.08225   0.08429   0.10831
 Alpha virt. eigenvalues --    0.11143   0.11259   0.15577   0.17932   0.19842
 Alpha virt. eigenvalues --    0.21129   0.25129   0.25518   0.26337   0.26946

 Mulliken charges:
               1
     1  C    1.121447
     2  O   -0.634409
     3  F   -0.296611
     4  F   -0.275481
     5  H   -0.182605
     6  C    1.043601
     7  F   -0.281751
     8  F   -0.221544
     9  F   -0.272646
 Sum of Mulliken charges =  -0.00000

 Dipole moment (field-independent basis, Debye):
    X=             -0.0717    Y=             -0.2347    Z=              1.5868  Tot=              1.6057

 Test job not archived.
 1\1\GINC-SE092\SP\RHF\Aug-CC-pVDZ\C2H1F5O1\OHZDE\08-Apr-2025\0\\#t hf
 aug-cc-pvdz iop(5/13=1,5/36=2,99/5=2) pseudo=read geom=check guess=(re
 ad,tcheck) scf=(maxcycle=1)\\title\\0,1\C,0,1.291565,-0.053242,0.22258
 8\O,0,0.169702,-0.335276,-0.562447\F,0,1.770922,1.163542,-0.102375\F,0
 ,2.214756,-0.969142,-0.09895\H,0,1.07677,-0.08937,1.290734\C,0,-1.0492
 05,-0.03756,-0.035366\F,0,-1.270729,-0.707181,1.113375\F,0,-1.968516,-
 0.388147,-0.920874\F,0,-1.178494,1.269416,0.240548\\Version=ES64L-G16R
 evC.01\State=1-A\HF=-648.7101228\RMSD=5.524e-03\Dipole=-0.0282166,-0.0

 Normal termination of Gaussian 16 at Tue Apr  8 22:48:53 2025.
