 Gaussian 16, Revision C.01,

 ----------------------------------------------------------------------
 #t hf aug-cc-pvdz symm=none int=(grid=ultrafine) guess=(read,tcheck) s
 table=(opt,rrhf)
 ----------------------------------------------------------------------
 -----
 title
 -----
 Symbolic Z-matrix:
 Charge =  0 Multiplicity = 1

 SCF Done:  E(RHF) =  -256.256446019     A.U. after   14 cycles
 Normal termination of Gaussian 16 at Wed Apr  9 00:28:01 2025.
 Gaussian 16:  ES64L-G16RevC.01  3-Jul-2019

 ----------------------------------------------------------------------
 #t hf aug-cc-pvdz iop(5/13=1,5/36=2,99/5=2) pseudo=read geom=check gue
 ss=(read,tcheck) scf=(maxcycle=1)
 ----------------------------------------------------------------------
 -----
 title
 -----
 Structure from the checkpoint file:  "BDE49_nonexpt_339_mol1.chk"
 Charge =  0 Multiplicity = 1

                         Standard orientation:
 ---------------------------------------------------------------------
 Center     Atomic      Atomic             Coordinates (Angstroms)
 Number     Number       Type             X           Y           Z
 ---------------------------------------------------------------------
      1          6           0       -2.742053   -0.152472   -0.000012
      2          6           0       -1.330032    0.438062    0.000006
      3          1           0       -2.914096   -0.775477   -0.883254
      4          1           0       -3.497702    0.636904   -0.000047
      5          1           0       -2.914135   -0.775435    0.883252
      6          6           0       -0.242113   -0.638821    0.000058
      7          1           0       -1.192949    1.083250    0.872713
      8          1           0       -1.192910    1.083207   -0.872726
      9          6           0        1.160746   -0.123026    0.000101
     10          1           0       -0.334199   -1.304974   -0.869473
     11          1           0       -0.334235   -1.304926    0.869620
     12          8           0        1.469920    1.072219   -0.000109
     13          5           0        2.630625   -0.590298   -0.000012
     14          1           0        3.194231   -0.705397   -1.040339
     15          1           0        3.194221   -0.705874    1.040263
 ---------------------------------------------------------------------

 SCF Done:  E(RHF) =  -256.337978224     A.U. after    2 cycles

 The electronic state is 1-A.
 Alpha  occ. eigenvalues --  -20.58489 -11.33232 -11.25849 -11.24172 -11.23402
 Alpha  occ. eigenvalues --   -7.62627  -1.36610  -1.07529  -0.97382  -0.84957
 Alpha  occ. eigenvalues --   -0.79157  -0.71841  -0.65662  -0.64398  -0.59428
 Alpha  occ. eigenvalues --   -0.58909  -0.55648  -0.54126  -0.52333  -0.49680
 Alpha  occ. eigenvalues --   -0.48686  -0.47673  -0.41229
 Alpha virt. eigenvalues --    0.03037   0.04014   0.04338   0.04875   0.05638
 Alpha virt. eigenvalues --    0.06125   0.06193   0.07225   0.08461   0.08906
 Alpha virt. eigenvalues --    0.09090   0.10037   0.11611   0.11742   0.12874

 Mulliken charges:
               1
     1  C    0.429877
     2  C    0.362052
     3  H   -0.080914
     4  H   -0.047692
     5  H   -0.080906
     6  C   -0.248184
     7  H   -0.126929
     8  H   -0.126923
     9  C    0.645809
    10  H    0.004049
    11  H    0.004036
    12  O   -0.644102
    13  B   -0.683397
    14  H    0.296577
    15  H    0.296646
 Sum of Mulliken charges =  -0.00000

 Dipole moment (field-independent basis, Debye):
    X=             -1.8981    Y=             -2.6169    Z=              0.0003  Tot=              3.2328

 Test job not archived.
 1\1\GINC-SE342\SP\RHF\Aug-CC-pVDZ\C4H9B1O1\OHZDE\09-Apr-2025\0\\#t hf
 aug-cc-pvdz iop(5/13=1,5/36=2,99/5=2) pseudo=read geom=check guess=(re
 ad,tcheck) scf=(maxcycle=1)\\title\\0,1\C,0,2.742053,-0.152472,0.00001
 2\C,0,1.330032,0.438062,-0.000006\H,0,2.914096,-0.775477,0.883254\H,0,
 3.497702,0.636904,0.000047\H,0,2.914135,-0.775435,-0.883252\C,0,0.2421
 13,-0.638821,-0.000058\H,0,1.192949,1.08325,-0.872713\H,0,1.19291,1.08
 3207,0.872726\C,0,-1.160746,-0.123026,-0.000101\H,0,0.334199,-1.304974
 ,0.869473\H,0,0.334235,-1.304926,-0.86962\O,0,-1.46992,1.072219,0.0001

 Normal termination of Gaussian 16 at Wed Apr  9 00:28:05 2025.
