 Gaussian 16, Revision C.01,

 ----------------------------------------------------------------------
 #t hf aug-cc-pvdz symm=none int=(grid=ultrafine) guess=(read,tcheck) s
 table=(opt,rrhf)
 ----------------------------------------------------------------------
 -----
 title
 -----
 Symbolic Z-matrix:
 Charge =  0 Multiplicity = 1

 SCF Done:  E(RHF) =  -615.051439558     A.U. after   14 cycles

 1\1\GINC-SE361\Stability\RHF\Aug-CC-pVDZ\C4H7Cl1\OHZDE\08-Apr-2025\0\\
 #t hf aug-cc-pvdz symm=none int=(grid=ultrafine) guess=(read,tcheck) s
 table=(opt,rrhf)\\title\\0,1\C,0,-0.526465,0.199425,0.78396\C,0,0.4950
 78,0.946929,0.00251\C,0,1.718737,0.515283,-0.31456\Cl,0,-1.955082,-0.2
 87078,-0.27327\H,0,-0.968753,0.812654,1.567392\H,0,-0.156264,-0.726349
 ,1.214178\H,0,2.350096,1.199605,-0.877345\H,0,0.190293,1.935224,-0.328
 942\C,0,2.349081,-0.807842,0.002476\H,0,1.680468,-1.493385,0.523964\H,
 0,3.244049,-0.67142,0.619567\H,0,2.677918,-1.298766,-0.919533\\Version

 Normal termination of Gaussian 16 at Tue Apr  8 22:46:34 2025.
 Gaussian 16:  ES64L-G16RevC.01  3-Jul-2019

 ----------------------------------------------------------------------
 #t hf aug-cc-pvdz iop(5/13=1,5/36=2,99/5=2) pseudo=read geom=check gue
 ss=(read,tcheck) scf=(maxcycle=1)
 ----------------------------------------------------------------------
 -----
 title
 -----
 Structure from the checkpoint file:  "BDE49_expt_1652_mol1.chk"
 Charge =  0 Multiplicity = 1

                         Standard orientation:
 ---------------------------------------------------------------------
 Center     Atomic      Atomic             Coordinates (Angstroms)
 Number     Number       Type             X           Y           Z
 ---------------------------------------------------------------------
      1          6           0       -0.526465    0.199425    0.783960
      2          6           0        0.495078    0.946929    0.002510
      3          6           0        1.718737    0.515283   -0.314560
      4         17           0       -1.955082   -0.287078   -0.273270
      5          1           0       -0.968753    0.812654    1.567392
      6          1           0       -0.156264   -0.726349    1.214178
      7          1           0        2.350096    1.199605   -0.877345
      8          1           0        0.190293    1.935224   -0.328942
      9          6           0        2.349081   -0.807842    0.002476
     10          1           0        1.680468   -1.493385    0.523964
     11          1           0        3.244049   -0.671420    0.619567
     12          1           0        2.677918   -1.298766   -0.919533
 ---------------------------------------------------------------------

 SCF Done:  E(RHF) =  -615.119265461     A.U. after    2 cycles

 The electronic state is 1-A.
 Alpha  occ. eigenvalues -- -103.64259 -11.30988 -11.25993 -11.25105 -11.24542
 Alpha  occ. eigenvalues --  -10.67502  -8.33212  -8.32930  -8.32925  -1.15373
 Alpha  occ. eigenvalues --   -1.07716  -0.97609  -0.89819  -0.74765  -0.68543
 Alpha  occ. eigenvalues --   -0.61327  -0.59761  -0.58079  -0.54857  -0.53774
 Alpha  occ. eigenvalues --   -0.50864  -0.44427  -0.44156  -0.36784
 Alpha virt. eigenvalues --    0.03260   0.04470   0.04550   0.05609   0.06432
 Alpha virt. eigenvalues --    0.06703   0.08444   0.09207   0.11877   0.12546
 Alpha virt. eigenvalues --    0.13456   0.14218   0.14809   0.15646   0.16105

 Mulliken charges:
               1
     1  C    0.021380
     2  C    0.538803
     3  C    0.185732
     4  Cl  -0.188181
     5  H    0.036844
     6  H   -0.033230
     7  H   -0.393507
     8  H   -0.361844
     9  C    0.185428
    10  H   -0.142981
    11  H    0.074095
    12  H    0.077460
 Sum of Mulliken charges =  -0.00000

 Dipole moment (field-independent basis, Debye):
    X=              2.5642    Y=              0.3778    Z=              1.1620  Tot=              2.8405

 Test job not archived.
 1\1\GINC-SE361\SP\RHF\Aug-CC-pVDZ\C4H7Cl1\OHZDE\08-Apr-2025\0\\#t hf a
 ug-cc-pvdz iop(5/13=1,5/36=2,99/5=2) pseudo=read geom=check guess=(rea
 d,tcheck) scf=(maxcycle=1)\\title\\0,1\C,0,-0.526465,0.199425,0.78396\
 C,0,0.495078,0.946929,0.00251\C,0,1.718737,0.515283,-0.31456\Cl,0,-1.9
 55082,-0.287078,-0.27327\H,0,-0.968753,0.812654,1.567392\H,0,-0.156264
 ,-0.726349,1.214178\H,0,2.350096,1.199605,-0.877345\H,0,0.190293,1.935
 224,-0.328942\C,0,2.349081,-0.807842,0.002476\H,0,1.680468,-1.493385,0
 .523964\H,0,3.244049,-0.67142,0.619567\H,0,2.677918,-1.298766,-0.91953

 Normal termination of Gaussian 16 at Tue Apr  8 22:46:38 2025.
