 Gaussian 16, Revision C.01,

 ----------------------------------------------------------------------
 #t hf aug-cc-pvdz symm=none int=(grid=ultrafine) guess=(read,tcheck) s
 table=(opt,rrhf)
 ----------------------------------------------------------------------
 -----
 title
 -----
 Symbolic Z-matrix:
 Charge =  0 Multiplicity = 1

 SCF Done:  E(RHF) =  -450.729228905     A.U. after   12 cycles
 Normal termination of Gaussian 16 at Tue Apr  8 22:49:33 2025.
 Gaussian 16:  ES64L-G16RevC.01  3-Jul-2019

 ----------------------------------------------------------------------
 #t hf aug-cc-pvdz iop(5/13=1,5/36=2,99/5=2) pseudo=read geom=check gue
 ss=(read,tcheck) scf=(maxcycle=1)
 ----------------------------------------------------------------------
 -----
 title
 -----
 Structure from the checkpoint file:  "BDE49_expt_174_mol1.chk"
 Charge =  0 Multiplicity = 1

                         Standard orientation:
 ---------------------------------------------------------------------
 Center     Atomic      Atomic             Coordinates (Angstroms)
 Number     Number       Type             X           Y           Z
 ---------------------------------------------------------------------
      1          6           0       -1.956596    0.022867   -0.000004
      2          8           0       -0.723026    0.767826   -0.000005
      3          1           0       -2.743913    0.771886   -0.000013
      4          1           0       -2.027442   -0.595589    0.896261
      5          1           0       -2.027434   -0.595604   -0.896259
      6          6           0        0.398600    0.037078    0.000001
      7          9           0        1.442241    0.864083    0.000000
      8          9           0        0.497270   -0.769988   -1.083312
      9          9           0        0.497264   -0.769981    1.083319
 ---------------------------------------------------------------------

 SCF Done:  E(RHF) =  -450.892387370     A.U. after    2 cycles

 The electronic state is 1-A.
 Alpha  occ. eigenvalues --  -26.17198 -26.16913 -26.16902 -20.63780 -11.57965
 Alpha  occ. eigenvalues --  -11.32276  -1.77120  -1.69979  -1.69335  -1.41884
 Alpha  occ. eigenvalues --   -1.04743  -0.96877  -0.89495  -0.89328  -0.84697
 Alpha  occ. eigenvalues --   -0.78279  -0.78266  -0.73569  -0.73221  -0.72162
 Alpha  occ. eigenvalues --   -0.70686  -0.66534  -0.65143  -0.56473  -0.52776
 Alpha virt. eigenvalues --    0.03233   0.05428   0.05695   0.08020   0.10527
 Alpha virt. eigenvalues --    0.11059   0.11123   0.13767   0.15302   0.16346
 Alpha virt. eigenvalues --    0.18163   0.21377   0.23999   0.25935   0.26801

 Mulliken charges:
               1
     1  C    0.657230
     2  O   -0.611553
     3  H   -0.209008
     4  H   -0.016467
     5  H   -0.016467
     6  C    1.062753
     7  F   -0.251238
     8  F   -0.307626
     9  F   -0.307625
 Sum of Mulliken charges =  -0.00000

 Dipole moment (field-independent basis, Debye):
    X=             -2.9459    Y=             -0.4217    Z=              0.0000  Tot=              2.9759

 Test job not archived.
 1\1\GINC-SE329\SP\RHF\Aug-CC-pVDZ\C2H3F3O1\OHZDE\08-Apr-2025\0\\#t hf
 aug-cc-pvdz iop(5/13=1,5/36=2,99/5=2) pseudo=read geom=check guess=(re
 ad,tcheck) scf=(maxcycle=1)\\title\\0,1\C,0,-1.956596,0.022867,-0.0000
 04\O,0,-0.723026,0.767826,-0.000005\H,0,-2.743913,0.771887,-0.000013\H
 ,0,-2.027442,-0.595588,0.896261\H,0,-2.027434,-0.595603,-0.896259\C,0,
 0.3986,0.037078,0.000001\F,0,1.442241,0.864082,0.\F,0,0.49727,-0.76998
 8,-1.083312\F,0,0.497264,-0.769981,1.083319\\Version=ES64L-G16RevC.01\
 State=1-A\HF=-450.8923874\RMSD=5.211e-03\Dipole=-1.1589971,-0.1658929,

 Normal termination of Gaussian 16 at Tue Apr  8 22:49:36 2025.
