 Gaussian 16, Revision C.01,

 ----------------------------------------------------------------------
 #t hf aug-cc-pvdz symm=none int=(grid=ultrafine) guess=(read,tcheck) s
 table=(opt,rrhf)
 ----------------------------------------------------------------------
 -----
 title
 -----
 Symbolic Z-matrix:
 Charge =  0 Multiplicity = 1

 SCF Done:  E(RHF) =  -762.383084006     A.U. after   13 cycles
 Normal termination of Gaussian 16 at Tue Apr  8 23:25:41 2025.
 Gaussian 16:  ES64L-G16RevC.01  3-Jul-2019

 ----------------------------------------------------------------------
 #t hf aug-cc-pvdz iop(5/13=1,5/36=2,99/5=2) pseudo=read geom=check gue
 ss=(read,tcheck) scf=(maxcycle=1)
 ----------------------------------------------------------------------
 -----
 title
 -----
 Structure from the checkpoint file:  "BDE49_nonexpt_1285_mol1.chk"
 Charge =  0 Multiplicity = 1

                         Standard orientation:
 ---------------------------------------------------------------------
 Center     Atomic      Atomic             Coordinates (Angstroms)
 Number     Number       Type             X           Y           Z
 ---------------------------------------------------------------------
      1          6           0        1.581221   -0.041178   -0.044095
      2         15           0       -1.300501   -0.062169    0.053396
      3          8           0       -1.427989   -0.038677    1.521100
      4          6           0        2.739819   -0.405133   -0.993100
      5          1           0        2.643528    0.109053   -1.954435
      6          1           0        2.769474   -1.481564   -1.187623
      7          6           0        1.787046   -0.751700    1.307240
      8          1           0        1.856652   -1.835685    1.170742
      9          1           0        0.960577   -0.548748    1.990110
     10          1           0        2.716975   -0.415058    1.775101
     11          1           0        3.699558   -0.118484   -0.553418
     12          6           0        1.566130    1.484515    0.167517
     13          1           0        2.540603    1.822172    0.531744
     14          1           0        0.820338    1.775481    0.911542
     15          1           0        1.350352    2.017231   -0.762976
     16          6           0        0.268197   -0.536037   -0.712165
     17          1           0        0.265748   -1.629232   -0.752943
     18          1           0        0.208052   -0.180599   -1.746129
     19          8           0       -2.283817   -1.082750   -0.708586
     20          1           0       -3.160432   -1.115154   -0.305854
     21          8           0       -1.658684    1.372874   -0.606479
     22          1           0       -1.854472    2.018744    0.082538
 ---------------------------------------------------------------------

 SCF Done:  E(RHF) =  -762.580121718     A.U. after    2 cycles

 The electronic state is 1-A.
 Alpha  occ. eigenvalues --  -81.41009 -20.61129 -20.60779 -20.52139 -11.26043
 Alpha  occ. eigenvalues --  -11.25087 -11.22920 -11.22713 -11.21800  -7.89402
 Alpha  occ. eigenvalues --   -5.04051  -5.03956  -5.03672  -1.37258  -1.34104
 Alpha  occ. eigenvalues --   -1.25384  -1.10599  -0.96740  -0.93475  -0.92931
 Alpha  occ. eigenvalues --   -0.83075  -0.75890  -0.73822  -0.68204  -0.65864
 Alpha  occ. eigenvalues --   -0.63749  -0.62919  -0.62537  -0.60346  -0.58088
 Alpha  occ. eigenvalues --   -0.57014  -0.56045  -0.54431  -0.52664  -0.52311
 Alpha  occ. eigenvalues --   -0.51426  -0.49110  -0.48290  -0.47271  -0.46606
 Alpha  occ. eigenvalues --   -0.44287
 Alpha virt. eigenvalues --    0.03136   0.04109   0.04483   0.04931   0.05613
 Alpha virt. eigenvalues --    0.06410   0.06707   0.06957   0.07909   0.08399
 Alpha virt. eigenvalues --    0.09244   0.09345   0.09656   0.10669   0.12389

 Mulliken charges:
               1
     1  C   -4.474097
     2  P    2.489082
     3  O   -0.971981
     4  C    1.511051
     5  H   -0.042455
     6  H   -0.003303
     7  C    1.211696
     8  H   -0.055137
     9  H   -0.031845
    10  H    0.011532
    11  H   -0.042602
    12  C    1.197092
    13  H   -0.032872
    14  H   -0.077230
    15  H    0.003739
    16  C    0.779069
    17  H   -0.134013
    18  H   -0.144130
    19  O   -0.746151
    20  H    0.151265
    21  O   -0.770583
    22  H    0.171872
 Sum of Mulliken charges =   0.00000

 Dipole moment (field-independent basis, Debye):
    X=              0.3742    Y=              0.5056    Z=             -1.6324  Tot=              1.7494

 Test job not archived.
 1\1\GINC-SE341\SP\RHF\Aug-CC-pVDZ\C5H13O3P1\OHZDE\08-Apr-2025\0\\#t hf
  aug-cc-pvdz iop(5/13=1,5/36=2,99/5=2) pseudo=read geom=check guess=(r
 ead,tcheck) scf=(maxcycle=1)\\title\\0,1\C,0,1.581221,-0.041178,-0.044
 095\P,0,-1.300501,-0.062169,0.053396\O,0,-1.427989,-0.038677,1.5211\C,
 0,2.739819,-0.405133,-0.9931\H,0,2.643528,0.109053,-1.954435\H,0,2.769
 474,-1.481564,-1.187623\C,0,1.787046,-0.7517,1.30724\H,0,1.856652,-1.8
 35685,1.170742\H,0,0.960577,-0.548748,1.99011\H,0,2.716975,-0.415058,1
 .775101\H,0,3.699558,-0.118484,-0.553418\C,0,1.56613,1.484515,0.167517

 Normal termination of Gaussian 16 at Tue Apr  8 23:25:54 2025.
