 Gaussian 16, Revision C.01,

 ----------------------------------------------------------------------
 #t hf aug-cc-pvdz symm=none int=(grid=ultrafine) guess=(read,tcheck) s
 table=(opt,rrhf)
 ----------------------------------------------------------------------
 -----
 title
 -----
 Symbolic Z-matrix:
 Charge =  0 Multiplicity = 1

 SCF Done:  E(RHF) =  -706.730870866     A.U. after   15 cycles
 Normal termination of Gaussian 16 at Wed Apr  9 00:50:23 2025.
 Gaussian 16:  ES64L-G16RevC.01  3-Jul-2019

 ----------------------------------------------------------------------
 #t hf aug-cc-pvdz iop(5/13=1,5/36=2,99/5=2) pseudo=read geom=check gue
 ss=(read,tcheck) scf=(maxcycle=1)
 ----------------------------------------------------------------------
 -----
 title
 -----
 Structure from the checkpoint file:  "BDE49_nonexpt_940_mol1.chk"
 Charge =  0 Multiplicity = 1

                         Standard orientation:
 ---------------------------------------------------------------------
 Center     Atomic      Atomic             Coordinates (Angstroms)
 Number     Number       Type             X           Y           Z
 ---------------------------------------------------------------------
      1         17           0       -0.810837   -2.051651   -0.000000
      2          7           0        0.401361   -0.672380   -0.000000
      3          6           0        0.294731    0.064338    1.198988
      4          6           0        0.294731    1.398575    1.236556
      5          6           0        0.326747    2.251117    0.000000
      6          6           0        0.294731    1.398575   -1.236556
      7          6           0        0.294731    0.064338   -1.198988
      8          1           0        0.291112   -0.547094    2.091480
      9          1           0        0.322775    1.885941    2.204753
     10          1           0        0.322775    1.885941   -2.204753
     11          1           0        0.291112   -0.547094   -2.091480
     12          1           0        1.226685    2.884488    0.000000
     13          1           0       -0.513771    2.960893    0.000000
 ---------------------------------------------------------------------

 SCF Done:  E(RHF) =  -706.822761896     A.U. after    2 cycles

 The electronic state is 1-A'.
 Alpha  occ. eigenvalues -- -103.68024 -15.71227 -11.28846 -11.28838 -11.25901
 Alpha  occ. eigenvalues --  -11.25373 -11.25368 -10.70957  -8.36683  -8.36348
 Alpha  occ. eigenvalues --   -8.36312  -1.26436  -1.12617  -1.04508  -1.04220
 Alpha  occ. eigenvalues --   -0.89352  -0.84802  -0.72167  -0.66906  -0.66014
 Alpha  occ. eigenvalues --   -0.61501  -0.61341  -0.58303  -0.56608  -0.52519
 Alpha  occ. eigenvalues --   -0.49860  -0.47719  -0.44608  -0.38634  -0.31980
 Alpha virt. eigenvalues --    0.03090   0.03901   0.04868   0.05352   0.06007
 Alpha virt. eigenvalues --    0.06590   0.07283   0.10476   0.10948   0.11444
 Alpha virt. eigenvalues --    0.12477   0.12979   0.13729   0.14880   0.15170

 Mulliken charges:
               1
     1  Cl   0.057714
     2  N   -0.830843
     3  C    0.798877
     4  C    0.392222
     5  C   -0.186307
     6  C    0.392222
     7  C    0.798877
     8  H   -0.377539
     9  H   -0.373361
    10  H   -0.373361
    11  H   -0.377539
    12  H    0.042974
    13  H    0.036066
 Sum of Mulliken charges =  -0.00000

 Dipole moment (field-independent basis, Debye):
    X=              0.4397    Y=              2.4074    Z=              0.0000  Tot=              2.4473

 Test job not archived.
 1\1\GINC-SE229\SP\RHF\Aug-CC-pVDZ\C5H6Cl1N1\OHZDE\09-Apr-2025\0\\#t hf
  aug-cc-pvdz iop(5/13=1,5/36=2,99/5=2) pseudo=read geom=check guess=(r
 ead,tcheck) scf=(maxcycle=1)\\title\\0,1\Cl,0,-0.810837,-2.051651,0.\N
 ,0,0.401361,-0.67238,0.\C,0,0.294731,0.064338,1.198988\C,0,0.294731,1.
 398575,1.236556\C,0,0.326747,2.251117,0.\C,0,0.294731,1.398575,-1.2365
 56\C,0,0.294731,0.064338,-1.198988\H,0,0.291112,-0.547094,2.09148\H,0,
 0.322775,1.885941,2.204753\H,0,0.322775,1.885941,-2.204753\H,0,0.29111
 2,-0.547094,-2.09148\H,0,1.226685,2.884488,0.\H,0,-0.513771,2.960893,0

 Normal termination of Gaussian 16 at Wed Apr  9 00:50:28 2025.
