 Gaussian 16, Revision C.01,

 ----------------------------------------------------------------------
 #t hf aug-cc-pvdz symm=none int=(grid=ultrafine) guess=(read,tcheck) s
 table=(opt,rrhf)
 ----------------------------------------------------------------------
 -----
 title
 -----
 Symbolic Z-matrix:
 Charge =  0 Multiplicity = 1

 SCF Done:  E(RHF) =  -1336.24136855     A.U. after   13 cycles
 Normal termination of Gaussian 16 at Wed Apr  9 00:49:14 2025.
 Gaussian 16:  ES64L-G16RevC.01  3-Jul-2019

 ----------------------------------------------------------------------
 #t hf aug-cc-pvdz iop(5/13=1,5/36=2,99/5=2) pseudo=read geom=check gue
 ss=(read,tcheck) scf=(maxcycle=1)
 ----------------------------------------------------------------------
 -----
 title
 -----
 Structure from the checkpoint file:  "BDE49_nonexpt_910_mol1.chk"
 Charge =  0 Multiplicity = 1

                         Standard orientation:
 ---------------------------------------------------------------------
 Center     Atomic      Atomic             Coordinates (Angstroms)
 Number     Number       Type             X           Y           Z
 ---------------------------------------------------------------------
      1          6           0       -1.636243   -0.553467   -0.621425
      2         16           0        0.003507   -1.330938   -0.281164
      3          5           0        1.169696    0.027830   -0.054387
      4         16           0        0.665195    1.772666   -0.223698
      5         16           0        2.909284   -0.351157    0.339692
      6          6           0       -2.428819   -0.200453    0.638101
      7          1           0       -2.168670   -1.299433   -1.216277
      8          1           0       -1.481396    0.318429   -1.259971
      9          6           0       -3.807207    0.379437    0.301278
     10          1           0       -1.860424    0.516821    1.236759
     11          1           0       -2.541021   -1.098783    1.252839
     12          1           0       -3.719879    1.298336   -0.285996
     13          1           0       -4.360618    0.619473    1.212516
     14          1           0       -4.408606   -0.329786   -0.275640
     15          1           0        1.871699    2.326087   -0.010241
     16          1           0        2.806268   -1.692544    0.352951
 ---------------------------------------------------------------------

 SCF Done:  E(RHF) =  -1336.34084888     A.U. after    2 cycles

 The electronic state is 1-A.
 Alpha  occ. eigenvalues --  -93.54607 -93.54269 -93.53472 -11.27987 -11.24437
 Alpha  occ. eigenvalues --  -11.23434  -8.84568  -8.84218  -8.83433  -7.69571
 Alpha  occ. eigenvalues --   -6.18763  -6.18517  -6.18408  -6.18250  -6.18159
 Alpha  occ. eigenvalues --   -6.17905  -6.17605  -6.17359  -6.17144  -1.08151
 Alpha  occ. eigenvalues --   -1.01388  -0.97563  -0.95113  -0.88011  -0.81218
 Alpha  occ. eigenvalues --   -0.66670  -0.63607  -0.59808  -0.59000  -0.57273
 Alpha  occ. eigenvalues --   -0.55681  -0.52145  -0.50336  -0.49268  -0.47135
 Alpha  occ. eigenvalues --   -0.44579  -0.44436  -0.42478  -0.37303  -0.35737
 Alpha virt. eigenvalues --    0.03557   0.04372   0.04691   0.04891   0.05905
 Alpha virt. eigenvalues --    0.06495   0.06978   0.07493   0.07540   0.08834
 Alpha virt. eigenvalues --    0.09073   0.09467   0.10288   0.11146   0.12122

 Mulliken charges:
               1
     1  C   -0.061159
     2  S    0.195990
     3  B    0.672017
     4  S   -0.180115
     5  S   -0.295828
     6  C    0.040683
     7  H   -0.092439
     8  H   -0.208780
     9  C    0.393865
    10  H   -0.130712
    11  H   -0.079484
    12  H   -0.068808
    13  H   -0.072859
    14  H   -0.075527
    15  H   -0.038932
    16  H    0.002086
 Sum of Mulliken charges =  -0.00000

 Dipole moment (field-independent basis, Debye):
    X=             -1.4457    Y=              0.1382    Z=             -0.0372  Tot=              1.4527

 Test job not archived.
 1\1\GINC-SE044\SP\RHF\Aug-CC-pVDZ\C3H9B1S3\OHZDE\09-Apr-2025\0\\#t hf
 aug-cc-pvdz iop(5/13=1,5/36=2,99/5=2) pseudo=read geom=check guess=(re
 ad,tcheck) scf=(maxcycle=1)\\title\\0,1\C,0,-1.636243,-0.553467,-0.621
 425\S,0,0.003507,-1.330938,-0.281164\B,0,1.169696,0.02783,-0.054387\S,
 0,0.665195,1.772666,-0.223698\S,0,2.909284,-0.351157,0.339692\C,0,-2.4
 28819,-0.200453,0.638101\H,0,-2.16867,-1.299433,-1.216277\H,0,-1.48139
 6,0.318429,-1.259971\C,0,-3.807207,0.379437,0.301278\H,0,-1.860424,0.5
 16821,1.236759\H,0,-2.541021,-1.098783,1.252839\H,0,-3.719879,1.298336

 Normal termination of Gaussian 16 at Wed Apr  9 00:49:21 2025.
