 Gaussian 16, Revision C.01,

 ----------------------------------------------------------------------
 #t hf aug-cc-pvdz symm=none int=(grid=ultrafine) guess=(read,tcheck) s
 table=(opt,rrhf)
 ----------------------------------------------------------------------
 -----
 title
 -----
 Symbolic Z-matrix:
 Charge =  0 Multiplicity = 1

 SCF Done:  E(RHF) =  -292.221083695     A.U. after   12 cycles
 Normal termination of Gaussian 16 at Wed Apr  9 00:27:55 2025.
 Gaussian 16:  ES64L-G16RevC.01  3-Jul-2019

 ----------------------------------------------------------------------
 #t hf aug-cc-pvdz iop(5/13=1,5/36=2,99/5=2) pseudo=read geom=check gue
 ss=(read,tcheck) scf=(maxcycle=1)
 ----------------------------------------------------------------------
 -----
 title
 -----
 Structure from the checkpoint file:  "BDE49_nonexpt_334_mol1.chk"
 Charge =  0 Multiplicity = 1

                         Standard orientation:
 ---------------------------------------------------------------------
 Center     Atomic      Atomic             Coordinates (Angstroms)
 Number     Number       Type             X           Y           Z
 ---------------------------------------------------------------------
      1          5           0       -0.872001   -0.046593   -0.000019
      2          8           0       -1.947900   -0.886470    0.000001
      3          8           0       -1.132056    1.305270    0.000009
      4          6           0        0.560352   -0.656846   -0.000007
      5          6           0        1.697777    0.031964    0.747008
      6          6           0        1.697786    0.031966   -0.747004
      7          1           0        2.413830   -0.597752    1.261089
      8          1           0        1.480124    0.957983    1.269720
      9          1           0        0.603554   -1.740923   -0.000008
     10          1           0        1.480139    0.957985   -1.269718
     11          1           0        2.413844   -0.597750   -1.261079
     12          1           0       -0.348363    1.859781    0.000018
     13          1           0       -2.778960   -0.399270    0.000012
 ---------------------------------------------------------------------

 SCF Done:  E(RHF) =  -292.319041670     A.U. after    2 cycles

 The electronic state is 1-A.
 Alpha  occ. eigenvalues --  -20.58104 -20.57183 -11.24734 -11.24670 -11.22090
 Alpha  occ. eigenvalues --   -7.65096  -1.34036  -1.30161  -1.12761  -0.83712
 Alpha  occ. eigenvalues --   -0.82797  -0.77135  -0.73472  -0.68920  -0.63157
 Alpha  occ. eigenvalues --   -0.59676  -0.58743  -0.57589  -0.52685  -0.51486
 Alpha  occ. eigenvalues --   -0.48677  -0.42932  -0.42380
 Alpha virt. eigenvalues --    0.03088   0.04475   0.04777   0.04815   0.06645
 Alpha virt. eigenvalues --    0.06877   0.07361   0.07585   0.09004   0.09995
 Alpha virt. eigenvalues --    0.10258   0.12904   0.13112   0.15007   0.15450

 Mulliken charges:
               1
     1  B    0.713182
     2  O   -0.525759
     3  O   -0.546700
     4  C    0.509624
     5  C    0.670746
     6  C    0.670755
     7  H   -0.305616
     8  H   -0.386231
     9  H   -0.519263
    10  H   -0.386231
    11  H   -0.305615
    12  H    0.217613
    13  H    0.193495
 Sum of Mulliken charges =  -0.00000

 Dipole moment (field-independent basis, Debye):
    X=              1.3043    Y=              1.1448    Z=             -0.0000  Tot=              1.7354

 Test job not archived.
 1\1\GINC-SE179\SP\RHF\Aug-CC-pVDZ\C3H7B1O2\OHZDE\09-Apr-2025\0\\#t hf
 aug-cc-pvdz iop(5/13=1,5/36=2,99/5=2) pseudo=read geom=check guess=(re
 ad,tcheck) scf=(maxcycle=1)\\title\\0,1\B,0,-0.872001,-0.046593,-0.000
 019\O,0,-1.9479,-0.88647,0.000001\O,0,-1.132056,1.30527,0.000009\C,0,0
 .560352,-0.656846,-0.000007\C,0,1.697777,0.031964,0.747008\C,0,1.69778
 6,0.031966,-0.747004\H,0,2.41383,-0.597752,1.261089\H,0,1.480124,0.957
 983,1.26972\H,0,0.603554,-1.740923,-0.000008\H,0,1.480139,0.957985,-1.
 269718\H,0,2.413844,-0.59775,-1.261079\H,0,-0.348363,1.859781,0.000018

 Normal termination of Gaussian 16 at Wed Apr  9 00:27:59 2025.
