 Gaussian 16, Revision C.01,

 ----------------------------------------------------------------------
 #t hf aug-cc-pvdz symm=none int=(grid=ultrafine) guess=(read,tcheck) s
 table=(opt,rrhf)
 ----------------------------------------------------------------------
 -----
 title
 -----
 Symbolic Z-matrix:
 Charge =  0 Multiplicity = 1

 SCF Done:  E(RHF) =  -682.075730459     A.U. after   15 cycles
 Normal termination of Gaussian 16 at Tue Apr  8 23:37:14 2025.
 Gaussian 16:  ES64L-G16RevC.01  3-Jul-2019

 ----------------------------------------------------------------------
 #t hf aug-cc-pvdz iop(5/13=1,5/36=2,99/5=2) pseudo=read geom=check gue
 ss=(read,tcheck) scf=(maxcycle=1)
 ----------------------------------------------------------------------
 -----
 title
 -----
 Structure from the checkpoint file:  "BDE49_nonexpt_1553_mol1.chk"
 Charge =  0 Multiplicity = 1

                         Standard orientation:
 ---------------------------------------------------------------------
 Center     Atomic      Atomic             Coordinates (Angstroms)
 Number     Number       Type             X           Y           Z
 ---------------------------------------------------------------------
      1          7           0       -1.239410    0.384276    0.000006
      2          6           0        0.156660    0.153787   -0.000003
      3          6           0        1.060860    1.229210   -0.000028
      4          6           0        0.672215   -1.152072    0.000010
      5          6           0        2.047725   -1.368729   -0.000003
      6          6           0        2.940090   -0.301921   -0.000029
      7          6           0        2.430650    0.995372   -0.000041
      8          1           0        4.009497   -0.476371   -0.000038
      9          1           0        3.107063    1.843471   -0.000061
     10          1           0        0.669433    2.235301   -0.000037
     11          1           0        0.007757   -2.004524    0.000032
     12          1           0        2.417809   -2.388250    0.000008
     13          7           0       -1.642643    1.745946    0.000024
     14         15           0       -2.492653   -0.799018    0.000020
     15          1           0       -2.201433    1.940705    0.824657
     16          1           0       -2.201481    1.940711   -0.824574
     17          1           0       -2.046838   -1.675597    1.030102
     18          1           0       -2.046832   -1.675615   -1.030042
 ---------------------------------------------------------------------

 SCF Done:  E(RHF) =  -682.202134608     A.U. after    2 cycles

 The electronic state is 1-A.
 Alpha  occ. eigenvalues --  -81.28941 -15.66662 -15.65756 -11.29033 -11.24227
 Alpha  occ. eigenvalues --  -11.24044 -11.23337 -11.22841 -11.22742  -7.78961
 Alpha  occ. eigenvalues --   -4.93154  -4.92795  -4.92665  -1.26057  -1.13719
 Alpha  occ. eigenvalues --   -1.05507  -1.00374  -0.96082  -0.84631  -0.81555
 Alpha  occ. eigenvalues --   -0.76992  -0.70685  -0.69465  -0.65937  -0.64060
 Alpha  occ. eigenvalues --   -0.60871  -0.58859  -0.58443  -0.55431  -0.50995
 Alpha  occ. eigenvalues --   -0.50398  -0.49132  -0.42630  -0.42288  -0.37209
 Alpha  occ. eigenvalues --   -0.33618  -0.29450
 Alpha virt. eigenvalues --    0.03230   0.03856   0.04167   0.05011   0.05607
 Alpha virt. eigenvalues --    0.05956   0.07800   0.07926   0.08026   0.09092
 Alpha virt. eigenvalues --    0.11262   0.11721   0.12041   0.12405   0.13145

 Mulliken charges:
               1
     1  N   -1.021211
     2  C    1.055813
     3  C    0.219681
     4  C    0.316876
     5  C    0.555430
     6  C    0.537199
     7  C    0.682620
     8  H   -0.457238
     9  H   -0.440884
    10  H   -0.609731
    11  H   -0.717060
    12  H   -0.436846
    13  N   -0.285536
    14  P    0.250746
    15  H    0.110416
    16  H    0.110417
    17  H    0.064654
    18  H    0.064653
 Sum of Mulliken charges =  -0.00000

 Dipole moment (field-independent basis, Debye):
    X=             -1.3573    Y=              0.0486    Z=              0.0001  Tot=              1.3582

 Test job not archived.
 1\1\GINC-SE361\SP\RHF\Aug-CC-pVDZ\C6H9N2P1\OHZDE\08-Apr-2025\0\\#t hf
 aug-cc-pvdz iop(5/13=1,5/36=2,99/5=2) pseudo=read geom=check guess=(re
 ad,tcheck) scf=(maxcycle=1)\\title\\0,1\N,0,-1.23941,0.384276,0.000006
 \C,0,0.15666,0.153787,-0.000003\C,0,1.06086,1.22921,-0.000028\C,0,0.67
 2215,-1.152072,0.00001\C,0,2.047725,-1.368729,-0.000003\C,0,2.94009,-0
 .301921,-0.000029\C,0,2.43065,0.995372,-0.000041\H,0,4.009497,-0.47637
 1,-0.000038\H,0,3.107063,1.843471,-0.000061\H,0,0.669433,2.235301,-0.0
 00037\H,0,0.007757,-2.004524,0.000032\H,0,2.417809,-2.38825,0.000008\N

 Normal termination of Gaussian 16 at Tue Apr  8 23:37:23 2025.
