 Gaussian 16, Revision C.01,

 ----------------------------------------------------------------------
 #t hf aug-cc-pvdz symm=none int=(grid=ultrafine) guess=(read,tcheck) s
 table=(opt,rrhf)
 ----------------------------------------------------------------------
 -----
 title
 -----
 Symbolic Z-matrix:
 Charge =  0 Multiplicity = 1

 SCF Done:  E(RHF) =  -603.514924715     A.U. after   13 cycles
 Normal termination of Gaussian 16 at Wed Apr  9 00:50:34 2025.
 Gaussian 16:  ES64L-G16RevC.01  3-Jul-2019

 ----------------------------------------------------------------------
 #t hf aug-cc-pvdz iop(5/13=1,5/36=2,99/5=2) pseudo=read geom=check gue
 ss=(read,tcheck) scf=(maxcycle=1)
 ----------------------------------------------------------------------
 -----
 title
 -----
 Structure from the checkpoint file:  "BDE49_nonexpt_948_mol1.chk"
 Charge =  0 Multiplicity = 1

                         Standard orientation:
 ---------------------------------------------------------------------
 Center     Atomic      Atomic             Coordinates (Angstroms)
 Number     Number       Type             X           Y           Z
 ---------------------------------------------------------------------
      1          9           0        3.905588    0.274949    0.000022
      2          7           0        0.436782    0.448850   -0.000020
      3          7           0        1.969406   -1.395109   -0.000025
      4          1           0        2.912385   -1.741365    0.000056
      5          1           0        1.171977   -2.010625    0.000039
      6          7           0        2.628810    0.889869    0.000004
      7          6           0        1.753776   -0.071394   -0.000009
      8          9           0       -3.905588   -0.274949    0.000012
      9          7           0       -0.436782   -0.448850   -0.000005
     10          7           0       -1.969406    1.395109   -0.000010
     11          1           0       -2.912385    1.741365   -0.000014
     12          1           0       -1.171977    2.010625   -0.000025
     13          7           0       -2.628810   -0.889869    0.000012
     14          6           0       -1.753776    0.071394   -0.000001
 ---------------------------------------------------------------------

 SCF Done:  E(RHF) =  -603.699720611     A.U. after    2 cycles

 The electronic state is 1-A.
 Alpha  occ. eigenvalues --  -26.13996 -26.13996 -15.77101 -15.76983 -15.73143
 Alpha  occ. eigenvalues --  -15.73143 -15.68499 -15.68499 -11.40657 -11.40656
 Alpha  occ. eigenvalues --   -1.65947  -1.65814  -1.42059  -1.29900  -1.24279
 Alpha  occ. eigenvalues --   -1.16774  -1.15736  -1.02849  -0.86574  -0.81574
 Alpha  occ. eigenvalues --   -0.81262  -0.79949  -0.78411  -0.74830  -0.74608
 Alpha  occ. eigenvalues --   -0.73604  -0.71587  -0.71391  -0.66773  -0.65594
 Alpha  occ. eigenvalues --   -0.65028  -0.57989  -0.52020  -0.51942  -0.50280
 Alpha  occ. eigenvalues --   -0.47495  -0.40974  -0.39531
 Alpha virt. eigenvalues --    0.01163   0.02389   0.03220   0.05572   0.06186
 Alpha virt. eigenvalues --    0.06281   0.10283   0.10842   0.11253   0.12065
 Alpha virt. eigenvalues --    0.12398   0.14573   0.15187   0.15864   0.16227

 Mulliken charges:
               1
     1  F   -0.482225
     2  N   -0.420111
     3  N   -0.060979
     4  H    0.020430
     5  H    0.051231
     6  N   -0.193772
     7  C    1.085426
     8  F   -0.482225
     9  N   -0.420111
    10  N   -0.060979
    11  H    0.020430
    12  H    0.051231
    13  N   -0.193772
    14  C    1.085426
 Sum of Mulliken charges =  -0.00000

 Dipole moment (field-independent basis, Debye):
    X=              0.0000    Y=              0.0000    Z=              0.0001  Tot=              0.0001

 Test job not archived.
 1\1\GINC-SE396\SP\RHF\Aug-CC-pVDZ\C2H4F2N6\OHZDE\09-Apr-2025\0\\#t hf
 aug-cc-pvdz iop(5/13=1,5/36=2,99/5=2) pseudo=read geom=check guess=(re
 ad,tcheck) scf=(maxcycle=1)\\title\\0,1\F,0,3.905588,0.274949,0.000022
 \N,0,0.436782,0.44885,-0.00002\N,0,1.969406,-1.395109,-0.000025\H,0,2.
 912385,-1.741365,0.000056\H,0,1.171977,-2.010625,0.000039\N,0,2.62881,
 0.889869,0.000004\C,0,1.753776,-0.071394,-0.000009\F,0,-3.905588,-0.27
 4949,0.000012\N,0,-0.436782,-0.44885,-0.000005\N,0,-1.969406,1.395109,
 -0.00001\H,0,-2.912385,1.741365,-0.000014\H,0,-1.171977,2.010625,-0.00

 Normal termination of Gaussian 16 at Wed Apr  9 00:50:39 2025.
