 Gaussian 16, Revision C.01,

 ----------------------------------------------------------------------
 #t hf aug-cc-pvdz symm=none int=(grid=ultrafine) guess=(read,tcheck) s
 table=(opt,rrhf)
 ----------------------------------------------------------------------
 -----
 title
 -----
 Symbolic Z-matrix:
 Charge =  0 Multiplicity = 1

 SCF Done:  E(RHF) =  -1913.76214491     A.U. after   14 cycles
 Normal termination of Gaussian 16 at Tue Apr  8 23:47:27 2025.
 Gaussian 16:  ES64L-G16RevC.01  3-Jul-2019

 ----------------------------------------------------------------------
 #t hf aug-cc-pvdz iop(5/13=1,5/36=2,99/5=2) pseudo=read geom=check gue
 ss=(read,tcheck) scf=(maxcycle=1)
 ----------------------------------------------------------------------
 -----
 title
 -----
 Structure from the checkpoint file:  "BDE49_nonexpt_1793_mol1.chk"
 Charge =  0 Multiplicity = 1

                         Standard orientation:
 ---------------------------------------------------------------------
 Center     Atomic      Atomic             Coordinates (Angstroms)
 Number     Number       Type             X           Y           Z
 ---------------------------------------------------------------------
      1          6           0       -3.044733    1.140257   -0.001743
      2          6           0       -1.652916    1.196322   -0.024524
      3          7           0       -3.739990   -0.000000    0.009725
      4          6           0       -3.044732   -1.140257   -0.001743
      5          6           0       -1.652915   -1.196321   -0.024524
      6          6           0       -0.925559    0.000001   -0.035956
      7          1           0       -3.627424    2.057018    0.004777
      8          1           0       -1.156618    2.159399   -0.040251
      9          1           0       -3.627423   -2.057018    0.004777
     10          1           0       -1.156617   -2.159398   -0.040251
     11         14           0        0.934440    0.000000   -0.007054
     12         17           0        1.674092   -1.674336   -0.947154
     13         17           0        1.627755   -0.000013    1.931496
     14         17           0        1.674093    1.674348   -0.947132
 ---------------------------------------------------------------------

 SCF Done:  E(RHF) =  -1913.91379928     A.U. after    2 cycles

 The electronic state is 1-A.
 Alpha  occ. eigenvalues -- -103.68220-103.68220-103.67876 -69.21619 -15.65346
 Alpha  occ. eigenvalues --  -11.30310 -11.30297 -11.28515 -11.27768 -11.27760
 Alpha  occ. eigenvalues --  -10.71678 -10.71669 -10.71318  -8.37370  -8.37366
 Alpha  occ. eigenvalues --   -8.37133  -8.37131  -8.37125  -8.37125  -8.37015
 Alpha  occ. eigenvalues --   -8.36774  -8.36772  -6.95557  -4.06391  -4.06354
 Alpha  occ. eigenvalues --   -4.06234  -1.25056  -1.18997  -1.15716  -1.15401
 Alpha  occ. eigenvalues --   -1.09561  -1.04810  -0.87742  -0.87523  -0.75371
 Alpha  occ. eigenvalues --   -0.69373  -0.68959  -0.66918  -0.62143  -0.59519
 Alpha  occ. eigenvalues --   -0.58998  -0.57598  -0.56010  -0.54132  -0.52038
 Alpha  occ. eigenvalues --   -0.52005  -0.49531  -0.49458  -0.49331  -0.48052
 Alpha  occ. eigenvalues --   -0.42853  -0.40630  -0.36769
 Alpha virt. eigenvalues --    0.03189   0.03680   0.04791   0.05033   0.05805
 Alpha virt. eigenvalues --    0.06147   0.06610   0.08459   0.08518   0.08771
 Alpha virt. eigenvalues --    0.09992   0.10749   0.11338   0.11593   0.13431

 Mulliken charges:
               1
     1  C    0.378004
     2  C    1.103417
     3  N   -0.386346
     4  C    0.378007
     5  C    1.103414
     6  C   -0.984536
     7  H   -0.324887
     8  H   -0.576400
     9  H   -0.324887
    10  H   -0.576403
    11  Si   1.644506
    12  Cl  -0.467535
    13  Cl  -0.498820
    14  Cl  -0.467535
 Sum of Mulliken charges =  -0.00000

 Dipole moment (field-independent basis, Debye):
    X=             -0.3955    Y=              0.0000    Z=             -0.1080  Tot=              0.4100

 Test job not archived.
 1\1\GINC-SE060\SP\RHF\Aug-CC-pVDZ\C5H4Cl3N1Si1\OHZDE\08-Apr-2025\0\\#t
  hf aug-cc-pvdz iop(5/13=1,5/36=2,99/5=2) pseudo=read geom=check guess
 =(read,tcheck) scf=(maxcycle=1)\\title\\0,1\C,0,-3.044733,1.140257,-0.
 001743\C,0,-1.652916,1.196322,-0.024524\N,0,-3.73999,0.,0.009725\C,0,-
 3.044732,-1.140257,-0.001743\C,0,-1.652915,-1.196321,-0.024524\C,0,-0.
 925559,0.000001,-0.035956\H,0,-3.627424,2.057018,0.004777\H,0,-1.15661
 8,2.159399,-0.040251\H,0,-3.627423,-2.057018,0.004777\H,0,-1.156617,-2
 .159398,-0.040251\Si,0,0.93444,0.,-0.007054\Cl,0,1.674092,-1.674336,-0

 Normal termination of Gaussian 16 at Tue Apr  8 23:47:36 2025.
