 Gaussian 16, Revision C.01,

 ----------------------------------------------------------------------
 #t hf aug-cc-pvdz symm=none int=(grid=ultrafine) guess=(read,tcheck) s
 table=(opt,rrhf)
 ----------------------------------------------------------------------
 -----
 title
 -----
 Symbolic Z-matrix:
 Charge =  0 Multiplicity = 1

 SCF Done:  E(RHF) =  -1694.73561993     A.U. after   13 cycles
 Normal termination of Gaussian 16 at Wed Apr  9 00:47:32 2025.
 Gaussian 16:  ES64L-G16RevC.01  3-Jul-2019

 ----------------------------------------------------------------------
 #t hf aug-cc-pvdz iop(5/13=1,5/36=2,99/5=2) pseudo=read geom=check gue
 ss=(read,tcheck) scf=(maxcycle=1)
 ----------------------------------------------------------------------
 -----
 title
 -----
 Structure from the checkpoint file:  "BDE49_nonexpt_878_mol1.chk"
 Charge =  0 Multiplicity = 1

                         Standard orientation:
 ---------------------------------------------------------------------
 Center     Atomic      Atomic             Coordinates (Angstroms)
 Number     Number       Type             X           Y           Z
 ---------------------------------------------------------------------
      1         16           0       -0.009374   -1.280522   -0.225903
      2          5           0        1.265059    0.027409   -0.073115
      3         16           0        1.084148    1.765825   -0.520152
      4         16           0        2.888269   -0.500550    0.564051
      5         16           0       -1.757704   -0.382922   -0.969790
      6          6           0       -2.790253   -0.191286    0.544596
      7          6           0       -2.327588    0.871703    1.531004
      8          1           0       -2.870212   -1.173599    1.012663
      9          1           0       -3.772390    0.052154    0.126081
     10          1           0       -1.330976    0.648091    1.916539
     11          1           0       -3.013806    0.909863    2.382731
     12          1           0       -2.302139    1.861123    1.069930
     13          1           0        2.579559   -1.793184    0.777090
     14          1           0       -0.193705    1.646716   -0.944371
 ---------------------------------------------------------------------

 SCF Done:  E(RHF) =  -1694.84233155     A.U. after    2 cycles

 The electronic state is 1-A.
 Alpha  occ. eigenvalues --  -93.57170 -93.56616 -93.54735 -93.54270 -11.29042
 Alpha  occ. eigenvalues --  -11.24678  -8.86697  -8.86361  -8.84676  -8.84270
 Alpha  occ. eigenvalues --   -7.70250  -6.20823  -6.20555  -6.20500  -6.20276
 Alpha  occ. eigenvalues --   -6.20204  -6.19987  -6.18856  -6.18611  -6.18438
 Alpha  occ. eigenvalues --   -6.18354  -6.18229  -6.17968  -1.08464  -1.02321
 Alpha  occ. eigenvalues --   -0.98139  -0.95559  -0.90008  -0.80502  -0.65538
 Alpha  occ. eigenvalues --   -0.64540  -0.61007  -0.57479  -0.56319  -0.53302
 Alpha  occ. eigenvalues --   -0.52604  -0.51327  -0.48678  -0.45406  -0.44575
 Alpha  occ. eigenvalues --   -0.43077  -0.37704  -0.37233  -0.36228
 Alpha virt. eigenvalues --    0.03240   0.04323   0.04911   0.05037   0.06271
 Alpha virt. eigenvalues --    0.06521   0.06703   0.07720   0.08539   0.08735
 Alpha virt. eigenvalues --    0.09645   0.10148   0.10363   0.11548   0.11871

 Mulliken charges:
               1
     1  S   -0.254347
     2  B    0.788348
     3  S   -0.209176
     4  S   -0.311106
     5  S    0.004099
     6  C   -0.130460
     7  C    0.321416
     8  H   -0.048327
     9  H   -0.019527
    10  H   -0.066215
    11  H   -0.081926
    12  H   -0.077054
    13  H   -0.000941
    14  H    0.085215
 Sum of Mulliken charges =  -0.00000

 Dipole moment (field-independent basis, Debye):
    X=             -2.5764    Y=             -0.1626    Z=              1.3101  Tot=              2.8950

 Test job not archived.
 1\1\GINC-SE462\SP\RHF\Aug-CC-pVDZ\C2H7B1S4\OHZDE\09-Apr-2025\0\\#t hf
 aug-cc-pvdz iop(5/13=1,5/36=2,99/5=2) pseudo=read geom=check guess=(re
 ad,tcheck) scf=(maxcycle=1)\\title\\0,1\S,0,-0.009374,-1.280522,-0.225
 903\B,0,1.265059,0.027409,-0.073115\S,0,1.084148,1.765825,-0.520152\S,
 0,2.888269,-0.50055,0.564051\S,0,-1.757704,-0.382922,-0.96979\C,0,-2.7
 90253,-0.191286,0.544596\C,0,-2.327588,0.871703,1.531004\H,0,-2.870212
 ,-1.173599,1.012663\H,0,-3.77239,0.052154,0.126081\H,0,-1.330976,0.648
 091,1.916539\H,0,-3.013806,0.909863,2.382731\H,0,-2.302139,1.861123,1.

 Normal termination of Gaussian 16 at Wed Apr  9 00:47:37 2025.
