 Gaussian 16, Revision C.01,

 ----------------------------------------------------------------------
 #t hf aug-cc-pvdz symm=none int=(grid=ultrafine) guess=(read,tcheck) s
 table=(opt,rrhf)
 ----------------------------------------------------------------------
 -----
 title
 -----
 Symbolic Z-matrix:
 Charge =  0 Multiplicity = 1

 SCF Done:  E(RHF) =  -764.523791898     A.U. after   15 cycles
 Normal termination of Gaussian 16 at Tue Apr  8 23:09:12 2025.
 Gaussian 16:  ES64L-G16RevC.01  3-Jul-2019

 ----------------------------------------------------------------------
 #t hf aug-cc-pvdz iop(5/13=1,5/36=2,99/5=2) pseudo=read geom=check gue
 ss=(read,tcheck) scf=(maxcycle=1)
 ----------------------------------------------------------------------
 -----
 title
 -----
 Structure from the checkpoint file:  "BDE49_expt_725_mol1.chk"
 Charge =  0 Multiplicity = 1

                         Standard orientation:
 ---------------------------------------------------------------------
 Center     Atomic      Atomic             Coordinates (Angstroms)
 Number     Number       Type             X           Y           Z
 ---------------------------------------------------------------------
      1          6           0        1.379098    0.641606    0.000000
      2          6           0       -0.000000    0.835057   -0.000000
      3          6           0       -0.893790   -0.225767   -0.000000
      4          6           0        1.859324   -0.664445    0.000000
      5          6           0        0.988301   -1.750588    0.000000
      6          6           0       -0.390645   -1.528950    0.000000
      7          1           0        2.929042   -0.838764    0.000000
      8          1           0        1.376490   -2.764344    0.000000
      9          8           0       -1.303389   -2.541708    0.000000
     10          1           0       -0.842511   -3.387053    0.000000
     11          1           0       -1.962989   -0.064243   -0.000000
     12         17           0       -0.633971    2.473983   -0.000000
     13          1           0        2.050851    1.488882    0.000000
 ---------------------------------------------------------------------

 SCF Done:  E(RHF) =  -764.634041708     A.U. after    2 cycles

 The electronic state is 1-A'.
 Alpha  occ. eigenvalues -- -103.66745 -20.61890 -11.33246 -11.32185 -11.26918
 Alpha  occ. eigenvalues --  -11.25705 -11.25560 -11.25433 -10.70016  -8.35751
 Alpha  occ. eigenvalues --   -8.35445  -8.35429  -1.38282  -1.19931  -1.13317
 Alpha  occ. eigenvalues --   -1.02821  -1.00588  -0.85730  -0.85159  -0.74344
 Alpha  occ. eigenvalues --   -0.70915  -0.68224  -0.63018  -0.62147  -0.60284
 Alpha  occ. eigenvalues --   -0.60231  -0.54472  -0.54109  -0.51871  -0.47142
 Alpha  occ. eigenvalues --   -0.46983  -0.35415  -0.33509
 Alpha virt. eigenvalues --    0.02753   0.03889   0.04811   0.05759   0.06769
 Alpha virt. eigenvalues --    0.08875   0.09517   0.10516   0.11028   0.11391
 Alpha virt. eigenvalues --    0.12847   0.13450   0.13906   0.14039   0.14154

 Mulliken charges:
               1
     1  C    0.448685
     2  C   -0.121020
     3  C    0.665689
     4  C    0.602039
     5  C    0.413989
     6  C    0.604620
     7  H   -0.417399
     8  H   -0.564962
     9  O   -0.580047
    10  H    0.139536
    11  H   -0.390832
    12  Cl  -0.377004
    13  H   -0.423294
 Sum of Mulliken charges =   0.00000

 Dipole moment (field-independent basis, Debye):
    X=              2.0061    Y=             -2.6489    Z=              0.0000  Tot=              3.3228

 Test job not archived.
 1\1\GINC-SE423\SP\RHF\Aug-CC-pVDZ\C6H5Cl1O1\OHZDE\08-Apr-2025\0\\#t hf
  aug-cc-pvdz iop(5/13=1,5/36=2,99/5=2) pseudo=read geom=check guess=(r
 ead,tcheck) scf=(maxcycle=1)\\title\\0,1\C,0,-0.559234,1.414506,0.\C,0
 ,-0.833606,0.049202,0.\C,0,0.172712,-0.905539,0.\C,0,0.772843,1.816944
 ,0.\C,0,1.805778,0.883439,0.\C,0,1.503277,-0.480053,0.\H,0,1.009887,2.
 874533,0.\H,0,2.840645,1.211222,0.\O,0,2.460496,-1.450883,0.\H,0,3.331
 527,-1.040614,0.\H,0,-0.051529,-1.963364,0.\Cl,0,-2.507039,-0.487101,0
 .\H,0,-1.365458,2.135014,0.\\Version=ES64L-G16RevC.01\State=1-A'\HF=-7

 Normal termination of Gaussian 16 at Tue Apr  8 23:09:17 2025.
