 Gaussian 16, Revision C.01,

 ----------------------------------------------------------------------
 #t hf aug-cc-pvdz symm=none int=(grid=ultrafine) guess=(read,tcheck) s
 table=opt
 ----------------------------------------------------------------------
 -----
 title
 -----
 Symbolic Z-matrix:
 Charge =  0 Multiplicity = 2

 SCF Done:  E(UHF) =  -820.918680799     A.U. after   15 cycles
 Normal termination of Gaussian 16 at Wed Apr  9 00:46:24 2025.
 Gaussian 16:  ES64L-G16RevC.01  3-Jul-2019

 ----------------------------------------------------------------------
 #t hf aug-cc-pvdz iop(5/13=1,5/36=2,99/5=2) pseudo=read geom=check gue
 ss=(read,tcheck) scf=(maxcycle=1)
 ----------------------------------------------------------------------
 -----
 title
 -----
 Structure from the checkpoint file:  "BDE49_nonexpt_862_mol3.chk"
 Charge =  0 Multiplicity = 2

                         Standard orientation:
 ---------------------------------------------------------------------
 Center     Atomic      Atomic             Coordinates (Angstroms)
 Number     Number       Type             X           Y           Z
 ---------------------------------------------------------------------
      1          5           0        0.000000   -0.000000    0.585479
      2         16           0        0.000000    1.659264   -0.007080
      3         16           0       -0.000000   -1.659264   -0.007080
      4          1           0        0.000008   -1.450711   -1.350422
      5          1           0       -0.000008    1.450711   -1.350422
 ---------------------------------------------------------------------

 SCF Done:  E(UHF) =  -820.963548748     A.U. after    2 cycles

 The electronic state is 2-A.
 Alpha  occ. eigenvalues --  -93.55819 -93.55819  -8.85777  -8.85761  -7.68988
 Alpha  occ. eigenvalues --   -6.19866  -6.19859  -6.19655  -6.19634  -6.19405
 Alpha  occ. eigenvalues --   -6.19394  -1.01096  -0.96742  -0.66895  -0.59887
 Alpha  occ. eigenvalues --   -0.53586  -0.45569  -0.44266  -0.38070  -0.34805
 Alpha virt. eigenvalues --    0.03580   0.05441   0.06121   0.06171   0.07249
 Alpha virt. eigenvalues --    0.08387   0.08615   0.10840   0.13253   0.13447
 Alpha virt. eigenvalues --    0.15372   0.16968   0.17379   0.17493   0.18961

  Beta  occ. eigenvalues --  -93.55861 -93.55861  -8.85793  -8.85777  -7.66974
  Beta  occ. eigenvalues --   -6.20032  -6.20025  -6.19721  -6.19702  -6.19493
  Beta  occ. eigenvalues --   -6.19483  -0.99832  -0.96511  -0.62163  -0.58465
  Beta  occ. eigenvalues --   -0.52423  -0.45201  -0.43772  -0.38562
  Beta virt. eigenvalues --    0.02579   0.05384   0.05562   0.06365   0.07274
  Beta virt. eigenvalues --    0.08401   0.09311   0.11269   0.12563   0.13253
  Beta virt. eigenvalues --    0.13792   0.15614   0.17493   0.17595   0.17918

 Mulliken charges and spin densities:
               1          2
     1  B    0.091563   1.105468
     2  S   -0.063619  -0.123141
     3  S   -0.063619  -0.123141
     4  H    0.017837   0.070407
     5  H    0.017837   0.070407
 Sum of Mulliken charges =  -0.00000   1.00000

 Dipole moment (field-independent basis, Debye):
    X=              0.0000    Y=             -0.0000    Z=             -1.8392  Tot=              1.8392
                          Isotropic Fermi Contact Couplings
        Atom                 a.u.       MegaHertz       Gauss      10(-4) cm-1
     1  B(11)              0.29194     418.74935     149.42018     139.67975
     2  S(33)              0.12693      43.59660      15.55635      14.54226
     3  S(33)              0.12693      43.59660      15.55635      14.54226
     4  H(1)               0.02426     108.43529      38.69241      36.17012
     5  H(1)               0.02426     108.43529      38.69241      36.17012
 --------------------------------------------------------
       Center         ----  Spin Dipole Couplings  ----
                      3XX-RR        3YY-RR        3ZZ-RR

 Normal termination of Gaussian 16 at Wed Apr  9 00:46:26 2025.
