 Gaussian 16, Revision C.01,

 ----------------------------------------------------------------------
 #t hf aug-cc-pvdz symm=none int=(grid=ultrafine) guess=(read,tcheck) s
 table=(opt,rrhf)
 ----------------------------------------------------------------------
 -----
 title
 -----
 Symbolic Z-matrix:
 Charge =  0 Multiplicity = 1

 SCF Done:  E(RHF) =  -211.153407780     A.U. after   12 cycles
 Normal termination of Gaussian 16 at Tue Apr  8 22:38:35 2025.
 Gaussian 16:  ES64L-G16RevC.01  3-Jul-2019

 ----------------------------------------------------------------------
 #t hf aug-cc-pvdz iop(5/13=1,5/36=2,99/5=2) pseudo=read geom=check gue
 ss=(read,tcheck) scf=(maxcycle=1)
 ----------------------------------------------------------------------
 -----
 title
 -----
 Structure from the checkpoint file:  "BDE49_expt_1284_mol1.chk"
 Charge =  0 Multiplicity = 1

                         Standard orientation:
 ---------------------------------------------------------------------
 Center     Atomic      Atomic             Coordinates (Angstroms)
 Number     Number       Type             X           Y           Z
 ---------------------------------------------------------------------
      1          7           0        1.890045   -0.106565   -0.107490
      2          6           0        0.535057    0.000338    0.396255
      3          1           0        1.898762   -0.024824   -1.120342
      4          1           0        2.474181    0.640133    0.256660
      5          6           0       -0.476496   -1.079006   -0.063824
      6          6           0       -0.477634    1.089000   -0.093537
      7          6           0       -1.587747    0.005549   -0.039077
      8          1           0       -0.255185    1.381488   -1.125042
      9          1           0       -0.600649    1.991712    0.509997
     10          1           0       -2.322843   -0.006202   -0.845137
     11          1           0       -2.118833    0.018314    0.915707
     12          1           0        0.584259    0.015420    1.489886
     13          1           0       -0.255178   -1.397820   -1.087527
     14          1           0       -0.593913   -1.967546    0.559331
 ---------------------------------------------------------------------

 SCF Done:  E(RHF) =  -211.217956278     A.U. after    2 cycles

 The electronic state is 1-A.
 Alpha  occ. eigenvalues --  -15.60425 -11.26090 -11.22784 -11.22542 -11.22428
 Alpha  occ. eigenvalues --   -1.16188  -1.07578  -0.89221  -0.86278  -0.75662
 Alpha  occ. eigenvalues --   -0.66907  -0.64384  -0.62134  -0.53863  -0.53571
 Alpha  occ. eigenvalues --   -0.52350  -0.46722  -0.45309  -0.44010  -0.37052
 Alpha virt. eigenvalues --    0.03614   0.04214   0.04355   0.05040   0.06841
 Alpha virt. eigenvalues --    0.06880   0.07285   0.07407   0.09426   0.12393
 Alpha virt. eigenvalues --    0.13157   0.14127   0.14247   0.14783   0.15820

 Mulliken charges:
               1
     1  N   -0.349276
     2  C    0.384358
     3  H    0.000143
     4  H    0.000284
     5  C    0.393284
     6  C    0.453801
     7  C    0.413034
     8  H   -0.191457
     9  H   -0.160882
    10  H   -0.188317
    11  H   -0.193030
    12  H   -0.232871
    13  H   -0.196047
    14  H   -0.133024
 Sum of Mulliken charges =  -0.00000

 Dipole moment (field-independent basis, Debye):
    X=             -0.3894    Y=              1.1673    Z=             -0.3160  Tot=              1.2705

 Test job not archived.
 1\1\GINC-SE334\SP\RHF\Aug-CC-pVDZ\C4H9N1\OHZDE\08-Apr-2025\0\\#t hf au
 g-cc-pvdz iop(5/13=1,5/36=2,99/5=2) pseudo=read geom=check guess=(read
 ,tcheck) scf=(maxcycle=1)\\title\\0,1\N,0,1.890045,-0.106565,-0.10749\
 C,0,0.535057,0.000338,0.396255\H,0,1.898762,-0.024824,-1.120342\H,0,2.
 474181,0.640133,0.25666\C,0,-0.476496,-1.079006,-0.063824\C,0,-0.47763
 4,1.089,-0.093537\C,0,-1.587747,0.005549,-0.039077\H,0,-0.255185,1.381
 488,-1.125042\H,0,-0.600649,1.991712,0.509997\H,0,-2.322843,-0.006202,
 -0.845137\H,0,-2.118833,0.018314,0.915707\H,0,0.584259,0.01542,1.48988

 Normal termination of Gaussian 16 at Tue Apr  8 22:38:38 2025.
