 Gaussian 16, Revision C.01,

 ----------------------------------------------------------------------
 #t hf aug-cc-pvdz symm=none int=(grid=ultrafine) guess=(read,tcheck) s
 table=opt
 ----------------------------------------------------------------------
 -----
 title
 -----
 Symbolic Z-matrix:
 Charge =  0 Multiplicity = 2

 SCF Done:  E(UHF) =  -786.351242808     A.U. after   18 cycles
 Normal termination of Gaussian 16 at Wed Apr  9 00:07:16 2025.
 Gaussian 16:  ES64L-G16RevC.01  3-Jul-2019

 ----------------------------------------------------------------------
 #t hf aug-cc-pvdz iop(5/13=1,5/36=2,99/5=2) pseudo=read geom=check gue
 ss=(read,tcheck) scf=(maxcycle=1)
 ----------------------------------------------------------------------
 -----
 title
 -----
 Structure from the checkpoint file:  "BDE49_nonexpt_229_mol2.chk"
 Charge =  0 Multiplicity = 2

                         Standard orientation:
 ---------------------------------------------------------------------
 Center     Atomic      Atomic             Coordinates (Angstroms)
 Number     Number       Type             X           Y           Z
 ---------------------------------------------------------------------
      1          5           0        1.403536    0.519450    0.000162
      2         17           0        2.995809   -0.211067    0.000466
      3          8           0        0.298255   -0.261319   -0.000332
      4          6           0       -0.978824    0.258472   -0.000623
      5          8           0       -1.257372    1.419289   -0.000019
      6          8           0       -1.810102   -0.774036   -0.000398
      7          6           0       -3.211406   -0.426654    0.000074
      8          1           0       -3.455913    0.152531    0.890830
      9          1           0       -3.738912   -1.376647    0.000200
     10          1           0       -3.456477    0.152612   -0.890474
 ---------------------------------------------------------------------

 SCF Done:  E(UHF) =  -786.479825909     A.U. after    2 cycles

 The electronic state is 2-A.
 Alpha  occ. eigenvalues -- -103.67378 -20.65243 -20.65029 -20.59181 -11.48045
 Alpha  occ. eigenvalues --  -11.32111 -10.70852  -8.36671  -8.36289  -8.36261
 Alpha  occ. eigenvalues --   -7.74485  -1.48974  -1.39031  -1.36602  -1.17068
 Alpha  occ. eigenvalues --   -1.01725  -0.88500  -0.79643  -0.75347  -0.73583
 Alpha  occ. eigenvalues --   -0.67781  -0.65541  -0.64637  -0.62921  -0.57182
 Alpha  occ. eigenvalues --   -0.56204  -0.52878  -0.51221  -0.50509  -0.49696
 Alpha  occ. eigenvalues --   -0.37769
 Alpha virt. eigenvalues --    0.03169   0.04788   0.05282   0.05773   0.06115
 Alpha virt. eigenvalues --    0.06198   0.07197   0.09378   0.10687   0.13081
 Alpha virt. eigenvalues --    0.13138   0.13912   0.14858   0.15713   0.16874

  Beta  occ. eigenvalues -- -103.67263 -20.65084 -20.65035 -20.59168 -11.48014
  Beta  occ. eigenvalues --  -11.32112 -10.70718  -8.36362  -8.36242  -8.36067
  Beta  occ. eigenvalues --   -7.72229  -1.48785  -1.38629  -1.36510  -1.15989
  Beta  occ. eigenvalues --   -1.01577  -0.88021  -0.79534  -0.74501  -0.73640
  Beta  occ. eigenvalues --   -0.65373  -0.65191  -0.64714  -0.60526  -0.57097
  Beta  occ. eigenvalues --   -0.56179  -0.52278  -0.51245  -0.49760  -0.49106
  Beta virt. eigenvalues --    0.03009   0.04189   0.05036   0.05372   0.06146
  Beta virt. eigenvalues --    0.06602   0.06798   0.09890   0.12189   0.12234
  Beta virt. eigenvalues --    0.13149   0.13153   0.14066   0.14890   0.15935

 Mulliken charges and spin densities:
               1          2
     1  B    0.241116   1.012382
     2  Cl  -0.293479   0.041600
     3  O   -0.379345  -0.072085
     4  C    0.738152   0.042406
     5  O   -0.278902  -0.019466
     6  O   -0.435948  -0.005040
     7  C    0.758113  -0.000237
     8  H   -0.056602   0.000277
     9  H   -0.236488  -0.000114
    10  H   -0.056617   0.000277
 Sum of Mulliken charges =  -0.00000   1.00000

 Dipole moment (field-independent basis, Debye):
    X=             -2.6959    Y=             -1.0425    Z=             -0.0009  Tot=              2.8904
                          Isotropic Fermi Contact Couplings
        Atom                 a.u.       MegaHertz       Gauss      10(-4) cm-1
     1  B(11)              0.45800     656.93785     234.41176     219.13088
     2  Cl(35)             0.11512      50.47503      18.01075      16.83666
     3  O(17)              0.01359      -8.23679      -2.93909      -2.74750
     4  C(13)              0.00627       7.05383       2.51698       2.35290
     5  O(17)              0.00377      -2.28601      -0.81570      -0.76253
     6  O(17)             -0.00080       0.48244       0.17215       0.16093
     7  C(13)             -0.00014      -0.15279      -0.05452      -0.05097
     8  H(1)              -0.00000      -0.01242      -0.00443      -0.00414

 1\1\GINC-SE341\SP\UHF\Aug-CC-pVDZ\C2H3B1Cl1O3(2)\OHZDE\09-Apr-2025\0\\
 #t hf aug-cc-pvdz iop(5/13=1,5/36=2,99/5=2) pseudo=read geom=check gue
 ss=(read,tcheck) scf=(maxcycle=1)\\title\\0,2\B,0,-1.403536,0.51945,-0
 .000162\Cl,0,-2.995809,-0.211067,-0.000466\O,0,-0.298255,-0.261319,0.0
 00332\C,0,0.978824,0.258472,0.000623\O,0,1.257372,1.419289,0.000019\O,
 0,1.810102,-0.774036,0.000398\C,0,3.211406,-0.426654,-0.000074\H,0,3.4
 55913,0.152531,-0.89083\H,0,3.738912,-1.376647,-0.0002\H,0,3.456477,0.
 152612,0.890474\\Version=ES64L-G16RevC.01\State=2-A\HF=-786.4798259\S2

 Normal termination of Gaussian 16 at Wed Apr  9 00:07:20 2025.
