 Gaussian 16, Revision C.01,

 ----------------------------------------------------------------------
 #t hf aug-cc-pvdz symm=none int=(grid=ultrafine) guess=(read,tcheck) s
 table=(opt,rrhf)
 ----------------------------------------------------------------------
 -----
 title
 -----
 Symbolic Z-matrix:
 Charge =  0 Multiplicity = 1

 SCF Done:  E(RHF) =  -605.821755638     A.U. after   15 cycles
 Normal termination of Gaussian 16 at Tue Apr  8 23:30:04 2025.
 Gaussian 16:  ES64L-G16RevC.01  3-Jul-2019

 ----------------------------------------------------------------------
 #t hf aug-cc-pvdz iop(5/13=1,5/36=2,99/5=2) pseudo=read geom=check gue
 ss=(read,tcheck) scf=(maxcycle=1)
 ----------------------------------------------------------------------
 -----
 title
 -----
 Structure from the checkpoint file:  "BDE49_nonexpt_1401_mol1.chk"
 Charge =  0 Multiplicity = 1

                         Standard orientation:
 ---------------------------------------------------------------------
 Center     Atomic      Atomic             Coordinates (Angstroms)
 Number     Number       Type             X           Y           Z
 ---------------------------------------------------------------------
      1         15           0       -0.342212   -1.274862   -0.111671
      2          6           0        0.957492    0.091628   -0.007790
      3          8           0        0.322276    1.334699   -0.011931
      4          6           0       -1.048119    1.226270    0.010467
      5          6           0       -1.609114    0.016318    0.051476
      6          8           0        2.142849    0.003912    0.021296
      7          1           0       -2.677463   -0.140028    0.038932
      8          1           0       -1.538499    2.189776   -0.013658
      9          1           0       -0.173412   -1.640995    1.249945
 ---------------------------------------------------------------------

 SCF Done:  E(RHF) =  -605.926324879     A.U. after    2 cycles

 The electronic state is 1-A.
 Alpha  occ. eigenvalues --  -81.29691 -20.64915 -20.58781 -11.41507 -11.34705
 Alpha  occ. eigenvalues --  -11.26681  -7.80061  -4.94026  -4.93978  -4.93697
 Alpha  occ. eigenvalues --   -1.44431  -1.36767  -1.06589  -0.94307  -0.82029
 Alpha  occ. eigenvalues --   -0.76275  -0.73015  -0.68210  -0.67062  -0.62315
 Alpha  occ. eigenvalues --   -0.59273  -0.54842  -0.53853  -0.45615  -0.42815
 Alpha  occ. eigenvalues --   -0.36075
 Alpha virt. eigenvalues --    0.02759   0.04175   0.04995   0.06988   0.08211
 Alpha virt. eigenvalues --    0.08765   0.09473   0.09855   0.10819   0.12329
 Alpha virt. eigenvalues --    0.12743   0.13478   0.14863   0.15142   0.15339

 Mulliken charges:
               1
     1  P    0.310201
     2  C    0.322637
     3  O   -0.576998
     4  C    0.669677
     5  C    0.142646
     6  O   -0.421033
     7  H   -0.394234
     8  H   -0.286213
     9  H    0.233318
 Sum of Mulliken charges =  -0.00000

 Dipole moment (field-independent basis, Debye):
    X=             -4.5266    Y=             -0.3052    Z=              0.4400  Tot=              4.5582

 Test job not archived.
 1\1\GINC-SE127\SP\RHF\Aug-CC-pVDZ\C3H3O2P1\OHZDE\08-Apr-2025\0\\#t hf
 aug-cc-pvdz iop(5/13=1,5/36=2,99/5=2) pseudo=read geom=check guess=(re
 ad,tcheck) scf=(maxcycle=1)\\title\\0,1\P,0,-0.342213,-1.274862,-0.111
 671\C,0,0.957492,0.091627,-0.00779\O,0,0.322277,1.334699,-0.011931\C,0
 ,-1.048118,1.226271,0.010467\C,0,-1.609114,0.016319,0.051476\O,0,2.142
 849,0.00391,0.021296\H,0,-2.677463,-0.140026,0.038932\H,0,-1.538497,2.
 189777,-0.013658\H,0,-0.173413,-1.640995,1.249945\\Version=ES64L-G16Re
 vC.01\State=1-A\HF=-605.9263249\RMSD=1.224e-02\Dipole=-1.7809081,-0.12

 Normal termination of Gaussian 16 at Tue Apr  8 23:30:07 2025.
