 Gaussian 16, Revision C.01,

 ----------------------------------------------------------------------
 #t hf aug-cc-pvdz symm=none int=(grid=ultrafine) guess=(read,tcheck) s
 table=(opt,rrhf)
 ----------------------------------------------------------------------
 -----
 title
 -----
 Symbolic Z-matrix:
 Charge =  0 Multiplicity = 1

 SCF Done:  E(RHF) =  -1010.22207104     A.U. after   12 cycles
 Normal termination of Gaussian 16 at Tue Apr  8 23:53:49 2025.
 Gaussian 16:  ES64L-G16RevC.01  3-Jul-2019

 ----------------------------------------------------------------------
 #t hf aug-cc-pvdz iop(5/13=1,5/36=2,99/5=2) pseudo=read geom=check gue
 ss=(read,tcheck) scf=(maxcycle=1)
 ----------------------------------------------------------------------
 -----
 title
 -----
 Structure from the checkpoint file:  "BDE49_nonexpt_1956_mol1.chk"
 Charge =  0 Multiplicity = 1

                         Standard orientation:
 ---------------------------------------------------------------------
 Center     Atomic      Atomic             Coordinates (Angstroms)
 Number     Number       Type             X           Y           Z
 ---------------------------------------------------------------------
      1         14           0        2.794707    0.566432   -0.105547
      2          6           0        1.684550   -0.913797    0.331665
      3         15           0       -0.906100   -0.430866    0.057263
      4          8           0       -0.862592    1.113272   -0.310295
      5          8           0       -1.937927   -1.001237   -1.022652
      6          1           0       -2.309529   -1.846719   -0.745124
      7          8           0       -1.209541   -0.762278    1.453071
      8          8           0        0.486709   -0.940441   -0.501645
      9          1           0        3.085171    0.558026   -1.555487
     10          1           0        4.059262    0.409429    0.653900
     11          6           0       -1.921030    1.986342    0.137157
     12          1           0       -1.567426    3.002622   -0.024109
     13          1           0       -2.126016    1.820611    1.195997
     14          1           0       -2.822140    1.809204   -0.453609
     15          1           0        2.150553    1.841310    0.272228
     16          1           0        1.396266   -0.919532    1.386525
     17          1           0        2.205152   -1.851804    0.127628
 ---------------------------------------------------------------------

 SCF Done:  E(RHF) =  -1010.44574453     A.U. after    2 cycles

 The electronic state is 1-A.
 Alpha  occ. eigenvalues --  -81.44067 -69.06912 -20.61647 -20.60646 -20.60596
 Alpha  occ. eigenvalues --  -20.52666 -11.30828 -11.29944  -7.92014  -6.82260
 Alpha  occ. eigenvalues --   -5.06721  -5.06630  -5.06620  -3.93046  -3.93035
 Alpha  occ. eigenvalues --   -3.93021  -1.39355  -1.34856  -1.34517  -1.26047
 Alpha  occ. eigenvalues --   -0.97794  -0.94686  -0.81878  -0.74687  -0.72515
 Alpha  occ. eigenvalues --   -0.71464  -0.68050  -0.65948  -0.65602  -0.64788
 Alpha  occ. eigenvalues --   -0.60334  -0.58554  -0.57649  -0.54076  -0.53332
 Alpha  occ. eigenvalues --   -0.51367  -0.49143  -0.48672  -0.48572  -0.47886
 Alpha  occ. eigenvalues --   -0.44516
 Alpha virt. eigenvalues --    0.03207   0.04203   0.04346   0.05296   0.05640
 Alpha virt. eigenvalues --    0.06390   0.06994   0.07692   0.08034   0.09258
 Alpha virt. eigenvalues --    0.09822   0.10476   0.11825   0.11926   0.13268

 Mulliken charges:
               1
     1  Si   0.420945
     2  C    0.514389
     3  P    2.577435
     4  O   -0.885522
     5  O   -0.691794
     6  H    0.168169
     7  O   -0.914123
     8  O   -0.920994
     9  H   -0.001601
    10  H   -0.033523
    11  C    0.719548
    12  H   -0.231173
    13  H   -0.073682
    14  H   -0.114761
    15  H   -0.016347
    16  H   -0.201526
    17  H   -0.315440
 Sum of Mulliken charges =  -0.00000

 Dipole moment (field-independent basis, Debye):
    X=              0.0752    Y=              0.4912    Z=             -0.6381  Tot=              0.8088

 Test job not archived.
 1\1\GINC-SE097\SP\RHF\Aug-CC-pVDZ\C2H9O4P1Si1\OHZDE\08-Apr-2025\0\\#t
 hf aug-cc-pvdz iop(5/13=1,5/36=2,99/5=2) pseudo=read geom=check guess=
 (read,tcheck) scf=(maxcycle=1)\\title\\0,1\Si,0,2.794707,0.566432,-0.1
 05547\C,0,1.68455,-0.913797,0.331665\P,0,-0.9061,-0.430866,0.057263\O,
 0,-0.862592,1.113272,-0.310295\O,0,-1.937927,-1.001237,-1.022652\H,0,-
 2.309529,-1.846719,-0.745124\O,0,-1.209541,-0.762278,1.453071\O,0,0.48
 6709,-0.940441,-0.501645\H,0,3.085171,0.558026,-1.555487\H,0,4.059262,
 0.409429,0.6539\C,0,-1.92103,1.986342,0.137157\H,0,-1.567426,3.002622,

 Normal termination of Gaussian 16 at Tue Apr  8 23:53:57 2025.
