 Gaussian 16, Revision C.01,

 ----------------------------------------------------------------------
 #t hf aug-cc-pvdz symm=none int=(grid=ultrafine) guess=(read,tcheck) s
 table=(opt,rrhf)
 ----------------------------------------------------------------------
 -----
 title
 -----
 Symbolic Z-matrix:
 Charge =  0 Multiplicity = 1

 SCF Done:  E(RHF) =  -694.586301503     A.U. after   14 cycles
 Normal termination of Gaussian 16 at Wed Apr  9 00:02:16 2025.
 Gaussian 16:  ES64L-G16RevC.01  3-Jul-2019

 ----------------------------------------------------------------------
 #t hf aug-cc-pvdz iop(5/13=1,5/36=2,99/5=2) pseudo=read geom=check gue
 ss=(read,tcheck) scf=(maxcycle=1)
 ----------------------------------------------------------------------
 -----
 title
 -----
 Structure from the checkpoint file:  "BDE49_nonexpt_2185_mol1.chk"
 Charge =  0 Multiplicity = 1

                         Standard orientation:
 ---------------------------------------------------------------------
 Center     Atomic      Atomic             Coordinates (Angstroms)
 Number     Number       Type             X           Y           Z
 ---------------------------------------------------------------------
      1          6           0        2.246316   -0.000002    0.109016
      2          6           0        1.583756    1.211656   -0.013244
      3          6           0        0.213811    1.209262   -0.261901
      4          6           0        1.583750   -1.211657   -0.013251
      5          6           0        0.213804   -1.209254   -0.261908
      6          6           0       -0.471521    0.000006   -0.383768
      7          9           0        3.578064   -0.000006    0.349996
      8          1           0        2.138102    2.136792    0.082821
      9          1           0       -0.328330    2.140292   -0.373076
     10          1           0        2.138091   -2.136796    0.082810
     11          1           0       -0.328340   -2.140281   -0.373088
     12          8           0       -1.817547    0.000011   -0.673098
     13         14           0       -3.081102   -0.000005    0.404367
     14          1           0       -4.299312   -0.000029   -0.424799
     15          1           0       -3.033257    1.204678    1.264666
     16          1           0       -3.033216   -1.204678    1.264677
 ---------------------------------------------------------------------

 SCF Done:  E(RHF) =  -694.745994302     A.U. after    2 cycles

 The electronic state is 1-A.
 Alpha  occ. eigenvalues --  -69.10688 -26.13400 -20.58982 -11.33926 -11.32231
 Alpha  occ. eigenvalues --  -11.26294 -11.26290 -11.26056 -11.26053  -6.85474
 Alpha  occ. eigenvalues --   -3.96389  -3.96235  -3.96208  -1.67171  -1.34720
 Alpha  occ. eigenvalues --   -1.15839  -1.03551  -1.01969  -0.87554  -0.86837
 Alpha  occ. eigenvalues --   -0.77825  -0.76413  -0.75138  -0.74910  -0.67701
 Alpha  occ. eigenvalues --   -0.65357  -0.63705  -0.61623  -0.61435  -0.58767
 Alpha  occ. eigenvalues --   -0.56192  -0.51642  -0.51087  -0.48554  -0.46709
 Alpha  occ. eigenvalues --   -0.36221  -0.33760
 Alpha virt. eigenvalues --    0.03119   0.04014   0.04328   0.05112   0.05712
 Alpha virt. eigenvalues --    0.06340   0.07344   0.07979   0.08622   0.09413
 Alpha virt. eigenvalues --    0.09538   0.09807   0.11725   0.12395   0.13587

 Mulliken charges:
               1
     1  C    0.275448
     2  C    0.525722
     3  C    0.458719
     4  C    0.525718
     5  C    0.458719
     6  C    0.557998
     7  F   -0.333590
     8  H   -0.407892
     9  H   -0.525871
    10  H   -0.407893
    11  H   -0.525874
    12  O   -1.076606
    13  Si   0.354468
    14  H    0.067660
    15  H    0.026637
    16  H    0.026636
 Sum of Mulliken charges =  -0.00000

 Dipole moment (field-independent basis, Debye):
    X=             -1.7882    Y=             -0.0000    Z=              0.4980  Tot=              1.8562

 Test job not archived.
 1\1\GINC-SE339\SP\RHF\Aug-CC-pVDZ\C6H7F1O1Si1\OHZDE\09-Apr-2025\0\\#t
 hf aug-cc-pvdz iop(5/13=1,5/36=2,99/5=2) pseudo=read geom=check guess=
 (read,tcheck) scf=(maxcycle=1)\\title\\0,1\C,0,2.246316,-0.000002,0.10
 9016\C,0,1.583756,1.211656,-0.013244\C,0,0.213811,1.209262,-0.261901\C
 ,0,1.58375,-1.211657,-0.013251\C,0,0.213804,-1.209254,-0.261908\C,0,-0
 .471521,0.000006,-0.383768\F,0,3.578064,-0.000006,0.349996\H,0,2.13810
 2,2.136792,0.082821\H,0,-0.32833,2.140292,-0.373076\H,0,2.138091,-2.13
 6796,0.08281\H,0,-0.32834,-2.140281,-0.373088\O,0,-1.817547,0.000011,-

 Normal termination of Gaussian 16 at Wed Apr  9 00:02:23 2025.
