 Gaussian 16, Revision C.01,

 ----------------------------------------------------------------------
 #t hf aug-cc-pvdz symm=none int=(grid=ultrafine) guess=(read,tcheck) s
 table=(opt,rrhf)
 ----------------------------------------------------------------------
 -----
 title
 -----
 Symbolic Z-matrix:
 Charge =  0 Multiplicity = 1

 SCF Done:  E(RHF) =  -1655.15131818     A.U. after   14 cycles
 Normal termination of Gaussian 16 at Wed Apr  9 00:24:55 2025.
 Gaussian 16:  ES64L-G16RevC.01  3-Jul-2019

 ----------------------------------------------------------------------
 #t hf aug-cc-pvdz iop(5/13=1,5/36=2,99/5=2) pseudo=read geom=check gue
 ss=(read,tcheck) scf=(maxcycle=1)
 ----------------------------------------------------------------------
 -----
 title
 -----
 Structure from the checkpoint file:  "BDE49_nonexpt_2745_mol1.chk"
 Charge =  0 Multiplicity = 1

                         Standard orientation:
 ---------------------------------------------------------------------
 Center     Atomic      Atomic             Coordinates (Angstroms)
 Number     Number       Type             X           Y           Z
 ---------------------------------------------------------------------
      1          6           0        3.127545    0.198211    0.121596
      2          8           0        1.959877   -0.485637    0.431736
      3          9           0        3.523622   -0.050500   -1.124746
      4          9           0        4.051317   -0.240918    0.967440
      5          9           0        2.982249    1.511770    0.277090
      6          6           0        0.814510   -0.229824   -0.296687
      7         16           0       -0.432712   -1.328634    0.424645
      8          8           0        0.702638    0.537176   -1.189119
      9         16           0       -2.062522   -0.910372   -0.770311
     10          6           0       -2.846901    0.460452    0.172810
     11          9           0       -3.935782    0.811078   -0.527871
     12          9           0       -3.229852    0.090973    1.399859
     13          9           0       -2.052365    1.526348    0.297494
 ---------------------------------------------------------------------

 SCF Done:  E(RHF) =  -1655.50085780     A.U. after    2 cycles

 The electronic state is 1-A.
 Alpha  occ. eigenvalues --  -93.63282 -93.62457 -26.20180 -26.19999 -26.19974
 Alpha  occ. eigenvalues --  -26.19710 -26.19358 -26.19335 -20.69836 -20.63069
 Alpha  occ. eigenvalues --  -11.61959 -11.57640 -11.48269  -8.92846  -8.92087
 Alpha  occ. eigenvalues --   -6.26964  -6.26695  -6.26343  -6.26181  -6.25934
 Alpha  occ. eigenvalues --   -6.25554  -1.80738  -1.79232  -1.73206  -1.73008
 Alpha  occ. eigenvalues --   -1.72272  -1.71988  -1.49755  -1.41491  -1.13340
 Alpha  occ. eigenvalues --   -1.08747  -1.04489  -0.98338  -0.94117  -0.93039
 Alpha  occ. eigenvalues --   -0.92036  -0.90950  -0.90889  -0.83879  -0.82197
 Alpha  occ. eigenvalues --   -0.81211  -0.80121  -0.79817  -0.79135  -0.76593
 Alpha  occ. eigenvalues --   -0.76507  -0.75842  -0.75687  -0.75168  -0.75061
 Alpha  occ. eigenvalues --   -0.74437  -0.71971  -0.70224  -0.64523  -0.59559
 Alpha  occ. eigenvalues --   -0.57926  -0.53435  -0.50660  -0.43776  -0.43288
 Alpha virt. eigenvalues --    0.04753   0.05732   0.07234   0.07540   0.08216
 Alpha virt. eigenvalues --    0.08926   0.09264   0.09571   0.09931   0.10567
 Alpha virt. eigenvalues --    0.11735   0.12125   0.13022   0.13439   0.14282

 Mulliken charges:
               1
     1  C    1.177504
     2  O   -0.493029
     3  F   -0.274303
     4  F   -0.232938
     5  F   -0.272723
     6  C    0.127878
     7  S    0.172969
     8  O   -0.262727
     9  S    0.183061
    10  C    0.755334
    11  F   -0.282602
    12  F   -0.299680
    13  F   -0.298746
 Sum of Mulliken charges =  -0.00000

 Dipole moment (field-independent basis, Debye):
    X=             -0.3290    Y=             -2.2679    Z=              0.5177  Tot=              2.3493

 Test job not archived.
 1\1\GINC-SE253\SP\RHF\Aug-CC-pVDZ\C3F6O2S2\OHZDE\09-Apr-2025\0\\#t hf
 aug-cc-pvdz iop(5/13=1,5/36=2,99/5=2) pseudo=read geom=check guess=(re
 ad,tcheck) scf=(maxcycle=1)\\title\\0,1\C,0,-3.127545,0.198211,-0.1215
 96\O,0,-1.959877,-0.485637,-0.431736\F,0,-3.523622,-0.0505,1.124746\F,
 0,-4.051317,-0.240918,-0.96744\F,0,-2.982249,1.51177,-0.27709\C,0,-0.8
 1451,-0.229824,0.296687\S,0,0.432712,-1.328634,-0.424645\O,0,-0.702638
 ,0.537176,1.189119\S,0,2.062522,-0.910372,0.770311\C,0,2.846901,0.4604
 52,-0.17281\F,0,3.935782,0.811078,0.527871\F,0,3.229852,0.090973,-1.39

 Normal termination of Gaussian 16 at Wed Apr  9 00:25:02 2025.
