 Gaussian 16, Revision C.01,

 ----------------------------------------------------------------------
 #t hf aug-cc-pvdz symm=none int=(grid=ultrafine) guess=(read,tcheck) s
 table=opt
 ----------------------------------------------------------------------
 -----
 title
 -----
 Symbolic Z-matrix:
 Charge =  0 Multiplicity = 2

 SCF Done:  E(UHF) =  -583.675623475     A.U. after   14 cycles

 1\1\GINC-SE364\Stability\UHF\Aug-CC-pVDZ\B1Cl1F1\OHZDE\08-Apr-2025\0\\
 #t hf aug-cc-pvdz symm=none int=(grid=ultrafine) guess=(read,tcheck) s
 table=opt\\title\\0,2\B,0,0.,0.822376,0.\F,0,1.286013,1.045097,0.\Cl,0
 ,-0.68083,-0.795162,0.\\Version=ES64L-G16RevC.01\HF=-583.6756235\S2=0.
 753922\S2-1=0.\S2A=0.750009\RMSD=4.882e-09\Dipole=-0.1024391,0.1116072
 ,0.\Quadrupole=-1.1936166,0.0177909,1.1758257,-0.268604,0.,0.\PG=Unkno
 wn\\@
 The archive entry for this job was punched.

 Normal termination of Gaussian 16 at Tue Apr  8 23:50:16 2025.
 Gaussian 16:  ES64L-G16RevC.01  3-Jul-2019

 ----------------------------------------------------------------------
 #t hf aug-cc-pvdz iop(5/13=1,5/36=2,99/5=2) pseudo=read geom=check gue
 ss=(read,tcheck) scf=(maxcycle=1)
 ----------------------------------------------------------------------
 -----
 title
 -----
 Structure from the checkpoint file:  "BDE49_nonexpt_18_mol2.chk"
 Charge =  0 Multiplicity = 2

                         Standard orientation:
 ---------------------------------------------------------------------
 Center     Atomic      Atomic             Coordinates (Angstroms)
 Number     Number       Type             X           Y           Z
 ---------------------------------------------------------------------
      1          5           0        0.000000    0.822376    0.000000
      2          9           0        1.286013    1.045097    0.000000
      3         17           0       -0.680830   -0.795162    0.000000
 ---------------------------------------------------------------------

 SCF Done:  E(UHF) =  -583.745285242     A.U. after    2 cycles

 The electronic state is 2-A'.
 Alpha  occ. eigenvalues -- -103.68552 -26.17240 -10.72056  -8.37910  -8.37464
 Alpha  occ. eigenvalues --   -8.37441  -7.77803  -1.71930  -1.18349  -0.88468
 Alpha  occ. eigenvalues --   -0.80038  -0.77562  -0.65475  -0.52166  -0.51411
 Alpha  occ. eigenvalues --   -0.39744
 Alpha virt. eigenvalues --    0.04441   0.05528   0.05802   0.05983   0.09116
 Alpha virt. eigenvalues --    0.13059   0.15904   0.16211   0.21768   0.22489
 Alpha virt. eigenvalues --    0.25368   0.26607   0.27734   0.29269   0.29718

  Beta  occ. eigenvalues -- -103.68411 -26.16919 -10.71893  -8.37494  -8.37412
  Beta  occ. eigenvalues --   -8.37232  -7.75567  -1.70931  -1.17071  -0.87125
  Beta  occ. eigenvalues --   -0.77641  -0.77626  -0.61854  -0.51330  -0.50546
  Beta virt. eigenvalues --    0.02619   0.05236   0.05699   0.06070   0.11151
  Beta virt. eigenvalues --    0.12739   0.13303   0.16047   0.16495   0.23012
  Beta virt. eigenvalues --    0.23606   0.26005   0.26947   0.29755   0.29914

 Mulliken charges and spin densities:
               1          2
     1  B    0.445926   1.015011
     2  F   -0.221651  -0.064232
     3  Cl  -0.224275   0.049221
 Sum of Mulliken charges =   0.00000   1.00000

 Dipole moment (field-independent basis, Debye):
    X=             -0.4496    Y=              0.2970    Z=              0.0000  Tot=              0.5388
                          Isotropic Fermi Contact Couplings
        Atom                 a.u.       MegaHertz       Gauss      10(-4) cm-1
     1  B(11)              0.48392     694.11976     247.67919     231.53343
     2  F(19)              0.08568     360.49232     128.63263     120.24730
     3  Cl(35)             0.13326      58.42791      20.84853      19.48945
 --------------------------------------------------------
       Center         ----  Spin Dipole Couplings  ----
                      3XX-RR        3YY-RR        3ZZ-RR
 --------------------------------------------------------
     1   Atom        0.027900      0.133522     -0.161422

 Normal termination of Gaussian 16 at Tue Apr  8 23:50:17 2025.
