 Gaussian 16, Revision C.01,

 ----------------------------------------------------------------------
 #t hf aug-cc-pvdz symm=none int=(grid=ultrafine) guess=(read,tcheck) s
 table=(opt,rrhf)
 ----------------------------------------------------------------------
 -----
 title
 -----
 Symbolic Z-matrix:
 Charge =  0 Multiplicity = 1

 SCF Done:  E(RHF) =  -667.583529576     A.U. after   14 cycles
 Normal termination of Gaussian 16 at Tue Apr  8 23:04:28 2025.
 Gaussian 16:  ES64L-G16RevC.01  3-Jul-2019

 ----------------------------------------------------------------------
 #t hf aug-cc-pvdz iop(5/13=1,5/36=2,99/5=2) pseudo=read geom=check gue
 ss=(read,tcheck) scf=(maxcycle=1)
 ----------------------------------------------------------------------
 -----
 title
 -----
 Structure from the checkpoint file:  "BDE49_expt_389_mol1.chk"
 Charge =  0 Multiplicity = 1

                         Standard orientation:
 ---------------------------------------------------------------------
 Center     Atomic      Atomic             Coordinates (Angstroms)
 Number     Number       Type             X           Y           Z
 ---------------------------------------------------------------------
      1          8           0        0.035419    1.211169   -0.498793
      2          6           0       -1.283895    1.239734    0.025465
      3          6           0       -1.885015   -0.148629   -0.190294
      4          1           0       -1.821109    2.016175   -0.522259
      5          1           0       -1.283991    1.494083    1.093048
      6         16           0       -0.512344   -1.286049    0.227429
      7          1           0       -2.192174   -0.292523   -1.227057
      8          1           0       -2.730088   -0.337876    0.472666
      9          6           0        0.771683    0.087767   -0.030404
     10          6           0        1.760324   -0.290286   -1.125724
     11          1           0        2.452459    0.540174   -1.293934
     12          1           0        1.230036   -0.501196   -2.054286
     13          1           0        2.338189   -1.172146   -0.841297
     14          6           0        1.467590    0.397317    1.295857
     15          1           0        0.752409    0.729042    2.049543
     16          1           0        2.210410    1.185824    1.141650
     17          1           0        1.973899   -0.489550    1.683996
 ---------------------------------------------------------------------

 SCF Done:  E(RHF) =  -667.686584841     A.U. after    2 cycles

 The electronic state is 1-A.
 Alpha  occ. eigenvalues --  -93.52058 -20.58351 -11.33296 -11.30059 -11.27030
 Alpha  occ. eigenvalues --  -11.23197 -11.22956  -8.81834  -6.15971  -6.15807
 Alpha  occ. eigenvalues --   -6.15457  -1.35421  -1.06447  -1.04740  -0.94491
 Alpha  occ. eigenvalues --   -0.91470  -0.82110  -0.76054  -0.68346  -0.66647
 Alpha  occ. eigenvalues --   -0.63593  -0.59714  -0.59388  -0.56042  -0.54355
 Alpha  occ. eigenvalues --   -0.54007  -0.51573  -0.50770  -0.46281  -0.44712
 Alpha  occ. eigenvalues --   -0.41832  -0.33817
 Alpha virt. eigenvalues --    0.03553   0.04362   0.04837   0.05201   0.06166
 Alpha virt. eigenvalues --    0.06320   0.06528   0.07693   0.08941   0.09267
 Alpha virt. eigenvalues --    0.09535   0.11527   0.12818   0.12997   0.14180

 Mulliken charges:
               1
     1  O   -0.708947
     2  C    0.794802
     3  C   -0.148796
     4  H   -0.249362
     5  H   -0.124446
     6  S    0.416295
     7  H   -0.134000
     8  H   -0.061042
     9  C   -0.881682
    10  C    0.664970
    11  H    0.009730
    12  H   -0.052163
    13  H    0.004157
    14  C    0.557043
    15  H   -0.134833
    16  H    0.026648
    17  H    0.021627
 Sum of Mulliken charges =  -0.00000

 Dipole moment (field-independent basis, Debye):
    X=             -0.6313    Y=              0.8586    Z=              0.4430  Tot=              1.1541

 Test job not archived.
 1\1\GINC-SE103\SP\RHF\Aug-CC-pVDZ\C5H10O1S1\OHZDE\08-Apr-2025\0\\#t hf
  aug-cc-pvdz iop(5/13=1,5/36=2,99/5=2) pseudo=read geom=check guess=(r
 ead,tcheck) scf=(maxcycle=1)\\title\\0,1\O,0,0.035419,1.211169,-0.4987
 93\C,0,-1.283895,1.239734,0.025465\C,0,-1.885015,-0.148629,-0.190294\H
 ,0,-1.821109,2.016175,-0.522259\H,0,-1.283991,1.494083,1.093048\S,0,-0
 .512344,-1.286049,0.227429\H,0,-2.192174,-0.292523,-1.227057\H,0,-2.73
 0088,-0.337876,0.472666\C,0,0.771683,0.087767,-0.030404\C,0,1.760324,-
 0.290286,-1.125724\H,0,2.452459,0.540174,-1.293934\H,0,1.230036,-0.501

 Normal termination of Gaussian 16 at Tue Apr  8 23:04:37 2025.
