 Gaussian 16, Revision C.01,

 ----------------------------------------------------------------------
 #t hf aug-cc-pvdz symm=none int=(grid=ultrafine) guess=(read,tcheck) s
 table=opt
 ----------------------------------------------------------------------
 -----
 title
 -----
 Symbolic Z-matrix:
 Charge =  0 Multiplicity = 2

 SCF Done:  E(UHF) =  -416.763466629     A.U. after   16 cycles
 Normal termination of Gaussian 16 at Tue Apr  8 23:33:00 2025.
 Gaussian 16:  ES64L-G16RevC.01  3-Jul-2019

 ----------------------------------------------------------------------
 #t hf aug-cc-pvdz iop(5/13=1,5/36=2,99/5=2) pseudo=read geom=check gue
 ss=(read,tcheck) scf=(maxcycle=1)
 ----------------------------------------------------------------------
 -----
 title
 -----
 Structure from the checkpoint file:  "BDE49_nonexpt_1464_mol2.chk"
 Charge =  0 Multiplicity = 2

                         Standard orientation:
 ---------------------------------------------------------------------
 Center     Atomic      Atomic             Coordinates (Angstroms)
 Number     Number       Type             X           Y           Z
 ---------------------------------------------------------------------
      1         15           0        0.020626   -0.610280    0.000000
      2          8           0        0.020626    1.057716    0.000000
      3          1           0        0.924153    1.392789    0.000000
      4          1           0       -1.398559   -0.700321    0.000000
 ---------------------------------------------------------------------

 SCF Done:  E(UHF) =  -416.813586292     A.U. after    2 cycles

 The electronic state is 2-A".
 Alpha  occ. eigenvalues --  -81.30561 -20.60483  -7.80467  -4.95036  -4.94219
 Alpha  occ. eigenvalues --   -4.93760  -1.33420  -0.82170  -0.66857  -0.60040
 Alpha  occ. eigenvalues --   -0.59916  -0.41879  -0.33429
 Alpha virt. eigenvalues --    0.03504   0.05289   0.07898   0.10130   0.10176
 Alpha virt. eigenvalues --    0.16193   0.17688   0.20665   0.21711   0.22479
 Alpha virt. eigenvalues --    0.22688   0.25171   0.30085   0.35121   0.36612

  Beta  occ. eigenvalues --  -81.29902 -20.59877  -7.79676  -4.93852  -4.93427
  Beta  occ. eigenvalues --   -4.91935  -1.31816  -0.78759  -0.64420  -0.58561
  Beta  occ. eigenvalues --   -0.54294  -0.39162
  Beta virt. eigenvalues --    0.03582   0.04456   0.05464   0.08208   0.10347
  Beta virt. eigenvalues --    0.14377   0.16895   0.18004   0.21455   0.22133
  Beta virt. eigenvalues --    0.23098   0.25408   0.28162   0.30138   0.35228

 Mulliken charges and spin densities:
               1          2
     1  P    0.534845   1.104290
     2  O   -0.668508   0.039995
     3  H    0.162523  -0.007614
     4  H   -0.028859  -0.136671
 Sum of Mulliken charges =  -0.00000   1.00000

 Dipole moment (field-independent basis, Debye):
    X=              0.9517    Y=             -0.0720    Z=              0.0000  Tot=              0.9544
                          Isotropic Fermi Contact Couplings
        Atom                 a.u.       MegaHertz       Gauss      10(-4) cm-1
     1  P(31)              0.24036     435.31984     155.33295     145.20707
     2  O(17)              0.06102     -36.99125     -13.19940     -12.33895
     3  H(1)              -0.00301     -13.45840      -4.80229      -4.48924
     4  H(1)              -0.01342     -59.96845     -21.39823     -20.00332
 --------------------------------------------------------
       Center         ----  Spin Dipole Couplings  ----
                      3XX-RR        3YY-RR        3ZZ-RR
 --------------------------------------------------------

 Normal termination of Gaussian 16 at Tue Apr  8 23:33:01 2025.
