 Gaussian 16, Revision C.01,

 ----------------------------------------------------------------------
 #t hf aug-cc-pvdz symm=none int=(grid=ultrafine) guess=(read,tcheck) s
 table=(opt,rrhf)
 ----------------------------------------------------------------------
 -----
 title
 -----
 Symbolic Z-matrix:
 Charge =  0 Multiplicity = 1

 SCF Done:  E(RHF) =  -232.187387924     A.U. after   12 cycles

 1\1\GINC-SE227\Stability\RHF\Aug-CC-pVDZ\C4H10O1\OHZDE\08-Apr-2025\0\\
 #t hf aug-cc-pvdz symm=none int=(grid=ultrafine) guess=(read,tcheck) s
 table=(opt,rrhf)\\title\\0,1\C,0,2.067206,-0.031219,0.111428\C,0,0.735
 431,-0.685641,-0.263126\C,0,-0.479674,0.029914,0.323502\O,0,-0.472752,
 1.357859,-0.216584\H,0,-1.200825,1.844847,0.180651\H,0,0.719218,-1.727
 715,0.074785\H,0,0.62124,-0.702484,-1.353095\H,0,2.224708,-0.049024,1.
 19478\H,0,2.085388,1.010218,-0.213365\H,0,2.907156,-0.552702,-0.355083
 \C,0,-1.793863,-0.679478,0.000315\H,0,-0.359724,0.080261,1.417769\H,0,

 Normal termination of Gaussian 16 at Tue Apr  8 22:46:44 2025.
 Gaussian 16:  ES64L-G16RevC.01  3-Jul-2019

 ----------------------------------------------------------------------
 #t hf aug-cc-pvdz iop(5/13=1,5/36=2,99/5=2) pseudo=read geom=check gue
 ss=(read,tcheck) scf=(maxcycle=1)
 ----------------------------------------------------------------------
 -----
 title
 -----
 Structure from the checkpoint file:  "BDE49_expt_162_mol1.chk"
 Charge =  0 Multiplicity = 1

                         Standard orientation:
 ---------------------------------------------------------------------
 Center     Atomic      Atomic             Coordinates (Angstroms)
 Number     Number       Type             X           Y           Z
 ---------------------------------------------------------------------
      1          6           0        2.067206   -0.031219    0.111428
      2          6           0        0.735431   -0.685641   -0.263126
      3          6           0       -0.479674    0.029914    0.323502
      4          8           0       -0.472752    1.357859   -0.216584
      5          1           0       -1.200825    1.844847    0.180651
      6          1           0        0.719218   -1.727715    0.074785
      7          1           0        0.621240   -0.702484   -1.353095
      8          1           0        2.224708   -0.049024    1.194780
      9          1           0        2.085388    1.010218   -0.213365
     10          1           0        2.907156   -0.552702   -0.355083
     11          6           0       -1.793863   -0.679478    0.000315
     12          1           0       -0.359724    0.080261    1.417769
     13          1           0       -1.935601   -0.736792   -1.082274
     14          1           0       -2.645063   -0.137309    0.425333
     15          1           0       -1.809082   -1.693634    0.410462
 ---------------------------------------------------------------------

 SCF Done:  E(RHF) =  -232.262663634     A.U. after    2 cycles

 The electronic state is 1-A.
 Alpha  occ. eigenvalues --  -20.56656 -11.28807 -11.22766 -11.22574 -11.21552
 Alpha  occ. eigenvalues --   -1.31685  -1.05053  -0.97785  -0.86646  -0.78829
 Alpha  occ. eigenvalues --   -0.70900  -0.63144  -0.60249  -0.58430  -0.56519
 Alpha  occ. eigenvalues --   -0.54577  -0.51765  -0.49989  -0.48259  -0.46043
 Alpha  occ. eigenvalues --   -0.44525
 Alpha virt. eigenvalues --    0.03434   0.04434   0.04798   0.05081   0.06642
 Alpha virt. eigenvalues --    0.06685   0.07171   0.07248   0.09390   0.09902
 Alpha virt. eigenvalues --    0.11933   0.12766   0.14530   0.15943   0.16342

 Mulliken charges:
               1
     1  C    0.382764
     2  C    0.186660
     3  C    0.077128
     4  O   -0.615537
     5  H    0.132541
     6  H   -0.091656
     7  H   -0.095835
     8  H   -0.082787
     9  H   -0.021994
    10  H   -0.056355
    11  C    0.453884
    12  H   -0.167074
    13  H    0.016414
    14  H   -0.089563
    15  H   -0.028591
 Sum of Mulliken charges =   0.00000

 Dipole moment (field-independent basis, Debye):
    X=             -1.1539    Y=             -0.7361    Z=              1.1238  Tot=              1.7709

 Test job not archived.
 1\1\GINC-SE227\SP\RHF\Aug-CC-pVDZ\C4H10O1\OHZDE\08-Apr-2025\0\\#t hf a
 ug-cc-pvdz iop(5/13=1,5/36=2,99/5=2) pseudo=read geom=check guess=(rea
 d,tcheck) scf=(maxcycle=1)\\title\\0,1\C,0,2.067206,-0.031219,0.111428
 \C,0,0.735431,-0.685641,-0.263126\C,0,-0.479674,0.029914,0.323502\O,0,
 -0.472752,1.357859,-0.216584\H,0,-1.200825,1.844847,0.180651\H,0,0.719
 218,-1.727715,0.074785\H,0,0.62124,-0.702484,-1.353095\H,0,2.224708,-0
 .049024,1.19478\H,0,2.085388,1.010218,-0.213365\H,0,2.907156,-0.552702
 ,-0.355083\C,0,-1.793863,-0.679478,0.000315\H,0,-0.359724,0.080261,1.4

 Normal termination of Gaussian 16 at Tue Apr  8 22:46:47 2025.
