 Gaussian 16, Revision C.01,

 ----------------------------------------------------------------------
 #t hf aug-cc-pvdz symm=none int=(grid=ultrafine) guess=(read,tcheck) s
 table=(opt,rrhf)
 ----------------------------------------------------------------------
 -----
 title
 -----
 Symbolic Z-matrix:
 Charge =  0 Multiplicity = 1

 SCF Done:  E(RHF) =  -1221.81396320     A.U. after   18 cycles
 Normal termination of Gaussian 16 at Tue Apr  8 23:26:15 2025.
 Gaussian 16:  ES64L-G16RevC.01  3-Jul-2019

 ----------------------------------------------------------------------
 #t hf aug-cc-pvdz iop(5/13=1,5/36=2,99/5=2) pseudo=read geom=check gue
 ss=(read,tcheck) scf=(maxcycle=1)
 ----------------------------------------------------------------------
 -----
 title
 -----
 Structure from the checkpoint file:  "BDE49_nonexpt_1235_mol1.chk"
 Charge =  0 Multiplicity = 1

                         Standard orientation:
 ---------------------------------------------------------------------
 Center     Atomic      Atomic             Coordinates (Angstroms)
 Number     Number       Type             X           Y           Z
 ---------------------------------------------------------------------
      1         17           0       -2.223794   -1.822320   -0.215661
      2          1           0        0.811553    1.515906   -1.791738
      3          1           0        3.192859    1.574276   -1.201425
      4         15           0       -1.431910   -0.001858   -0.954560
      5          6           0       -1.976492    1.266329    0.366511
      6          6           0        0.333895   -0.104013   -0.445776
      7          6           0        3.080065   -0.048578    0.207266
      8          6           0       -2.897897    0.910039    1.502326
      9          1           0       -2.439677    0.143734    2.133255
     10          1           0       -3.826962    0.482814    1.115293
     11          6           0        1.194860    0.816443   -1.057143
     12          8           0       -1.553063    2.376635    0.158352
     13          6           0        4.553079   -0.043036    0.533323
     14          6           0        2.544691    0.847426   -0.722769
     15          1           0        0.215985   -1.730711    0.965107
     16          1           0        2.604455   -1.678851    1.527835
     17          1           0       -3.108163    1.806316    2.086737
     18          6           0        0.859565   -1.002365    0.487638
     19          6           0        2.214179   -0.972379    0.802089
     20          1           0        5.104486   -0.709009   -0.139439
     21          1           0        4.736360   -0.385640    1.554178
     22          1           0        4.981078    0.956200    0.427209
 ---------------------------------------------------------------------

 SCF Done:  E(RHF) =  -1221.97888377     A.U. after    2 cycles

 The electronic state is 1-A.
 Alpha  occ. eigenvalues -- -103.66214 -81.32382 -20.58637 -11.36384 -11.26611
 Alpha  occ. eigenvalues --  -11.26564 -11.26153 -11.26066 -11.25615 -11.25097
 Alpha  occ. eigenvalues --  -11.25058 -11.24459 -10.69528  -8.35226  -8.34969
 Alpha  occ. eigenvalues --   -8.34956  -7.82241  -4.96196  -4.96098  -4.95782
 Alpha  occ. eigenvalues --   -1.37690  -1.16039  -1.14161  -1.05409  -1.02167
 Alpha  occ. eigenvalues --   -1.01813  -0.94788  -0.84934  -0.84192  -0.80072
 Alpha  occ. eigenvalues --   -0.73775  -0.68733  -0.66035  -0.65241  -0.64579
 Alpha  occ. eigenvalues --   -0.62636  -0.61864  -0.60211  -0.58813  -0.56492
 Alpha  occ. eigenvalues --   -0.55884  -0.55385  -0.53448  -0.50899  -0.50560
 Alpha  occ. eigenvalues --   -0.49632  -0.49302  -0.48601  -0.42082  -0.37903
 Alpha  occ. eigenvalues --   -0.35170  -0.32796
 Alpha virt. eigenvalues --    0.03182   0.03829   0.04237   0.04921   0.05290
 Alpha virt. eigenvalues --    0.05858   0.06149   0.06977   0.07412   0.08117
 Alpha virt. eigenvalues --    0.08349   0.08727   0.09006   0.09856   0.10037

 Mulliken charges:
               1
     1  Cl  -0.490092
     2  H   -0.571912
     3  H   -0.598561
     4  P    0.526348
     5  C    0.104736
     6  C    0.223475
     7  C   -0.275190
     8  C    0.251911
     9  H    0.040918
    10  H    0.052980
    11  C   -0.059613
    12  O   -0.536286
    13  C    0.608046
    14  C    0.991240
    15  H   -0.622335
    16  H   -0.601229
    17  H   -0.069702
    18  C    0.214529
    19  C    0.877872
    20  H    0.100374
    21  H   -0.086283
    22  H   -0.081226
 Sum of Mulliken charges =  -0.00000

 Dipole moment (field-independent basis, Debye):
    X=              1.5425    Y=             -0.9761    Z=              1.4145  Tot=              2.3093

 Test job not archived.
 1\1\GINC-SE361\SP\RHF\Aug-CC-pVDZ\C9H10Cl1O1P1\OHZDE\08-Apr-2025\0\\#t
  hf aug-cc-pvdz iop(5/13=1,5/36=2,99/5=2) pseudo=read geom=check guess
 =(read,tcheck) scf=(maxcycle=1)\\title\\0,1\Cl,0,-2.223794,-1.82232,-0
 .215661\H,0,0.811553,1.515906,-1.791738\H,0,3.192859,1.574276,-1.20142
 5\P,0,-1.43191,-0.001858,-0.95456\C,0,-1.976492,1.266329,0.366511\C,0,
 0.333895,-0.104013,-0.445776\C,0,3.080065,-0.048578,0.207266\C,0,-2.89
 7897,0.910039,1.502326\H,0,-2.439677,0.143734,2.133255\H,0,-3.826962,0
 .482814,1.115293\C,0,1.19486,0.816443,-1.057143\O,0,-1.553063,2.376635

 Normal termination of Gaussian 16 at Tue Apr  8 23:26:32 2025.
