 Gaussian 16, Revision C.01,

 ----------------------------------------------------------------------
 #t hf aug-cc-pvdz symm=none int=(grid=ultrafine) guess=(read,tcheck) s
 table=(opt,rrhf)
 ----------------------------------------------------------------------
 -----
 title
 -----
 Symbolic Z-matrix:
 Charge =  0 Multiplicity = 1

 SCF Done:  E(RHF) =  -229.745671818     A.U. after   15 cycles
 Normal termination of Gaussian 16 at Tue Apr  8 23:17:47 2025.
 Gaussian 16:  ES64L-G16RevC.01  3-Jul-2019

 ----------------------------------------------------------------------
 #t hf aug-cc-pvdz iop(5/13=1,5/36=2,99/5=2) pseudo=read geom=check gue
 ss=(read,tcheck) scf=(maxcycle=1)
 ----------------------------------------------------------------------
 -----
 title
 -----
 Structure from the checkpoint file:  "BDE49_nonexpt_1102_mol1.chk"
 Charge =  0 Multiplicity = 1

                         Standard orientation:
 ---------------------------------------------------------------------
 Center     Atomic      Atomic             Coordinates (Angstroms)
 Number     Number       Type             X           Y           Z
 ---------------------------------------------------------------------
      1          9           0       -1.249907   -0.238091    0.000005
      2          7           0        1.106730   -0.195801    0.000003
      3          8           0        0.126581    0.618739   -0.000008
      4          1           0        1.244712   -0.718243    0.863676
      5          1           0        1.244694   -0.718246   -0.863672
 ---------------------------------------------------------------------

 SCF Done:  E(RHF) =  -229.820717096     A.U. after    2 cycles

 The electronic state is 1-A.
 Alpha  occ. eigenvalues --  -26.08432 -20.76767 -15.75245  -1.57966  -1.45623
 Alpha  occ. eigenvalues --   -1.07763  -0.81684  -0.78012  -0.70877  -0.66559
 Alpha  occ. eigenvalues --   -0.63362  -0.56788  -0.47535
 Alpha virt. eigenvalues --    0.02831   0.04515   0.04519   0.10214   0.12919
 Alpha virt. eigenvalues --    0.17590   0.18268   0.20578   0.22338   0.24015
 Alpha virt. eigenvalues --    0.27350   0.27385   0.33122   0.34473   0.34659

 Mulliken charges:
               1
     1  F   -0.484134
     2  N    0.327228
     3  O   -0.108404
     4  H    0.132655
     5  H    0.132655
 Sum of Mulliken charges =  -0.00000

 Dipole moment (field-independent basis, Debye):
    X=              4.4060    Y=             -1.4190    Z=              0.0000  Tot=              4.6288

 Test job not archived.
 1\1\GINC-SE082\SP\RHF\Aug-CC-pVDZ\F1H2N1O1\OHZDE\08-Apr-2025\0\\#t hf
 aug-cc-pvdz iop(5/13=1,5/36=2,99/5=2) pseudo=read geom=check guess=(re
 ad,tcheck) scf=(maxcycle=1)\\title\\0,1\F,0,-1.249907,-0.238091,0.0000
 05\N,0,1.10673,-0.195801,0.000003\O,0,0.126581,0.618739,-0.000008\H,0,
 1.244712,-0.718243,0.863676\H,0,1.244694,-0.718246,-0.863672\\Version=
 ES64L-G16RevC.01\State=1-A\HF=-229.8207171\RMSD=4.007e-03\Dipole=1.733
 4407,-0.5582721,0.0000034\Quadrupole=-1.3985756,0.2358715,1.1627041,-2
 .349314,0.0000477,-0.0000032\PG=C01 [X(F1H2N1O1)]\\@

 Normal termination of Gaussian 16 at Tue Apr  8 23:17:49 2025.
