 Gaussian 16, Revision C.01,

 ----------------------------------------------------------------------
 #t hf aug-cc-pvdz symm=none int=(grid=ultrafine) guess=(read,tcheck) s
 table=(opt,rrhf)
 ----------------------------------------------------------------------
 -----
 title
 -----
 Symbolic Z-matrix:
 Charge =  0 Multiplicity = 1

 SCF Done:  E(RHF) =  -476.928500193     A.U. after   13 cycles
 Normal termination of Gaussian 16 at Wed Apr  9 00:36:50 2025.
 Gaussian 16:  ES64L-G16RevC.01  3-Jul-2019

 ----------------------------------------------------------------------
 #t hf aug-cc-pvdz iop(5/13=1,5/36=2,99/5=2) pseudo=read geom=check gue
 ss=(read,tcheck) scf=(maxcycle=1)
 ----------------------------------------------------------------------
 -----
 title
 -----
 Structure from the checkpoint file:  "BDE49_nonexpt_579_mol1.chk"
 Charge =  0 Multiplicity = 1

                         Standard orientation:
 ---------------------------------------------------------------------
 Center     Atomic      Atomic             Coordinates (Angstroms)
 Number     Number       Type             X           Y           Z
 ---------------------------------------------------------------------
      1          7           0        0.402672   -0.656789   -0.000000
      2          5           0        0.018219    0.753976    0.000000
      3          9           0       -0.080828   -1.336694    1.104167
      4          9           0       -0.080828   -1.336694   -1.104167
      5          9           0       -0.080828    1.382674    1.146193
      6          9           0       -0.080828    1.382674   -1.146193
 ---------------------------------------------------------------------

 SCF Done:  E(RHF) =  -477.109200807     A.U. after    2 cycles

 The electronic state is 1-A'.
 Alpha  occ. eigenvalues --  -26.19848 -26.19841 -26.18356 -26.18350 -15.83746
 Alpha  occ. eigenvalues --   -7.81016  -1.74913  -1.73508  -1.71915  -1.69070
 Alpha  occ. eigenvalues --   -1.15514  -0.92321  -0.88372  -0.88065  -0.84121
 Alpha  occ. eigenvalues --   -0.83136  -0.80929  -0.79235  -0.77847  -0.76530
 Alpha  occ. eigenvalues --   -0.75903  -0.73299  -0.69666  -0.51065
 Alpha virt. eigenvalues --    0.04467   0.04707   0.05199   0.05839   0.10741
 Alpha virt. eigenvalues --    0.14583   0.15234   0.17041   0.19976   0.20347
 Alpha virt. eigenvalues --    0.22905   0.23310   0.24212   0.25009   0.26569

 Mulliken charges:
               1
     1  N    0.315881
     2  B    0.993549
     3  F   -0.347957
     4  F   -0.347957
     5  F   -0.306758
     6  F   -0.306758
 Sum of Mulliken charges =  -0.00000

 Dipole moment (field-independent basis, Debye):
    X=              0.0850    Y=              0.8845    Z=             -0.0000  Tot=              0.8885

 Test job not archived.
 1\1\GINC-SE184\SP\RHF\Aug-CC-pVDZ\B1F4N1\OHZDE\09-Apr-2025\0\\#t hf au
 g-cc-pvdz iop(5/13=1,5/36=2,99/5=2) pseudo=read geom=check guess=(read
 ,tcheck) scf=(maxcycle=1)\\title\\0,1\N,0,0.402672,-0.656789,0.\B,0,0.
 018219,0.753976,0.\F,0,-0.080828,-1.336694,1.104167\F,0,-0.080828,-1.3
 36694,-1.104167\F,0,-0.080828,1.382674,1.146193\F,0,-0.080828,1.382674
 ,-1.146193\\Version=ES64L-G16RevC.01\State=1-A'\HF=-477.1092008\RMSD=6
 .135e-03\Dipole=0.0334477,0.3479701,0.\Quadrupole=2.6425868,-1.2040358
 ,-1.438551,0.3463117,0.,0.\PG=CS [SG(B1N1),X(F4)]\\@

 Normal termination of Gaussian 16 at Wed Apr  9 00:36:52 2025.
