 Gaussian 16, Revision C.01,

 ----------------------------------------------------------------------
 #t hf aug-cc-pvdz symm=none int=(grid=ultrafine) guess=(read,tcheck) s
 table=(opt,rrhf)
 ----------------------------------------------------------------------
 -----
 title
 -----
 Symbolic Z-matrix:
 Charge =  0 Multiplicity = 1

 SCF Done:  E(RHF) =  -585.087994248     A.U. after   16 cycles
 Normal termination of Gaussian 16 at Tue Apr  8 22:43:48 2025.
 Gaussian 16:  ES64L-G16RevC.01  3-Jul-2019

 ----------------------------------------------------------------------
 #t hf aug-cc-pvdz iop(5/13=1,5/36=2,99/5=2) pseudo=read geom=check gue
 ss=(read,tcheck) scf=(maxcycle=1)
 ----------------------------------------------------------------------
 -----
 title
 -----
 Structure from the checkpoint file:  "BDE49_expt_1532_mol1.chk"
 Charge =  0 Multiplicity = 1

                         Standard orientation:
 ---------------------------------------------------------------------
 Center     Atomic      Atomic             Coordinates (Angstroms)
 Number     Number       Type             X           Y           Z
 ---------------------------------------------------------------------
      1          6           0       -0.128723    1.806853   -0.539538
      2          6           0        0.005611    0.520633    0.218692
      3          7           0        1.210244   -0.308146   -0.304032
      4          7           0       -1.214389   -0.432865    0.047307
      5          8           0       -2.128673   -0.040302   -0.646760
      6          8           0       -1.137105   -1.477362    0.657377
      7          8           0        2.143397   -0.456578    0.446501
      8          8           0        1.093472   -0.699351   -1.450239
      9          9           0        0.163996    0.694901    1.534577
     10          1           0       -0.244854    1.605992   -1.601998
     11          1           0        0.769253    2.403087   -0.367128
     12          1           0       -1.001406    2.347717   -0.174952
 ---------------------------------------------------------------------

 SCF Done:  E(RHF) =  -585.272527876     A.U. after    2 cycles

 The electronic state is 1-A.
 Alpha  occ. eigenvalues --  -26.21435 -20.67057 -20.66742 -20.66475 -20.66174
 Alpha  occ. eigenvalues --  -15.96257 -15.96242 -11.51201 -11.30582  -1.76349
 Alpha  occ. eigenvalues --   -1.60522  -1.59330  -1.42187  -1.42067  -1.18478
 Alpha  occ. eigenvalues --   -1.03004  -0.99517  -0.91531  -0.86224  -0.85885
 Alpha  occ. eigenvalues --   -0.82139  -0.78799  -0.78269  -0.77536  -0.76724
 Alpha  occ. eigenvalues --   -0.74691  -0.67177  -0.63841  -0.63013  -0.56792
 Alpha  occ. eigenvalues --   -0.56423  -0.55067  -0.52961  -0.51568  -0.51133
 Alpha virt. eigenvalues --    0.02601   0.03209   0.03820   0.05130   0.05369
 Alpha virt. eigenvalues --    0.07415   0.10460   0.10952   0.11241   0.12760
 Alpha virt. eigenvalues --    0.13184   0.14642   0.16295   0.16474   0.16686

 Mulliken charges:
               1
     1  C    0.316152
     2  C    1.176828
     3  N    0.330630
     4  N    0.293252
     5  O   -0.526514
     6  O   -0.530622
     7  O   -0.510961
     8  O   -0.553579
     9  F   -0.206252
    10  H    0.116870
    11  H    0.019163
    12  H    0.075033
 Sum of Mulliken charges =  -0.00000

 Dipole moment (field-independent basis, Debye):
    X=             -0.2208    Y=              4.4357    Z=             -0.4931  Tot=              4.4685

 Test job not archived.
 1\1\GINC-SE364\SP\RHF\Aug-CC-pVDZ\C2H3F1N2O4\OHZDE\08-Apr-2025\0\\#t h
 f aug-cc-pvdz iop(5/13=1,5/36=2,99/5=2) pseudo=read geom=check guess=(
 read,tcheck) scf=(maxcycle=1)\\title\\0,1\C,0,-0.128722,1.806853,-0.53
 9538\C,0,0.005611,0.520633,0.218692\N,0,1.210244,-0.308146,-0.304032\N
 ,0,-1.214389,-0.432865,0.047307\O,0,-2.128673,-0.040301,-0.64676\O,0,-
 1.137105,-1.477362,0.657377\O,0,2.143397,-0.456579,0.446501\O,0,1.0934
 72,-0.699351,-1.450239\F,0,0.163996,0.694901,1.534577\H,0,-0.244853,1.
 605992,-1.601998\H,0,0.769254,2.403087,-0.367128\H,0,-1.001405,2.34771

 Normal termination of Gaussian 16 at Tue Apr  8 22:43:54 2025.
