 Gaussian 16, Revision C.01,

 ----------------------------------------------------------------------
 #t hf aug-cc-pvdz symm=none int=(grid=ultrafine) guess=(read,tcheck) s
 table=(opt,rrhf)
 ----------------------------------------------------------------------
 -----
 title
 -----
 Symbolic Z-matrix:
 Charge =  0 Multiplicity = 1

 SCF Done:  E(RHF) =  -802.322140592     A.U. after   12 cycles
 Normal termination of Gaussian 16 at Tue Apr  8 23:09:06 2025.
 Gaussian 16:  ES64L-G16RevC.01  3-Jul-2019

 ----------------------------------------------------------------------
 #t hf aug-cc-pvdz iop(5/13=1,5/36=2,99/5=2) pseudo=read geom=check gue
 ss=(read,tcheck) scf=(maxcycle=1)
 ----------------------------------------------------------------------
 -----
 title
 -----
 Structure from the checkpoint file:  "BDE49_expt_685_mol1.chk"
 Charge =  0 Multiplicity = 1

                         Standard orientation:
 ---------------------------------------------------------------------
 Center     Atomic      Atomic             Coordinates (Angstroms)
 Number     Number       Type             X           Y           Z
 ---------------------------------------------------------------------
      1          6           0        1.241681   -0.145319   -0.038791
      2          7           0        0.000000    0.473904   -0.442939
      3          6           0       -1.241681   -0.145319   -0.038791
      4          8           0        0.000001    1.806163    0.038588
      5          1           0        0.000001    2.333256   -0.769963
      6          9           0        1.295723   -1.394140   -0.502959
      7          9           0        1.419584   -0.185012    1.290982
      8          9           0        2.246899    0.559371   -0.564282
      9          9           0       -1.295724   -1.394140   -0.502960
     10          9           0       -1.419584   -0.185013    1.290982
     11          9           0       -2.246899    0.559372   -0.564282
 ---------------------------------------------------------------------

 SCF Done:  E(RHF) =  -802.608033147     A.U. after    2 cycles

 The electronic state is 1-A.
 Alpha  occ. eigenvalues --  -26.19612 -26.19610 -26.19353 -26.19352 -26.18768
 Alpha  occ. eigenvalues --  -26.18768 -20.67667 -15.76761 -11.59011 -11.59004
 Alpha  occ. eigenvalues --   -1.79681  -1.79308  -1.72580  -1.72207  -1.71784
 Alpha  occ. eigenvalues --   -1.71482  -1.44773  -1.22047  -1.07672  -1.00737
 Alpha  occ. eigenvalues --   -0.93177  -0.92317  -0.92150  -0.90774  -0.89650
 Alpha  occ. eigenvalues --   -0.83902  -0.81138  -0.80308  -0.79653  -0.78830
 Alpha  occ. eigenvalues --   -0.76514  -0.76298  -0.74979  -0.74804  -0.74799
 Alpha  occ. eigenvalues --   -0.74216  -0.73921  -0.70067  -0.68517  -0.58301
 Alpha  occ. eigenvalues --   -0.50823
 Alpha virt. eigenvalues --    0.03137   0.07578   0.07699   0.08058   0.10889
 Alpha virt. eigenvalues --    0.11119   0.11583   0.13305   0.14947   0.15729
 Alpha virt. eigenvalues --    0.18520   0.21240   0.22270   0.23215   0.24190

 Mulliken charges:
               1
     1  C    1.225858
     2  N   -0.499580
     3  C    1.225858
     4  O   -0.538131
     5  H    0.218189
     6  F   -0.265615
     7  F   -0.297785
     8  F   -0.252698
     9  F   -0.265615
    10  F   -0.297785
    11  F   -0.252698
 Sum of Mulliken charges =  -0.00000

 Dipole moment (field-independent basis, Debye):
    X=              0.0000    Y=              1.6507    Z=             -1.6590  Tot=              2.3403

 Test job not archived.
 1\1\GINC-SE041\SP\RHF\Aug-CC-pVDZ\C2H1F6N1O1\OHZDE\08-Apr-2025\0\\#t h
 f aug-cc-pvdz iop(5/13=1,5/36=2,99/5=2) pseudo=read geom=check guess=(
 read,tcheck) scf=(maxcycle=1)\\title\\0,1\C,0,1.241681,-0.145319,-0.03
 8791\N,0,0.,0.473904,-0.442939\C,0,-1.241681,-0.145319,-0.038791\O,0,0
 .,1.806163,0.038588\H,0,0.,2.333256,-0.769963\F,0,1.295723,-1.39414,-0
 .502959\F,0,1.419584,-0.185012,1.290982\F,0,2.246899,0.559371,-0.56428
 2\F,0,-1.295724,-1.39414,-0.50296\F,0,-1.419584,-0.185013,1.290982\F,0
 ,-2.246899,0.559371,-0.564282\\Version=ES64L-G16RevC.01\State=1-A\HF=-

 Normal termination of Gaussian 16 at Tue Apr  8 23:09:14 2025.
