 Gaussian 16, Revision C.01,

 ----------------------------------------------------------------------
 #t hf aug-cc-pvdz symm=none int=(grid=ultrafine) guess=(read,tcheck) s
 table=opt
 ----------------------------------------------------------------------
 -----
 title
 -----
 Symbolic Z-matrix:
 Charge =  0 Multiplicity = 2

 SCF Done:  E(UHF) =  -671.385860384     A.U. after   17 cycles
 Normal termination of Gaussian 16 at Wed Apr  9 00:08:23 2025.
 Gaussian 16:  ES64L-G16RevC.01  3-Jul-2019

 ----------------------------------------------------------------------
 #t hf aug-cc-pvdz iop(5/13=1,5/36=2,99/5=2) pseudo=read geom=check gue
 ss=(read,tcheck) scf=(maxcycle=1)
 ----------------------------------------------------------------------
 -----
 title
 -----
 Structure from the checkpoint file:  "BDE49_nonexpt_2277_mol2.chk"
 Charge =  0 Multiplicity = 2

                         Standard orientation:
 ---------------------------------------------------------------------
 Center     Atomic      Atomic             Coordinates (Angstroms)
 Number     Number       Type             X           Y           Z
 ---------------------------------------------------------------------
      1         14           0        1.831571   -0.886083    0.517412
      2          6           0        0.103729   -0.174027    0.043598
      3          6           0        0.320937    0.865392   -1.063395
      4          8           0        1.358123    1.749390   -0.618066
      5          1           0        0.609750    0.357500   -1.992370
      6          1           0       -0.605554    1.416799   -1.248701
      7          1           0        1.531002    2.393512   -1.310880
      8          6           0       -0.511936    0.485574    1.284030
      9          6           0       -0.791092   -1.328349   -0.474682
     10          8           0       -1.858314    0.903340    0.976157
     11          1           0        0.090780    1.351641    1.575134
     12          1           0       -0.531866   -0.228877    2.118186
     13          1           0       -2.229209    1.342674    1.746693
     14          8           0       -1.977434   -0.877568   -1.116701
     15          1           0       -1.024522   -2.003569    0.361329
     16          1           0       -0.255287   -1.916118   -1.225752
     17          1           0       -2.408161   -0.281932   -0.488387
     18          1           0        2.615416   -1.156001   -0.715210
     19          1           0        1.656828   -2.163303    1.267767
 ---------------------------------------------------------------------

 SCF Done:  E(UHF) =  -671.523142362     A.U. after    2 cycles

 The electronic state is 2-A.
 Alpha  occ. eigenvalues --  -69.06882 -20.59093 -20.58128 -20.55458 -11.30091
 Alpha  occ. eigenvalues --  -11.29055 -11.28835 -11.24234  -6.82233  -3.93550
 Alpha  occ. eigenvalues --   -3.92653  -3.92648  -1.33981  -1.32768  -1.30600
 Alpha  occ. eigenvalues --   -1.06341  -0.92707  -0.91488  -0.78449  -0.75190
 Alpha  occ. eigenvalues --   -0.71499  -0.69165  -0.67998  -0.65047  -0.63017
 Alpha  occ. eigenvalues --   -0.60627  -0.59638  -0.57949  -0.57029  -0.53015
 Alpha  occ. eigenvalues --   -0.48994  -0.47995  -0.47405  -0.46236  -0.43920
 Alpha  occ. eigenvalues --   -0.43084  -0.32157
 Alpha virt. eigenvalues --    0.02900   0.03864   0.04290   0.05238   0.05888
 Alpha virt. eigenvalues --    0.06323   0.06722   0.06910   0.07549   0.08953
 Alpha virt. eigenvalues --    0.09216   0.09629   0.10047   0.11127   0.12613

  Beta  occ. eigenvalues --  -69.06298 -20.59098 -20.58089 -20.55405 -11.30083
  Beta  occ. eigenvalues --  -11.29065 -11.28786 -11.24199  -6.81344  -3.92250
  Beta  occ. eigenvalues --   -3.92236  -3.91354  -1.33974  -1.32700  -1.30445
  Beta  occ. eigenvalues --   -1.06118  -0.92650  -0.91356  -0.77960  -0.74728
  Beta  occ. eigenvalues --   -0.71410  -0.69025  -0.66761  -0.63940  -0.62332
  Beta  occ. eigenvalues --   -0.60484  -0.58897  -0.57811  -0.56859  -0.52883
  Beta  occ. eigenvalues --   -0.48806  -0.47631  -0.46893  -0.46112  -0.43787
  Beta  occ. eigenvalues --   -0.42123
  Beta virt. eigenvalues --    0.02797   0.03770   0.04071   0.04381   0.05928
  Beta virt. eigenvalues --    0.06142   0.06401   0.06815   0.07098   0.08573
  Beta virt. eigenvalues --    0.09003   0.09240   0.09943   0.10345   0.11371

 Mulliken charges and spin densities:
               1          2
     1  Si  -0.700822   1.061947
     2  C   -1.269950  -0.168669
     3  C    1.011794   0.052695
     4  O   -0.577338  -0.010633
     5  H   -0.124203  -0.003953
     6  H   -0.023263   0.001630
     7  H    0.149098  -0.000696
     8  C    1.188549   0.071218
     9  C    1.237860  -0.029169
    10  O   -0.637368   0.000650
    11  H   -0.106531   0.002221
    12  H   -0.137661   0.000211
    13  H    0.155543   0.000211
    14  O   -0.560306   0.009564
    15  H   -0.132808  -0.006182
    16  H   -0.189130  -0.011625
    17  H    0.202342   0.000059
    18  H    0.246038   0.007090
    19  H    0.268157   0.023428
 Sum of Mulliken charges =   0.00000   1.00000

 Dipole moment (field-independent basis, Debye):
    X=              0.3165    Y=              1.7661    Z=              1.5887  Tot=              2.3965
                          Isotropic Fermi Contact Couplings
        Atom                 a.u.       MegaHertz       Gauss      10(-4) cm-1
     1  Si(29)             0.57343    -509.62342    -181.84631    -169.99207
     2  C(13)              0.00325       3.64810       1.30173       1.21688
     3  C(13)             -0.00188      -2.10892      -0.75252      -0.70346
     4  O(17)              0.00984      -5.96751      -2.12935      -1.99055
     5  H(1)               0.00004       0.20103       0.07173       0.06706
     6  H(1)               0.00052       2.31735       0.82689       0.77298
     7  H(1)               0.00007       0.32243       0.11505       0.10755
     8  C(13)              0.00280       3.15190       1.12468       1.05136

 Normal termination of Gaussian 16 at Wed Apr  9 00:08:34 2025.
