 Gaussian 16, Revision C.01,

 ----------------------------------------------------------------------
 #t hf aug-cc-pvdz symm=none int=(grid=ultrafine) guess=(read,tcheck) s
 table=(opt,rrhf)
 ----------------------------------------------------------------------
 -----
 title
 -----
 Symbolic Z-matrix:
 Charge =  0 Multiplicity = 1

 SCF Done:  E(RHF) =  -752.351361033     A.U. after   13 cycles
 Normal termination of Gaussian 16 at Wed Apr  9 00:23:10 2025.
 Gaussian 16:  ES64L-G16RevC.01  3-Jul-2019

 ----------------------------------------------------------------------
 #t hf aug-cc-pvdz iop(5/13=1,5/36=2,99/5=2) pseudo=read geom=check gue
 ss=(read,tcheck) scf=(maxcycle=1)
 ----------------------------------------------------------------------
 -----
 title
 -----
 Structure from the checkpoint file:  "BDE49_nonexpt_270_mol1.chk"
 Charge =  0 Multiplicity = 1

                         Standard orientation:
 ---------------------------------------------------------------------
 Center     Atomic      Atomic             Coordinates (Angstroms)
 Number     Number       Type             X           Y           Z
 ---------------------------------------------------------------------
      1          6           0        0.263638    0.455910    0.000007
      2          5           0       -1.138918   -0.314333    0.000014
      3          8           0       -2.247739    0.479614   -0.000018
      4          6           0        0.443853    1.296741    1.265607
      5          1           0        0.389345    0.685305    2.168367
      6          1           0       -0.355952    2.041417    1.309560
      7          6           0        0.443834    1.296754   -1.265589
      8         17           0        1.625460   -0.834311   -0.000010
      9          1           0       -0.355971    2.041430   -1.309523
     10          1           0        0.389313    0.685326   -2.168354
     11          1           0        1.405937    1.815091   -1.256983
     12          1           0        1.405956    1.815078    1.256991
     13          1           0       -3.061784   -0.035889   -0.000029
     14          8           0       -1.281894   -1.664267    0.000006
     15          1           0       -0.425954   -2.112020    0.000014
 ---------------------------------------------------------------------

 SCF Done:  E(RHF) =  -752.466066755     A.U. after    2 cycles

 The electronic state is 1-A.
 Alpha  occ. eigenvalues -- -103.64462 -20.59052 -20.58859 -11.30253 -11.24440
 Alpha  occ. eigenvalues --  -11.24432 -10.67742  -8.33434  -8.33204  -8.33183
 Alpha  occ. eigenvalues --   -7.66966  -1.35469  -1.31813  -1.15666  -1.03517
 Alpha  occ. eigenvalues --   -0.94981  -0.82159  -0.77528  -0.74835  -0.66159
 Alpha  occ. eigenvalues --   -0.61855  -0.61309  -0.60486  -0.59397  -0.58235
 Alpha  occ. eigenvalues --   -0.55707  -0.52901  -0.51424  -0.50177  -0.48010
 Alpha  occ. eigenvalues --   -0.44530  -0.43924
 Alpha virt. eigenvalues --    0.02967   0.04621   0.04886   0.05460   0.06515
 Alpha virt. eigenvalues --    0.06662   0.06924   0.07549   0.07847   0.09599
 Alpha virt. eigenvalues --    0.10138   0.11078   0.11669   0.13284   0.14524

 Mulliken charges:
               1
     1  C   -1.477587
     2  B    0.976583
     3  O   -0.561224
     4  C    0.816522
     5  H   -0.088354
     6  H    0.008516
     7  C    0.816512
     8  Cl  -0.336074
     9  H    0.008516
    10  H   -0.088348
    11  H   -0.019427
    12  H   -0.019425
    13  H    0.159149
    14  O   -0.378151
    15  H    0.182792
 Sum of Mulliken charges =  -0.00000

 Dipole moment (field-independent basis, Debye):
    X=             -1.0387    Y=              1.0252    Z=              0.0001  Tot=              1.4594

 Test job not archived.
 1\1\GINC-SE247\SP\RHF\Aug-CC-pVDZ\C3H8B1Cl1O2\OHZDE\09-Apr-2025\0\\#t
 hf aug-cc-pvdz iop(5/13=1,5/36=2,99/5=2) pseudo=read geom=check guess=
 (read,tcheck) scf=(maxcycle=1)\\title\\0,1\C,0,0.263638,0.45591,0.0000
 07\B,0,-1.138918,-0.314333,0.000014\O,0,-2.247739,0.479614,-0.000018\C
 ,0,0.443853,1.296741,1.265607\H,0,0.389345,0.685305,2.168367\H,0,-0.35
 5952,2.041417,1.30956\C,0,0.443834,1.296754,-1.265589\Cl,0,1.62546,-0.
 834311,-0.00001\H,0,-0.355971,2.04143,-1.309523\H,0,0.389313,0.685326,
 -2.168354\H,0,1.405937,1.815091,-1.256983\H,0,1.405956,1.815078,1.2569

 Normal termination of Gaussian 16 at Wed Apr  9 00:23:16 2025.
