 Gaussian 16, Revision C.01,

 ----------------------------------------------------------------------
 #t hf aug-cc-pvdz symm=none int=(grid=ultrafine) guess=(read,tcheck) s
 table=(opt,rrhf)
 ----------------------------------------------------------------------
 -----
 title
 -----
 Symbolic Z-matrix:
 Charge =  0 Multiplicity = 1

 SCF Done:  E(RHF) =  -158.378974088     A.U. after   13 cycles
 Normal termination of Gaussian 16 at Wed Apr  9 00:35:49 2025.
 Gaussian 16:  ES64L-G16RevC.01  3-Jul-2019

 ----------------------------------------------------------------------
 #t hf aug-cc-pvdz iop(5/13=1,5/36=2,99/5=2) pseudo=read geom=check gue
 ss=(read,tcheck) scf=(maxcycle=1)
 ----------------------------------------------------------------------
 -----
 title
 -----
 Structure from the checkpoint file:  "BDE49_nonexpt_541_mol1.chk"
 Charge =  0 Multiplicity = 1

                         Standard orientation:
 ---------------------------------------------------------------------
 Center     Atomic      Atomic             Coordinates (Angstroms)
 Number     Number       Type             X           Y           Z
 ---------------------------------------------------------------------
      1          5           0       -1.985093   -0.244579    0.000077
      2          1           0       -2.537619   -0.422204   -1.043713
      3          1           0       -2.538077   -0.420000    1.043998
      4          7           0       -0.691930    0.167474   -0.000075
      5          6           0        0.497693    0.546288   -0.000204
      6          6           0        1.689589   -0.372031    0.000146
      7          1           0        2.312402   -0.179223   -0.879816
      8          1           0        1.377661   -1.416347    0.000473
      9          1           0        2.312321   -0.178647    0.880038
     10          1           0        0.718594    1.621455   -0.000493
 ---------------------------------------------------------------------

 SCF Done:  E(RHF) =  -158.432409022     A.U. after    2 cycles

 The electronic state is 1-A.
 Alpha  occ. eigenvalues --  -15.62745 -11.31792 -11.25047  -7.60081  -1.19268
 Alpha  occ. eigenvalues --   -0.99696  -0.84759  -0.71594  -0.62351  -0.59780
 Alpha  occ. eigenvalues --   -0.57088  -0.55248  -0.52620  -0.40311  -0.39122
 Alpha virt. eigenvalues --    0.03189   0.04260   0.04501   0.05173   0.06914
 Alpha virt. eigenvalues --    0.07031   0.07390   0.08313   0.11072   0.12093
 Alpha virt. eigenvalues --    0.12691   0.13182   0.14775   0.15095   0.15777

 Mulliken charges:
               1
     1  B   -0.490583
     2  H    0.211281
     3  H    0.211326
     4  N   -0.190859
     5  C    0.462576
     6  C    0.152615
     7  H    0.016074
     8  H   -0.138166
     9  H    0.016080
    10  H   -0.250344
 Sum of Mulliken charges =  -0.00000

 Dipole moment (field-independent basis, Debye):
    X=              2.6012    Y=              0.4904    Z=             -0.0001  Tot=              2.6470

 Test job not archived.
 1\1\GINC-SE099\SP\RHF\Aug-CC-pVDZ\C2H6B1N1\OHZDE\09-Apr-2025\0\\#t hf
 aug-cc-pvdz iop(5/13=1,5/36=2,99/5=2) pseudo=read geom=check guess=(re
 ad,tcheck) scf=(maxcycle=1)\\title\\0,1\B,0,-1.985093,-0.244579,0.0000
 77\H,0,-2.537619,-0.422204,-1.043713\H,0,-2.538077,-0.42,1.043998\N,0,
 -0.69193,0.167474,-0.000075\C,0,0.497693,0.546288,-0.000204\C,0,1.6895
 89,-0.372031,0.000146\H,0,2.312402,-0.179223,-0.879816\H,0,1.377661,-1
 .416347,0.000473\H,0,2.312321,-0.178647,0.880038\H,0,0.718594,1.621455
 ,-0.000493\\Version=ES64L-G16RevC.01\State=1-A\HF=-158.432409\RMSD=2.7

 Normal termination of Gaussian 16 at Wed Apr  9 00:35:52 2025.
