 Gaussian 16, Revision C.01,

 ----------------------------------------------------------------------
 #t hf aug-cc-pvdz symm=none int=(grid=ultrafine) guess=(read,tcheck) s
 table=opt
 ----------------------------------------------------------------------
 -----
 title
 -----
 Symbolic Z-matrix:
 Charge =  0 Multiplicity = 2

 SCF Done:  E(UHF) =  -912.758133447     A.U. after   19 cycles
 Normal termination of Gaussian 16 at Tue Apr  8 22:57:55 2025.
 Gaussian 16:  ES64L-G16RevC.01  3-Jul-2019

 ----------------------------------------------------------------------
 #t hf aug-cc-pvdz iop(5/13=1,5/36=2,99/5=2) pseudo=read geom=check gue
 ss=(read,tcheck) scf=(maxcycle=1)
 ----------------------------------------------------------------------
 -----
 title
 -----
 Structure from the checkpoint file:  "BDE49_expt_1969_mol2.chk"
 Charge =  0 Multiplicity = 2

                         Standard orientation:
 ---------------------------------------------------------------------
 Center     Atomic      Atomic             Coordinates (Angstroms)
 Number     Number       Type             X           Y           Z
 ---------------------------------------------------------------------
      1         16           0       -1.747307    0.000001   -0.621586
      2         16           0       -0.556214   -0.000005    0.968978
      3          6           0        1.206445    0.000002    0.348487
      4          6           0        1.519717   -1.275549   -0.430015
      5          1           0        0.917716   -1.327728   -1.340146
      6          1           0        1.321987   -2.169615    0.164839
      7          1           0        2.575130   -1.282223   -0.718879
      8          6           0        1.519706    1.275555   -0.430015
      9          1           0        1.751499    0.000004    1.299361
     10          1           0        0.917705    1.327729   -1.340146
     11          1           0        2.575119    1.282238   -0.718879
     12          1           0        1.321970    2.169619    0.164839
 ---------------------------------------------------------------------

 SCF Done:  E(UHF) =  -912.835794214     A.U. after    2 cycles

 The electronic state is 2-A.
 Alpha  occ. eigenvalues --  -93.57700 -93.56184 -11.29144 -11.24178 -11.24169
 Alpha  occ. eigenvalues --   -8.87256  -8.85853  -6.21314  -6.21243  -6.20973
 Alpha  occ. eigenvalues --   -6.20866  -6.19588  -6.19107  -1.10628  -1.02206
 Alpha  occ. eigenvalues --   -0.94760  -0.87067  -0.76330  -0.64497  -0.61328
 Alpha  occ. eigenvalues --   -0.58969  -0.55819  -0.52458  -0.51426  -0.48602
 Alpha  occ. eigenvalues --   -0.48564  -0.46470  -0.36612  -0.35280
 Alpha virt. eigenvalues --    0.03283   0.04712   0.04747   0.05859   0.07092
 Alpha virt. eigenvalues --    0.07277   0.07980   0.08530   0.09208   0.12502
 Alpha virt. eigenvalues --    0.14000   0.14549   0.14774   0.14797   0.16016

  Beta  occ. eigenvalues --  -93.57435 -93.55398 -11.29205 -11.24153 -11.24144
  Beta  occ. eigenvalues --   -8.86956  -8.84978  -6.21126  -6.20851  -6.20132
  Beta  occ. eigenvalues --   -6.19147  -6.18613  -6.17436  -1.09872  -0.99484
  Beta  occ. eigenvalues --   -0.94677  -0.84055  -0.72856  -0.64468  -0.60962
  Beta  occ. eigenvalues --   -0.58446  -0.55628  -0.51939  -0.51060  -0.48035
  Beta  occ. eigenvalues --   -0.45270  -0.38414  -0.34937
  Beta virt. eigenvalues --    0.01569   0.03286   0.04747   0.04767   0.05877
  Beta virt. eigenvalues --    0.07172   0.07293   0.08241   0.08784   0.09265
  Beta virt. eigenvalues --    0.12584   0.14016   0.14840   0.14985   0.15051

 Mulliken charges and spin densities:
               1          2
     1  S   -0.107343   0.875735
     2  S    0.153029   0.196600
     3  C   -0.748143  -0.082248
     4  C    0.558649   0.011311
     5  H   -0.040732  -0.005206
     6  H   -0.080708   0.001075
     7  H   -0.039993  -0.001792
     8  C    0.558653   0.011311
     9  H   -0.091978  -0.000863
    10  H   -0.040733  -0.005207
    11  H   -0.039993  -0.001792
    12  H   -0.080709   0.001075
 Sum of Mulliken charges =  -0.00000   1.00000

 Dipole moment (field-independent basis, Debye):
    X=              2.5865    Y=              0.0000    Z=             -0.1331  Tot=              2.5900
                          Isotropic Fermi Contact Couplings
        Atom                 a.u.       MegaHertz       Gauss      10(-4) cm-1
     1  S(33)              0.18941      65.05760      23.21417      21.70088
     2  S(33)              0.11144      38.27788      13.65850      12.76813
     3  C(13)             -0.01027     -11.54668      -4.12014      -3.85156
     4  C(13)              0.00360       4.04732       1.44419       1.35004
     5  H(1)              -0.00021      -0.95279      -0.33998      -0.31782
     6  H(1)              -0.00016      -0.69627      -0.24845      -0.23225
     7  H(1)              -0.00032      -1.41038      -0.50326      -0.47045
     8  C(13)              0.00360       4.04721       1.44415       1.35001

 Normal termination of Gaussian 16 at Tue Apr  8 22:57:59 2025.
