 Gaussian 16, Revision C.01,

 ----------------------------------------------------------------------
 #t hf aug-cc-pvdz symm=none int=(grid=ultrafine) guess=(read,tcheck) s
 table=(opt,rrhf)
 ----------------------------------------------------------------------
 -----
 title
 -----
 Symbolic Z-matrix:
 Charge =  0 Multiplicity = 1

 SCF Done:  E(RHF) =  -969.601297054     A.U. after   12 cycles

 1\1\GINC-SE361\Stability\RHF\Aug-CC-pVDZ\B2Cl2H2\OHZDE\08-Apr-2025\0\\
 #t hf aug-cc-pvdz symm=none int=(grid=ultrafine) guess=(read,tcheck) s
 table=(opt,rrhf)\\title\\0,1\B,0,-0.000031,2.04413,0.000095\B,0,-0.000
 001,0.38202,0.000208\Cl,0,-1.521811,-0.513386,-0.000051\Cl,0,1.521837,
 -0.513336,-0.000044\H,0,-0.000136,2.661834,1.019863\H,0,-0.000141,2.66
 1697,-1.019756\\Version=ES64L-G16RevC.01\HF=-969.6012971\RMSD=1.852e-0
 9\Dipole=0.0000364,0.4343174,0.0001516\Quadrupole=-0.3822072,-0.047787
 2,0.4299944,0.0003188,-0.0000078,0.0000459\PG=Unknown\\@

 Normal termination of Gaussian 16 at Tue Apr  8 23:34:01 2025.
 Gaussian 16:  ES64L-G16RevC.01  3-Jul-2019

 ----------------------------------------------------------------------
 #t hf aug-cc-pvdz iop(5/13=1,5/36=2,99/5=2) pseudo=read geom=check gue
 ss=(read,tcheck) scf=(maxcycle=1)
 ----------------------------------------------------------------------
 -----
 title
 -----
 Structure from the checkpoint file:  "BDE49_nonexpt_14_mol1.chk"
 Charge =  0 Multiplicity = 1

                         Standard orientation:
 ---------------------------------------------------------------------
 Center     Atomic      Atomic             Coordinates (Angstroms)
 Number     Number       Type             X           Y           Z
 ---------------------------------------------------------------------
      1          5           0       -0.000030    2.044130    0.000095
      2          5           0       -0.000001    0.382020    0.000208
      3         17           0       -1.521811   -0.513386   -0.000051
      4         17           0        1.521837   -0.513337   -0.000044
      5          1           0       -0.000135    2.661834    1.019863
      6          1           0       -0.000140    2.661697   -1.019756
 ---------------------------------------------------------------------

 SCF Done:  E(RHF) =  -969.652025013     A.U. after    2 cycles

 The electronic state is 1-A.
 Alpha  occ. eigenvalues -- -103.67605-103.67604 -10.71095 -10.71062  -8.36767
 Alpha  occ. eigenvalues --   -8.36762  -8.36547  -8.36545  -8.36515  -8.36512
 Alpha  occ. eigenvalues --   -7.72186  -7.63349  -1.18583  -1.15070  -0.75114
 Alpha  occ. eigenvalues --   -0.66167  -0.58829  -0.55710  -0.54229  -0.50387
 Alpha  occ. eigenvalues --   -0.48645  -0.47667  -0.44165
 Alpha virt. eigenvalues --    0.03222   0.03875   0.04729   0.05265   0.06777
 Alpha virt. eigenvalues --    0.07300   0.07303   0.07950   0.09184   0.10306
 Alpha virt. eigenvalues --    0.13532   0.14203   0.14775   0.14959   0.16367

 Mulliken charges:
               1
     1  B   -0.066238
     2  B    0.468247
     3  Cl  -0.357664
     4  Cl  -0.357664
     5  H    0.156671
     6  H    0.156649
 Sum of Mulliken charges =   0.00000

 Dipole moment (field-independent basis, Debye):
    X=              0.0001    Y=              1.1788    Z=              0.0004  Tot=              1.1788

 Test job not archived.
 1\1\GINC-SE361\SP\RHF\Aug-CC-pVDZ\B2Cl2H2\OHZDE\08-Apr-2025\0\\#t hf a
 ug-cc-pvdz iop(5/13=1,5/36=2,99/5=2) pseudo=read geom=check guess=(rea
 d,tcheck) scf=(maxcycle=1)\\title\\0,1\B,0,-0.000031,2.04413,0.000095\
 B,0,-0.000001,0.38202,0.000208\Cl,0,-1.521811,-0.513386,-0.000051\Cl,0
 ,1.521837,-0.513336,-0.000044\H,0,-0.000136,2.661834,1.019863\H,0,-0.0
 00141,2.661697,-1.019756\\Version=ES64L-G16RevC.01\State=1-A\HF=-969.6
 52025\RMSD=3.192e-03\Dipole=0.0000372,0.4637905,0.0001641\Quadrupole=-
 0.4154313,-0.0234069,0.4388382,0.0003223,-0.0000079,0.000055\PG=C01 [X

 Normal termination of Gaussian 16 at Tue Apr  8 23:34:03 2025.
