 Gaussian 16, Revision C.01,

 ----------------------------------------------------------------------
 #t hf aug-cc-pvdz symm=none int=(grid=ultrafine) guess=(read,tcheck) s
 table=(opt,rrhf)
 ----------------------------------------------------------------------
 -----
 title
 -----
 Symbolic Z-matrix:
 Charge =  0 Multiplicity = 1

 SCF Done:  E(RHF) =  -1454.79816377     A.U. after   13 cycles

 1\1\GINC-SE060\Stability\RHF\Aug-CC-pVDZ\C2H1Cl3\OHZDE\08-Apr-2025\0\\
 #t hf aug-cc-pvdz symm=none int=(grid=ultrafine) guess=(read,tcheck) s
 table=(opt,rrhf)\\title\\0,1\C,0,0.642036,-0.906119,-0.000004\C,0,-0.4
 25313,-0.109464,-0.000006\Cl,0,2.274137,-0.342974,0.000001\H,0,0.53631
 5,-1.980635,-0.000001\Cl,0,-0.359334,1.614587,0.\Cl,0,-2.022841,-0.796
 665,0.000002\\Version=ES64L-G16RevC.01\HF=-1454.7981638\RMSD=4.252e-09
 \Dipole=-0.0120895,-0.4162891,0.0000008\Quadrupole=-1.0660036,2.228230
 1,-1.1622265,0.0524625,-0.0000007,0.0000001\PG=Unknown\\@

 Normal termination of Gaussian 16 at Tue Apr  8 22:46:30 2025.
 Gaussian 16:  ES64L-G16RevC.01  3-Jul-2019

 ----------------------------------------------------------------------
 #t hf aug-cc-pvdz iop(5/13=1,5/36=2,99/5=2) pseudo=read geom=check gue
 ss=(read,tcheck) scf=(maxcycle=1)
 ----------------------------------------------------------------------
 -----
 title
 -----
 Structure from the checkpoint file:  "BDE49_expt_1626_mol1.chk"
 Charge =  0 Multiplicity = 1

                         Standard orientation:
 ---------------------------------------------------------------------
 Center     Atomic      Atomic             Coordinates (Angstroms)
 Number     Number       Type             X           Y           Z
 ---------------------------------------------------------------------
      1          6           0       -0.642036   -0.906119    0.000004
      2          6           0        0.425313   -0.109464    0.000006
      3         17           0       -2.274137   -0.342974   -0.000001
      4          1           0       -0.536315   -1.980635    0.000001
      5         17           0        0.359334    1.614587   -0.000000
      6         17           0        2.022841   -0.796665   -0.000002
 ---------------------------------------------------------------------

 SCF Done:  E(RHF) =  -1454.88032765     A.U. after    2 cycles

 The electronic state is 1-A.
 Alpha  occ. eigenvalues -- -103.70021-103.69938-103.69194 -11.39118 -11.34094
 Alpha  occ. eigenvalues --  -10.73289 -10.73228 -10.72469  -8.39027  -8.38968
 Alpha  occ. eigenvalues --   -8.38690  -8.38670  -8.38620  -8.38612  -8.38210
 Alpha  occ. eigenvalues --   -8.37875  -8.37870  -1.26052  -1.20035  -1.17058
 Alpha  occ. eigenvalues --   -1.01788  -0.79044  -0.69420  -0.66256  -0.59838
 Alpha  occ. eigenvalues --   -0.57826  -0.52303  -0.51573  -0.50168  -0.49470
 Alpha  occ. eigenvalues --   -0.47772  -0.38074
 Alpha virt. eigenvalues --    0.03884   0.07028   0.07147   0.08511   0.09353
 Alpha virt. eigenvalues --    0.10879   0.12761   0.13548   0.14342   0.14872
 Alpha virt. eigenvalues --    0.15597   0.15972   0.16646   0.18007   0.18414

 Mulliken charges:
               1
     1  C    0.460973
     2  C    0.250676
     3  Cl  -0.173785
     4  H   -0.190362
     5  Cl  -0.140623
     6  Cl  -0.206880
 Sum of Mulliken charges =  -0.00000

 Dipole moment (field-independent basis, Debye):
    X=              0.0252    Y=             -1.1130    Z=             -0.0000  Tot=              1.1133

 Test job not archived.
 1\1\GINC-SE060\SP\RHF\Aug-CC-pVDZ\C2H1Cl3\OHZDE\08-Apr-2025\0\\#t hf a
 ug-cc-pvdz iop(5/13=1,5/36=2,99/5=2) pseudo=read geom=check guess=(rea
 d,tcheck) scf=(maxcycle=1)\\title\\0,1\C,0,0.642036,-0.906119,-0.00000
 4\C,0,-0.425313,-0.109464,-0.000006\Cl,0,2.274137,-0.342974,0.000001\H
 ,0,0.536315,-1.980635,-0.000001\Cl,0,-0.359334,1.614587,0.\Cl,0,-2.022
 841,-0.796665,0.000002\\Version=ES64L-G16RevC.01\State=1-A\HF=-1454.88
 03277\RMSD=5.263e-03\Dipole=-0.0099171,-0.4378963,0.0000007\Quadrupole
 =-1.1074004,2.2713857,-1.1639853,0.0614104,-0.0000007,0.0000002\PG=C01

 Normal termination of Gaussian 16 at Tue Apr  8 22:46:32 2025.
