 Gaussian 16, Revision C.01,

 ----------------------------------------------------------------------
 #t hf aug-cc-pvdz symm=none int=(grid=ultrafine) guess=(read,tcheck) s
 table=(opt,rrhf)
 ----------------------------------------------------------------------
 -----
 title
 -----
 Symbolic Z-matrix:
 Charge =  0 Multiplicity = 1

 SCF Done:  E(RHF) =  -441.936209458     A.U. after   11 cycles
 Normal termination of Gaussian 16 at Wed Apr  9 00:35:52 2025.
 Gaussian 16:  ES64L-G16RevC.01  3-Jul-2019

 ----------------------------------------------------------------------
 #t hf aug-cc-pvdz iop(5/13=1,5/36=2,99/5=2) pseudo=read geom=check gue
 ss=(read,tcheck) scf=(maxcycle=1)
 ----------------------------------------------------------------------
 -----
 title
 -----
 Structure from the checkpoint file:  "BDE49_nonexpt_539_mol1.chk"
 Charge =  0 Multiplicity = 1

                         Standard orientation:
 ---------------------------------------------------------------------
 Center     Atomic      Atomic             Coordinates (Angstroms)
 Number     Number       Type             X           Y           Z
 ---------------------------------------------------------------------
      1          6           0       -0.003031   -1.600006    0.432514
      2          8           0        1.059328   -1.190534   -0.386825
      3          6           0        1.724087   -0.005806   -0.024718
      4          8           0        1.067711    1.183732   -0.386323
      5          6           0        0.007712    1.599778    0.432751
      6          8           0       -1.265419    1.235120   -0.058822
      7          5           0       -1.808015    0.006074   -0.287192
      8          1           0       -2.911097    0.009797   -0.733461
      9          8           0       -1.273970   -1.226595   -0.058174
     10          1           0        2.656731   -0.008964   -0.584006
     11          1           0        1.919671   -0.006739    1.059762
     12          1           0        0.018686    2.688659    0.427908
     13          1           0        0.144703    1.229999    1.458349
     14          1           0        0.136905   -1.231764    1.458265
     15          1           0        0.000669   -2.688935    0.427009
 ---------------------------------------------------------------------

 SCF Done:  E(RHF) =  -442.087198788     A.U. after    2 cycles

 The electronic state is 1-A.
 Alpha  occ. eigenvalues --  -20.60149 -20.60146 -20.58561 -20.58561 -11.36724
 Alpha  occ. eigenvalues --  -11.36722 -11.36467  -7.66607  -1.41466  -1.36834
 Alpha  occ. eigenvalues --   -1.34320  -1.30242  -1.01309  -0.94097  -0.88873
 Alpha  occ. eigenvalues --   -0.79037  -0.74231  -0.74214  -0.72639  -0.68825
 Alpha  occ. eigenvalues --   -0.67668  -0.65689  -0.61058  -0.57547  -0.54539
 Alpha  occ. eigenvalues --   -0.53101  -0.52409  -0.50876  -0.50381  -0.48050
 Alpha  occ. eigenvalues --   -0.47141
 Alpha virt. eigenvalues --    0.02941   0.04420   0.04503   0.04683   0.05857
 Alpha virt. eigenvalues --    0.06084   0.06854   0.07413   0.07932   0.10742
 Alpha virt. eigenvalues --    0.11431   0.12558   0.13712   0.14097   0.14187

 Mulliken charges:
               1
     1  C    1.151107
     2  O   -0.640116
     3  C    1.024137
     4  O   -0.640069
     5  C    1.151352
     6  O   -0.466920
     7  B   -0.067127
     8  H    0.417973
     9  O   -0.466848
    10  H   -0.327432
    11  H   -0.008762
    12  H   -0.359633
    13  H   -0.204106
    14  H   -0.204024
    15  H   -0.359532
 Sum of Mulliken charges =  -0.00000

 Dipole moment (field-independent basis, Debye):
    X=              2.0263    Y=             -0.0080    Z=              3.3269  Tot=              3.8954

 Test job not archived.
 1\1\GINC-SE229\SP\RHF\Aug-CC-pVDZ\C3H7B1O4\OHZDE\09-Apr-2025\0\\#t hf
 aug-cc-pvdz iop(5/13=1,5/36=2,99/5=2) pseudo=read geom=check guess=(re
 ad,tcheck) scf=(maxcycle=1)\\title\\0,1\C,0,-0.003027,-1.600006,0.4325
 14\O,0,1.059331,-1.190532,-0.386825\C,0,1.724087,-0.005802,-0.024718\O
 ,0,1.067708,1.183734,-0.386323\C,0,0.007708,1.599778,0.432751\O,0,-1.2
 65422,1.235117,-0.058822\B,0,-1.808015,0.00607,-0.287192\H,0,-2.911097
 ,0.00979,-0.733461\O,0,-1.273967,-1.226598,-0.058174\H,0,2.656731,-0.0
 08958,-0.584006\H,0,1.919671,-0.006735,1.059762\H,0,0.01868,2.688659,0

 Normal termination of Gaussian 16 at Wed Apr  9 00:36:00 2025.
