 Gaussian 16, Revision C.01,

 ----------------------------------------------------------------------
 #t hf aug-cc-pvdz symm=none int=(grid=ultrafine) guess=(read,tcheck) s
 table=(opt,rrhf)
 ----------------------------------------------------------------------
 -----
 title
 -----
 Symbolic Z-matrix:
 Charge =  0 Multiplicity = 1

 SCF Done:  E(RHF) =  -594.125156803     A.U. after   12 cycles
 Normal termination of Gaussian 16 at Tue Apr  8 23:59:23 2025.
 Gaussian 16:  ES64L-G16RevC.01  3-Jul-2019

 ----------------------------------------------------------------------
 #t hf aug-cc-pvdz iop(5/13=1,5/36=2,99/5=2) pseudo=read geom=check gue
 ss=(read,tcheck) scf=(maxcycle=1)
 ----------------------------------------------------------------------
 -----
 title
 -----
 Structure from the checkpoint file:  "BDE49_nonexpt_2086_mol1.chk"
 Charge =  0 Multiplicity = 1

                         Standard orientation:
 ---------------------------------------------------------------------
 Center     Atomic      Atomic             Coordinates (Angstroms)
 Number     Number       Type             X           Y           Z
 ---------------------------------------------------------------------
      1          7           0        1.169665   -0.449177   -0.193257
      2          7           0       -1.169682   -0.449135   -0.193257
      3          6           0        0.000006    0.301133    0.332125
      4          6           0        0.667203   -1.737093   -0.512467
      5          1           0        1.343037   -2.518690   -0.823602
      6          6           0       -0.667264   -1.737069   -0.512469
      7          1           0       -1.343126   -2.518641   -0.823605
      8          6           0        2.357464   -0.389982    0.646206
      9          1           0        2.721428    0.637697    0.708629
     10          1           0        3.147291   -0.996444    0.198541
     11          6           0       -2.357477   -0.389900    0.646206
     12          1           0       -3.147327   -0.996334    0.198541
     13          1           0       -2.721405    0.637792    0.708631
     14          1           0       -2.167508   -0.755810    1.670376
     15         14           0        0.000037    2.093686   -0.315409
     16          1           0        0.000005    0.248879    1.448818
     17          1           0        2.167483   -0.755884    1.670376
     18          1           0        0.000036    2.082400   -1.791958
     19          1           0        1.199877    2.814520    0.179485
     20          1           0       -1.199778    2.814562    0.179485
 ---------------------------------------------------------------------

 SCF Done:  E(RHF) =  -594.240814534     A.U. after    2 cycles

 The electronic state is 1-A.
 Alpha  occ. eigenvalues --  -69.05636 -15.62962 -15.62959 -11.28870 -11.26436
 Alpha  occ. eigenvalues --  -11.26436 -11.25972 -11.25815  -6.80983  -3.91755
 Alpha  occ. eigenvalues --   -3.91753  -3.91726  -1.26231  -1.15598  -1.01639
 Alpha  occ. eigenvalues --   -0.95461  -0.90093  -0.80273  -0.77121  -0.71021
 Alpha  occ. eigenvalues --   -0.68383  -0.63761  -0.60538  -0.60055  -0.59717
 Alpha  occ. eigenvalues --   -0.56241  -0.55810  -0.53775  -0.50760  -0.49309
 Alpha  occ. eigenvalues --   -0.47222  -0.47026  -0.42280  -0.40191  -0.26939
 Alpha virt. eigenvalues --    0.03295   0.03771   0.03859   0.04551   0.06103
 Alpha virt. eigenvalues --    0.06329   0.07010   0.07134   0.07868   0.08653
 Alpha virt. eigenvalues --    0.08724   0.09122   0.10257   0.11107   0.11139

 Mulliken charges:
               1
     1  N   -0.679666
     2  N   -0.679667
     3  C    0.822552
     4  C    0.546190
     5  H   -0.427979
     6  C    0.546195
     7  H   -0.427980
     8  C    0.712250
     9  H   -0.239174
    10  H   -0.193336
    11  C    0.712250
    12  H   -0.193337
    13  H   -0.239173
    14  H   -0.028552
    15  Si  -0.166139
    16  H   -0.324628
    17  H   -0.028553
    18  H    0.212238
    19  H    0.038255
    20  H    0.038255
 Sum of Mulliken charges =  -0.00000

 Dipole moment (field-independent basis, Debye):
    X=             -0.0000    Y=             -0.7920    Z=              1.2199  Tot=              1.4544

 Test job not archived.
 1\1\GINC-SE398\SP\RHF\Aug-CC-pVDZ\C5H12N2Si1\OHZDE\08-Apr-2025\0\\#t h
 f aug-cc-pvdz iop(5/13=1,5/36=2,99/5=2) pseudo=read geom=check guess=(
 read,tcheck) scf=(maxcycle=1)\\title\\0,1\N,0,1.169668,-0.44917,-0.193
 257\N,0,-1.169679,-0.449142,-0.193257\C,0,0.000004,0.301133,0.332125\C
 ,0,0.667213,-1.737089,-0.512467\H,0,1.343052,-2.518682,-0.823602\C,0,-
 0.667254,-1.737073,-0.512469\H,0,-1.343111,-2.518649,-0.823605\C,0,2.3
 57466,-0.389968,0.646206\H,0,2.721424,0.637713,0.708629\H,0,3.147297,-
 0.996426,0.198541\C,0,-2.357475,-0.389914,0.646206\H,0,-3.147321,-0.99

 Normal termination of Gaussian 16 at Tue Apr  8 23:59:33 2025.
