 Gaussian 16, Revision C.01,

 ----------------------------------------------------------------------
 #t hf aug-cc-pvdz symm=none int=(grid=ultrafine) guess=(read,tcheck) s
 table=(opt,rrhf)
 ----------------------------------------------------------------------
 -----
 title
 -----
 Symbolic Z-matrix:
 Charge =  0 Multiplicity = 1

 SCF Done:  E(RHF) =  -844.973989942     A.U. after   12 cycles
 Normal termination of Gaussian 16 at Wed Apr  9 00:13:36 2025.
 Gaussian 16:  ES64L-G16RevC.01  3-Jul-2019

 ----------------------------------------------------------------------
 #t hf aug-cc-pvdz iop(5/13=1,5/36=2,99/5=2) pseudo=read geom=check gue
 ss=(read,tcheck) scf=(maxcycle=1)
 ----------------------------------------------------------------------
 -----
 title
 -----
 Structure from the checkpoint file:  "BDE49_nonexpt_2475_mol1.chk"
 Charge =  0 Multiplicity = 1

                         Standard orientation:
 ---------------------------------------------------------------------
 Center     Atomic      Atomic             Coordinates (Angstroms)
 Number     Number       Type             X           Y           Z
 ---------------------------------------------------------------------
      1         14           0        0.530187    0.941816   -0.000066
      2          6           0       -1.057058   -0.108879   -0.000017
      3          6           0       -2.251099    0.871892   -0.000208
      4          1           0       -2.252454    1.515286    0.884967
      5          1           0       -3.193895    0.311859   -0.000182
      6          1           0       -2.252362    1.515053   -0.885553
      7          6           0       -1.120690   -0.992741   -1.262363
      8          1           0       -2.059778   -1.559016   -1.275475
      9          1           0       -0.300259   -1.714471   -1.299783
     10          1           0       -1.082643   -0.396550   -2.178981
     11          6           0       -1.120829   -0.992417    1.262548
     12          1           0       -1.082901   -0.395988    2.179016
     13          1           0       -0.300388   -1.714122    1.300255
     14          1           0       -2.059910   -1.558702    1.275693
     15         16           0        2.259502   -0.380807    0.000074
     16          1           0        3.161718    0.616571    0.000285
     17          1           0        0.573123    1.810308    1.201395
     18          1           0        0.573146    1.810128   -1.201656
 ---------------------------------------------------------------------

 SCF Done:  E(RHF) =  -845.065459942     A.U. after    2 cycles

 The electronic state is 1-A.
 Alpha  occ. eigenvalues --  -93.52595 -69.08357 -11.24313 -11.23492 -11.23156
 Alpha  occ. eigenvalues --  -11.23149  -8.82504  -6.83460  -6.16688  -6.16446
 Alpha  occ. eigenvalues --   -6.16169  -3.94243  -3.94142  -3.94142  -1.07907
 Alpha  occ. eigenvalues --   -0.94613  -0.93400  -0.93323  -0.77319  -0.68040
 Alpha  occ. eigenvalues --   -0.60815  -0.60710  -0.59996  -0.55382  -0.54942
 Alpha  occ. eigenvalues --   -0.53290  -0.52394  -0.49078  -0.47739  -0.47323
 Alpha  occ. eigenvalues --   -0.43439  -0.40607  -0.36788
 Alpha virt. eigenvalues --    0.03254   0.04510   0.04851   0.04899   0.06373
 Alpha virt. eigenvalues --    0.06509   0.06818   0.07057   0.07276   0.08590
 Alpha virt. eigenvalues --    0.09389   0.09749   0.09809   0.11268   0.11684

 Mulliken charges:
               1
     1  Si  -0.381378
     2  C   -1.773469
     3  C    0.928136
     4  H   -0.080927
     5  H   -0.033950
     6  H   -0.080935
     7  C    0.829599
     8  H   -0.026333
     9  H   -0.092195
    10  H   -0.096262
    11  C    0.829593
    12  H   -0.096273
    13  H   -0.092171
    14  H   -0.026342
    15  S   -0.453840
    16  H   -0.018072
    17  H    0.332419
    18  H    0.332399
 Sum of Mulliken charges =  -0.00000

 Dipole moment (field-independent basis, Debye):
    X=             -1.1186    Y=              0.7179    Z=              0.0001  Tot=              1.3292

 Test job not archived.
 1\1\GINC-SE106\SP\RHF\Aug-CC-pVDZ\C4H12S1Si1\OHZDE\09-Apr-2025\0\\#t h
 f aug-cc-pvdz iop(5/13=1,5/36=2,99/5=2) pseudo=read geom=check guess=(
 read,tcheck) scf=(maxcycle=1)\\title\\0,1\Si,0,0.530187,0.941816,-0.00
 0066\C,0,-1.057058,-0.108879,-0.000017\C,0,-2.251099,0.871892,-0.00020
 8\H,0,-2.252454,1.515286,0.884967\H,0,-3.193895,0.311859,-0.000182\H,0
 ,-2.252362,1.515053,-0.885553\C,0,-1.12069,-0.992741,-1.262363\H,0,-2.
 059778,-1.559016,-1.275475\H,0,-0.300259,-1.714471,-1.299783\H,0,-1.08
 2643,-0.39655,-2.178981\C,0,-1.120829,-0.992417,1.262548\H,0,-1.082901

 Normal termination of Gaussian 16 at Wed Apr  9 00:13:44 2025.
