 Gaussian 16, Revision C.01,

 ----------------------------------------------------------------------
 #t hf aug-cc-pvdz symm=none int=(grid=ultrafine) guess=(read,tcheck) s
 table=(opt,rrhf)
 ----------------------------------------------------------------------
 -----
 title
 -----
 Symbolic Z-matrix:
 Charge =  0 Multiplicity = 1

 SCF Done:  E(RHF) =  -417.356453263     A.U. after   11 cycles
 Normal termination of Gaussian 16 at Tue Apr  8 23:32:59 2025.
 Gaussian 16:  ES64L-G16RevC.01  3-Jul-2019

 ----------------------------------------------------------------------
 #t hf aug-cc-pvdz iop(5/13=1,5/36=2,99/5=2) pseudo=read geom=check gue
 ss=(read,tcheck) scf=(maxcycle=1)
 ----------------------------------------------------------------------
 -----
 title
 -----
 Structure from the checkpoint file:  "BDE49_nonexpt_1464_mol1.chk"
 Charge =  0 Multiplicity = 1

                         Standard orientation:
 ---------------------------------------------------------------------
 Center     Atomic      Atomic             Coordinates (Angstroms)
 Number     Number       Type             X           Y           Z
 ---------------------------------------------------------------------
      1         15           0        0.559344   -0.139421   -0.000101
      2          8           0       -1.088730    0.154287    0.000126
      3          1           0       -1.556248   -0.685479   -0.000505
      4          1           0        0.938064    0.770517    1.024879
      5          1           0        0.937865    0.771975   -1.023866
 ---------------------------------------------------------------------

 SCF Done:  E(RHF) =  -417.410567524     A.U. after    2 cycles

 The electronic state is 1-A.
 Alpha  occ. eigenvalues --  -81.30217 -20.59206  -7.79983  -4.94119  -4.93777
 Alpha  occ. eigenvalues --   -4.93566  -1.31889  -0.81754  -0.67028  -0.59884
 Alpha  occ. eigenvalues --   -0.59378  -0.47787  -0.36659
 Alpha virt. eigenvalues --    0.03447   0.05040   0.07411   0.08029   0.09931
 Alpha virt. eigenvalues --    0.10581   0.16999   0.18178   0.20774   0.21434
 Alpha virt. eigenvalues --    0.22405   0.22925   0.24154   0.31277   0.35167

 Mulliken charges:
               1
     1  P    0.547994
     2  O   -0.674166
     3  H    0.148094
     4  H   -0.010945
     5  H   -0.010977
 Sum of Mulliken charges =  -0.00000

 Dipole moment (field-independent basis, Debye):
    X=              0.1505    Y=             -0.8421    Z=             -0.0006  Tot=              0.8554

 Test job not archived.
 1\1\GINC-SE118\SP\RHF\Aug-CC-pVDZ\H3O1P1\OHZDE\08-Apr-2025\0\\#t hf au
 g-cc-pvdz iop(5/13=1,5/36=2,99/5=2) pseudo=read geom=check guess=(read
 ,tcheck) scf=(maxcycle=1)\\title\\0,1\P,0,0.559344,-0.139421,-0.000101
 \O,0,-1.08873,0.154287,0.000126\H,0,-1.556248,-0.685479,-0.000505\H,0,
 0.938064,0.770516,1.024879\H,0,0.937865,0.771974,-1.023866\\Version=ES
 64L-G16RevC.01\State=1-A\HF=-417.4105675\RMSD=1.048e-02\Dipole=0.05922
 99,-0.3312991,-0.0002283\Quadrupole=0.6066405,-0.6743873,0.0677468,3.0
 236139,0.0023181,-0.000519\PG=C01 [X(H3O1P1)]\\@

 Normal termination of Gaussian 16 at Tue Apr  8 23:33:01 2025.
