 Gaussian 16, Revision C.01,

 ----------------------------------------------------------------------
 #t hf aug-cc-pvdz symm=none int=(grid=ultrafine) guess=(read,tcheck) s
 table=(opt,rrhf)
 ----------------------------------------------------------------------
 -----
 title
 -----
 Symbolic Z-matrix:
 Charge =  0 Multiplicity = 1

 SCF Done:  E(RHF) =  -483.282813298     A.U. after   11 cycles
 Normal termination of Gaussian 16 at Wed Apr  9 00:03:41 2025.
 Gaussian 16:  ES64L-G16RevC.01  3-Jul-2019

 ----------------------------------------------------------------------
 #t hf aug-cc-pvdz iop(5/13=1,5/36=2,99/5=2) pseudo=read geom=check gue
 ss=(read,tcheck) scf=(maxcycle=1)
 ----------------------------------------------------------------------
 -----
 title
 -----
 Structure from the checkpoint file:  "BDE49_nonexpt_2225_mol1.chk"
 Charge =  0 Multiplicity = 1

                         Standard orientation:
 ---------------------------------------------------------------------
 Center     Atomic      Atomic             Coordinates (Angstroms)
 Number     Number       Type             X           Y           Z
 ---------------------------------------------------------------------
      1          6           0        2.720021    0.551079    0.000004
      2          6           0        1.603534   -0.478523   -0.000002
      3          1           0        2.651005    1.187405   -0.885178
      4          1           0        3.696513    0.057981    0.000003
      5          1           0        2.651003    1.187398    0.885191
      6         14           0       -1.134175   -0.535908   -0.000001
      7          6           0       -2.425545    0.808813    0.000000
      8          1           0       -2.329618    1.442385    0.885471
      9          1           0       -3.429293    0.372876   -0.000003
     10          1           0       -2.329614    1.442390   -0.885467
     11          8           0        0.346387    0.197753   -0.000001
     12          1           0        1.679776   -1.122980    0.885958
     13          1           0        1.679779   -1.122973   -0.885967
     14          1           0       -1.275129   -1.406001   -1.198558
     15          1           0       -1.275127   -1.406001    1.198557
 ---------------------------------------------------------------------

 SCF Done:  E(RHF) =  -483.381371807     A.U. after    2 cycles

 The electronic state is 1-A.
 Alpha  occ. eigenvalues --  -69.08045 -20.55487 -11.29305 -11.22587 -11.21442
 Alpha  occ. eigenvalues --   -6.82873  -3.93789  -3.93651  -3.93625  -1.30063
 Alpha  occ. eigenvalues --   -1.00845  -0.93903  -0.84169  -0.71665  -0.65731
 Alpha  occ. eigenvalues --   -0.61697  -0.58845  -0.56661  -0.55291  -0.53896
 Alpha  occ. eigenvalues --   -0.53130  -0.47955  -0.47676  -0.44681  -0.43622
 Alpha virt. eigenvalues --    0.03436   0.04441   0.04883   0.05216   0.06140
 Alpha virt. eigenvalues --    0.06528   0.06838   0.07792   0.07994   0.08583
 Alpha virt. eigenvalues --    0.10315   0.10813   0.11687   0.13521   0.14132

 Mulliken charges:
               1
     1  C    0.209704
     2  C    0.705827
     3  H   -0.066334
     4  H   -0.034251
     5  H   -0.066334
     6  Si   1.054352
     7  C    0.215368
     8  H   -0.172507
     9  H   -0.256980
    10  H   -0.172507
    11  O   -0.947476
    12  H   -0.198041
    13  H   -0.198041
    14  H   -0.036391
    15  H   -0.036391
 Sum of Mulliken charges =  -0.00000

 Dipole moment (field-independent basis, Debye):
    X=              0.3831    Y=             -0.4366    Z=             -0.0000  Tot=              0.5809

 Test job not archived.
 1\1\GINC-SE338\SP\RHF\Aug-CC-pVDZ\C3H10O1Si1\OHZDE\09-Apr-2025\0\\#t h
 f aug-cc-pvdz iop(5/13=1,5/36=2,99/5=2) pseudo=read geom=check guess=(
 read,tcheck) scf=(maxcycle=1)\\title\\0,1\C,0,2.720021,0.551079,0.0000
 04\C,0,1.603534,-0.478523,-0.000002\H,0,2.651005,1.187405,-0.885178\H,
 0,3.696513,0.057981,0.000003\H,0,2.651003,1.187398,0.885191\Si,0,-1.13
 4175,-0.535908,-0.000001\C,0,-2.425545,0.808813,0.\H,0,-2.329618,1.442
 385,0.885471\H,0,-3.429293,0.372876,-0.000003\H,0,-2.329614,1.44239,-0
 .885467\O,0,0.346387,0.197753,-0.000001\H,0,1.679776,-1.12298,0.885958

 Normal termination of Gaussian 16 at Wed Apr  9 00:03:44 2025.
