 Gaussian 16, Revision C.01,

 ----------------------------------------------------------------------
 #t hf aug-cc-pvdz symm=none int=(grid=ultrafine) guess=(read,tcheck) s
 table=(opt,rrhf)
 ----------------------------------------------------------------------
 -----
 title
 -----
 Symbolic Z-matrix:
 Charge =  0 Multiplicity = 1

 SCF Done:  E(RHF) =  -664.079622782     A.U. after   14 cycles
 Normal termination of Gaussian 16 at Wed Apr  9 00:21:07 2025.
 Gaussian 16:  ES64L-G16RevC.01  3-Jul-2019

 ----------------------------------------------------------------------
 #t hf aug-cc-pvdz iop(5/13=1,5/36=2,99/5=2) pseudo=read geom=check gue
 ss=(read,tcheck) scf=(maxcycle=1)
 ----------------------------------------------------------------------
 -----
 title
 -----
 Structure from the checkpoint file:  "BDE49_nonexpt_2674_mol1.chk"
 Charge =  0 Multiplicity = 1

                         Standard orientation:
 ---------------------------------------------------------------------
 Center     Atomic      Atomic             Coordinates (Angstroms)
 Number     Number       Type             X           Y           Z
 ---------------------------------------------------------------------
      1          9           0       -1.547676    0.995048    0.164712
      2         16           0       -1.003420   -0.482355   -0.292400
      3          6           0        1.505540   -0.003400    0.088169
      4          7           0        2.481969    0.469740   -0.308124
      5          8           0        0.447097   -0.563192    0.602980
 ---------------------------------------------------------------------

 SCF Done:  E(RHF) =  -664.195758022     A.U. after    2 cycles

 The electronic state is 1-A.
 Alpha  occ. eigenvalues --  -93.73788 -26.19126 -20.73102 -15.66273 -11.37499
 Alpha  occ. eigenvalues --   -9.01878  -6.36004  -6.35719  -6.35075  -1.70749
 Alpha  occ. eigenvalues --   -1.47872  -1.21293  -1.04294  -0.86585  -0.80033
 Alpha  occ. eigenvalues --   -0.79243  -0.76449  -0.70744  -0.64647  -0.57340
 Alpha  occ. eigenvalues --   -0.48214  -0.47533  -0.44888
 Alpha virt. eigenvalues --    0.02635   0.03911   0.06097   0.08925   0.09345
 Alpha virt. eigenvalues --    0.10515   0.11432   0.13102   0.14014   0.17996
 Alpha virt. eigenvalues --    0.19109   0.19876   0.20961   0.22701   0.23212

 Mulliken charges:
               1
     1  F   -0.572928
     2  S    1.166321
     3  C    0.022109
     4  N   -0.060427
     5  O   -0.555074
 Sum of Mulliken charges =   0.00000

 Dipole moment (field-independent basis, Debye):
    X=             -2.9210    Y=             -2.3284    Z=             -0.4061  Tot=              3.7574

 Test job not archived.
 1\1\GINC-SE106\SP\RHF\Aug-CC-pVDZ\C1F1N1O1S1\OHZDE\09-Apr-2025\0\\#t h
 f aug-cc-pvdz iop(5/13=1,5/36=2,99/5=2) pseudo=read geom=check guess=(
 read,tcheck) scf=(maxcycle=1)\\title\\0,1\F,0,-1.547676,0.995048,0.164
 712\S,0,-1.00342,-0.482355,-0.2924\C,0,1.50554,-0.0034,0.088169\N,0,2.
 481969,0.46974,-0.308124\O,0,0.447097,-0.563192,0.60298\\Version=ES64L
 -G16RevC.01\State=1-A\HF=-664.195758\RMSD=3.683e-03\Dipole=-1.1492029,
 -0.9160453,-0.1597761\Quadrupole=-3.6639134,1.8102027,1.8537107,-0.304
 0439,2.6137338,1.0669417\PG=C01 [X(C1F1N1O1S1)]\\@

 Normal termination of Gaussian 16 at Wed Apr  9 00:21:09 2025.
