 Gaussian 16, Revision C.01,

 ----------------------------------------------------------------------
 #t hf aug-cc-pvdz symm=none int=(grid=ultrafine) guess=(read,tcheck) s
 table=opt
 ----------------------------------------------------------------------
 -----
 title
 -----
 Symbolic Z-matrix:
 Charge =  0 Multiplicity = 2

 SCF Done:  E(UHF) =  -418.238979047     A.U. after   27 cycles

 1\1\GINC-SE461\Stability\UHF\Aug-CC-pVDZ\C8H11N2\OHZDE\08-Apr-2025\0\\
 #t hf aug-cc-pvdz symm=none int=(grid=ultrafine) guess=(read,tcheck) s
 table=opt\\title\\0,2\C,0,1.863291,-0.132895,-0.018938\N,0,2.888473,-0
 .660564,-0.046016\C,0,-0.574631,-0.584472,-0.066912\C,0,-1.882009,0.09
 0447,-0.0281\N,0,-2.90912,0.612705,0.012045\C,0,0.560705,0.549072,0.02
 0767\C,0,-0.454152,-1.367475,-1.346099\H,0,0.442944,-1.949443,-1.51426
 \H,0,-1.256586,-1.397027,-2.068669\C,0,-0.494985,-1.56351,1.140875\H,0
 ,-0.666297,-1.049558,2.087351\H,0,0.487359,-2.038345,1.163008\H,0,-1.2

 Normal termination of Gaussian 16 at Tue Apr  8 23:04:41 2025.
 Gaussian 16:  ES64L-G16RevC.01  3-Jul-2019

 ----------------------------------------------------------------------
 #t hf aug-cc-pvdz iop(5/13=1,5/36=2,99/5=2) pseudo=read geom=check gue
 ss=(read,tcheck) scf=(maxcycle=1)
 ----------------------------------------------------------------------
 -----
 title
 -----
 Structure from the checkpoint file:  "BDE49_expt_305_mol2.chk"
 Charge =  0 Multiplicity = 2

                         Standard orientation:
 ---------------------------------------------------------------------
 Center     Atomic      Atomic             Coordinates (Angstroms)
 Number     Number       Type             X           Y           Z
 ---------------------------------------------------------------------
      1          6           0        1.863291   -0.132895   -0.018938
      2          7           0        2.888473   -0.660564   -0.046016
      3          6           0       -0.574631   -0.584472   -0.066912
      4          6           0       -1.882009    0.090447   -0.028100
      5          7           0       -2.909120    0.612705    0.012045
      6          6           0        0.560705    0.549072    0.020767
      7          6           0       -0.454152   -1.367475   -1.346099
      8          1           0        0.442944   -1.949443   -1.514260
      9          1           0       -1.256586   -1.397027   -2.068669
     10          6           0       -0.494985   -1.563510    1.140875
     11          1           0       -0.666297   -1.049558    2.087351
     12          1           0        0.487359   -2.038345    1.163008
     13          1           0       -1.253436   -2.339297    1.031802
     14          6           0        0.469049    1.363589    1.330887
     15          1           0        0.638145    0.746473    2.213024
     16          1           0       -0.514282    1.831956    1.408174
     17          1           0        1.224757    2.151205    1.324634
     18          6           0        0.465694    1.503401   -1.191360
     19          1           0        0.546713    0.958538   -2.132836
     20          1           0        1.268162    2.241763   -1.149379
     21          1           0       -0.490719    2.029801   -1.171770
 ---------------------------------------------------------------------

 SCF Done:  E(UHF) =  -418.361707572     A.U. after    2 cycles

 The electronic state is 2-A.
 Alpha  occ. eigenvalues --  -15.65146 -15.65078 -11.32910 -11.32764 -11.29984
 Alpha  occ. eigenvalues --  -11.29681 -11.27743 -11.26524 -11.26261 -11.26080
 Alpha  occ. eigenvalues --   -1.22050  -1.20556  -1.15325  -1.07360  -0.98385
 Alpha  occ. eigenvalues --   -0.95489  -0.89864  -0.88276  -0.71641  -0.69422
 Alpha  occ. eigenvalues --   -0.66043  -0.64057  -0.61697  -0.59311  -0.58737
 Alpha  occ. eigenvalues --   -0.58265  -0.57236  -0.56194  -0.54980  -0.54182
 Alpha  occ. eigenvalues --   -0.52933  -0.52378  -0.49117  -0.47565  -0.46322
 Alpha  occ. eigenvalues --   -0.45754  -0.39413
 Alpha virt. eigenvalues --    0.03224   0.03567   0.03747   0.05396   0.06009
 Alpha virt. eigenvalues --    0.06065   0.06300   0.06552   0.08211   0.08823
 Alpha virt. eigenvalues --    0.09027   0.09245   0.10686   0.11839   0.12285

  Beta  occ. eigenvalues --  -15.65319 -15.65050 -11.33269 -11.32580 -11.29835
  Beta  occ. eigenvalues --  -11.29713 -11.26353 -11.26263 -11.26065 -11.25215
  Beta  occ. eigenvalues --   -1.21897  -1.20614  -1.14726  -1.06178  -0.97246
  Beta  occ. eigenvalues --   -0.93264  -0.88740  -0.85272  -0.71085  -0.68701
  Beta  occ. eigenvalues --   -0.65450  -0.63215  -0.60984  -0.59082  -0.58463
  Beta  occ. eigenvalues --   -0.58026  -0.57052  -0.55722  -0.54955  -0.54109
  Beta  occ. eigenvalues --   -0.52387  -0.51978  -0.49165  -0.47560  -0.46074
  Beta  occ. eigenvalues --   -0.45219
  Beta virt. eigenvalues --    0.03225   0.03436   0.03701   0.05411   0.05800
  Beta virt. eigenvalues --    0.06033   0.06308   0.06555   0.07685   0.08464
  Beta virt. eigenvalues --    0.08957   0.09053   0.09675   0.10708   0.11867

 Mulliken charges and spin densities:
               1          2
     1  C   -0.526828   0.006462
     2  N   -0.188076   0.005022
     3  C   -0.186538  -0.293002
     4  C   -0.583703   0.077065
     5  N   -0.195569  -0.060900
     6  C   -1.723941   0.062501
     7  C    1.012058   1.457573
     8  H   -0.297313  -0.132117
     9  H   -0.361978  -0.118692
    10  C    0.972493   0.044662
    11  H   -0.049928   0.006821
    12  H   -0.041045  -0.003454
    13  H   -0.006316  -0.012753
    14  C    1.159280  -0.001297
    15  H   -0.057651   0.000693
    16  H   -0.021221  -0.000035
    17  H    0.026923   0.001503
    18  C    1.051884  -0.016530
    19  H    0.031040  -0.024301
    20  H    0.010133   0.000033
    21  H   -0.023703   0.000747
 Sum of Mulliken charges =   0.00000   1.00000

 Dipole moment (field-independent basis, Debye):
    X=             -0.0111    Y=              0.1041    Z=              0.1148  Tot=              0.1553
                          Isotropic Fermi Contact Couplings
        Atom                 a.u.       MegaHertz       Gauss      10(-4) cm-1
     1  C(13)             -0.00515      -5.79077      -2.06629      -1.93159
     2  N(14)              0.00209       0.67463       0.24073       0.22503
     3  C(13)             -0.06776     -76.17631     -27.18160     -25.40968
     4  C(13)              0.01702      19.12883       6.82564       6.38069
     5  N(14)             -0.01306      -4.22067      -1.50604      -1.40786
     6  C(13)              0.04079      45.85442      16.36200      15.29539
     7  C(13)              0.22403     251.84883      89.86593      84.00773
     8  H(1)              -0.02590    -115.74891     -41.30209     -38.60968

 Normal termination of Gaussian 16 at Tue Apr  8 23:04:55 2025.
