 Gaussian 16, Revision C.01,

 ----------------------------------------------------------------------
 #t hf aug-cc-pvdz symm=none int=(grid=ultrafine) guess=(read,tcheck) s
 table=(opt,rrhf)
 ----------------------------------------------------------------------
 -----
 title
 -----
 Symbolic Z-matrix:
 Charge =  0 Multiplicity = 1

 SCF Done:  E(RHF) =  -877.302800087     A.U. after   16 cycles
 Normal termination of Gaussian 16 at Tue Apr  8 23:07:44 2025.
 Gaussian 16:  ES64L-G16RevC.01  3-Jul-2019

 ----------------------------------------------------------------------
 #t hf aug-cc-pvdz iop(5/13=1,5/36=2,99/5=2) pseudo=read geom=check gue
 ss=(read,tcheck) scf=(maxcycle=1)
 ----------------------------------------------------------------------
 -----
 title
 -----
 Structure from the checkpoint file:  "BDE49_expt_605_mol1.chk"
 Charge =  0 Multiplicity = 1

                         Standard orientation:
 ---------------------------------------------------------------------
 Center     Atomic      Atomic             Coordinates (Angstroms)
 Number     Number       Type             X           Y           Z
 ---------------------------------------------------------------------
      1          6           0        0.986148   -1.208866    0.000007
      2          6           0        1.683034   -0.003445   -0.000006
      3          6           0        1.018157    1.220867   -0.000002
      4          6           0       -2.573911    0.109061    0.000054
      5          8           0       -3.212626    1.133886   -0.000010
      6          8           0       -3.163899   -1.111285   -0.000021
      7          1           0       -4.118634   -0.950512   -0.000064
      8          6           0       -0.403565   -1.186225    0.000025
      9          6           0       -0.369966    1.231980    0.000016
     10          6           0       -1.089337    0.032756    0.000031
     11          1           0        1.582451    2.144110   -0.000012
     12          1           0       -0.915667    2.167152    0.000021
     13          1           0        1.526212   -2.146494    0.000004
     14          1           0       -0.959473   -2.114245    0.000036
     15         17           0        3.434938   -0.026917   -0.000029
 ---------------------------------------------------------------------

 SCF Done:  E(RHF) =  -877.447269569     A.U. after    2 cycles

 The electronic state is 1-A.
 Alpha  occ. eigenvalues -- -103.67994 -20.63552 -20.57295 -11.41401 -11.33605
 Alpha  occ. eigenvalues --  -11.28144 -11.27863 -11.27692 -11.27350 -11.27279
 Alpha  occ. eigenvalues --  -10.71266  -8.37002  -8.36691  -8.36678  -1.43592
 Alpha  occ. eigenvalues --   -1.33651  -1.21478  -1.15484  -1.04546  -1.04065
 Alpha  occ. eigenvalues --   -0.90515  -0.86930  -0.81935  -0.75111  -0.73012
 Alpha  occ. eigenvalues --   -0.67765  -0.66807  -0.65942  -0.65646  -0.62660
 Alpha  occ. eigenvalues --   -0.60784  -0.56410  -0.55111  -0.53513  -0.51921
 Alpha  occ. eigenvalues --   -0.48880  -0.48646  -0.47941  -0.37072  -0.36202
 Alpha virt. eigenvalues --    0.03126   0.04029   0.04180   0.05305   0.06073
 Alpha virt. eigenvalues --    0.06437   0.08652   0.09018   0.09141   0.10394
 Alpha virt. eigenvalues --    0.10890   0.11914   0.12784   0.13459   0.13667

 Mulliken charges:
               1
     1  C    0.590526
     2  C   -0.436535
     3  C    0.808679
     4  C    0.125224
     5  O   -0.466521
     6  O   -0.605281
     7  H    0.265379
     8  C    0.752376
     9  C    0.373177
    10  C    0.988457
    11  H   -0.424249
    12  H   -0.629550
    13  H   -0.439271
    14  H   -0.564676
    15  Cl  -0.337735
 Sum of Mulliken charges =  -0.00000

 Dipole moment (field-independent basis, Debye):
    X=             -0.1340    Y=             -1.5648    Z=              0.0001  Tot=              1.5705

 Test job not archived.
 1\1\GINC-SE403\SP\RHF\Aug-CC-pVDZ\C7H5Cl1O2\OHZDE\08-Apr-2025\0\\#t hf
  aug-cc-pvdz iop(5/13=1,5/36=2,99/5=2) pseudo=read geom=check guess=(r
 ead,tcheck) scf=(maxcycle=1)\\title\\0,1\C,0,0.986148,-1.208866,0.0000
 07\C,0,1.683034,-0.003445,-0.000006\C,0,1.018157,1.220867,-0.000002\C,
 0,-2.573911,0.109061,0.000054\O,0,-3.212626,1.133886,-0.00001\O,0,-3.1
 63899,-1.111285,-0.000021\H,0,-4.118634,-0.950512,-0.000064\C,0,-0.403
 565,-1.186225,0.000025\C,0,-0.369966,1.23198,0.000016\C,0,-1.089337,0.
 032756,0.000031\H,0,1.582451,2.14411,-0.000012\H,0,-0.915667,2.167152,

 Normal termination of Gaussian 16 at Tue Apr  8 23:07:52 2025.
