 Gaussian 16, Revision C.01,

 ----------------------------------------------------------------------
 #t hf aug-cc-pvdz symm=none int=(grid=ultrafine) guess=(read,tcheck) s
 table=(opt,rrhf)
 ----------------------------------------------------------------------
 -----
 title
 -----
 Symbolic Z-matrix:
 Charge =  0 Multiplicity = 1

 SCF Done:  E(RHF) =  -1190.07958790     A.U. after   17 cycles
 Normal termination of Gaussian 16 at Tue Apr  8 23:39:32 2025.
 Gaussian 16:  ES64L-G16RevC.01  3-Jul-2019

 ----------------------------------------------------------------------
 #t hf aug-cc-pvdz iop(5/13=1,5/36=2,99/5=2) pseudo=read geom=check gue
 ss=(read,tcheck) scf=(maxcycle=1)
 ----------------------------------------------------------------------
 -----
 title
 -----
 Structure from the checkpoint file:  "BDE49_nonexpt_1619_mol1.chk"
 Charge =  0 Multiplicity = 1

                         Standard orientation:
 ---------------------------------------------------------------------
 Center     Atomic      Atomic             Coordinates (Angstroms)
 Number     Number       Type             X           Y           Z
 ---------------------------------------------------------------------
      1         15           0       -0.571334   -0.203007   -0.829589
      2          7           0       -0.933485    1.455588   -0.009404
      3         15           0        1.487261   -0.419104   -0.004543
      4          6           0       -1.493677   -1.328666    0.318326
      5          6           0       -2.963871   -1.518024   -0.074514
      6          1           0       -1.391982   -0.965728    1.342767
      7          1           0       -0.949284   -2.277948    0.247384
      8          1           0       -3.513874   -0.579912    0.007159
      9          1           0       -3.436268   -2.245998    0.589722
     10          1           0       -3.058919   -1.886747   -1.098784
     11          8           0       -2.001523    1.606745    0.547378
     12          8           0       -0.091759    2.345652   -0.155905
     13          8           0        2.054230   -1.723144   -0.357741
     14          8           0        1.360909   -0.155387    1.581105
     15          1           0        1.669058   -0.913484    2.094395
     16          8           0        2.243434    0.854791   -0.563770
     17          1           0        1.699723    1.663236   -0.476239
 ---------------------------------------------------------------------

 SCF Done:  E(RHF) =  -1190.32574388     A.U. after    2 cycles

 The electronic state is 1-A.
 Alpha  occ. eigenvalues --  -81.44519 -81.34723 -20.65110 -20.64077 -20.63844
 Alpha  occ. eigenvalues --  -20.62743 -20.55171 -15.92519 -11.29071 -11.26028
 Alpha  occ. eigenvalues --   -7.92865  -7.84851  -5.07515  -5.07398  -5.07046
 Alpha  occ. eigenvalues --   -4.98865  -4.98610  -4.98325  -1.56647  -1.39977
 Alpha  occ. eigenvalues --   -1.38731  -1.36489  -1.28452  -1.07074  -0.98267
 Alpha  occ. eigenvalues --   -0.89742  -0.85978  -0.83538  -0.78726  -0.75993
 Alpha  occ. eigenvalues --   -0.73975  -0.73488  -0.68868  -0.66979  -0.65709
 Alpha  occ. eigenvalues --   -0.64366  -0.60591  -0.60123  -0.58236  -0.56014
 Alpha  occ. eigenvalues --   -0.55004  -0.54451  -0.53322  -0.51579  -0.50187
 Alpha  occ. eigenvalues --   -0.49308  -0.46352  -0.40719
 Alpha virt. eigenvalues --    0.02618   0.03606   0.04388   0.05076   0.05407
 Alpha virt. eigenvalues --    0.06086   0.06728   0.07377   0.07639   0.08486
 Alpha virt. eigenvalues --    0.09800   0.10311   0.11626   0.12063   0.13149

 Mulliken charges:
               1
     1  P    0.594521
     2  N    0.506938
     3  P    2.267829
     4  C   -0.004509
     5  C    0.288056
     6  H   -0.113439
     7  H   -0.132408
     8  H   -0.035071
     9  H   -0.029771
    10  H   -0.068868
    11  O   -0.550166
    12  O   -0.672131
    13  O   -0.923034
    14  O   -0.793382
    15  H    0.167507
    16  O   -0.735171
    17  H    0.233099
 Sum of Mulliken charges =  -0.00000

 Dipole moment (field-independent basis, Debye):
    X=             -2.5956    Y=             -2.1732    Z=              1.2380  Tot=              3.6045

 Test job not archived.
 1\1\GINC-SE461\SP\RHF\Aug-CC-pVDZ\C2H7N1O5P2\OHZDE\08-Apr-2025\0\\#t h
 f aug-cc-pvdz iop(5/13=1,5/36=2,99/5=2) pseudo=read geom=check guess=(
 read,tcheck) scf=(maxcycle=1)\\title\\0,1\P,0,-0.571334,-0.203007,-0.8
 29589\N,0,-0.933485,1.455588,-0.009404\P,0,1.487261,-0.419104,-0.00454
 3\C,0,-1.493677,-1.328666,0.318326\C,0,-2.963871,-1.518024,-0.074514\H
 ,0,-1.391982,-0.965728,1.342767\H,0,-0.949284,-2.277948,0.247384\H,0,-
 3.513874,-0.579912,0.007159\H,0,-3.436268,-2.245998,0.589722\H,0,-3.05
 8919,-1.886747,-1.098784\O,0,-2.001523,1.606745,0.547378\O,0,-0.091759

 Normal termination of Gaussian 16 at Tue Apr  8 23:39:40 2025.
