 Gaussian 16, Revision C.01,

 ----------------------------------------------------------------------
 #t hf aug-cc-pvdz symm=none int=(grid=ultrafine) guess=(read,tcheck) s
 table=opt
 ----------------------------------------------------------------------
 -----
 title
 -----
 Symbolic Z-matrix:
 Charge =  0 Multiplicity = 2

 SCF Done:  E(UHF) =  -391.553537011     A.U. after   17 cycles
 Normal termination of Gaussian 16 at Wed Apr  9 00:32:51 2025.
 Gaussian 16:  ES64L-G16RevC.01  3-Jul-2019

 ----------------------------------------------------------------------
 #t hf aug-cc-pvdz iop(5/13=1,5/36=2,99/5=2) pseudo=read geom=check gue
 ss=(read,tcheck) scf=(maxcycle=1)
 ----------------------------------------------------------------------
 -----
 title
 -----
 Structure from the checkpoint file:  "BDE49_nonexpt_418_mol2.chk"
 Charge =  0 Multiplicity = 2

                         Standard orientation:
 ---------------------------------------------------------------------
 Center     Atomic      Atomic             Coordinates (Angstroms)
 Number     Number       Type             X           Y           Z
 ---------------------------------------------------------------------
      1          9           0        2.383684   -0.712347    0.014457
      2          5           0        1.444908   -0.151719   -0.706984
      3          6           0        0.037748    0.326092   -0.098592
      4          8           0       -0.732318   -0.849381   -0.349347
      5          8           0       -0.485557    1.452488   -0.779640
      6          6           0       -2.086691   -0.839847    0.107174
      7          1           0       -2.149194   -0.958465    1.194278
      8          1           0       -2.572447   -1.691060   -0.369193
      9          1           0       -2.593252    0.081909   -0.190935
     10          6           0        0.111607    0.710762    1.376172
     11          1           0        0.423314   -0.144438    1.977983
     12          1           0       -0.859318    1.068145    1.726671
     13          1           0        0.831077    1.520324    1.514760
     14          1           0       -0.390862    1.286395   -1.725388
 ---------------------------------------------------------------------

 SCF Done:  E(UHF) =  -391.688540073     A.U. after    2 cycles

 The electronic state is 2-A.
 Alpha  occ. eigenvalues --  -26.15113 -20.58679 -20.58496 -11.34718 -11.28757
 Alpha  occ. eigenvalues --  -11.23723  -7.70831  -1.69540  -1.37500  -1.30566
 Alpha  occ. eigenvalues --   -1.02240  -0.94949  -0.86552  -0.82103  -0.78563
 Alpha  occ. eigenvalues --   -0.75274  -0.73561  -0.69982  -0.66748  -0.61708
 Alpha  occ. eigenvalues --   -0.59586  -0.57073  -0.55141  -0.54434  -0.49743
 Alpha  occ. eigenvalues --   -0.49002  -0.46148  -0.36086
 Alpha virt. eigenvalues --    0.03287   0.04509   0.04743   0.05017   0.05940
 Alpha virt. eigenvalues --    0.06367   0.06557   0.06993   0.09000   0.09480
 Alpha virt. eigenvalues --    0.10407   0.11326   0.13312   0.13708   0.14459

  Beta  occ. eigenvalues --  -26.14792 -20.58716 -20.58523 -11.34363 -11.28758
  Beta  occ. eigenvalues --  -11.23703  -7.68970  -1.68609  -1.37410  -1.30614
  Beta  occ. eigenvalues --   -1.01744  -0.94811  -0.85344  -0.81607  -0.76083
  Beta  occ. eigenvalues --   -0.75353  -0.72586  -0.69187  -0.66611  -0.61702
  Beta  occ. eigenvalues --   -0.59357  -0.56897  -0.55044  -0.54125  -0.49556
  Beta  occ. eigenvalues --   -0.47200  -0.45504
  Beta virt. eigenvalues --    0.02808   0.04192   0.04614   0.05041   0.06108
  Beta virt. eigenvalues --    0.06429   0.06590   0.06975   0.08327   0.09166
  Beta virt. eigenvalues --    0.09753   0.12028   0.12611   0.13655   0.14569

 Mulliken charges and spin densities:
               1          2
     1  F   -0.327964  -0.052668
     2  B    0.263054   1.039554
     3  C    0.564824   0.056721
     4  O   -0.702482  -0.001930
     5  O   -0.564961  -0.001476
     6  C    0.805617  -0.005674
     7  H   -0.131010   0.001303
     8  H   -0.268801  -0.000551
     9  H   -0.056495  -0.000166
    10  C    0.396030  -0.031038
    11  H    0.011769  -0.001779
    12  H   -0.068107   0.003576
    13  H   -0.069092  -0.001644
    14  H    0.147618  -0.004228
 Sum of Mulliken charges =  -0.00000   1.00000

 Dipole moment (field-independent basis, Debye):
    X=             -1.3021    Y=              0.2573    Z=              0.2230  Tot=              1.3458
                          Isotropic Fermi Contact Couplings
        Atom                 a.u.       MegaHertz       Gauss      10(-4) cm-1
     1  F(19)              0.07016     295.19792     105.33396      98.46743
     2  B(11)              0.34026     488.05132     174.14885     162.79640
     3  C(13)              0.06395      71.88680      25.65100      23.97886
     4  O(17)             -0.01035       6.27596       2.23942       2.09344
     5  O(17)              0.00063      -0.38403      -0.13703      -0.12810
     6  C(13)              0.00005       0.05637       0.02011       0.01880
     7  H(1)               0.00004       0.18837       0.06722       0.06284
     8  H(1)               0.00016       0.70575       0.25183       0.23541

 Normal termination of Gaussian 16 at Wed Apr  9 00:32:56 2025.
