 Gaussian 16, Revision C.01,

 ----------------------------------------------------------------------
 #t hf aug-cc-pvdz symm=none int=(grid=ultrafine) guess=(read,tcheck) s
 table=(opt,rrhf)
 ----------------------------------------------------------------------
 -----
 title
 -----
 Symbolic Z-matrix:
 Charge =  0 Multiplicity = 1

 SCF Done:  E(RHF) =  -948.180792448     A.U. after   17 cycles
 Normal termination of Gaussian 16 at Tue Apr  8 23:07:22 2025.
 Gaussian 16:  ES64L-G16RevC.01  3-Jul-2019

 ----------------------------------------------------------------------
 #t hf aug-cc-pvdz iop(5/13=1,5/36=2,99/5=2) pseudo=read geom=check gue
 ss=(read,tcheck) scf=(maxcycle=1)
 ----------------------------------------------------------------------
 -----
 title
 -----
 Structure from the checkpoint file:  "BDE49_expt_479_mol1.chk"
 Charge =  0 Multiplicity = 1

                         Standard orientation:
 ---------------------------------------------------------------------
 Center     Atomic      Atomic             Coordinates (Angstroms)
 Number     Number       Type             X           Y           Z
 ---------------------------------------------------------------------
      1          6           0        0.645904   -1.793864   -0.018999
      2          6           0        1.950195   -1.328377    0.023216
      3          6           0        2.225042    0.049465    0.045567
      4          6           0       -0.439013   -0.917040   -0.016227
      5          6           0       -0.164915    0.453208    0.012928
      6          6           0        1.139842    0.931544    0.030574
      7          1           0        2.768120   -2.040561    0.034621
      8          7           0        3.525105    0.520583    0.137543
      9          1           0        4.251945   -0.105469   -0.173119
     10          1           0        3.677957    1.476039   -0.146628
     11          1           0        0.452179   -2.857902   -0.059055
     12          7           0       -1.228480    1.483659    0.036441
     13          8           0       -0.996750    2.529177   -0.557885
     14          8           0       -2.244250    1.240795    0.664739
     15         17           0       -2.042995   -1.590259   -0.130471
     16          1           0        1.289994    2.003210    0.027126
 ---------------------------------------------------------------------

 SCF Done:  E(RHF) =  -948.343949018     A.U. after    2 cycles

 The electronic state is 1-A.
 Alpha  occ. eigenvalues -- -103.67787 -20.62509 -20.62057 -15.92547 -15.66082
 Alpha  occ. eigenvalues --  -11.33962 -11.33691 -11.32952 -11.28677 -11.28220
 Alpha  occ. eigenvalues --  -11.27955 -10.71048  -8.36792  -8.36466  -8.36448
 Alpha  occ. eigenvalues --   -1.55613  -1.37169  -1.24007  -1.20974  -1.14505
 Alpha  occ. eigenvalues --   -1.08639  -1.01376  -0.95760  -0.87147  -0.83901
 Alpha  occ. eigenvalues --   -0.78676  -0.75184  -0.73984  -0.71590  -0.70959
 Alpha  occ. eigenvalues --   -0.67545  -0.64534  -0.63555  -0.58655  -0.57491
 Alpha  occ. eigenvalues --   -0.55606  -0.53377  -0.52181  -0.51952  -0.48360
 Alpha  occ. eigenvalues --   -0.46450  -0.46061  -0.38884  -0.32607
 Alpha virt. eigenvalues --    0.02027   0.03104   0.03684   0.04425   0.05795
 Alpha virt. eigenvalues --    0.07529   0.08234   0.09263   0.10235   0.10926
 Alpha virt. eigenvalues --    0.11722   0.12224   0.12753   0.13108   0.13339

 Mulliken charges:
               1
     1  C    0.786045
     2  C    0.919105
     3  C    0.136724
     4  C   -0.343910
     5  C    0.986914
     6  C    0.777847
     7  H   -0.562627
     8  N   -0.276523
     9  H   -0.036427
    10  H   -0.029284
    11  H   -0.433063
    12  N    0.065811
    13  O   -0.558684
    14  O   -0.523945
    15  Cl  -0.329166
    16  H   -0.578817
 Sum of Mulliken charges =  -0.00000

 Dipole moment (field-independent basis, Debye):
    X=              6.5132    Y=             -2.3698    Z=             -0.7977  Tot=              6.9767

 Test job not archived.
 1\1\GINC-SE080\SP\RHF\Aug-CC-pVDZ\C6H5Cl1N2O2\OHZDE\08-Apr-2025\0\\#t
 hf aug-cc-pvdz iop(5/13=1,5/36=2,99/5=2) pseudo=read geom=check guess=
 (read,tcheck) scf=(maxcycle=1)\\title\\0,1\C,0,0.645904,-1.793864,-0.0
 18999\C,0,1.950195,-1.328377,0.023216\C,0,2.225042,0.049465,0.045567\C
 ,0,-0.439013,-0.91704,-0.016227\C,0,-0.164915,0.453208,0.012928\C,0,1.
 139842,0.931544,0.030574\H,0,2.76812,-2.040561,0.034621\N,0,3.525105,0
 .520583,0.137543\H,0,4.251945,-0.105469,-0.173119\H,0,3.677957,1.47603
 9,-0.146628\H,0,0.452179,-2.857902,-0.059055\N,0,-1.22848,1.483659,0.0

 Normal termination of Gaussian 16 at Tue Apr  8 23:07:31 2025.
