 Gaussian 16, Revision C.01,

 ----------------------------------------------------------------------
 #t hf aug-cc-pvdz symm=none int=(grid=ultrafine) guess=(read,tcheck) s
 table=(opt,rrhf)
 ----------------------------------------------------------------------
 -----
 title
 -----
 Symbolic Z-matrix:
 Charge =  0 Multiplicity = 1

 SCF Done:  E(RHF) =  -655.284379930     A.U. after   13 cycles
 Normal termination of Gaussian 16 at Tue Apr  8 22:47:02 2025.
 Gaussian 16:  ES64L-G16RevC.01  3-Jul-2019

 ----------------------------------------------------------------------
 #t hf aug-cc-pvdz iop(5/13=1,5/36=2,99/5=2) pseudo=read geom=check gue
 ss=(read,tcheck) scf=(maxcycle=1)
 ----------------------------------------------------------------------
 -----
 title
 -----
 Structure from the checkpoint file:  "BDE49_expt_1664_mol1.chk"
 Charge =  0 Multiplicity = 1

                         Standard orientation:
 ---------------------------------------------------------------------
 Center     Atomic      Atomic             Coordinates (Angstroms)
 Number     Number       Type             X           Y           Z
 ---------------------------------------------------------------------
      1          6           0        0.261755   -0.411031    0.001888
      2          6           0       -1.105510   -0.466327   -0.698658
      3          6           0       -2.257871    0.286114   -0.030285
      4          1           0       -1.365086   -1.529932   -0.780984
      5          1           0       -0.973705   -0.101410   -1.721343
      6          1           0       -2.499913   -0.122803    0.953583
      7          1           0       -3.157974    0.210525   -0.645555
      8          1           0       -2.021077    1.345099    0.089470
      9          6           0        1.303267   -1.202665   -0.786487
     10          1           0        1.024513   -2.261772   -0.794559
     11          1           0        2.291214   -1.110516   -0.332508
     12          1           0        1.362973   -0.854179   -1.819002
     13          6           0        0.214377   -0.853799    1.462129
     14          1           0       -0.147546   -1.886453    1.515167
     15          1           0       -0.449597   -0.224979    2.054910
     16          1           0        1.209343   -0.815537    1.908569
     17         17           0        0.837103    1.366954   -0.007016
 ---------------------------------------------------------------------

 SCF Done:  E(RHF) =  -655.363890538     A.U. after    2 cycles

 The electronic state is 1-A.
 Alpha  occ. eigenvalues -- -103.63094 -11.31703 -11.24533 -11.23936 -11.23924
 Alpha  occ. eigenvalues --  -11.22780 -10.66377  -8.32075  -8.31826  -8.31822
 Alpha  occ. eigenvalues --   -1.16056  -1.05262  -1.00048  -0.94961  -0.86916
 Alpha  occ. eigenvalues --   -0.74758  -0.64518  -0.63757  -0.61000  -0.59274
 Alpha  occ. eigenvalues --   -0.56309  -0.54864  -0.52507  -0.51217  -0.49012
 Alpha  occ. eigenvalues --   -0.48523  -0.47185  -0.43324  -0.43263
 Alpha virt. eigenvalues --    0.03299   0.04339   0.04606   0.05279   0.06473
 Alpha virt. eigenvalues --    0.06611   0.06966   0.07260   0.08116   0.09151
 Alpha virt. eigenvalues --    0.09730   0.11270   0.12881   0.13618   0.14294

 Mulliken charges:
               1
     1  C   -2.100589
     2  C    0.585634
     3  C    0.442407
     4  H   -0.059268
     5  H   -0.125614
     6  H   -0.083456
     7  H   -0.060946
     8  H   -0.047972
     9  C    1.030228
    10  H    0.015629
    11  H   -0.049939
    12  H   -0.034663
    13  C    0.869577
    14  H    0.029419
    15  H   -0.079112
    16  H   -0.042685
    17  Cl  -0.288650
 Sum of Mulliken charges =  -0.00000

 Dipole moment (field-independent basis, Debye):
    X=             -0.9415    Y=             -2.5681    Z=             -0.0038  Tot=              2.7353

 Test job not archived.
 1\1\GINC-SE073\SP\RHF\Aug-CC-pVDZ\C5H11Cl1\OHZDE\08-Apr-2025\0\\#t hf
 aug-cc-pvdz iop(5/13=1,5/36=2,99/5=2) pseudo=read geom=check guess=(re
 ad,tcheck) scf=(maxcycle=1)\\title\\0,1\C,0,0.261755,-0.411031,0.00188
 8\C,0,-1.10551,-0.466327,-0.698658\C,0,-2.257871,0.286114,-0.030285\H,
 0,-1.365086,-1.529932,-0.780984\H,0,-0.973705,-0.10141,-1.721343\H,0,-
 2.499913,-0.122803,0.953583\H,0,-3.157974,0.210525,-0.645555\H,0,-2.02
 1077,1.345099,0.08947\C,0,1.303267,-1.202665,-0.786487\H,0,1.024513,-2
 .261772,-0.794559\H,0,2.291214,-1.110515,-0.332508\H,0,1.362973,-0.854

 Normal termination of Gaussian 16 at Tue Apr  8 22:47:08 2025.
