 Gaussian 16, Revision C.01,

 ----------------------------------------------------------------------
 #t hf aug-cc-pvdz symm=none int=(grid=ultrafine) guess=(read,tcheck) s
 table=opt
 ----------------------------------------------------------------------
 -----
 title
 -----
 Symbolic Z-matrix:
 Charge =  0 Multiplicity = 2

 SCF Done:  E(UHF) =  -117.645310477     A.U. after   15 cycles
 Normal termination of Gaussian 16 at Tue Apr  8 22:29:20 2025.
 Gaussian 16:  ES64L-G16RevC.01  3-Jul-2019

 ----------------------------------------------------------------------
 #t hf aug-cc-pvdz iop(5/13=1,5/36=2,99/5=2) pseudo=read geom=check gue
 ss=(read,tcheck) scf=(maxcycle=1)
 ----------------------------------------------------------------------
 -----
 title
 -----
 Structure from the checkpoint file:  "BDE49_expt_1038_mol2.chk"
 Charge =  0 Multiplicity = 2

                         Standard orientation:
 ---------------------------------------------------------------------
 Center     Atomic      Atomic             Coordinates (Angstroms)
 Number     Number       Type             X           Y           Z
 ---------------------------------------------------------------------
      1          6           0        1.320556   -0.241813   -0.000000
      2          6           0        0.070895    0.571022   -0.000002
      3          1           0        1.745810   -0.609522    0.926626
      4          1           0        1.745797   -0.609546   -0.926622
      5          6           0       -1.218683   -0.284484    0.000002
      6          1           0        0.051635    1.225689   -0.879017
      7          1           0        0.051636    1.225698    0.879006
      8          1           0       -1.261976   -0.927289   -0.883259
      9          1           0       -2.107531    0.353901   -0.000001
     10          1           0       -1.261975   -0.927281    0.883269
 ---------------------------------------------------------------------

 SCF Done:  E(UHF) =  -117.684514680     A.U. after    2 cycles

 The electronic state is 2-A.
 Alpha  occ. eigenvalues --  -11.23656 -11.23261 -11.22617  -1.05203  -0.92530
 Alpha  occ. eigenvalues --   -0.79994  -0.63748  -0.59531  -0.55323  -0.53462
 Alpha  occ. eigenvalues --   -0.49922  -0.47810  -0.35067
 Alpha virt. eigenvalues --    0.03777   0.04921   0.04950   0.05272   0.07459
 Alpha virt. eigenvalues --    0.07468   0.07991   0.12334   0.12429   0.15159
 Alpha virt. eigenvalues --    0.15470   0.16006   0.17155   0.17597   0.17598

  Beta  occ. eigenvalues --  -11.23589 -11.22355 -11.21201  -1.03041  -0.88347
  Beta  occ. eigenvalues --   -0.76906  -0.63022  -0.58531  -0.54543  -0.50919
  Beta  occ. eigenvalues --   -0.49055  -0.47521
  Beta virt. eigenvalues --    0.03754   0.04974   0.04982   0.05023   0.07442
  Beta virt. eigenvalues --    0.07483   0.08010   0.09479   0.12446   0.14196
  Beta virt. eigenvalues --    0.15571   0.15798   0.17185   0.17367   0.17707

 Mulliken charges and spin densities:
               1          2
     1  C    0.602830   1.364954
     2  C   -0.036850  -0.199698
     3  H   -0.255336  -0.115385
     4  H   -0.255337  -0.115385
     5  C    0.252317   0.061685
     6  H   -0.045337   0.008489
     7  H   -0.045340   0.008489
     8  H   -0.068698  -0.009124
     9  H   -0.079553   0.005099
    10  H   -0.068697  -0.009124
 Sum of Mulliken charges =   0.00000   1.00000

 Dipole moment (field-independent basis, Debye):
    X=             -0.2229    Y=              0.0293    Z=              0.0000  Tot=              0.2249
                          Isotropic Fermi Contact Couplings
        Atom                 a.u.       MegaHertz       Gauss      10(-4) cm-1
     1  C(13)              0.21712     244.08960      87.09724      81.41952
     2  C(13)             -0.06062     -68.15084     -24.31791     -22.73267
     3  H(1)              -0.02524    -112.84156     -40.26467     -37.63989
     4  H(1)              -0.02524    -112.84141     -40.26462     -37.63984
     5  C(13)              0.06606      74.26383      26.49918      24.77175
     6  H(1)               0.00719      32.12977      11.46470      10.71734
     7  H(1)               0.00719      32.12794      11.46405      10.71673
     8  H(1)              -0.00143      -6.37137      -2.27346      -2.12526

 Normal termination of Gaussian 16 at Tue Apr  8 22:29:22 2025.
