 Gaussian 16, Revision C.01,

 ----------------------------------------------------------------------
 #t hf aug-cc-pvdz symm=none int=(grid=ultrafine) guess=(read,tcheck) s
 table=(opt,rrhf)
 ----------------------------------------------------------------------
 -----
 title
 -----
 Symbolic Z-matrix:
 Charge =  0 Multiplicity = 1

 SCF Done:  E(RHF) =  -136.601113733     A.U. after   10 cycles
 Normal termination of Gaussian 16 at Wed Apr  9 00:36:51 2025.
 Gaussian 16:  ES64L-G16RevC.01  3-Jul-2019

 ----------------------------------------------------------------------
 #t hf aug-cc-pvdz iop(5/13=1,5/36=2,99/5=2) pseudo=read geom=check gue
 ss=(read,tcheck) scf=(maxcycle=1)
 ----------------------------------------------------------------------
 -----
 title
 -----
 Structure from the checkpoint file:  "BDE49_nonexpt_588_mol1.chk"
 Charge =  0 Multiplicity = 1

                         Standard orientation:
 ---------------------------------------------------------------------
 Center     Atomic      Atomic             Coordinates (Angstroms)
 Number     Number       Type             X           Y           Z
 ---------------------------------------------------------------------
      1          7           0       -1.242929   -0.175868    0.000006
      2          5           0        0.000000    0.497245   -0.000000
      3          7           0        1.242929   -0.175868   -0.000006
      4          1           0        1.345911   -1.178262   -0.000008
      5          1           0        2.117339    0.319650   -0.000010
      6          1           0        0.000000    1.693152    0.000002
      7          1           0       -1.345911   -1.178262    0.000007
      8          1           0       -2.117339    0.319650    0.000014
 ---------------------------------------------------------------------

 SCF Done:  E(RHF) =  -136.648536200     A.U. after    2 cycles

 The electronic state is 1-A.
 Alpha  occ. eigenvalues --  -15.59613 -15.59611  -7.59974  -1.12204  -1.08356
 Alpha  occ. eigenvalues --   -0.70697  -0.68101  -0.65036  -0.58446  -0.48193
 Alpha  occ. eigenvalues --   -0.45474  -0.37276
 Alpha virt. eigenvalues --    0.03590   0.04369   0.04663   0.05680   0.07482
 Alpha virt. eigenvalues --    0.07993   0.10234   0.10552   0.12898   0.17461
 Alpha virt. eigenvalues --    0.18779   0.19125   0.19596   0.20103   0.21230

 Mulliken charges:
               1
     1  N   -0.135571
     2  B    0.202082
     3  N   -0.135571
     4  H    0.006388
     5  H   -0.046431
     6  H    0.149143
     7  H    0.006388
     8  H   -0.046431
 Sum of Mulliken charges =  -0.00000

 Dipole moment (field-independent basis, Debye):
    X=              0.0000    Y=             -1.2103    Z=              0.0000  Tot=              1.2103

 Test job not archived.
 1\1\GINC-SE284\SP\RHF\Aug-CC-pVDZ\B1H5N2\OHZDE\09-Apr-2025\0\\#t hf au
 g-cc-pvdz iop(5/13=1,5/36=2,99/5=2) pseudo=read geom=check guess=(read
 ,tcheck) scf=(maxcycle=1)\\title\\0,1\N,0,1.242929,-0.175868,-0.000006
 \B,0,0.,0.497245,0.\N,0,-1.242929,-0.175868,0.000006\H,0,-1.345911,-1.
 178262,0.000008\H,0,-2.117339,0.31965,0.00001\H,0,0.,1.693152,-0.00000
 2\H,0,1.345911,-1.178262,-0.000007\H,0,2.117339,0.31965,-0.000014\\Ver
 sion=ES64L-G16RevC.01\State=1-A\HF=-136.6485362\RMSD=1.576e-03\Dipole=
 0.,-0.4761551,-0.0000013\Quadrupole=2.7580461,0.4017519,-3.159798,0.,-

 Normal termination of Gaussian 16 at Wed Apr  9 00:36:54 2025.
