 Gaussian 16, Revision C.01,

 ----------------------------------------------------------------------
 #t hf aug-cc-pvdz symm=none int=(grid=ultrafine) guess=(read,tcheck) s
 table=(opt,rrhf)
 ----------------------------------------------------------------------
 -----
 title
 -----
 Symbolic Z-matrix:
 Charge =  0 Multiplicity = 1

 SCF Done:  E(RHF) =  -551.604802303     A.U. after   13 cycles
 Normal termination of Gaussian 16 at Tue Apr  8 23:21:54 2025.
 Gaussian 16:  ES64L-G16RevC.01  3-Jul-2019

 ----------------------------------------------------------------------
 #t hf aug-cc-pvdz iop(5/13=1,5/36=2,99/5=2) pseudo=read geom=check gue
 ss=(read,tcheck) scf=(maxcycle=1)
 ----------------------------------------------------------------------
 -----
 title
 -----
 Structure from the checkpoint file:  "BDE49_nonexpt_1218_mol1.chk"
 Charge =  0 Multiplicity = 1

                         Standard orientation:
 ---------------------------------------------------------------------
 Center     Atomic      Atomic             Coordinates (Angstroms)
 Number     Number       Type             X           Y           Z
 ---------------------------------------------------------------------
      1         16           0       -1.654161    0.003914   -0.093551
      2          8           0       -0.062542   -0.509083    0.088118
      3          6           0        0.934438    0.525937   -0.036721
      4          6           0        2.288285   -0.156609    0.000549
      5          1           0        0.825527    1.236008    0.792580
      6          1           0        0.782897    1.071466   -0.974125
      7          1           0        2.416243   -0.707917    0.934448
      8          1           0        3.085074    0.588505   -0.074565
      9          1           0        2.388516   -0.857523   -0.830701
     10          1           0       -1.867679    0.463532    1.161261
 ---------------------------------------------------------------------

 SCF Done:  E(RHF) =  -551.680324076     A.U. after    2 cycles

 The electronic state is 1-A.
 Alpha  occ. eigenvalues --  -93.58821 -20.60509 -11.29870 -11.23379  -8.87901
 Alpha  occ. eigenvalues --   -6.22143  -6.21798  -6.21429  -1.33760  -1.03068
 Alpha  occ. eigenvalues --   -0.92339  -0.84186  -0.68324  -0.65972  -0.60914
 Alpha  occ. eigenvalues --   -0.57436  -0.54368  -0.51185  -0.49370  -0.45235
 Alpha  occ. eigenvalues --   -0.36921
 Alpha virt. eigenvalues --    0.03537   0.04675   0.05288   0.05430   0.06827
 Alpha virt. eigenvalues --    0.07888   0.09127   0.10967   0.12470   0.13286
 Alpha virt. eigenvalues --    0.15407   0.15861   0.16508   0.16773   0.17352

 Mulliken charges:
               1
     1  S    0.399251
     2  O   -0.866150
     3  C    0.675226
     4  C    0.153334
     5  H   -0.161604
     6  H   -0.139518
     7  H   -0.047250
     8  H   -0.013433
     9  H   -0.046027
    10  H    0.046171
 Sum of Mulliken charges =  -0.00000

 Dipole moment (field-independent basis, Debye):
    X=              0.8510    Y=              1.6263    Z=              0.5763  Tot=              1.9238

 Test job not archived.
 1\1\GINC-SE105\SP\RHF\Aug-CC-pVDZ\C2H6O1S1\OHZDE\08-Apr-2025\0\\#t hf
 aug-cc-pvdz iop(5/13=1,5/36=2,99/5=2) pseudo=read geom=check guess=(re
 ad,tcheck) scf=(maxcycle=1)\\title\\0,1\S,0,-1.654161,0.003914,-0.0935
 51\O,0,-0.062542,-0.509083,0.088118\C,0,0.934438,0.525937,-0.036721\C,
 0,2.288285,-0.156609,0.000549\H,0,0.825527,1.236008,0.79258\H,0,0.7828
 97,1.071466,-0.974125\H,0,2.416243,-0.707917,0.934448\H,0,3.085074,0.5
 88505,-0.074565\H,0,2.388516,-0.857523,-0.830701\H,0,-1.867679,0.46353
 2,1.161261\\Version=ES64L-G16RevC.01\State=1-A\HF=-551.6803241\RMSD=4.

 Normal termination of Gaussian 16 at Tue Apr  8 23:21:56 2025.
