 Gaussian 16, Revision C.01,

 ----------------------------------------------------------------------
 #t hf aug-cc-pvdz symm=none int=(grid=ultrafine) guess=(read,tcheck) s
 table=(opt,rrhf)
 ----------------------------------------------------------------------
 -----
 title
 -----
 Symbolic Z-matrix:
 Charge =  0 Multiplicity = 1

 SCF Done:  E(RHF) =  -937.861895775     A.U. after   13 cycles
 Normal termination of Gaussian 16 at Tue Apr  8 23:43:12 2025.
 Gaussian 16:  ES64L-G16RevC.01  3-Jul-2019

 ----------------------------------------------------------------------
 #t hf aug-cc-pvdz iop(5/13=1,5/36=2,99/5=2) pseudo=read geom=check gue
 ss=(read,tcheck) scf=(maxcycle=1)
 ----------------------------------------------------------------------
 -----
 title
 -----
 Structure from the checkpoint file:  "BDE49_nonexpt_1738_mol1.chk"
 Charge =  0 Multiplicity = 1

                         Standard orientation:
 ---------------------------------------------------------------------
 Center     Atomic      Atomic             Coordinates (Angstroms)
 Number     Number       Type             X           Y           Z
 ---------------------------------------------------------------------
      1          6           0       -1.325056    0.110198   -0.000119
      2          8           0       -2.356316   -0.508406    0.000076
      3         14           0        0.289521   -0.919450   -0.000013
      4          8           0       -1.310225    1.460846    0.000030
      5         17           0        1.938787    0.369769   -0.000001
      6          1           0       -0.395096    1.776138    0.000048
      7          1           0        0.332584   -1.735344   -1.222507
      8          1           0        0.332503   -1.735280    1.222528
 ---------------------------------------------------------------------

 SCF Done:  E(RHF) =  -937.964438198     A.U. after    2 cycles

 The electronic state is 1-A.
 Alpha  occ. eigenvalues -- -103.68352 -69.15065 -20.64310 -20.58778 -11.40599
 Alpha  occ. eigenvalues --  -10.71779  -8.37464  -8.37253  -8.37233  -6.89935
 Alpha  occ. eigenvalues --   -4.00798  -4.00652  -4.00606  -1.43510  -1.35133
 Alpha  occ. eigenvalues --   -1.16592  -0.87120  -0.81158  -0.69690  -0.68997
 Alpha  occ. eigenvalues --   -0.65848  -0.59991  -0.55940  -0.55820  -0.51878
 Alpha  occ. eigenvalues --   -0.51836  -0.48550  -0.44952
 Alpha virt. eigenvalues --    0.03276   0.04511   0.05091   0.05241   0.06641
 Alpha virt. eigenvalues --    0.07391   0.10249   0.10889   0.11110   0.12741
 Alpha virt. eigenvalues --    0.12846   0.14022   0.14855   0.15919   0.17220

 Mulliken charges:
               1
     1  C    0.404316
     2  O   -0.448193
     3  Si   0.752897
     4  O   -0.425299
     5  Cl  -0.506167
     6  H    0.196681
     7  H    0.012892
     8  H    0.012873
 Sum of Mulliken charges =  -0.00000

 Dipole moment (field-independent basis, Debye):
    X=              3.1984    Y=             -0.3434    Z=             -0.0003  Tot=              3.2168

 Test job not archived.
 1\1\GINC-SE423\SP\RHF\Aug-CC-pVDZ\C1H3Cl1O2Si1\OHZDE\08-Apr-2025\0\\#t
  hf aug-cc-pvdz iop(5/13=1,5/36=2,99/5=2) pseudo=read geom=check guess
 =(read,tcheck) scf=(maxcycle=1)\\title\\0,1\C,0,-1.325056,0.110198,-0.
 000119\O,0,-2.356316,-0.508406,0.000076\Si,0,0.289521,-0.91945,-0.0000
 13\O,0,-1.310225,1.460846,0.00003\Cl,0,1.938787,0.369769,-0.000001\H,0
 ,-0.395096,1.776138,0.000048\H,0,0.332584,-1.735344,-1.222507\H,0,0.33
 2503,-1.73528,1.222528\\Version=ES64L-G16RevC.01\State=1-A\HF=-937.964
 4382\RMSD=4.270e-03\Dipole=1.2583366,-0.1351181,-0.0001176\Quadrupole=

 Normal termination of Gaussian 16 at Tue Apr  8 23:43:15 2025.
