 Gaussian 16, Revision C.01,

 ----------------------------------------------------------------------
 #t hf aug-cc-pvdz symm=none int=(grid=ultrafine) guess=(read,tcheck) s
 table=(opt,rrhf)
 ----------------------------------------------------------------------
 -----
 title
 -----
 Symbolic Z-matrix:
 Charge =  0 Multiplicity = 1

 SCF Done:  E(RHF) =  -1151.49430169     A.U. after   16 cycles
 Normal termination of Gaussian 16 at Wed Apr  9 00:23:54 2025.
 Gaussian 16:  ES64L-G16RevC.01  3-Jul-2019

 ----------------------------------------------------------------------
 #t hf aug-cc-pvdz iop(5/13=1,5/36=2,99/5=2) pseudo=read geom=check gue
 ss=(read,tcheck) scf=(maxcycle=1)
 ----------------------------------------------------------------------
 -----
 title
 -----
 Structure from the checkpoint file:  "BDE49_nonexpt_2748_mol1.chk"
 Charge =  0 Multiplicity = 1

                         Standard orientation:
 ---------------------------------------------------------------------
 Center     Atomic      Atomic             Coordinates (Angstroms)
 Number     Number       Type             X           Y           Z
 ---------------------------------------------------------------------
      1         16           0        0.778791    0.928002   -0.608602
      2         16           0       -0.917178    1.004009    0.486117
      3          7           0       -1.931578   -0.468584   -0.201433
      4          6           0        1.813150   -0.321202    0.342418
      5          6           0        3.139687   -0.551256   -0.334899
      6          8           0        1.412828   -0.853751    1.326142
      7          8           0       -1.437830   -1.175449   -1.036540
      8          8           0       -3.019469   -0.538761    0.317279
      9          1           0        3.591750    0.390356   -0.653405
     10          1           0        2.978130   -1.165159   -1.225950
     11          1           0        3.804096   -1.078842    0.348989
 ---------------------------------------------------------------------

 SCF Done:  E(RHF) =  -1151.64755166     A.U. after    2 cycles

 The electronic state is 1-A.
 Alpha  occ. eigenvalues --  -93.64375 -93.60942 -20.64543 -20.64098 -20.61708
 Alpha  occ. eigenvalues --  -15.94166 -11.41547 -11.28799  -8.93567  -8.90639
 Alpha  occ. eigenvalues --   -6.27611  -6.27363  -6.26929  -6.24748  -6.24435
 Alpha  occ. eigenvalues --   -6.24162  -1.57515  -1.41770  -1.40287  -1.10669
 Alpha  occ. eigenvalues --   -1.05344  -0.96156  -0.86090  -0.79397  -0.75870
 Alpha  occ. eigenvalues --   -0.75150  -0.74535  -0.68741  -0.67409  -0.65399
 Alpha  occ. eigenvalues --   -0.59624  -0.56881  -0.55565  -0.51231  -0.49940
 Alpha  occ. eigenvalues --   -0.48936  -0.47231  -0.42064  -0.40841
 Alpha virt. eigenvalues --    0.02635   0.04317   0.04973   0.05206   0.06479
 Alpha virt. eigenvalues --    0.07281   0.07704   0.09156   0.10183   0.10548
 Alpha virt. eigenvalues --    0.11236   0.11751   0.13129   0.13654   0.14342

 Mulliken charges:
               1
     1  S    0.131201
     2  S    0.469646
     3  N    0.442048
     4  C   -0.062542
     5  C    0.309243
     6  O   -0.388426
     7  O   -0.479120
     8  O   -0.511947
     9  H    0.023742
    10  H    0.093386
    11  H   -0.027231
 Sum of Mulliken charges =  -0.00000

 Dipole moment (field-independent basis, Debye):
    X=              5.0172    Y=              2.2695    Z=             -1.3167  Tot=              5.6618

 Test job not archived.
 1\1\GINC-SE435\SP\RHF\Aug-CC-pVDZ\C2H3N1O3S2\OHZDE\09-Apr-2025\0\\#t h
 f aug-cc-pvdz iop(5/13=1,5/36=2,99/5=2) pseudo=read geom=check guess=(
 read,tcheck) scf=(maxcycle=1)\\title\\0,1\S,0,0.778791,0.928002,-0.608
 602\S,0,-0.917178,1.004009,0.486117\N,0,-1.931578,-0.468584,-0.201433\
 C,0,1.81315,-0.321202,0.342418\C,0,3.139687,-0.551256,-0.334899\O,0,1.
 412828,-0.853751,1.326142\O,0,-1.43783,-1.175449,-1.03654\O,0,-3.01946
 9,-0.538761,0.317279\H,0,3.59175,0.390356,-0.653405\H,0,2.97813,-1.165
 159,-1.22595\H,0,3.804096,-1.078842,0.348989\\Version=ES64L-G16RevC.01

 Normal termination of Gaussian 16 at Wed Apr  9 00:23:59 2025.
