 Gaussian 16, Revision C.01,

 ----------------------------------------------------------------------
 #t hf aug-cc-pvdz symm=none int=(grid=ultrafine) guess=(read,tcheck) s
 table=(opt,rrhf)
 ----------------------------------------------------------------------
 -----
 title
 -----
 Symbolic Z-matrix:
 Charge =  0 Multiplicity = 1

 SCF Done:  E(RHF) =  -995.020782791     A.U. after   14 cycles
 Normal termination of Gaussian 16 at Wed Apr  9 00:11:31 2025.
 Gaussian 16:  ES64L-G16RevC.01  3-Jul-2019

 ----------------------------------------------------------------------
 #t hf aug-cc-pvdz iop(5/13=1,5/36=2,99/5=2) pseudo=read geom=check gue
 ss=(read,tcheck) scf=(maxcycle=1)
 ----------------------------------------------------------------------
 -----
 title
 -----
 Structure from the checkpoint file:  "BDE49_nonexpt_2371_mol1.chk"
 Charge =  0 Multiplicity = 1

                         Standard orientation:
 ---------------------------------------------------------------------
 Center     Atomic      Atomic             Coordinates (Angstroms)
 Number     Number       Type             X           Y           Z
 ---------------------------------------------------------------------
      1         14           0       -1.154448   -1.567201   -0.450269
      2         14           0        0.924553   -1.502649    0.673302
      3          6           0        1.829348    0.128143    0.178272
      4          1           0        1.798200   -2.669441    0.368676
      5          1           0        0.748756   -1.432357    2.143698
      6          8           0        1.196030    1.187795    0.214226
      7          7           0        3.133115    0.073089   -0.192890
      8          6           0       -2.298497   -0.033588   -0.183489
      9          1           0       -1.902578   -2.754918    0.014480
     10          1           0       -0.890976   -1.703202   -1.903969
     11          8           0       -3.495341   -0.221058   -0.376700
     12          7           0       -1.751238    1.151603    0.176228
     13          6           0        3.909551    1.246321   -0.577625
     14          1           0        3.585948   -0.827506   -0.191952
     15          1           0        3.243357    2.106078   -0.546576
     16          1           0        4.306341    1.132944   -1.589640
     17          1           0        4.738954    1.410486    0.115443
     18          6           0       -2.551241    2.358609    0.334377
     19          1           0       -0.737854    1.224805    0.251361
     20          1           0       -2.325865    3.086787   -0.450944
     21          1           0       -2.357753    2.819973    1.306116
     22          1           0       -3.601612    2.080598    0.268069
 ---------------------------------------------------------------------

 SCF Done:  E(RHF) =  -995.192231012     A.U. after    2 cycles

 The electronic state is 1-A.
 Alpha  occ. eigenvalues --  -69.08477 -69.07479 -20.55820 -20.52555 -15.67472
 Alpha  occ. eigenvalues --  -15.63360 -11.36993 -11.34079 -11.28662 -11.25680
 Alpha  occ. eigenvalues --   -6.83906  -6.82852  -3.94682  -3.94636  -3.94590
 Alpha  occ. eigenvalues --   -3.93599  -3.93588  -3.93582  -1.35885  -1.32721
 Alpha  occ. eigenvalues --   -1.21375  -1.17848  -0.97280  -0.94073  -0.81879
 Alpha  occ. eigenvalues --   -0.78220  -0.77679  -0.73545  -0.67231  -0.66486
 Alpha  occ. eigenvalues --   -0.64159  -0.63518  -0.63186  -0.60976  -0.58059
 Alpha  occ. eigenvalues --   -0.56710  -0.56522  -0.54337  -0.53679  -0.53211
 Alpha  occ. eigenvalues --   -0.50289  -0.48320  -0.43524  -0.42107  -0.41580
 Alpha  occ. eigenvalues --   -0.38414  -0.37703
 Alpha virt. eigenvalues --    0.02235   0.03645   0.03787   0.04291   0.05172
 Alpha virt. eigenvalues --    0.05742   0.06058   0.06464   0.06982   0.07871
 Alpha virt. eigenvalues --    0.08081   0.08414   0.08494   0.09528   0.09860

 Mulliken charges:
               1
     1  Si  -0.021101
     2  Si   0.051642
     3  C    0.373805
     4  H    0.035014
     5  H    0.091028
     6  O   -0.588827
     7  N   -0.334604
     8  C    0.225976
     9  H    0.122318
    10  H    0.094866
    11  O   -0.615169
    12  N   -0.084113
    13  C    0.839000
    14  H   -0.110187
    15  H   -0.164541
    16  H   -0.127135
    17  H   -0.131746
    18  C    0.873291
    19  H   -0.105512
    20  H   -0.100118
    21  H   -0.121106
    22  H   -0.202781
 Sum of Mulliken charges =  -0.00000

 Dipole moment (field-independent basis, Debye):
    X=              7.2464    Y=             -0.7318    Z=              0.2227  Tot=              7.2867

 Test job not archived.
 1\1\GINC-SE367\SP\RHF\Aug-CC-pVDZ\C4H12N2O2Si2\OHZDE\09-Apr-2025\0\\#t
  hf aug-cc-pvdz iop(5/13=1,5/36=2,99/5=2) pseudo=read geom=check guess
 =(read,tcheck) scf=(maxcycle=1)\\title\\0,1\Si,0,-1.154448,-1.567201,-
 0.450269\Si,0,0.924553,-1.502649,0.673302\C,0,1.829348,0.128143,0.1782
 72\H,0,1.7982,-2.669441,0.368676\H,0,0.748756,-1.432357,2.143698\O,0,1
 .19603,1.187795,0.214226\N,0,3.133115,0.073089,-0.19289\C,0,-2.298497,
 -0.033588,-0.183489\H,0,-1.902578,-2.754918,0.01448\H,0,-0.890976,-1.7
 03202,-1.903969\O,0,-3.495341,-0.221058,-0.3767\N,0,-1.751238,1.151603

 Normal termination of Gaussian 16 at Wed Apr  9 00:11:43 2025.
