 Gaussian 16, Revision C.01,

 ----------------------------------------------------------------------
 #t hf aug-cc-pvdz symm=none int=(grid=ultrafine) guess=(read,tcheck) s
 table=(opt,rrhf)
 ----------------------------------------------------------------------
 -----
 title
 -----
 Symbolic Z-matrix:
 Charge =  0 Multiplicity = 1

 SCF Done:  E(RHF) =  -955.563616794     A.U. after   14 cycles
 Normal termination of Gaussian 16 at Wed Apr  9 00:15:21 2025.
 Gaussian 16:  ES64L-G16RevC.01  3-Jul-2019

 ----------------------------------------------------------------------
 #t hf aug-cc-pvdz iop(5/13=1,5/36=2,99/5=2) pseudo=read geom=check gue
 ss=(read,tcheck) scf=(maxcycle=1)
 ----------------------------------------------------------------------
 -----
 title
 -----
 Structure from the checkpoint file:  "BDE49_nonexpt_2520_mol1.chk"
 Charge =  0 Multiplicity = 1

                         Standard orientation:
 ---------------------------------------------------------------------
 Center     Atomic      Atomic             Coordinates (Angstroms)
 Number     Number       Type             X           Y           Z
 ---------------------------------------------------------------------
      1         16           0       -0.208031   -0.514833    0.166020
      2          6           0        1.205613    0.453299   -0.510103
      3         14           0       -2.119166    0.590353   -0.285064
      4          8           0       -0.060908   -0.568427    1.619928
      5          8           0       -0.287379   -1.753361   -0.607975
      6          6           0        1.320519    1.803036    0.194055
      7          1           0        0.424816    2.417151    0.069408
      8          1           0        2.161977    2.363145   -0.222760
      9          1           0        1.492008    1.663135    1.262841
     10          6           0        2.460697   -0.412749   -0.377467
     11          1           0        0.947324    0.578779   -1.566532
     12          1           0        3.303834    0.101683   -0.845774
     13          1           0        2.326056   -1.378414   -0.865396
     14          1           0        2.702222   -0.583641    0.673695
     15          1           0       -2.173048    1.855662    0.472850
     16          1           0       -3.146073   -0.366082    0.162397
     17          1           0       -2.176967    0.833757   -1.740677
 ---------------------------------------------------------------------

 SCF Done:  E(RHF) =  -955.736706425     A.U. after    2 cycles

 The electronic state is 1-A.
 Alpha  occ. eigenvalues --  -93.75223 -69.11638 -20.54838 -20.54788 -11.29448
 Alpha  occ. eigenvalues --  -11.25574 -11.24559  -9.02312  -6.86870  -6.36919
 Alpha  occ. eigenvalues --   -6.36644  -6.36566  -3.97674  -3.97579  -3.97579
 Alpha  occ. eigenvalues --   -1.39718  -1.28809  -1.09648  -0.95736  -0.90873
 Alpha  occ. eigenvalues --   -0.80636  -0.74324  -0.68458  -0.65410  -0.64691
 Alpha  occ. eigenvalues --   -0.63203  -0.58999  -0.57308  -0.56210  -0.53428
 Alpha  occ. eigenvalues --   -0.52209  -0.51884  -0.51603  -0.50576  -0.48081
 Alpha  occ. eigenvalues --   -0.47968  -0.40392
 Alpha virt. eigenvalues --    0.02594   0.03530   0.04723   0.04863   0.05868
 Alpha virt. eigenvalues --    0.06421   0.06538   0.07378   0.07812   0.08141
 Alpha virt. eigenvalues --    0.09211   0.09541   0.10369   0.11450   0.12864

 Mulliken charges:
               1
     1  S    2.421739
     2  C   -1.375817
     3  Si   0.121940
     4  O   -1.184124
     5  O   -1.163232
     6  C    0.704312
     7  H   -0.147086
     8  H   -0.029874
     9  H    0.022244
    10  C    0.684265
    11  H   -0.148633
    12  H   -0.036373
    13  H   -0.041141
    14  H    0.021039
    15  H    0.069779
    16  H    0.001600
    17  H    0.079363
 Sum of Mulliken charges =  -0.00000

 Dipole moment (field-independent basis, Debye):
    X=             -0.0360    Y=              4.8769    Z=             -2.4254  Tot=              5.4469

 Test job not archived.
 1\1\GINC-SE398\SP\RHF\Aug-CC-pVDZ\C3H10O2S1Si1\OHZDE\09-Apr-2025\0\\#t
  hf aug-cc-pvdz iop(5/13=1,5/36=2,99/5=2) pseudo=read geom=check guess
 =(read,tcheck) scf=(maxcycle=1)\\title\\0,1\S,0,-0.208031,-0.514833,0.
 16602\C,0,1.205613,0.453299,-0.510103\Si,0,-2.119166,0.590353,-0.28506
 4\O,0,-0.060908,-0.568427,1.619928\O,0,-0.287379,-1.753361,-0.607975\C
 ,0,1.320519,1.803036,0.194055\H,0,0.424816,2.417151,0.069408\H,0,2.161
 977,2.363145,-0.22276\H,0,1.492008,1.663135,1.262841\C,0,2.460697,-0.4
 12749,-0.377467\H,0,0.947324,0.578779,-1.566532\H,0,3.303834,0.101683,

 Normal termination of Gaussian 16 at Wed Apr  9 00:15:28 2025.
