 Gaussian 16, Revision C.01,

 ----------------------------------------------------------------------
 #t hf aug-cc-pvdz symm=none int=(grid=ultrafine) guess=(read,tcheck) s
 table=(opt,rrhf)
 ----------------------------------------------------------------------
 -----
 title
 -----
 Symbolic Z-matrix:
 Charge =  0 Multiplicity = 1

 SCF Done:  E(RHF) =  -901.192677068     A.U. after   15 cycles
 Normal termination of Gaussian 16 at Tue Apr  8 23:42:44 2025.
 Gaussian 16:  ES64L-G16RevC.01  3-Jul-2019

 ----------------------------------------------------------------------
 #t hf aug-cc-pvdz iop(5/13=1,5/36=2,99/5=2) pseudo=read geom=check gue
 ss=(read,tcheck) scf=(maxcycle=1)
 ----------------------------------------------------------------------
 -----
 title
 -----
 Structure from the checkpoint file:  "BDE49_nonexpt_1687_mol1.chk"
 Charge =  0 Multiplicity = 1

                         Standard orientation:
 ---------------------------------------------------------------------
 Center     Atomic      Atomic             Coordinates (Angstroms)
 Number     Number       Type             X           Y           Z
 ---------------------------------------------------------------------
      1         14           0        2.449307    0.038707   -0.508264
      2         15           0        1.067107   -1.267265    0.759325
      3          6           0       -0.559883   -0.500450    0.333465
      4          6           0       -1.236875   -0.963522   -0.804470
      5          6           0       -1.174988    0.482744    1.121245
      6          6           0       -2.426291    0.989527    0.777577
      7          6           0       -3.081459    0.531754   -0.363620
      8          6           0       -2.480869   -0.445494   -1.154681
      9          1           0       -4.053848    0.929201   -0.631137
     10          1           0       -2.985483   -0.813985   -2.040976
     11          1           0       -0.790964   -1.740076   -1.417632
     12          1           0       -0.675703    0.853422    2.009455
     13          1           0       -2.887832    1.746344    1.402458
     14          6           0        2.181641    1.892427   -0.342132
     15          1           0        1.150099    2.160130   -0.582661
     16          1           0        2.843796    2.434844   -1.023662
     17          1           0        2.393652    2.229246    0.675998
     18          1           0        1.302806   -0.551100    1.961326
     19          1           0        2.242115   -0.384486   -1.915349
     20          1           0        3.836805   -0.318378   -0.116312
 ---------------------------------------------------------------------

 SCF Done:  E(RHF) =  -901.314499342     A.U. after    2 cycles

 The electronic state is 1-A.
 Alpha  occ. eigenvalues --  -81.24695 -69.06725 -11.26032 -11.25191 -11.25145
 Alpha  occ. eigenvalues --  -11.25080 -11.25030 -11.24909 -11.22206  -7.75188
 Alpha  occ. eigenvalues --   -6.81924  -4.89283  -4.89102  -4.88877  -3.92683
 Alpha  occ. eigenvalues --   -3.92668  -3.92645  -1.14701  -1.01839  -1.01527
 Alpha  occ. eigenvalues --   -0.94397  -0.84514  -0.83333  -0.77078  -0.70137
 Alpha  occ. eigenvalues --   -0.65903  -0.63870  -0.63030  -0.59660  -0.56976
 Alpha  occ. eigenvalues --   -0.56514  -0.55624  -0.51573  -0.50376  -0.48933
 Alpha  occ. eigenvalues --   -0.46564  -0.46302  -0.42414  -0.37605  -0.34652
 Alpha  occ. eigenvalues --   -0.30746
 Alpha virt. eigenvalues --    0.03142   0.03994   0.04104   0.04881   0.05565
 Alpha virt. eigenvalues --    0.05655   0.06775   0.06961   0.07460   0.07665
 Alpha virt. eigenvalues --    0.08182   0.09319   0.09797   0.10174   0.10579

 Mulliken charges:
               1
     1  Si   0.669396
     2  P   -0.563518
     3  C   -0.148222
     4  C    0.506506
     5  C    0.738378
     6  C    0.410405
     7  C    0.605427
     8  C    0.481169
     9  H   -0.434934
    10  H   -0.455116
    11  H   -0.540547
    12  H   -0.611605
    13  H   -0.457238
    14  C    0.302342
    15  H   -0.212361
    16  H   -0.284593
    17  H   -0.195990
    18  H    0.185690
    19  H    0.013686
    20  H   -0.008875
 Sum of Mulliken charges =  -0.00000

 Dipole moment (field-independent basis, Debye):
    X=             -0.6173    Y=              1.6409    Z=             -0.1222  Tot=              1.7575

 Test job not archived.
 1\1\GINC-SE343\SP\RHF\Aug-CC-pVDZ\C7H11P1Si1\OHZDE\08-Apr-2025\0\\#t h
 f aug-cc-pvdz iop(5/13=1,5/36=2,99/5=2) pseudo=read geom=check guess=(
 read,tcheck) scf=(maxcycle=1)\\title\\0,1\Si,0,2.449307,0.038707,-0.50
 8264\P,0,1.067107,-1.267265,0.759325\C,0,-0.559883,-0.50045,0.333465\C
 ,0,-1.236875,-0.963522,-0.80447\C,0,-1.174988,0.482744,1.121245\C,0,-2
 .426291,0.989527,0.777577\C,0,-3.081459,0.531754,-0.36362\C,0,-2.48086
 9,-0.445494,-1.154681\H,0,-4.053848,0.929201,-0.631137\H,0,-2.985483,-
 0.813985,-2.040976\H,0,-0.790964,-1.740076,-1.417632\H,0,-0.675703,0.8

 Normal termination of Gaussian 16 at Tue Apr  8 23:42:55 2025.
