 Gaussian 16, Revision C.01,

 ----------------------------------------------------------------------
 #t hf aug-cc-pvdz symm=none int=(grid=ultrafine) guess=(read,tcheck) s
 table=opt
 ----------------------------------------------------------------------
 -----
 title
 -----
 Symbolic Z-matrix:
 Charge =  0 Multiplicity = 2

 SCF Done:  E(UHF) =  -423.748142012     A.U. after   16 cycles
 Normal termination of Gaussian 16 at Tue Apr  8 23:50:26 2025.
 Gaussian 16:  ES64L-G16RevC.01  3-Jul-2019

 ----------------------------------------------------------------------
 #t hf aug-cc-pvdz iop(5/13=1,5/36=2,99/5=2) pseudo=read geom=check gue
 ss=(read,tcheck) scf=(maxcycle=1)
 ----------------------------------------------------------------------
 -----
 title
 -----
 Structure from the checkpoint file:  "BDE49_nonexpt_1902_mol2.chk"
 Charge =  0 Multiplicity = 2

                         Standard orientation:
 ---------------------------------------------------------------------
 Center     Atomic      Atomic             Coordinates (Angstroms)
 Number     Number       Type             X           Y           Z
 ---------------------------------------------------------------------
      1         14           0        0.273464   -1.383611    0.000000
      2          7           0       -0.122236    0.307329    0.000000
      3          1           0       -0.362040   -1.957411    1.222868
      4          1           0       -0.362040   -1.957411   -1.222868
      5          6           0       -0.122236    1.102622   -1.218452
      6          1           0       -1.011156    1.745798   -1.252383
      7          1           0       -0.142610    0.454643   -2.096390
      8          1           0        0.762804    1.750861   -1.289546
      9          6           0       -0.122236    1.102622    1.218452
     10          1           0       -0.142610    0.454643    2.096390
     11          1           0       -1.011156    1.745798    1.252383
     12          1           0        0.762804    1.750861    1.289546
 ---------------------------------------------------------------------

 SCF Done:  E(UHF) =  -423.818165154     A.U. after    2 cycles

 The electronic state is 2-A'.
 Alpha  occ. eigenvalues --  -69.07449 -15.61394 -11.26475 -11.26474  -6.82532
 Alpha  occ. eigenvalues --   -3.93698  -3.93050  -3.92998  -1.17338  -0.95581
 Alpha  occ. eigenvalues --   -0.85492  -0.70285  -0.63407  -0.61357  -0.59968
 Alpha  occ. eigenvalues --   -0.54893  -0.52360  -0.49527  -0.47557  -0.40441
 Alpha  occ. eigenvalues --   -0.29224
 Alpha virt. eigenvalues --    0.03397   0.04650   0.04874   0.05260   0.07112
 Alpha virt. eigenvalues --    0.07158   0.07856   0.08471   0.08722   0.09553
 Alpha virt. eigenvalues --    0.10499   0.13367   0.14291   0.14500   0.15601

  Beta  occ. eigenvalues --  -69.06986 -15.60661 -11.26531 -11.26530  -6.81807
  Beta  occ. eigenvalues --   -3.92805  -3.92722  -3.91907  -1.15967  -0.95594
  Beta  occ. eigenvalues --   -0.84799  -0.68468  -0.62174  -0.61109  -0.58037
  Beta  occ. eigenvalues --   -0.54843  -0.52265  -0.48669  -0.46022  -0.34885
  Beta virt. eigenvalues --    0.03261   0.03771   0.04679   0.05150   0.06796
  Beta virt. eigenvalues --    0.07252   0.07271   0.07882   0.09000   0.09694
  Beta virt. eigenvalues --    0.10433   0.10708   0.13847   0.14525   0.14778

 Mulliken charges and spin densities:
               1          2
     1  Si  -0.134897   0.852871
     2  N   -0.390162   0.058343
     3  H    0.087537   0.054691
     4  H    0.087537   0.054691
     5  C    0.628503  -0.020824
     6  H   -0.111257   0.005659
     7  H   -0.283881   0.003149
     8  H   -0.058373   0.001717
     9  C    0.628503  -0.020824
    10  H   -0.283881   0.003149
    11  H   -0.111257   0.005659
    12  H   -0.058373   0.001717
 Sum of Mulliken charges =  -0.00000   1.00000

 Dipole moment (field-independent basis, Debye):
    X=              0.0310    Y=              1.2503    Z=             -0.0000  Tot=              1.2507
                          Isotropic Fermi Contact Couplings
        Atom                 a.u.       MegaHertz       Gauss      10(-4) cm-1
     1  Si(29)             0.52535    -466.88916    -166.59766    -155.73746
     2  N(14)              0.08291      26.78771       9.55852       8.93542
     3  H(1)               0.01626      72.67596      25.93259      24.24209
     4  H(1)               0.01626      72.67596      25.93259      24.24209
     5  C(13)             -0.00972     -10.92401      -3.89796      -3.64386
     6  H(1)               0.00155       6.92347       2.47047       2.30942
     7  H(1)               0.00024       1.08613       0.38756       0.36229
     8  H(1)               0.00098       4.38848       1.56592       1.46384

 Normal termination of Gaussian 16 at Tue Apr  8 23:50:30 2025.
