 Gaussian 16, Revision C.01,

 ----------------------------------------------------------------------
 #t hf aug-cc-pvdz symm=none int=(grid=ultrafine) guess=(read,tcheck) s
 table=(opt,rrhf)
 ----------------------------------------------------------------------
 -----
 title
 -----
 Symbolic Z-matrix:
 Charge =  0 Multiplicity = 1

 SCF Done:  E(RHF) =  -1682.35951403     A.U. after   16 cycles
 Normal termination of Gaussian 16 at Tue Apr  8 23:10:49 2025.
 Gaussian 16:  ES64L-G16RevC.01  3-Jul-2019

 ----------------------------------------------------------------------
 #t hf aug-cc-pvdz iop(5/13=1,5/36=2,99/5=2) pseudo=read geom=check gue
 ss=(read,tcheck) scf=(maxcycle=1)
 ----------------------------------------------------------------------
 -----
 title
 -----
 Structure from the checkpoint file:  "BDE49_expt_773_mol1.chk"
 Charge =  0 Multiplicity = 1

                         Standard orientation:
 ---------------------------------------------------------------------
 Center     Atomic      Atomic             Coordinates (Angstroms)
 Number     Number       Type             X           Y           Z
 ---------------------------------------------------------------------
      1          6           0        0.000000    1.186335    0.000000
      2          6           0       -1.189607    0.445554    0.000000
      3          6           0       -1.206616   -0.942540    0.000000
      4          6           0        0.007277   -1.617164    0.000000
      5          6           0        1.213802   -0.925772    0.000000
      6          6           0        1.201950    0.463040    0.000000
      7          8           0        0.037783    2.532049    0.000000
      8          1           0       -0.868818    2.869337    0.000000
      9         17           0        0.018249   -3.368685    0.000000
     10         17           0        2.709628    1.336776    0.000000
     11         17           0       -2.704644    1.334965    0.000000
     12          1           0       -2.144846   -1.478618    0.000000
     13          1           0        2.155599   -1.455781    0.000000
 ---------------------------------------------------------------------

 SCF Done:  E(RHF) =  -1682.50492886     A.U. after    2 cycles

 The electronic state is 1-A'.
 Alpha  occ. eigenvalues -- -103.70093-103.68295-103.68115 -20.63492 -11.36074
 Alpha  occ. eigenvalues --  -11.34192 -11.33625 -11.33428 -11.29388 -11.29084
 Alpha  occ. eigenvalues --  -10.73350 -10.71552 -10.71371  -8.39083  -8.38796
 Alpha  occ. eigenvalues --   -8.38753  -8.37291  -8.37114  -8.36980  -8.36959
 Alpha  occ. eigenvalues --   -8.36792  -8.36777  -1.40756  -1.23670  -1.21031
 Alpha  occ. eigenvalues --   -1.19810  -1.12790  -1.03198  -1.02088  -0.87901
 Alpha  occ. eigenvalues --   -0.85262  -0.78780  -0.73539  -0.67850  -0.65272
 Alpha  occ. eigenvalues --   -0.65130  -0.63148  -0.62226  -0.57500  -0.57311
 Alpha  occ. eigenvalues --   -0.55130  -0.53971  -0.52365  -0.50729  -0.48865
 Alpha  occ. eigenvalues --   -0.47835  -0.46571  -0.37137  -0.34621
 Alpha virt. eigenvalues --    0.03611   0.04581   0.04649   0.06764   0.08051
 Alpha virt. eigenvalues --    0.08253   0.08661   0.08723   0.09924   0.10334
 Alpha virt. eigenvalues --    0.12225   0.12535   0.13694   0.13721   0.14279

 Mulliken charges:
               1
     1  C    0.591874
     2  C    0.279432
     3  C    0.746282
     4  C   -0.014268
     5  C    0.807938
     6  C   -0.020645
     7  O   -0.562126
     8  H    0.171798
     9  Cl  -0.386533
    10  Cl  -0.379667
    11  Cl  -0.477957
    12  H   -0.376080
    13  H   -0.380048
 Sum of Mulliken charges =  -0.00000

 Dipole moment (field-independent basis, Debye):
    X=             -1.4785    Y=             -0.0830    Z=              0.0000  Tot=              1.4808

 Test job not archived.
 1\1\GINC-SE106\SP\RHF\Aug-CC-pVDZ\C6H3Cl3O1\OHZDE\08-Apr-2025\0\\#t hf
  aug-cc-pvdz iop(5/13=1,5/36=2,99/5=2) pseudo=read geom=check guess=(r
 ead,tcheck) scf=(maxcycle=1)\\title\\0,1\C,0,0.,1.186335,0.\C,0,-1.189
 607,0.445554,0.\C,0,-1.206616,-0.94254,0.\C,0,0.007277,-1.617164,0.\C,
 0,1.213802,-0.925772,0.\C,0,1.20195,0.46304,0.\O,0,0.037783,2.532049,0
 .\H,0,-0.868818,2.869337,0.\Cl,0,0.01825,-3.368685,0.\Cl,0,2.709628,1.
 336776,0.\Cl,0,-2.704644,1.334965,0.\H,0,-2.144846,-1.478618,0.\H,0,2.
 155599,-1.455781,0.\\Version=ES64L-G16RevC.01\State=1-A'\HF=-1682.5049

 Normal termination of Gaussian 16 at Tue Apr  8 23:10:57 2025.
