 Gaussian 16, Revision C.01,

 ----------------------------------------------------------------------
 #t hf aug-cc-pvdz symm=none int=(grid=ultrafine) guess=(read,tcheck) s
 table=(opt,rrhf)
 ----------------------------------------------------------------------
 -----
 title
 -----
 Symbolic Z-matrix:
 Charge =  0 Multiplicity = 1

 SCF Done:  E(RHF) =  -1028.40634297     A.U. after   16 cycles
 Normal termination of Gaussian 16 at Tue Apr  8 23:10:40 2025.
 Gaussian 16:  ES64L-G16RevC.01  3-Jul-2019

 ----------------------------------------------------------------------
 #t hf aug-cc-pvdz iop(5/13=1,5/36=2,99/5=2) pseudo=read geom=check gue
 ss=(read,tcheck) scf=(maxcycle=1)
 ----------------------------------------------------------------------
 -----
 title
 -----
 Structure from the checkpoint file:  "BDE49_expt_441_mol1.chk"
 Charge =  0 Multiplicity = 1

                         Standard orientation:
 ---------------------------------------------------------------------
 Center     Atomic      Atomic             Coordinates (Angstroms)
 Number     Number       Type             X           Y           Z
 ---------------------------------------------------------------------
      1          6           0       -2.171246   -1.180112    0.302618
      2          6           0       -0.847094   -0.770949    0.342323
      3          6           0       -3.162964   -0.254740   -0.017132
      4          6           0       -2.839256    1.066359   -0.295964
      5          6           0       -1.506143    1.465111   -0.247311
      6          6           0       -0.484574    0.559419    0.070618
      7          1           0       -2.439184   -2.205513    0.522637
      8          1           0       -0.071013   -1.482351    0.590999
      9          1           0       -3.617158    1.774322   -0.550674
     10          1           0       -1.273592    2.495478   -0.485053
     11          6           0        0.940287    0.969946    0.101595
     12          6           0        1.319831    2.426207    0.242200
     13          1           0        1.743207    2.824478   -0.687174
     14          1           0        2.072092    2.551504    1.028277
     15          1           0        0.469384    3.045355    0.516953
     16          7           0        1.812553    0.024868    0.006603
     17          7           0        3.129356    0.334915    0.020457
     18          6           0        4.129028   -0.624085   -0.089611
     19          6           0        3.678552   -2.061298   -0.193612
     20          1           0        3.004550   -2.197800   -1.041162
     21          1           0        3.129638   -2.357665    0.702947
     22          1           0        4.564694   -2.681822   -0.309497
     23          8           0        5.289231   -0.266595   -0.093086
     24          1           0        3.463270    1.292754    0.071579
     25         17           0       -4.840683   -0.765860   -0.064642
 ---------------------------------------------------------------------

 SCF Done:  E(RHF) =  -1028.59317607     A.U. after    2 cycles

 The electronic state is 1-A.
 Alpha  occ. eigenvalues -- -103.67348 -20.54527 -15.68920 -15.68689 -11.37384
 Alpha  occ. eigenvalues --  -11.32357 -11.31508 -11.27663 -11.27236 -11.26964
 Alpha  occ. eigenvalues --  -11.26859 -11.26737 -11.26629 -11.24636 -10.70614
 Alpha  occ. eigenvalues --   -8.36350  -8.36044  -8.36028  -1.36372  -1.30181
 Alpha  occ. eigenvalues --   -1.20736  -1.15919  -1.11746  -1.04002  -1.02140
 Alpha  occ. eigenvalues --   -1.00095  -0.99528  -0.87180  -0.85890  -0.80621
 Alpha  occ. eigenvalues --   -0.79511  -0.73263  -0.69284  -0.68210  -0.66266
 Alpha  occ. eigenvalues --   -0.64740  -0.64046  -0.62424  -0.61689  -0.61290
 Alpha  occ. eigenvalues --   -0.60915  -0.57050  -0.56236  -0.55910  -0.54995
 Alpha  occ. eigenvalues --   -0.53445  -0.52868  -0.50993  -0.48584  -0.47491
 Alpha  occ. eigenvalues --   -0.45797  -0.44529  -0.39147  -0.36579  -0.31766
 Alpha virt. eigenvalues --    0.02591   0.03241   0.03778   0.04071   0.05065
 Alpha virt. eigenvalues --    0.05766   0.06238   0.06433   0.06872   0.07931
 Alpha virt. eigenvalues --    0.08195   0.08758   0.09040   0.09231   0.10402

 Mulliken charges:
               1
     1  C    0.736941
     2  C    0.614562
     3  C   -0.378328
     4  C    0.709147
     5  C    0.568368
     6  C    0.694861
     7  H   -0.436532
     8  H   -0.654084
     9  H   -0.460979
    10  H   -0.638264
    11  C   -0.661170
    12  C    0.484631
    13  H    0.170632
    14  H    0.113959
    15  H   -0.220658
    16  N   -0.292302
    17  N   -0.166316
    18  C    0.390815
    19  C    0.385048
    20  H    0.071623
    21  H    0.049148
    22  H   -0.078202
    23  O   -0.510977
    24  H   -0.140310
    25  Cl  -0.351613
 Sum of Mulliken charges =  -0.00000

 Dipole moment (field-independent basis, Debye):
    X=             -2.1105    Y=              1.7320    Z=              0.2385  Tot=              2.7406

 Test job not archived.
 1\1\GINC-SE072\SP\RHF\Aug-CC-pVDZ\C10H11Cl1N2O1\OHZDE\08-Apr-2025\0\\#
 t hf aug-cc-pvdz iop(5/13=1,5/36=2,99/5=2) pseudo=read geom=check gues
 s=(read,tcheck) scf=(maxcycle=1)\\title\\0,1\C,0,-2.171246,-1.180112,0
 .302618\C,0,-0.847094,-0.770949,0.342323\C,0,-3.162964,-0.25474,-0.017
 132\C,0,-2.839256,1.066359,-0.295964\C,0,-1.506143,1.465111,-0.247311\
 C,0,-0.484574,0.559419,0.070618\H,0,-2.439184,-2.205513,0.522637\H,0,-
 0.071013,-1.482351,0.590999\H,0,-3.617158,1.774322,-0.550674\H,0,-1.27
 3592,2.495478,-0.485053\C,0,0.940287,0.969946,0.101595\C,0,1.319831,2.

 Normal termination of Gaussian 16 at Tue Apr  8 23:11:04 2025.
