 Gaussian 16, Revision C.01,

 ----------------------------------------------------------------------
 #t hf aug-cc-pvdz symm=none int=(grid=ultrafine) guess=(read,tcheck) s
 table=(opt,rrhf)
 ----------------------------------------------------------------------
 -----
 title
 -----
 Symbolic Z-matrix:
 Charge =  0 Multiplicity = 1

 SCF Done:  E(RHF) =  -1190.22704421     A.U. after   14 cycles
 Normal termination of Gaussian 16 at Tue Apr  8 23:55:56 2025.
 Gaussian 16:  ES64L-G16RevC.01  3-Jul-2019

 ----------------------------------------------------------------------
 #t hf aug-cc-pvdz iop(5/13=1,5/36=2,99/5=2) pseudo=read geom=check gue
 ss=(read,tcheck) scf=(maxcycle=1)
 ----------------------------------------------------------------------
 -----
 title
 -----
 Structure from the checkpoint file:  "BDE49_nonexpt_200_mol1.chk"
 Charge =  0 Multiplicity = 1

                         Standard orientation:
 ---------------------------------------------------------------------
 Center     Atomic      Atomic             Coordinates (Angstroms)
 Number     Number       Type             X           Y           Z
 ---------------------------------------------------------------------
      1         17           0        1.744603   -1.520425    0.117147
      2         17           0        1.744565    1.520508    0.116418
      3          5           0        0.879882   -0.000014   -0.073130
      4          6           0       -0.615550   -0.000147   -0.560284
      5          8           0       -0.636117   -0.000595   -1.794471
      6          7           0       -1.713305    0.000079    0.231401
      7          6           0       -1.627581    0.000537    1.680447
      8          1           0       -0.582955    0.000661    1.995223
      9          1           0       -2.110985   -0.888374    2.099064
     10          1           0       -2.111026    0.889690    2.098501
     11          6           0       -3.040949   -0.000143   -0.368368
     12          1           0       -2.925037   -0.000480   -1.450425
     13          1           0       -3.599378    0.889842   -0.061341
     14          1           0       -3.599334   -0.889962   -0.060781
 ---------------------------------------------------------------------

 SCF Done:  E(RHF) =  -1190.34691511     A.U. after    2 cycles

 The electronic state is 1-A.
 Alpha  occ. eigenvalues -- -103.67984-103.67983 -20.55088 -15.67299 -11.36245
 Alpha  occ. eigenvalues --  -11.29963 -11.28020 -10.71450 -10.71416  -8.37137
 Alpha  occ. eigenvalues --   -8.37128  -8.36906  -8.36904  -8.36871  -8.36870
 Alpha  occ. eigenvalues --   -7.74925  -1.35460  -1.23242  -1.19063  -1.15507
 Alpha  occ. eigenvalues --   -0.99339  -0.95605  -0.80694  -0.73499  -0.67702
 Alpha  occ. eigenvalues --   -0.67380  -0.66190  -0.60505  -0.59569  -0.58290
 Alpha  occ. eigenvalues --   -0.57983  -0.55461  -0.54341  -0.53531  -0.50993
 Alpha  occ. eigenvalues --   -0.48895  -0.47739  -0.42964  -0.39235
 Alpha virt. eigenvalues --    0.02740   0.04125   0.04267   0.05341   0.06841
 Alpha virt. eigenvalues --    0.06845   0.07040   0.07664   0.07945   0.08389
 Alpha virt. eigenvalues --    0.09183   0.12239   0.12729   0.13091   0.13430

 Mulliken charges:
               1
     1  Cl  -0.324718
     2  Cl  -0.324702
     3  B    0.599967
     4  C    0.281958
     5  O   -0.569846
     6  N   -0.298065
     7  C    0.751801
     8  H   -0.289672
     9  H   -0.096321
    10  H   -0.096331
    11  C    0.772925
    12  H   -0.218495
    13  H   -0.094246
    14  H   -0.094253
 Sum of Mulliken charges =  -0.00000

 Dipole moment (field-independent basis, Debye):
    X=             -2.6339    Y=              0.0013    Z=              3.9496  Tot=              4.7473

 Test job not archived.
 1\1\GINC-SE398\SP\RHF\Aug-CC-pVDZ\C3H6B1Cl2N1O1\OHZDE\08-Apr-2025\0\\#
 t hf aug-cc-pvdz iop(5/13=1,5/36=2,99/5=2) pseudo=read geom=check gues
 s=(read,tcheck) scf=(maxcycle=1)\\title\\0,1\Cl,0,-1.744603,1.520425,0
 .117147\Cl,0,-1.744565,-1.520508,0.116418\B,0,-0.879882,0.000014,-0.07
 313\C,0,0.61555,0.000147,-0.560284\O,0,0.636117,0.000595,-1.794471\N,0
 ,1.713305,-0.000079,0.231401\C,0,1.627581,-0.000537,1.680447\H,0,0.582
 955,-0.000661,1.995223\H,0,2.110985,0.888374,2.099064\H,0,2.111026,-0.
 88969,2.098501\C,0,3.040949,0.000143,-0.368368\H,0,2.925037,0.00048,-1

 Normal termination of Gaussian 16 at Tue Apr  8 23:56:01 2025.
