 Gaussian 16, Revision C.01,

 ----------------------------------------------------------------------
 #t hf aug-cc-pvdz symm=none int=(grid=ultrafine) guess=(read,tcheck) s
 table=(opt,rrhf)
 ----------------------------------------------------------------------
 -----
 title
 -----
 Symbolic Z-matrix:
 Charge =  0 Multiplicity = 1

 SCF Done:  E(RHF) =  -763.384121990     A.U. after   12 cycles
 Normal termination of Gaussian 16 at Wed Apr  9 00:40:59 2025.
 Gaussian 16:  ES64L-G16RevC.01  3-Jul-2019

 ----------------------------------------------------------------------
 #t hf aug-cc-pvdz iop(5/13=1,5/36=2,99/5=2) pseudo=read geom=check gue
 ss=(read,tcheck) scf=(maxcycle=1)
 ----------------------------------------------------------------------
 -----
 title
 -----
 Structure from the checkpoint file:  "BDE49_nonexpt_720_mol1.chk"
 Charge =  0 Multiplicity = 1

                         Standard orientation:
 ---------------------------------------------------------------------
 Center     Atomic      Atomic             Coordinates (Angstroms)
 Number     Number       Type             X           Y           Z
 ---------------------------------------------------------------------
      1         15           0        0.643518   -0.796270   -0.000000
      2          5           0       -0.069057    1.055922    0.000000
      3          9           0       -0.258541   -1.329381    1.238774
      4          9           0       -0.258541   -1.329381   -1.238774
      5          9           0       -0.258541    1.699627    1.134010
      6          9           0       -0.258541    1.699627   -1.134010
 ---------------------------------------------------------------------

 SCF Done:  E(RHF) =  -763.582144202     A.U. after    2 cycles

 The electronic state is 1-A'.
 Alpha  occ. eigenvalues --  -81.40901 -26.17233 -26.17226 -26.15350 -26.15346
 Alpha  occ. eigenvalues --   -7.89716  -7.78272  -5.03847  -5.03546  -5.03093
 Alpha  occ. eigenvalues --   -1.72592  -1.70459  -1.68348  -1.67092  -0.92347
 Alpha  occ. eigenvalues --   -0.89986  -0.85609  -0.82534  -0.80327  -0.80186
 Alpha  occ. eigenvalues --   -0.77954  -0.77174  -0.75736  -0.75244  -0.74411
 Alpha  occ. eigenvalues --   -0.72442  -0.60237  -0.41182
 Alpha virt. eigenvalues --    0.03551   0.04848   0.05023   0.05438   0.07532
 Alpha virt. eigenvalues --    0.07986   0.10174   0.11033   0.14729   0.19241
 Alpha virt. eigenvalues --    0.19627   0.20818   0.21349   0.23709   0.24272

 Mulliken charges:
               1
     1  P    1.011761
     2  B    0.949886
     3  F   -0.618368
     4  F   -0.618368
     5  F   -0.362455
     6  F   -0.362455
 Sum of Mulliken charges =   0.00000

 Dipole moment (field-independent basis, Debye):
    X=              1.4962    Y=              0.5562    Z=              0.0000  Tot=              1.5962

 Test job not archived.
 1\1\GINC-SE186\SP\RHF\Aug-CC-pVDZ\B1F4P1\OHZDE\09-Apr-2025\0\\#t hf au
 g-cc-pvdz iop(5/13=1,5/36=2,99/5=2) pseudo=read geom=check guess=(read
 ,tcheck) scf=(maxcycle=1)\\title\\0,1\P,0,0.643518,-0.79627,0.\B,0,-0.
 069057,1.055922,0.\F,0,-0.258541,-1.329381,1.238774\F,0,-0.258541,-1.3
 29381,-1.238774\F,0,-0.258541,1.699627,1.13401\F,0,-0.258541,1.699627,
 -1.13401\\Version=ES64L-G16RevC.01\State=1-A'\HF=-763.5821442\RMSD=6.2
 46e-03\Dipole=0.5886531,0.2188253,0.\Quadrupole=2.9056552,-1.1766685,-
 1.7289867,0.2003463,0.,0.\PG=CS [SG(B1P1),X(F4)]\\@

 Normal termination of Gaussian 16 at Wed Apr  9 00:41:02 2025.
