 Gaussian 16, Revision C.01,

 ----------------------------------------------------------------------
 #t hf aug-cc-pvdz symm=none int=(grid=ultrafine) guess=(read,tcheck) s
 table=(opt,rrhf)
 ----------------------------------------------------------------------
 -----
 title
 -----
 Symbolic Z-matrix:
 Charge =  0 Multiplicity = 1

 SCF Done:  E(RHF) =  -450.951806226     A.U. after   14 cycles
 Normal termination of Gaussian 16 at Wed Apr  9 00:30:06 2025.
 Gaussian 16:  ES64L-G16RevC.01  3-Jul-2019

 ----------------------------------------------------------------------
 #t hf aug-cc-pvdz iop(5/13=1,5/36=2,99/5=2) pseudo=read geom=check gue
 ss=(read,tcheck) scf=(maxcycle=1)
 ----------------------------------------------------------------------
 -----
 title
 -----
 Structure from the checkpoint file:  "BDE49_nonexpt_378_mol1.chk"
 Charge =  0 Multiplicity = 1

                         Standard orientation:
 ---------------------------------------------------------------------
 Center     Atomic      Atomic             Coordinates (Angstroms)
 Number     Number       Type             X           Y           Z
 ---------------------------------------------------------------------
      1          9           0       -1.560355   -1.402834    0.000282
      2          9           0       -2.195082    0.768335    0.000504
      3          5           0       -1.234048   -0.127860   -0.000569
      4          6           0        0.290295    0.361130   -0.000302
      5          8           0        0.619710    1.523015   -0.000105
      6          8           0        1.156288   -0.670467   -0.000245
      7          6           0        2.554918   -0.318094    0.000022
      8          1           0        3.093119   -1.262477    0.000032
      9          1           0        2.798248    0.266761    0.888333
     10          1           0        2.798549    0.266913   -0.888106
 ---------------------------------------------------------------------

 SCF Done:  E(RHF) =  -451.117638305     A.U. after    2 cycles

 The electronic state is 1-A.
 Alpha  occ. eigenvalues --  -26.16294 -26.15995 -20.63636 -20.59058 -11.40196
 Alpha  occ. eigenvalues --  -11.31132  -7.77436  -1.71580  -1.69396  -1.43649
 Alpha  occ. eigenvalues --   -1.34490  -1.00249  -0.90528  -0.84882  -0.84528
 Alpha  occ. eigenvalues --   -0.79562  -0.79129  -0.74162  -0.73924  -0.72360
 Alpha  occ. eigenvalues --   -0.70465  -0.69538  -0.60685  -0.57390  -0.55420
 Alpha  occ. eigenvalues --   -0.49472  -0.48780
 Alpha virt. eigenvalues --    0.03338   0.04114   0.05220   0.05428   0.06091
 Alpha virt. eigenvalues --    0.06550   0.06785   0.07193   0.11820   0.13546
 Alpha virt. eigenvalues --    0.13690   0.15170   0.15810   0.17377   0.18541

 Mulliken charges:
               1
     1  F   -0.397294
     2  F   -0.382312
     3  B    0.970088
     4  C    0.413288
     5  O   -0.425771
     6  O   -0.555359
     7  C    0.745833
     8  H   -0.227243
     9  H   -0.070610
    10  H   -0.070620
 Sum of Mulliken charges =   0.00000

 Dipole moment (field-independent basis, Debye):
    X=              2.0053    Y=             -1.4815    Z=             -0.0038  Tot=              2.4932

 Test job not archived.
 1\1\GINC-SE212\SP\RHF\Aug-CC-pVDZ\C2H3B1F2O2\OHZDE\09-Apr-2025\0\\#t h
 f aug-cc-pvdz iop(5/13=1,5/36=2,99/5=2) pseudo=read geom=check guess=(
 read,tcheck) scf=(maxcycle=1)\\title\\0,1\F,0,1.560355,-1.402834,-0.00
 0282\F,0,2.195082,0.768335,-0.000504\B,0,1.234048,-0.12786,0.000569\C,
 0,-0.290295,0.36113,0.000302\O,0,-0.61971,1.523015,0.000105\O,0,-1.156
 288,-0.670467,0.000245\C,0,-2.554918,-0.318094,-0.000022\H,0,-3.093119
 ,-1.262477,-0.000032\H,0,-2.798248,0.266761,-0.888333\H,0,-2.798549,0.
 266913,0.888106\\Version=ES64L-G16RevC.01\State=1-A\HF=-451.1176383\RM

 Normal termination of Gaussian 16 at Wed Apr  9 00:30:09 2025.
