 Gaussian 16, Revision C.01,

 ----------------------------------------------------------------------
 #t hf aug-cc-pvdz symm=none int=(grid=ultrafine) guess=(read,tcheck) s
 table=(opt,rrhf)
 ----------------------------------------------------------------------
 -----
 title
 -----
 Symbolic Z-matrix:
 Charge =  0 Multiplicity = 1

 SCF Done:  E(RHF) =  -474.710939906     A.U. after   10 cycles
 Normal termination of Gaussian 16 at Tue Apr  8 22:26:38 2025.
 Gaussian 16:  ES64L-G16RevC.01  3-Jul-2019

 ----------------------------------------------------------------------
 #t hf aug-cc-pvdz iop(5/13=1,5/36=2,99/5=2) pseudo=read geom=check gue
 ss=(read,tcheck) scf=(maxcycle=1)
 ----------------------------------------------------------------------
 -----
 title
 -----
 Structure from the checkpoint file:  "BDE49_expt_1002_mol1.chk"
 Charge =  0 Multiplicity = 1

                         Standard orientation:
 ---------------------------------------------------------------------
 Center     Atomic      Atomic             Coordinates (Angstroms)
 Number     Number       Type             X           Y           Z
 ---------------------------------------------------------------------
      1          6           0        0.245502    0.721848   -0.000000
      2          6           0       -0.245502   -0.721848   -0.000000
      3          1           0        1.336026    0.785375    0.000000
      4          9           0       -0.245502    1.348725    1.102884
      5          9           0       -0.245502    1.348725   -1.102884
      6          9           0        0.245502   -1.348725    1.102884
      7          9           0        0.245502   -1.348725   -1.102884
      8          1           0       -1.336026   -0.785375    0.000000
 ---------------------------------------------------------------------

 SCF Done:  E(RHF) =  -474.881223685     A.U. after    2 cycles

 The electronic state is 1-AG.
 Alpha  occ. eigenvalues --  -26.16459 -26.16458 -26.16450 -26.16450 -11.45515
 Alpha  occ. eigenvalues --  -11.45458  -1.73446  -1.72275  -1.68754  -1.67978
 Alpha  occ. eigenvalues --   -1.09833  -0.97709  -0.86855  -0.86615  -0.85922
 Alpha  occ. eigenvalues --   -0.82453  -0.82020  -0.77256  -0.75746  -0.75423
 Alpha  occ. eigenvalues --   -0.72776  -0.71622  -0.68205  -0.65748  -0.56070
 Alpha virt. eigenvalues --    0.04003   0.04169   0.07971   0.08653   0.11266
 Alpha virt. eigenvalues --    0.11712   0.11729   0.14731   0.17037   0.18924
 Alpha virt. eigenvalues --    0.21072   0.22890   0.23478   0.25275   0.28343

 Mulliken charges:
               1
     1  C    0.815345
     2  C    0.815345
     3  H   -0.127657
     4  F   -0.343844
     5  F   -0.343844
     6  F   -0.343844
     7  F   -0.343844
     8  H   -0.127657
 Sum of Mulliken charges =  -0.00000

 Dipole moment (field-independent basis, Debye):
    X=              0.0000    Y=              0.0000    Z=             -0.0000  Tot=              0.0000

 Test job not archived.
 1\1\GINC-SE044\SP\RHF\Aug-CC-pVDZ\C2H2F4\OHZDE\08-Apr-2025\0\\#t hf au
 g-cc-pvdz iop(5/13=1,5/36=2,99/5=2) pseudo=read geom=check guess=(read
 ,tcheck) scf=(maxcycle=1)\\title\\0,1\C,0,0.245502,0.721848,0.\C,0,-0.
 245502,-0.721848,0.\H,0,1.336026,0.785375,0.\F,0,-0.245502,1.348725,1.
 102884\F,0,-0.245502,1.348725,-1.102884\F,0,0.245502,-1.348725,1.10288
 4\F,0,0.245502,-1.348725,-1.102884\H,0,-1.336026,-0.785375,0.\\Version
 =ES64L-G16RevC.01\State=1-AG\HF=-474.8812237\RMSD=6.481e-03\Dipole=0.,
 0.,0.\Quadrupole=4.2253604,-1.9227613,-2.3025992,2.719461,0.,0.\PG=C02

 Normal termination of Gaussian 16 at Tue Apr  8 22:26:40 2025.
