 Gaussian 16, Revision C.01,

 ----------------------------------------------------------------------
 #t hf aug-cc-pvdz symm=none int=(grid=ultrafine) guess=(read,tcheck) s
 table=opt
 ----------------------------------------------------------------------
 -----
 title
 -----
 Symbolic Z-matrix:
 Charge =  0 Multiplicity = 2

 SCF Done:  E(UHF) =  -216.450044241     A.U. after   22 cycles
 Normal termination of Gaussian 16 at Wed Apr  9 00:30:42 2025.
 Gaussian 16:  ES64L-G16RevC.01  3-Jul-2019

 ----------------------------------------------------------------------
 #t hf aug-cc-pvdz iop(5/13=1,5/36=2,99/5=2) pseudo=read geom=check gue
 ss=(read,tcheck) scf=(maxcycle=1)
 ----------------------------------------------------------------------
 -----
 title
 -----
 Structure from the checkpoint file:  "BDE49_nonexpt_387_mol2.chk"
 Charge =  0 Multiplicity = 2

                         Standard orientation:
 ---------------------------------------------------------------------
 Center     Atomic      Atomic             Coordinates (Angstroms)
 Number     Number       Type             X           Y           Z
 ---------------------------------------------------------------------
      1          9           0        1.699779   -0.217997   -0.000001
      2          5           0        0.634127    0.528960   -0.000002
      3          6           0       -0.804686    0.047669    0.000004
      4          7           0       -1.948646   -0.138406   -0.000001
 ---------------------------------------------------------------------

 SCF Done:  E(UHF) =  -216.527675868     A.U. after    2 cycles

 The electronic state is 2-A.
 Alpha  occ. eigenvalues --  -26.19038 -15.69376 -11.29448  -7.77575  -1.73519
 Alpha  occ. eigenvalues --   -1.23206  -0.91233  -0.84046  -0.78905  -0.77988
 Alpha  occ. eigenvalues --   -0.59805  -0.53433  -0.51494  -0.41261
 Alpha virt. eigenvalues --    0.01057   0.04185   0.05051   0.05536   0.05813
 Alpha virt. eigenvalues --    0.10850   0.12932   0.13205   0.14635   0.18148
 Alpha virt. eigenvalues --    0.20759   0.21691   0.22012   0.24495   0.25086

  Beta  occ. eigenvalues --  -26.18746 -15.68084 -11.30049  -7.75412  -1.72688
  Beta  occ. eigenvalues --   -1.21079  -0.89912  -0.81628  -0.79235  -0.75563
  Beta  occ. eigenvalues --   -0.57357  -0.50353  -0.49914
  Beta virt. eigenvalues --    0.02191   0.03422   0.04888   0.05549   0.06731
  Beta virt. eigenvalues --    0.07795   0.11310   0.13132   0.13241   0.16732
  Beta virt. eigenvalues --    0.18940   0.22037   0.22243   0.23387   0.25770

 Mulliken charges and spin densities:
               1          2
     1  F   -0.269989  -0.056620
     2  B    0.443197   1.015008
     3  C   -0.000437  -0.393521
     4  N   -0.172771   0.435132
 Sum of Mulliken charges =  -0.00000   1.00000

 Dipole moment (field-independent basis, Debye):
    X=              1.6519    Y=              0.7543    Z=              0.0000  Tot=              1.8160
                          Isotropic Fermi Contact Couplings
        Atom                 a.u.       MegaHertz       Gauss      10(-4) cm-1
     1  F(19)              0.06207     261.17592      93.19406      87.11891
     2  B(11)              0.41343     593.00813     211.60005     197.80622
     3  C(13)              0.02014      22.63660       8.07730       7.55076
     4  N(14)              0.09400      30.37267      10.83772      10.13123
 --------------------------------------------------------
       Center         ----  Spin Dipole Couplings  ----
                      3XX-RR        3YY-RR        3ZZ-RR
 --------------------------------------------------------

 Normal termination of Gaussian 16 at Wed Apr  9 00:30:44 2025.
