 Gaussian 16, Revision C.01,

 ----------------------------------------------------------------------
 #t hf aug-cc-pvdz symm=none int=(grid=ultrafine) guess=(read,tcheck) s
 table=(opt,rrhf)
 ----------------------------------------------------------------------
 -----
 title
 -----
 Symbolic Z-matrix:
 Charge =  0 Multiplicity = 1

 SCF Done:  E(RHF) =  -2523.44028394     A.U. after   14 cycles
 Normal termination of Gaussian 16 at Tue Apr  8 23:08:06 2025.
 Gaussian 16:  ES64L-G16RevC.01  3-Jul-2019

 ----------------------------------------------------------------------
 #t hf aug-cc-pvdz iop(5/13=1,5/36=2,99/5=2) pseudo=read geom=check gue
 ss=(read,tcheck) scf=(maxcycle=1)
 ----------------------------------------------------------------------
 -----
 title
 -----
 Structure from the checkpoint file:  "BDE49_expt_627_mol1.chk"
 Charge =  0 Multiplicity = 1

                         Standard orientation:
 ---------------------------------------------------------------------
 Center     Atomic      Atomic             Coordinates (Angstroms)
 Number     Number       Type             X           Y           Z
 ---------------------------------------------------------------------
      1          6           0        0.709533    0.029335   -0.000231
      2          8           0        1.125404   -0.048460   -1.307856
      3          8           0        2.559173    0.022057   -1.396098
      4          1           0        2.781125   -0.922454   -1.439672
      5          6           0       -0.874710   -0.012340   -0.081620
      6         17           0        1.325172   -1.384253    0.961487
      7         17           0       -1.392185   -1.525504   -0.890402
      8         17           0       -1.583077    0.053687    1.552809
      9         17           0       -1.455007    1.381106   -1.040086
     10         17           0        1.265882    1.535653    0.802217
 ---------------------------------------------------------------------

 SCF Done:  E(RHF) =  -2523.60028367     A.U. after    2 cycles

 The electronic state is 1-A.
 Alpha  occ. eigenvalues -- -103.70167-103.70085-103.69993-103.69638-103.69245
 Alpha  occ. eigenvalues --  -20.70379 -20.69151 -11.48525 -11.47915 -10.73469
 Alpha  occ. eigenvalues --  -10.73374 -10.73279 -10.72942 -10.72557  -8.39188
 Alpha  occ. eigenvalues --   -8.39095  -8.39002  -8.38842  -8.38835  -8.38752
 Alpha  occ. eigenvalues --   -8.38745  -8.38655  -8.38654  -8.38649  -8.38339
 Alpha  occ. eigenvalues --   -8.38326  -8.38277  -8.37941  -8.37935  -1.50232
 Alpha  occ. eigenvalues --   -1.31386  -1.26040  -1.20576  -1.17567  -1.16829
 Alpha  occ. eigenvalues --   -1.15646  -0.96697  -0.83818  -0.79091  -0.74109
 Alpha  occ. eigenvalues --   -0.73367  -0.68092  -0.64360  -0.63946  -0.62107
 Alpha  occ. eigenvalues --   -0.57504  -0.53746  -0.53417  -0.52257  -0.51413
 Alpha  occ. eigenvalues --   -0.51052  -0.50567  -0.49185  -0.48830  -0.47765
 Alpha  occ. eigenvalues --   -0.47203  -0.46328
 Alpha virt. eigenvalues --    0.03506   0.05976   0.06800   0.07455   0.08592
 Alpha virt. eigenvalues --    0.09294   0.09540   0.10842   0.11736   0.12519
 Alpha virt. eigenvalues --    0.12659   0.13840   0.15064   0.15251   0.16299

 Mulliken charges:
               1
     1  C    0.548297
     2  O   -0.427579
     3  O   -0.185556
     4  H    0.240976
     5  C   -0.228811
     6  Cl  -0.050911
     7  Cl   0.050467
     8  Cl   0.016669
     9  Cl   0.056592
    10  Cl  -0.020143
 Sum of Mulliken charges =   0.00000

 Dipole moment (field-independent basis, Debye):
    X=              0.8579    Y=             -1.3971    Z=             -0.1381  Tot=              1.6453

 Test job not archived.
 1\1\GINC-SE331\SP\RHF\Aug-CC-pVDZ\C2H1Cl5O2\OHZDE\08-Apr-2025\0\\#t hf
  aug-cc-pvdz iop(5/13=1,5/36=2,99/5=2) pseudo=read geom=check guess=(r
 ead,tcheck) scf=(maxcycle=1)\\title\\0,1\C,0,0.709533,0.029335,-0.0002
 31\O,0,1.125404,-0.04846,-1.307856\O,0,2.559173,0.022056,-1.396098\H,0
 ,2.781125,-0.922455,-1.439672\C,0,-0.87471,-0.01234,-0.08162\Cl,0,1.32
 5171,-1.384254,0.961487\Cl,0,-1.392186,-1.525504,-0.890402\Cl,0,-1.583
 077,0.053688,1.552809\Cl,0,-1.455007,1.381107,-1.040086\Cl,0,1.265882,
 1.535652,0.802217\\Version=ES64L-G16RevC.01\State=1-A\HF=-2523.6002837

 Normal termination of Gaussian 16 at Tue Apr  8 23:08:12 2025.
