 Gaussian 16, Revision C.01,

 ----------------------------------------------------------------------
 #t hf aug-cc-pvdz symm=none int=(grid=ultrafine) guess=(read,tcheck) s
 table=opt
 ----------------------------------------------------------------------
 -----
 title
 -----
 Symbolic Z-matrix:
 Charge =  0 Multiplicity = 2

 SCF Done:  E(UHF) =  -608.312278313     A.U. after   19 cycles
 Normal termination of Gaussian 16 at Wed Apr  9 00:00:40 2025.
 Gaussian 16:  ES64L-G16RevC.01  3-Jul-2019

 ----------------------------------------------------------------------
 #t hf aug-cc-pvdz iop(5/13=1,5/36=2,99/5=2) pseudo=read geom=check gue
 ss=(read,tcheck) scf=(maxcycle=1)
 ----------------------------------------------------------------------
 -----
 title
 -----
 Structure from the checkpoint file:  "BDE49_nonexpt_2149_mol2.chk"
 Charge =  0 Multiplicity = 2

                         Standard orientation:
 ---------------------------------------------------------------------
 Center     Atomic      Atomic             Coordinates (Angstroms)
 Number     Number       Type             X           Y           Z
 ---------------------------------------------------------------------
      1          6           0       -1.779386   -0.641921    0.076086
      2          7           0       -0.485896   -1.015342   -0.156100
      3         14           0        0.878417    0.091259   -0.419165
      4          8           0       -2.167377    0.507961    0.201720
      5          8           0        0.367167    1.561688    0.064316
      6          1           0       -0.331032   -2.013602   -0.213846
      7          1           0       -0.603513    1.598728    0.177146
      8          8           0        2.077103   -0.581928    0.494676
      9          1           0        2.981684   -0.315346    0.309627
     10          1           0       -2.482528   -1.490254    0.145869
 ---------------------------------------------------------------------

 SCF Done:  E(UHF) =  -608.457390190     A.U. after    2 cycles

 The electronic state is 2-A.
 Alpha  occ. eigenvalues --  -69.15184 -20.59381 -20.56821 -20.56783 -15.65871
 Alpha  occ. eigenvalues --  -11.39077  -6.89482  -4.00580  -4.00111  -4.00082
 Alpha  occ. eigenvalues --   -1.37309  -1.33132  -1.30231  -1.18772  -0.85651
 Alpha  occ. eigenvalues --   -0.78022  -0.76084  -0.72197  -0.67291  -0.63722
 Alpha  occ. eigenvalues --   -0.61542  -0.60203  -0.57635  -0.56887  -0.53691
 Alpha  occ. eigenvalues --   -0.47423  -0.45136  -0.34688
 Alpha virt. eigenvalues --    0.02743   0.03746   0.05333   0.05812   0.07246
 Alpha virt. eigenvalues --    0.07492   0.08401   0.10214   0.11725   0.12535
 Alpha virt. eigenvalues --    0.14901   0.15417   0.15857   0.16884   0.17818

  Beta  occ. eigenvalues --  -69.14632 -20.58884 -20.56712 -20.56394 -15.65589
  Beta  occ. eigenvalues --  -11.39089  -6.88540  -3.99771  -3.99736  -3.98810
  Beta  occ. eigenvalues --   -1.37131  -1.31618  -1.28965  -1.18163  -0.85025
  Beta  occ. eigenvalues --   -0.76922  -0.75911  -0.71012  -0.66777  -0.62468
  Beta  occ. eigenvalues --   -0.59816  -0.58499  -0.56652  -0.55510  -0.52332
  Beta  occ. eigenvalues --   -0.46796  -0.44053
  Beta virt. eigenvalues --    0.02017   0.03242   0.05209   0.05469   0.06998
  Beta virt. eigenvalues --    0.07551   0.07671   0.08646   0.10674   0.12440
  Beta virt. eigenvalues --    0.13560   0.15313   0.16051   0.16705   0.17958

 Mulliken charges and spin densities:
               1          2
     1  C    0.692233  -0.014498
     2  N   -0.405418  -0.000255
     3  Si   1.654398   0.982303
     4  O   -0.474256   0.018141
     5  O   -0.789799   0.011671
     6  H   -0.085719  -0.007838
     7  H    0.222315  -0.004170
     8  O   -0.750035   0.040268
     9  H    0.145207  -0.030285
    10  H   -0.208926   0.004663
 Sum of Mulliken charges =  -0.00000   1.00000

 Dipole moment (field-independent basis, Debye):
    X=              1.3899    Y=             -3.7810    Z=             -1.2762  Tot=              4.2257
                          Isotropic Fermi Contact Couplings
        Atom                 a.u.       MegaHertz       Gauss      10(-4) cm-1
     1  C(13)             -0.00088      -0.99233      -0.35409      -0.33101
     2  N(14)              0.07907      25.54915       9.11657       8.52228
     3  Si(29)             0.88723    -788.50886    -281.35957    -263.01824
     4  O(17)              0.00625      -3.79032      -1.35248      -1.26431
     5  O(17)              0.10050     -60.92535     -21.73968     -20.32251
     6  H(1)              -0.00137      -6.11213      -2.18096      -2.03879
     7  H(1)               0.00004       0.17922       0.06395       0.05978
     8  O(17)              0.07706     -46.71630     -16.66954     -15.58288

 1\1\GINC-SE322\SP\UHF\Aug-CC-pVDZ\C1H4N1O3Si1(2)\OHZDE\09-Apr-2025\0\\
 #t hf aug-cc-pvdz iop(5/13=1,5/36=2,99/5=2) pseudo=read geom=check gue
 ss=(read,tcheck) scf=(maxcycle=1)\\title\\0,2\C,0,1.779386,-0.641921,-
 0.076086\N,0,0.485896,-1.015342,0.1561\Si,0,-0.878417,0.091259,0.41916
 5\O,0,2.167377,0.507961,-0.20172\O,0,-0.367167,1.561688,-0.064316\H,0,
 0.331032,-2.013602,0.213846\H,0,0.603513,1.598728,-0.177146\O,0,-2.077
 103,-0.581928,-0.494676\H,0,-2.981684,-0.315346,-0.309627\H,0,2.482528
 ,-1.490254,-0.145869\\Version=ES64L-G16RevC.01\State=2-A\HF=-608.45739

 Normal termination of Gaussian 16 at Wed Apr  9 00:00:45 2025.
