 Gaussian 16, Revision C.01,

 ----------------------------------------------------------------------
 #t hf aug-cc-pvdz symm=none int=(grid=ultrafine) guess=(read,tcheck) s
 table=opt
 ----------------------------------------------------------------------
 -----
 title
 -----
 Symbolic Z-matrix:
 Charge =  0 Multiplicity = 2

 SCF Done:  E(UHF) =  -474.979861732     A.U. after   17 cycles
 Normal termination of Gaussian 16 at Tue Apr  8 23:29:59 2025.
 Gaussian 16:  ES64L-G16RevC.01  3-Jul-2019

 ----------------------------------------------------------------------
 #t hf aug-cc-pvdz iop(5/13=1,5/36=2,99/5=2) pseudo=read geom=check gue
 ss=(read,tcheck) scf=(maxcycle=1)
 ----------------------------------------------------------------------
 -----
 title
 -----
 Structure from the checkpoint file:  "BDE49_nonexpt_1397_mol2.chk"
 Charge =  0 Multiplicity = 2

                         Standard orientation:
 ---------------------------------------------------------------------
 Center     Atomic      Atomic             Coordinates (Angstroms)
 Number     Number       Type             X           Y           Z
 ---------------------------------------------------------------------
      1          6           0        1.093322    1.220245    0.010848
      2          7           0        0.294868    0.007895   -0.046617
      3          1           0        1.623265    1.302430    0.970256
      4          1           0        0.458610    2.096521   -0.108873
      5          1           0        1.843899    1.222810   -0.789664
      6         15           0       -1.407998   -0.086584    0.008707
      7          6           0        1.064214   -1.225871    0.006280
      8          1           0        1.773410   -1.275550   -0.829136
      9          1           0        0.397866   -2.086970   -0.058880
     10          1           0        1.633560   -1.300442    0.942551
     11          1           0       -1.619930    1.318446   -0.033316
 ---------------------------------------------------------------------

 SCF Done:  E(UHF) =  -475.047624700     A.U. after    2 cycles

 The electronic state is 2-A.
 Alpha  occ. eigenvalues --  -81.26554 -15.63783 -11.27123 -11.26993  -7.76672
 Alpha  occ. eigenvalues --   -4.91126  -4.90528  -4.90126  -1.19430  -0.96500
 Alpha  occ. eigenvalues --   -0.88428  -0.74726  -0.64760  -0.63284  -0.61013
 Alpha  occ. eigenvalues --   -0.55632  -0.53236  -0.51423  -0.43251  -0.40074
 Alpha  occ. eigenvalues --   -0.27819
 Alpha virt. eigenvalues --    0.03328   0.04553   0.05357   0.05549   0.07400
 Alpha virt. eigenvalues --    0.07739   0.08000   0.09960   0.11429   0.11967
 Alpha virt. eigenvalues --    0.13322   0.14682   0.15928   0.16412   0.16792

  Beta  occ. eigenvalues --  -81.26001 -15.62712 -11.27210 -11.27080  -7.76013
  Beta  occ. eigenvalues --   -4.90226  -4.89874  -4.88487  -1.17387  -0.96512
  Beta  occ. eigenvalues --   -0.87266  -0.71775  -0.62834  -0.62648  -0.59432
  Beta  occ. eigenvalues --   -0.55526  -0.53119  -0.50863  -0.37455  -0.35494
  Beta virt. eigenvalues --    0.03369   0.04463   0.04572   0.05598   0.07399
  Beta virt. eigenvalues --    0.07469   0.07766   0.08015   0.10202   0.11978
  Beta virt. eigenvalues --    0.13437   0.14713   0.15501   0.16059   0.16555

 Mulliken charges and spin densities:
               1          2
     1  C    0.663622  -0.046876
     2  N   -0.686592   0.084693
     3  H   -0.049818   0.009622
     4  H   -0.301100  -0.006590
     5  H   -0.084101   0.007443
     6  P    0.247966   1.102101
     7  C    0.692616  -0.041550
     8  H   -0.085154   0.006865
     9  H   -0.288881  -0.005019
    10  H   -0.054844   0.007911
    11  H   -0.053714  -0.118601
 Sum of Mulliken charges =  -0.00000   1.00000

 Dipole moment (field-independent basis, Debye):
    X=              1.8666    Y=              0.5413    Z=              0.0337  Tot=              1.9438
                          Isotropic Fermi Contact Couplings
        Atom                 a.u.       MegaHertz       Gauss      10(-4) cm-1
     1  C(13)             -0.01455     -16.35732      -5.83670      -5.45622
     2  N(14)              0.11590      37.44760      13.36224      12.49117
     3  H(1)               0.00327      14.60630       5.21189       4.87214
     4  H(1)               0.00056       2.48524       0.88679       0.82899
     5  H(1)               0.00198       8.83305       3.15185       2.94639
     6  P(31)              0.19121     346.30421     123.56995     115.51465
     7  C(13)             -0.01516     -17.04229      -6.08111      -5.68470
     8  H(1)               0.00187       8.35092       2.97981       2.78557

 Normal termination of Gaussian 16 at Tue Apr  8 23:30:03 2025.
