 Gaussian 16, Revision C.01,

 ----------------------------------------------------------------------
 #t hf aug-cc-pvdz symm=none int=(grid=ultrafine) guess=(read,tcheck) s
 table=(opt,rrhf)
 ----------------------------------------------------------------------
 -----
 title
 -----
 Symbolic Z-matrix:
 Charge =  0 Multiplicity = 1

 SCF Done:  E(RHF) =  -705.168815445     A.U. after   16 cycles
 Normal termination of Gaussian 16 at Tue Apr  8 23:34:08 2025.
 Gaussian 16:  ES64L-G16RevC.01  3-Jul-2019

 ----------------------------------------------------------------------
 #t hf aug-cc-pvdz iop(5/13=1,5/36=2,99/5=2) pseudo=read geom=check gue
 ss=(read,tcheck) scf=(maxcycle=1)
 ----------------------------------------------------------------------
 -----
 title
 -----
 Structure from the checkpoint file:  "BDE49_nonexpt_1460_mol1.chk"
 Charge =  0 Multiplicity = 1

                         Standard orientation:
 ---------------------------------------------------------------------
 Center     Atomic      Atomic             Coordinates (Angstroms)
 Number     Number       Type             X           Y           Z
 ---------------------------------------------------------------------
      1          6           0        0.929401   -1.164074   -0.154611
      2          6           0       -0.443018   -1.021368    0.038413
      3          6           0        1.755765   -0.053610   -0.347285
      4          6           0        1.158427    1.212539   -0.347088
      5          6           0       -0.211202    1.361694   -0.159613
      6          6           0       -1.034087    0.245073    0.032815
      7          1           0       -1.067270   -1.896383    0.178569
      8          1           0        1.364592   -2.159180   -0.159696
      9          1           0        1.773762    2.092985   -0.506842
     10          1           0       -0.642972    2.358376   -0.178488
     11         15           0       -2.822782    0.474950    0.407805
     12          7           0       -3.491133   -0.978446   -0.191112
     13          1           0       -4.350040   -1.269649    0.250039
     14          1           0       -3.484329   -1.171947   -1.183756
     15          6           0        3.250794   -0.209989   -0.515920
     16          6           0        4.015755   -0.145718    0.817790
     17          1           0        3.625292    0.572715   -1.183748
     18          1           0        3.462810   -1.165107   -1.007140
     19          1           0        3.848241    0.811106    1.319459
     20          1           0        5.091587   -0.261550    0.657954
     21          1           0        3.685860   -0.937031    1.496147
     22          1           0       -3.058875    1.403255   -0.648798
 ---------------------------------------------------------------------

 SCF Done:  E(RHF) =  -705.304212151     A.U. after    2 cycles

 The electronic state is 1-A.
 Alpha  occ. eigenvalues --  -81.27495 -15.61838 -11.24624 -11.24428 -11.24172
 Alpha  occ. eigenvalues --  -11.23982 -11.23915 -11.23813 -11.23776 -11.22700
 Alpha  occ. eigenvalues --   -7.77450  -4.91606  -4.91457  -4.91106  -1.14439
 Alpha  occ. eigenvalues --   -1.12005  -1.05368  -1.00547  -0.97830  -0.86674
 Alpha  occ. eigenvalues --   -0.82826  -0.79993  -0.75719  -0.67424  -0.66303
 Alpha  occ. eigenvalues --   -0.65123  -0.62713  -0.59099  -0.58712  -0.58556
 Alpha  occ. eigenvalues --   -0.56147  -0.53935  -0.51022  -0.50138  -0.49252
 Alpha  occ. eigenvalues --   -0.47974  -0.46838  -0.40514  -0.37122  -0.33783
 Alpha  occ. eigenvalues --   -0.29986
 Alpha virt. eigenvalues --    0.03355   0.03725   0.04187   0.04985   0.05102
 Alpha virt. eigenvalues --    0.05644   0.05976   0.07324   0.07433   0.07662
 Alpha virt. eigenvalues --    0.08058   0.08956   0.09700   0.10649   0.11230

 Mulliken charges:
               1
     1  C    0.540575
     2  C    0.195495
     3  C    0.693516
     4  C    0.509580
     5  C    0.175692
     6  C    0.249484
     7  H   -0.604654
     8  H   -0.632618
     9  H   -0.639731
    10  H   -0.613707
    11  P    0.612065
    12  N   -0.409897
    13  H   -0.006058
    14  H   -0.050069
    15  C    0.146488
    16  C    0.315788
    17  H   -0.133702
    18  H   -0.134775
    19  H   -0.103980
    20  H   -0.070744
    21  H   -0.097695
    22  H    0.058946
 Sum of Mulliken charges =   0.00000

 Dipole moment (field-independent basis, Debye):
    X=             -0.0391    Y=             -0.6137    Z=             -1.3301  Tot=              1.4653

 Test job not archived.
 1\1\GINC-SE461\SP\RHF\Aug-CC-pVDZ\C8H12N1P1\OHZDE\08-Apr-2025\0\\#t hf
  aug-cc-pvdz iop(5/13=1,5/36=2,99/5=2) pseudo=read geom=check guess=(r
 ead,tcheck) scf=(maxcycle=1)\\title\\0,1\C,0,0.929401,-1.164074,-0.154
 611\C,0,-0.443018,-1.021368,0.038413\C,0,1.755765,-0.05361,-0.347285\C
 ,0,1.158427,1.212539,-0.347088\C,0,-0.211202,1.361694,-0.159613\C,0,-1
 .034087,0.245073,0.032815\H,0,-1.06727,-1.896383,0.178569\H,0,1.364592
 ,-2.15918,-0.159696\H,0,1.773762,2.092985,-0.506842\H,0,-0.642972,2.35
 8376,-0.178488\P,0,-2.822782,0.47495,0.407805\N,0,-3.491133,-0.978446,

 Normal termination of Gaussian 16 at Tue Apr  8 23:34:22 2025.
