 Gaussian 16, Revision C.01,

 ----------------------------------------------------------------------
 #t hf aug-cc-pvdz symm=none int=(grid=ultrafine) guess=(read,tcheck) s
 table=(opt,rrhf)
 ----------------------------------------------------------------------
 -----
 title
 -----
 Symbolic Z-matrix:
 Charge =  0 Multiplicity = 1

 SCF Done:  E(RHF) =  -1752.59203245     A.U. after   12 cycles

 1\1\GINC-SE398\Stability\RHF\Aug-CC-pVDZ\C2Cl3F3\OHZDE\08-Apr-2025\0\\
 #t hf aug-cc-pvdz symm=none int=(grid=ultrafine) guess=(read,tcheck) s
 table=(opt,rrhf)\\title\\0,1\C,0,1.178002,-0.000015,0.00005\C,0,-0.386
 851,0.000007,0.000001\F,0,1.642457,0.893267,-0.877192\F,0,1.642406,-1.
 206384,-0.334942\F,0,1.642386,0.313035,1.21231\Cl,0,-0.962578,1.627554
 ,0.451214\Cl,0,-0.962687,-1.204552,1.183812\Cl,0,-0.962508,-0.422956,-
 1.635137\\Version=ES64L-G16RevC.01\HF=-1752.5920324\RMSD=6.296e-09\Dip
 ole=-0.2884976,0.0000063,0.0000099\Quadrupole=-0.8188557,0.4094954,0.4

 Normal termination of Gaussian 16 at Tue Apr  8 22:26:24 2025.
 Gaussian 16:  ES64L-G16RevC.01  3-Jul-2019

 ----------------------------------------------------------------------
 #t hf aug-cc-pvdz iop(5/13=1,5/36=2,99/5=2) pseudo=read geom=check gue
 ss=(read,tcheck) scf=(maxcycle=1)
 ----------------------------------------------------------------------
 -----
 title
 -----
 Structure from the checkpoint file:  "BDE49_expt_1000_mol1.chk"
 Charge =  0 Multiplicity = 1

                         Standard orientation:
 ---------------------------------------------------------------------
 Center     Atomic      Atomic             Coordinates (Angstroms)
 Number     Number       Type             X           Y           Z
 ---------------------------------------------------------------------
      1          6           0       -1.178002   -0.000013   -0.000050
      2          6           0        0.386851    0.000007   -0.000001
      3          9           0       -1.642457    0.865876    0.904241
      4          9           0       -1.642406   -1.216111    0.297695
      5          9           0       -1.642386    0.350159   -1.202112
      6         17           0        0.962578    1.640657   -0.400963
      7         17           0        0.962687   -1.167587   -1.220286
      8         17           0        0.962508   -0.473027    1.621360
 ---------------------------------------------------------------------

 SCF Done:  E(RHF) =  -1752.78073425     A.U. after    2 cycles

 The electronic state is 1-A.
 Alpha  occ. eigenvalues -- -103.71144-103.71144-103.71144 -26.19508 -26.19508
 Alpha  occ. eigenvalues --  -26.19491 -11.57155 -11.48270 -10.74444 -10.74444
 Alpha  occ. eigenvalues --  -10.74417  -8.40160  -8.40160  -8.40150  -8.39807
 Alpha  occ. eigenvalues --   -8.39807  -8.39806  -8.39801  -8.39798  -8.39798
 Alpha  occ. eigenvalues --   -1.79499  -1.72297  -1.72296  -1.29303  -1.18080
 Alpha  occ. eigenvalues --   -1.18080  -1.07863  -0.95274  -0.91268  -0.91268
 Alpha  occ. eigenvalues --   -0.82296  -0.80216  -0.80216  -0.75890  -0.75890
 Alpha  occ. eigenvalues --   -0.74557  -0.67024  -0.65534  -0.65534  -0.53537
 Alpha  occ. eigenvalues --   -0.53537  -0.50930  -0.49686  -0.49686  -0.48323
 Alpha virt. eigenvalues --    0.05436   0.07601   0.07601   0.07906   0.08654
 Alpha virt. eigenvalues --    0.11048   0.11048   0.12840   0.12840   0.13674
 Alpha virt. eigenvalues --    0.16309   0.16309   0.16529   0.18401   0.18402

 Mulliken charges:
               1
     1  C    1.353905
     2  C   -0.753694
     3  F   -0.272035
     4  F   -0.272031
     5  F   -0.272040
     6  Cl   0.071963
     7  Cl   0.071965
     8  Cl   0.071967
 Sum of Mulliken charges =  -0.00000

 Dipole moment (field-independent basis, Debye):
    X=              0.9621    Y=              0.0000    Z=             -0.0000  Tot=              0.9621

 Test job not archived.
 1\1\GINC-SE398\SP\RHF\Aug-CC-pVDZ\C2Cl3F3\OHZDE\08-Apr-2025\0\\#t hf a
 ug-cc-pvdz iop(5/13=1,5/36=2,99/5=2) pseudo=read geom=check guess=(rea
 d,tcheck) scf=(maxcycle=1)\\title\\0,1\C,0,1.178002,-0.000015,0.00005\
 C,0,-0.386851,0.000007,0.000001\F,0,1.642457,0.893267,-0.877192\F,0,1.
 642406,-1.206384,-0.334942\F,0,1.642386,0.313035,1.21231\Cl,0,-0.96257
 8,1.627554,0.451214\Cl,0,-0.962687,-1.204552,1.183812\Cl,0,-0.962508,-
 0.422956,-1.635137\\Version=ES64L-G16RevC.01\State=1-A\HF=-1752.780734
 2\RMSD=5.694e-03\Dipole=-0.3785014,0.0000084,0.0000083\Quadrupole=-0.9

 Normal termination of Gaussian 16 at Tue Apr  8 22:26:28 2025.
