 Gaussian 16, Revision C.01,

 ----------------------------------------------------------------------
 #t hf aug-cc-pvdz symm=none int=(grid=ultrafine) guess=(read,tcheck) s
 table=(opt,rrhf)
 ----------------------------------------------------------------------
 -----
 title
 -----
 Symbolic Z-matrix:
 Charge =  0 Multiplicity = 1

 SCF Done:  E(RHF) =  -1039.56468212     A.U. after   14 cycles
 Normal termination of Gaussian 16 at Tue Apr  8 23:42:56 2025.
 Gaussian 16:  ES64L-G16RevC.01  3-Jul-2019

 ----------------------------------------------------------------------
 #t hf aug-cc-pvdz iop(5/13=1,5/36=2,99/5=2) pseudo=read geom=check gue
 ss=(read,tcheck) scf=(maxcycle=1)
 ----------------------------------------------------------------------
 -----
 title
 -----
 Structure from the checkpoint file:  "BDE49_nonexpt_1715_mol1.chk"
 Charge =  0 Multiplicity = 1

                         Standard orientation:
 ---------------------------------------------------------------------
 Center     Atomic      Atomic             Coordinates (Angstroms)
 Number     Number       Type             X           Y           Z
 ---------------------------------------------------------------------
      1         16           0        1.217575   -0.867378    0.034679
      2         15           0       -0.736823   -0.046596   -0.064139
      3          8           0       -1.741137   -1.078953   -0.304681
      4          8           0       -0.580921    1.118769   -1.128646
      5          8           0        2.044715    0.637094   -0.021346
      6          1           0        2.163425    0.925222    0.893582
      7          8           0       -0.924589    0.809900    1.285908
      8          1           0       -1.294712    0.271612    1.997244
      9          1           0        0.317886    1.485670   -1.133490
 ---------------------------------------------------------------------

 SCF Done:  E(RHF) =  -1039.75167839     A.U. after    2 cycles

 The electronic state is 1-A.
 Alpha  occ. eigenvalues --  -93.62010 -81.45217 -20.65193 -20.63693 -20.63211
 Alpha  occ. eigenvalues --  -20.54869  -8.91274  -7.93422  -6.25418  -6.25090
 Alpha  occ. eigenvalues --   -6.24732  -5.08070  -5.07918  -5.07604  -1.40232
 Alpha  occ. eigenvalues --   -1.36955  -1.36359  -1.28370  -0.97685  -0.85602
 Alpha  occ. eigenvalues --   -0.78237  -0.74397  -0.70867  -0.68409  -0.62974
 Alpha  occ. eigenvalues --   -0.62212  -0.60671  -0.60151  -0.58476  -0.53078
 Alpha  occ. eigenvalues --   -0.51388  -0.45792  -0.41190
 Alpha virt. eigenvalues --    0.02291   0.04122   0.05556   0.06824   0.08044
 Alpha virt. eigenvalues --    0.09718   0.10513   0.11555   0.12491   0.13275
 Alpha virt. eigenvalues --    0.15156   0.18180   0.19190   0.19784   0.20611

 Mulliken charges:
               1
     1  S    0.213714
     2  P    2.094978
     3  O   -0.833375
     4  O   -0.673912
     5  O   -0.742548
     6  H    0.202883
     7  O   -0.677496
     8  H    0.167121
     9  H    0.248636
 Sum of Mulliken charges =  -0.00000

 Dipole moment (field-independent basis, Debye):
    X=              2.9530    Y=              1.6670    Z=              3.2322  Tot=              4.6847

 Test job not archived.
 1\1\GINC-SE009\SP\RHF\Aug-CC-pVDZ\H3O4P1S1\OHZDE\08-Apr-2025\0\\#t hf
 aug-cc-pvdz iop(5/13=1,5/36=2,99/5=2) pseudo=read geom=check guess=(re
 ad,tcheck) scf=(maxcycle=1)\\title\\0,1\S,0,1.217575,-0.867378,0.03467
 9\P,0,-0.736823,-0.046596,-0.064139\O,0,-1.741137,-1.078953,-0.304681\
 O,0,-0.580921,1.118769,-1.128646\O,0,2.044715,0.637094,-0.021346\H,0,2
 .163425,0.925222,0.893582\O,0,-0.924589,0.8099,1.285908\H,0,-1.294712,
 0.271612,1.997244\H,0,0.317886,1.48567,-1.13349\\Version=ES64L-G16RevC
 .01\State=1-A\HF=-1039.7516784\RMSD=4.455e-03\Dipole=1.1618122,0.65586

 Normal termination of Gaussian 16 at Tue Apr  8 23:42:59 2025.
