 Gaussian 16, Revision C.01,

 ----------------------------------------------------------------------
 #t hf aug-cc-pvdz symm=none int=(grid=ultrafine) guess=(read,tcheck) s
 table=(opt,rrhf)
 ----------------------------------------------------------------------
 -----
 title
 -----
 Symbolic Z-matrix:
 Charge =  0 Multiplicity = 1

 SCF Done:  E(RHF) =  -687.807449017     A.U. after   14 cycles
 Normal termination of Gaussian 16 at Tue Apr  8 23:07:49 2025.
 Gaussian 16:  ES64L-G16RevC.01  3-Jul-2019

 ----------------------------------------------------------------------
 #t hf aug-cc-pvdz iop(5/13=1,5/36=2,99/5=2) pseudo=read geom=check gue
 ss=(read,tcheck) scf=(maxcycle=1)
 ----------------------------------------------------------------------
 -----
 title
 -----
 Structure from the checkpoint file:  "BDE49_expt_623_mol1.chk"
 Charge =  0 Multiplicity = 1

                         Standard orientation:
 ---------------------------------------------------------------------
 Center     Atomic      Atomic             Coordinates (Angstroms)
 Number     Number       Type             X           Y           Z
 ---------------------------------------------------------------------
      1          6           0       -0.105543    0.465328    0.344771
      2          8           0        1.061200    0.563884   -0.387441
      3          8           0        2.042805   -0.337305    0.169185
      4          1           0        1.860949   -1.143277   -0.340310
      5          6           0       -0.987840    1.633593   -0.028697
      6          1           0       -0.489307    2.562233    0.258959
      7          1           0       -1.942064    1.560103    0.492011
      8          1           0       -1.168619    1.643081   -1.104019
      9         17           0       -0.978822   -1.141421   -0.050894
     10          1           0        0.107264    0.375852    1.408156
 ---------------------------------------------------------------------

 SCF Done:  E(RHF) =  -687.899014489     A.U. after    2 cycles

 The electronic state is 1-A.
 Alpha  occ. eigenvalues -- -103.65151 -20.67203 -20.66172 -11.38235 -11.25900
 Alpha  occ. eigenvalues --  -10.68455  -8.34153  -8.33895  -8.33879  -1.46385
 Alpha  occ. eigenvalues --   -1.25084  -1.14056  -1.01540  -0.85989  -0.77649
 Alpha  occ. eigenvalues --   -0.70084  -0.68299  -0.64850  -0.57624  -0.56278
 Alpha  occ. eigenvalues --   -0.55815  -0.53713  -0.48595  -0.46582  -0.45593
 Alpha virt. eigenvalues --    0.03617   0.04755   0.05068   0.05840   0.07142
 Alpha virt. eigenvalues --    0.09382   0.11502   0.12768   0.14395   0.14602
 Alpha virt. eigenvalues --    0.15574   0.16506   0.16954   0.17768   0.18196

 Mulliken charges:
               1
     1  C    0.333689
     2  O   -0.419543
     3  O   -0.282551
     4  H    0.248480
     5  C    0.392743
     6  H    0.008504
     7  H   -0.012280
     8  H   -0.007547
     9  Cl  -0.228257
    10  H   -0.033237
 Sum of Mulliken charges =   0.00000

 Dipole moment (field-independent basis, Debye):
    X=             -0.6278    Y=              0.9456    Z=              0.4739  Tot=              1.2300

 Test job not archived.
 1\1\GINC-SE174\SP\RHF\Aug-CC-pVDZ\C2H5Cl1O2\OHZDE\08-Apr-2025\0\\#t hf
  aug-cc-pvdz iop(5/13=1,5/36=2,99/5=2) pseudo=read geom=check guess=(r
 ead,tcheck) scf=(maxcycle=1)\\title\\0,1\C,0,-0.105543,0.465328,0.3447
 71\O,0,1.061201,0.563883,-0.387441\O,0,2.042805,-0.337307,0.169185\H,0
 ,1.860948,-1.143279,-0.34031\C,0,-0.987838,1.633594,-0.028697\H,0,-0.4
 89304,2.562233,0.258959\H,0,-1.942062,1.560105,0.492011\H,0,-1.168617,
 1.643082,-1.104019\Cl,0,-0.978823,-1.14142,-0.050894\H,0,0.107264,0.37
 5852,1.408156\\Version=ES64L-G16RevC.01\State=1-A\HF=-687.8990145\RMSD

 Normal termination of Gaussian 16 at Tue Apr  8 23:07:53 2025.
