 Gaussian 16, Revision C.01,

 ----------------------------------------------------------------------
 #t hf aug-cc-pvdz symm=none int=(grid=ultrafine) guess=(read,tcheck) s
 table=(opt,rrhf)
 ----------------------------------------------------------------------
 -----
 title
 -----
 Symbolic Z-matrix:
 Charge =  0 Multiplicity = 1

 SCF Done:  E(RHF) =  -540.965834156     A.U. after   14 cycles
 Normal termination of Gaussian 16 at Tue Apr  8 23:19:49 2025.
 Gaussian 16:  ES64L-G16RevC.01  3-Jul-2019

 ----------------------------------------------------------------------
 #t hf aug-cc-pvdz iop(5/13=1,5/36=2,99/5=2) pseudo=read geom=check gue
 ss=(read,tcheck) scf=(maxcycle=1)
 ----------------------------------------------------------------------
 -----
 title
 -----
 Structure from the checkpoint file:  "BDE49_nonexpt_113_mol1.chk"
 Charge =  0 Multiplicity = 1

                         Standard orientation:
 ---------------------------------------------------------------------
 Center     Atomic      Atomic             Coordinates (Angstroms)
 Number     Number       Type             X           Y           Z
 ---------------------------------------------------------------------
      1          5           0       -3.072448   -0.622246    0.000016
      2          5           0       -1.944987    0.601378    0.000014
      3          7           0       -0.551583    0.370930    0.000022
      4          6           0        0.616061    0.130037   -0.000057
      5         16           0        2.162052   -0.180342    0.000019
      6          1           0       -2.305070    1.746419   -0.000293
      7          1           0       -3.518237   -1.066384    1.015710
      8          1           0       -3.517634   -1.066954   -1.015693
 ---------------------------------------------------------------------

 SCF Done:  E(RHF) =  -541.031095951     A.U. after    2 cycles

 The electronic state is 1-A.
 Alpha  occ. eigenvalues --  -93.54395 -15.67642 -11.40342  -8.84317  -7.65631
 Alpha  occ. eigenvalues --   -7.62364  -6.18634  -6.17953  -6.17898  -1.25515
 Alpha  occ. eigenvalues --   -1.03598  -0.86603  -0.71069  -0.61395  -0.60044
 Alpha  occ. eigenvalues --   -0.58196  -0.56614  -0.50680  -0.46227  -0.37983
 Alpha  occ. eigenvalues --   -0.35659
 Alpha virt. eigenvalues --    0.03221   0.03286   0.03888   0.04180   0.05437
 Alpha virt. eigenvalues --    0.06107   0.06950   0.07749   0.08176   0.09339
 Alpha virt. eigenvalues --    0.09806   0.11769   0.13158   0.13233   0.13553

 Mulliken charges:
               1
     1  B   -0.317033
     2  B    0.149131
     3  N   -0.179079
     4  C   -0.352195
     5  S    0.246848
     6  H    0.070490
     7  H    0.190929
     8  H    0.190908
 Sum of Mulliken charges =   0.00000

 Dipole moment (field-independent basis, Debye):
    X=             -2.0267    Y=              0.2318    Z=              0.0001  Tot=              2.0400

 Test job not archived.
 1\1\GINC-SE009\SP\RHF\Aug-CC-pVDZ\C1H3B2N1S1\OHZDE\08-Apr-2025\0\\#t h
 f aug-cc-pvdz iop(5/13=1,5/36=2,99/5=2) pseudo=read geom=check guess=(
 read,tcheck) scf=(maxcycle=1)\\title\\0,1\B,0,3.072448,-0.622246,-0.00
 0016\B,0,1.944987,0.601378,-0.000014\N,0,0.551583,0.37093,-0.000022\C,
 0,-0.616061,0.130037,0.000057\S,0,-2.162052,-0.180342,-0.000019\H,0,2.
 30507,1.746419,0.000293\H,0,3.518237,-1.066384,-1.01571\H,0,3.517634,-
 1.066954,1.015693\\Version=ES64L-G16RevC.01\State=1-A\HF=-541.031096\R
 MSD=8.399e-03\Dipole=0.7973807,0.0911943,-0.0000508\Quadrupole=0.21094

 Normal termination of Gaussian 16 at Tue Apr  8 23:19:52 2025.
