 Gaussian 16, Revision C.01,

 ----------------------------------------------------------------------
 #t hf aug-cc-pvdz symm=none int=(grid=ultrafine) guess=(read,tcheck) s
 table=(opt,rrhf)
 ----------------------------------------------------------------------
 -----
 title
 -----
 Symbolic Z-matrix:
 Charge =  0 Multiplicity = 1

 SCF Done:  E(RHF) =  -880.692850676     A.U. after   15 cycles

 1\1\GINC-SE105\Stability\RHF\Aug-CC-pVDZ\H6O4Si2\OHZDE\09-Apr-2025\0\\
 #t hf aug-cc-pvdz symm=none int=(grid=ultrafine) guess=(read,tcheck) s
 table=(opt,rrhf)\\title\\0,1\Si,0,-1.271965,-0.907971,-0.238177\Si,0,1
 .014704,-1.031648,0.378262\O,0,-1.655693,0.717329,-0.477779\H,0,-2.137
 684,-1.547566,0.779938\H,0,-1.532071,-1.504172,-1.569181\O,0,-1.292146
 ,1.37361,0.786235\H,0,-0.405295,1.703744,0.549759\O,0,1.913663,0.13906
 ,-0.470321\H,0,1.689142,-2.260627,-0.095636\H,0,1.22216,-0.873359,1.83
 6406\O,0,1.438386,1.487163,-0.144194\H,0,1.531725,1.899337,-1.014018\\

 Normal termination of Gaussian 16 at Wed Apr  9 00:09:42 2025.
 Gaussian 16:  ES64L-G16RevC.01  3-Jul-2019

 ----------------------------------------------------------------------
 #t hf aug-cc-pvdz iop(5/13=1,5/36=2,99/5=2) pseudo=read geom=check gue
 ss=(read,tcheck) scf=(maxcycle=1)
 ----------------------------------------------------------------------
 -----
 title
 -----
 Structure from the checkpoint file:  "BDE49_nonexpt_2360_mol1.chk"
 Charge =  0 Multiplicity = 1

                         Standard orientation:
 ---------------------------------------------------------------------
 Center     Atomic      Atomic             Coordinates (Angstroms)
 Number     Number       Type             X           Y           Z
 ---------------------------------------------------------------------
      1         14           0       -1.271965   -0.907971   -0.238177
      2         14           0        1.014704   -1.031647    0.378262
      3          8           0       -1.655693    0.717329   -0.477779
      4          1           0       -2.137683   -1.547567    0.779938
      5          1           0       -1.532070   -1.504172   -1.569181
      6          8           0       -1.292147    1.373610    0.786235
      7          1           0       -0.405296    1.703744    0.549759
      8          8           0        1.913663    0.139061   -0.470321
      9          1           0        1.689143   -2.260626   -0.095636
     10          1           0        1.222160   -0.873358    1.836406
     11          8           0        1.438385    1.487164   -0.144194
     12          1           0        1.531724    1.899338   -1.014018
 ---------------------------------------------------------------------

 SCF Done:  E(RHF) =  -880.844864201     A.U. after    2 cycles

 The electronic state is 1-A.
 Alpha  occ. eigenvalues --  -69.10995 -69.10629 -20.67125 -20.64551 -20.64440
 Alpha  occ. eigenvalues --  -20.62765  -6.85909  -6.85515  -3.96791  -3.96655
 Alpha  occ. eigenvalues --   -3.96578  -3.96390  -3.96258  -3.96204  -1.43202
 Alpha  occ. eigenvalues --   -1.41079  -1.20027  -1.17674  -0.77752  -0.75041
 Alpha  occ. eigenvalues --   -0.72766  -0.72101  -0.66649  -0.63838  -0.63295
 Alpha  occ. eigenvalues --   -0.59958  -0.55710  -0.54557  -0.51736  -0.50533
 Alpha  occ. eigenvalues --   -0.49390  -0.47907  -0.40702
 Alpha virt. eigenvalues --    0.03377   0.04311   0.04551   0.05761   0.06434
 Alpha virt. eigenvalues --    0.07045   0.07326   0.07586   0.08074   0.09935
 Alpha virt. eigenvalues --    0.10259   0.10702   0.12309   0.13985   0.14736

 Mulliken charges:
               1
     1  Si   0.659304
     2  Si   0.632052
     3  O   -0.741670
     4  H    0.042514
     5  H    0.027031
     6  O   -0.231905
     7  H    0.286932
     8  O   -0.685343
     9  H    0.020225
    10  H    0.049230
    11  O   -0.316235
    12  H    0.257863
 Sum of Mulliken charges =  -0.00000

 Dipole moment (field-independent basis, Debye):
    X=              1.2620    Y=             -1.0481    Z=             -0.7667  Tot=              1.8108

 Test job not archived.
 1\1\GINC-SE105\SP\RHF\Aug-CC-pVDZ\H6O4Si2\OHZDE\09-Apr-2025\0\\#t hf a
 ug-cc-pvdz iop(5/13=1,5/36=2,99/5=2) pseudo=read geom=check guess=(rea
 d,tcheck) scf=(maxcycle=1)\\title\\0,1\Si,0,-1.271965,-0.907971,-0.238
 177\Si,0,1.014704,-1.031648,0.378262\O,0,-1.655693,0.717329,-0.477779\
 H,0,-2.137684,-1.547566,0.779938\H,0,-1.532071,-1.504172,-1.569181\O,0
 ,-1.292146,1.37361,0.786235\H,0,-0.405295,1.703744,0.549759\O,0,1.9136
 63,0.13906,-0.470321\H,0,1.689142,-2.260627,-0.095636\H,0,1.22216,-0.8
 73359,1.836406\O,0,1.438386,1.487163,-0.144194\H,0,1.531725,1.899337,-

 Normal termination of Gaussian 16 at Wed Apr  9 00:09:47 2025.
