 Gaussian 16, Revision C.01,

 ----------------------------------------------------------------------
 #t hf aug-cc-pvdz symm=none int=(grid=ultrafine) guess=(read,tcheck) s
 table=(opt,rrhf)
 ----------------------------------------------------------------------
 -----
 title
 -----
 Symbolic Z-matrix:
 Charge =  0 Multiplicity = 1

 SCF Done:  E(RHF) =  -184.610555161     A.U. after   11 cycles
 Normal termination of Gaussian 16 at Tue Apr  8 22:35:20 2025.
 Gaussian 16:  ES64L-G16RevC.01  3-Jul-2019

 ----------------------------------------------------------------------
 #t hf aug-cc-pvdz iop(5/13=1,5/36=2,99/5=2) pseudo=read geom=check gue
 ss=(read,tcheck) scf=(maxcycle=1)
 ----------------------------------------------------------------------
 -----
 title
 -----
 Structure from the checkpoint file:  "BDE49_expt_1146_mol1.chk"
 Charge =  0 Multiplicity = 1

                         Standard orientation:
 ---------------------------------------------------------------------
 Center     Atomic      Atomic             Coordinates (Angstroms)
 Number     Number       Type             X           Y           Z
 ---------------------------------------------------------------------
      1          6           0       -0.013435   -0.687459    0.000000
      2          6           0        0.000000    0.687591    0.000000
      3          7           0       -0.012251   -1.842539    0.000000
      4          7           0        0.023767    1.842427   -0.000000
 ---------------------------------------------------------------------

 SCF Done:  E(RHF) =  -184.664771126     A.U. after    2 cycles

 The electronic state is 1-A'.
 Alpha  occ. eigenvalues --  -15.72501 -15.72500 -11.36926 -11.36822  -1.27649
 Alpha  occ. eigenvalues --   -1.24928  -0.98102  -0.62801  -0.61362  -0.60267
 Alpha  occ. eigenvalues --   -0.60267  -0.49484  -0.49484
 Alpha virt. eigenvalues --    0.05398   0.05402   0.05824   0.07207   0.09374
 Alpha virt. eigenvalues --    0.09374   0.12275   0.12391   0.12395   0.19891
 Alpha virt. eigenvalues --    0.21264   0.23424   0.23426   0.25241   0.25243

 Mulliken charges:
               1
     1  C    0.079675
     2  C    0.079677
     3  N   -0.079676
     4  N   -0.079677
 Sum of Mulliken charges =  -0.00000

 Dipole moment (field-independent basis, Debye):
    X=             -0.0319    Y=              0.0003    Z=              0.0000  Tot=              0.0319

 Test job not archived.
 1\1\GINC-SE435\SP\RHF\Aug-CC-pVDZ\C2N2\OHZDE\08-Apr-2025\0\\#t hf aug-
 cc-pvdz iop(5/13=1,5/36=2,99/5=2) pseudo=read geom=check guess=(read,t
 check) scf=(maxcycle=1)\\title\\0,1\C,0,0.,0.687591,0.\C,0,-0.013435,-
 0.687459,0.\N,0,0.023753,1.842427,0.\N,0,-0.012237,-1.842539,0.\\Versi
 on=ES64L-G16RevC.01\State=1-A'\HF=-184.6647711\RMSD=1.153e-02\Dipole=-
 0.0125694,0.0001229,0.\Quadrupole=2.2445836,-4.4896933,2.2451097,-0.06
 57795,0.,0.\PG=CS [SG(C2N2)]\\@

 Normal termination of Gaussian 16 at Tue Apr  8 22:35:21 2025.
