 Gaussian 16, Revision C.01,

 ----------------------------------------------------------------------
 #t hf aug-cc-pvdz symm=none int=(grid=ultrafine) guess=(read,tcheck) s
 table=opt
 ----------------------------------------------------------------------
 -----
 title
 -----
 Symbolic Z-matrix:
 Charge =  0 Multiplicity = 2

 SCF Done:  E(UHF) =  -820.922020987     A.U. after   15 cycles
 Normal termination of Gaussian 16 at Wed Apr  9 00:46:53 2025.
 Gaussian 16:  ES64L-G16RevC.01  3-Jul-2019

 ----------------------------------------------------------------------
 #t hf aug-cc-pvdz iop(5/13=1,5/36=2,99/5=2) pseudo=read geom=check gue
 ss=(read,tcheck) scf=(maxcycle=1)
 ----------------------------------------------------------------------
 -----
 title
 -----
 Structure from the checkpoint file:  "BDE49_nonexpt_868_mol3.chk"
 Charge =  0 Multiplicity = 2

                         Standard orientation:
 ---------------------------------------------------------------------
 Center     Atomic      Atomic             Coordinates (Angstroms)
 Number     Number       Type             X           Y           Z
 ---------------------------------------------------------------------
      1          5           0        0.000000    0.638836    0.000003
      2         16           0        1.591438   -0.159621   -0.000005
      3         16           0       -1.591438   -0.159621    0.000004
      4          1           0       -2.344198    0.956843    0.000010
      5          1           0        2.344198    0.956843   -0.000003
 ---------------------------------------------------------------------

 SCF Done:  E(UHF) =  -820.966943365     A.U. after    2 cycles

 The electronic state is 2-A.
 Alpha  occ. eigenvalues --  -93.55354 -93.55353  -8.85343  -8.85287  -7.69221
 Alpha  occ. eigenvalues --   -6.19476  -6.19455  -6.19305  -6.19295  -6.18959
 Alpha  occ. eigenvalues --   -6.18954  -1.00799  -0.96476  -0.66610  -0.55352
 Alpha  occ. eigenvalues --   -0.55193  -0.49290  -0.43864  -0.37483  -0.33973
 Alpha virt. eigenvalues --    0.03499   0.04978   0.05816   0.05843   0.08573
 Alpha virt. eigenvalues --    0.08981   0.09197   0.12015   0.13026   0.13513
 Alpha virt. eigenvalues --    0.13624   0.16705   0.16957   0.17930   0.19327

  Beta  occ. eigenvalues --  -93.55367 -93.55366  -8.85364  -8.85307  -7.67205
  Beta  occ. eigenvalues --   -6.19518  -6.19504  -6.19190  -6.19189  -6.19060
  Beta  occ. eigenvalues --   -6.19055  -0.99716  -0.96223  -0.64119  -0.54350
  Beta  occ. eigenvalues --   -0.50226  -0.47624  -0.43568  -0.38121
  Beta virt. eigenvalues --    0.03067   0.05011   0.05835   0.06147   0.06284
  Beta virt. eigenvalues --    0.09240   0.10214   0.11380   0.12061   0.13502
  Beta virt. eigenvalues --    0.13604   0.15348   0.17210   0.17347   0.18012

 Mulliken charges and spin densities:
               1          2
     1  B    0.193428   1.051395
     2  S   -0.170674  -0.031951
     3  S   -0.170674  -0.031951
     4  H    0.073960   0.006254
     5  H    0.073960   0.006254
 Sum of Mulliken charges =  -0.00000   1.00000

 Dipole moment (field-independent basis, Debye):
    X=             -0.0000    Y=              1.2964    Z=              0.0000  Tot=              1.2964
                          Isotropic Fermi Contact Couplings
        Atom                 a.u.       MegaHertz       Gauss      10(-4) cm-1
     1  B(11)              0.32917     472.14799     168.47414     157.49162
     2  S(33)             -0.04150     -14.25545      -5.08670      -4.75511
     3  S(33)             -0.04150     -14.25545      -5.08670      -4.75511
     4  H(1)               0.01537      68.72067      24.52124      22.92275
     5  H(1)               0.01537      68.72067      24.52124      22.92275
 --------------------------------------------------------
       Center         ----  Spin Dipole Couplings  ----
                      3XX-RR        3YY-RR        3ZZ-RR

 Normal termination of Gaussian 16 at Wed Apr  9 00:46:55 2025.
