 Gaussian 16, Revision C.01,

 ----------------------------------------------------------------------
 #t hf aug-cc-pvdz symm=none int=(grid=ultrafine) guess=(read,tcheck) s
 table=(opt,rrhf)
 ----------------------------------------------------------------------
 -----
 title
 -----
 Symbolic Z-matrix:
 Charge =  0 Multiplicity = 1

 SCF Done:  E(RHF) =  -595.693247069     A.U. after   13 cycles
 Normal termination of Gaussian 16 at Wed Apr  9 00:40:09 2025.
 Gaussian 16:  ES64L-G16RevC.01  3-Jul-2019

 ----------------------------------------------------------------------
 #t hf aug-cc-pvdz iop(5/13=1,5/36=2,99/5=2) pseudo=read geom=check gue
 ss=(read,tcheck) scf=(maxcycle=1)
 ----------------------------------------------------------------------
 -----
 title
 -----
 Structure from the checkpoint file:  "BDE49_nonexpt_685_mol1.chk"
 Charge =  0 Multiplicity = 1

                         Standard orientation:
 ---------------------------------------------------------------------
 Center     Atomic      Atomic             Coordinates (Angstroms)
 Number     Number       Type             X           Y           Z
 ---------------------------------------------------------------------
      1         15           0       -0.250038   -1.166251   -0.289938
      2          5           0        1.179989    0.128918   -0.050397
      3          8           0        1.079469    1.324403   -0.696679
      4          8           0        2.332064   -0.133789    0.642888
      5          6           0       -1.769340   -0.077196   -0.398435
      6          6           0       -2.024060    0.889063    0.760609
      7          1           0       -1.207644    1.607799    0.855711
      8          1           0       -2.119235    0.353914    1.709462
      9          1           0       -2.949600    1.452754    0.602286
     10          1           0       -2.621677   -0.749583   -0.533976
     11          1           0       -1.660075    0.474209   -1.337117
     12          1           0        1.876039    1.858976   -0.590033
     13          1           0        2.343317   -0.989829    1.078401
     14          1           0       -0.342362   -1.555189    1.073610
 ---------------------------------------------------------------------

 SCF Done:  E(RHF) =  -595.800966073     A.U. after    2 cycles

 The electronic state is 1-A.
 Alpha  occ. eigenvalues --  -81.23332 -20.59282 -20.58599 -11.24220 -11.22844
 Alpha  occ. eigenvalues --   -7.73908  -7.67405  -4.87944  -4.87881  -4.87613
 Alpha  occ. eigenvalues --   -1.35286  -1.31523  -1.02192  -0.86046  -0.79714
 Alpha  occ. eigenvalues --   -0.76820  -0.72922  -0.63095  -0.61563  -0.59930
 Alpha  occ. eigenvalues --   -0.58857  -0.56857  -0.53068  -0.52966  -0.50428
 Alpha  occ. eigenvalues --   -0.46529  -0.43256  -0.33252
 Alpha virt. eigenvalues --    0.03113   0.04400   0.04871   0.05409   0.06147
 Alpha virt. eigenvalues --    0.06934   0.07074   0.07713   0.08416   0.09377
 Alpha virt. eigenvalues --    0.10078   0.11366   0.11785   0.12282   0.13793

 Mulliken charges:
               1
     1  P   -0.089910
     2  B    0.914170
     3  O   -0.534966
     4  O   -0.520833
     5  C   -0.051414
     6  C    0.340267
     7  H   -0.138129
     8  H   -0.088547
     9  H   -0.086960
    10  H   -0.153894
    11  H   -0.090070
    12  H    0.194068
    13  H    0.194535
    14  H    0.111683
 Sum of Mulliken charges =  -0.00000

 Dipole moment (field-independent basis, Debye):
    X=              0.1631    Y=              0.1903    Z=              1.2021  Tot=              1.2280

 Test job not archived.
 1\1\GINC-SE250\SP\RHF\Aug-CC-pVDZ\C2H8B1O2P1\OHZDE\09-Apr-2025\0\\#t h
 f aug-cc-pvdz iop(5/13=1,5/36=2,99/5=2) pseudo=read geom=check guess=(
 read,tcheck) scf=(maxcycle=1)\\title\\0,1\P,0,-0.250038,-1.166251,-0.2
 89938\B,0,1.179989,0.128918,-0.050397\O,0,1.079469,1.324403,-0.696679\
 O,0,2.332064,-0.133789,0.642888\C,0,-1.76934,-0.077196,-0.398435\C,0,-
 2.02406,0.889063,0.760609\H,0,-1.207644,1.607799,0.855711\H,0,-2.11923
 5,0.353914,1.709462\H,0,-2.9496,1.452754,0.602286\H,0,-2.621677,-0.749
 583,-0.533976\H,0,-1.660075,0.474209,-1.337117\H,0,1.876039,1.858976,-

 Normal termination of Gaussian 16 at Wed Apr  9 00:40:14 2025.
