 Gaussian 16, Revision C.01,

 ----------------------------------------------------------------------
 #t hf aug-cc-pvdz symm=none int=(grid=ultrafine) guess=(read,tcheck) s
 table=(opt,rrhf)
 ----------------------------------------------------------------------
 -----
 title
 -----
 Symbolic Z-matrix:
 Charge =  0 Multiplicity = 1

 SCF Done:  E(RHF) =  -1662.79454045     A.U. after   14 cycles
 Normal termination of Gaussian 16 at Tue Apr  8 22:49:26 2025.
 Gaussian 16:  ES64L-G16RevC.01  3-Jul-2019

 ----------------------------------------------------------------------
 #t hf aug-cc-pvdz iop(5/13=1,5/36=2,99/5=2) pseudo=read geom=check gue
 ss=(read,tcheck) scf=(maxcycle=1)
 ----------------------------------------------------------------------
 -----
 title
 -----
 Structure from the checkpoint file:  "BDE49_expt_1724_mol1.chk"
 Charge =  0 Multiplicity = 1

                         Standard orientation:
 ---------------------------------------------------------------------
 Center     Atomic      Atomic             Coordinates (Angstroms)
 Number     Number       Type             X           Y           Z
 ---------------------------------------------------------------------
      1          6           0        0.713435   -0.001156   -0.000869
      2          6           0       -0.668598    0.771991    0.008814
      3         17           0        2.046544    1.168785   -0.067735
      4         17           0        0.838486   -1.070241   -1.453664
      5         17           0        0.905761   -0.976979    1.510680
      6          7           0       -1.822896    0.051369    0.029588
      7          6           0       -3.078562    0.803793   -0.006479
      8          8           0       -0.629874    1.982908    0.000987
      9          1           0       -2.859567    1.866844   -0.007351
     10          1           0       -3.684988    0.554144    0.869303
     11          1           0       -3.642403    0.545165   -0.908550
     12          6           0       -2.006252   -1.397270    0.001216
     13          1           0       -1.090194   -1.935846    0.204832
     14          1           0       -2.390311   -1.712516   -0.974733
     15          1           0       -2.736859   -1.671397    0.767613
 ---------------------------------------------------------------------

 SCF Done:  E(RHF) =  -1662.93771775     A.U. after    2 cycles

 The electronic state is 1-A.
 Alpha  occ. eigenvalues -- -103.69772-103.69758-103.68465 -20.56287 -15.67775
 Alpha  occ. eigenvalues --  -11.46187 -11.40698 -11.29156 -11.28051 -10.73033
 Alpha  occ. eigenvalues --  -10.73021 -10.71749  -8.38747  -8.38736  -8.38428
 Alpha  occ. eigenvalues --   -8.38416  -8.38413  -8.38405  -8.37474  -8.37125
 Alpha  occ. eigenvalues --   -8.37119  -1.38421  -1.26346  -1.23387  -1.16392
 Alpha  occ. eigenvalues --   -1.15452  -0.98858  -0.98140  -0.89419  -0.75799
 Alpha  occ. eigenvalues --   -0.72329  -0.69152  -0.68161  -0.64333  -0.62908
 Alpha  occ. eigenvalues --   -0.61095  -0.59070  -0.57683  -0.56328  -0.55481
 Alpha  occ. eigenvalues --   -0.52895  -0.51912  -0.49976  -0.48220  -0.47194
 Alpha  occ. eigenvalues --   -0.46451  -0.45165  -0.39575
 Alpha virt. eigenvalues --    0.02948   0.04362   0.04559   0.06011   0.07112
 Alpha virt. eigenvalues --    0.07489   0.08109   0.08843   0.08968   0.09446
 Alpha virt. eigenvalues --    0.11002   0.11298   0.13307   0.13320   0.14220

 Mulliken charges:
               1
     1  C   -0.398755
     2  C    0.345403
     3  Cl   0.006004
     4  Cl   0.020324
     5  Cl   0.019484
     6  N   -0.293737
     7  C    0.683935
     8  O   -0.422874
     9  H   -0.249329
    10  H   -0.081332
    11  H   -0.031939
    12  C    0.875889
    13  H   -0.304732
    14  H   -0.056939
    15  H   -0.111402
 Sum of Mulliken charges =  -0.00000

 Dipole moment (field-independent basis, Debye):
    X=             -3.0218    Y=             -3.0466    Z=             -0.0104  Tot=              4.2910

 Test job not archived.
 1\1\GINC-SE362\SP\RHF\Aug-CC-pVDZ\C4H6Cl3N1O1\OHZDE\08-Apr-2025\0\\#t
 hf aug-cc-pvdz iop(5/13=1,5/36=2,99/5=2) pseudo=read geom=check guess=
 (read,tcheck) scf=(maxcycle=1)\\title\\0,1\C,0,0.713435,-0.001156,-0.0
 00869\C,0,-0.668598,0.771991,0.008814\Cl,0,2.046544,1.168785,-0.067735
 \Cl,0,0.838486,-1.070241,-1.453664\Cl,0,0.905761,-0.976979,1.51068\N,0
 ,-1.822896,0.051369,0.029588\C,0,-3.078562,0.803793,-0.006479\O,0,-0.6
 29874,1.982908,0.000987\H,0,-2.859567,1.866844,-0.007351\H,0,-3.684988
 ,0.554143,0.869303\H,0,-3.642403,0.545164,-0.90855\C,0,-2.006252,-1.39

 Normal termination of Gaussian 16 at Tue Apr  8 22:49:33 2025.
