 Gaussian 16, Revision C.01,

 ----------------------------------------------------------------------
 #t hf aug-cc-pvdz symm=none int=(grid=ultrafine) guess=(read,tcheck) s
 table=opt
 ----------------------------------------------------------------------
 -----
 title
 -----
 Symbolic Z-matrix:
 Charge =  0 Multiplicity = 2

 SCF Done:  E(UHF) =  -759.592295035     A.U. after   24 cycles
 Normal termination of Gaussian 16 at Tue Apr  8 23:18:55 2025.
 Gaussian 16:  ES64L-G16RevC.01  3-Jul-2019

 ----------------------------------------------------------------------
 #t hf aug-cc-pvdz iop(5/13=1,5/36=2,99/5=2) pseudo=read geom=check gue
 ss=(read,tcheck) scf=(maxcycle=1)
 ----------------------------------------------------------------------
 -----
 title
 -----
 Structure from the checkpoint file:  "BDE49_expt_820_mol2.chk"
 Charge =  0 Multiplicity = 2

                         Standard orientation:
 ---------------------------------------------------------------------
 Center     Atomic      Atomic             Coordinates (Angstroms)
 Number     Number       Type             X           Y           Z
 ---------------------------------------------------------------------
      1         15           0        0.355821    1.683462   -0.666764
      2          6           0        1.681623    1.415170    0.629361
      3          6           0        1.873948   -0.010968    1.186126
      4          1           0        1.460914    2.086705    1.467453
      5          1           0        2.622660    1.765795    0.192257
      6          6           0        2.507650   -1.019055    0.201991
      7          6           0        1.624611   -1.451088   -0.879590
      8          7           0        0.921707   -1.813806   -1.718865
      9          6           0       -1.176123    1.518102    0.400738
     10          6           0       -2.379923    0.900900   -0.329727
     11          1           0       -1.441059    2.532753    0.723142
     12          1           0       -0.960568    0.951615    1.311274
     13          6           0       -2.225395   -0.606058   -0.635856
     14          1           0       -2.551455    1.415600   -1.280180
     15          1           0       -3.279787    1.046852    0.275606
     16          6           0       -1.984270   -1.393514    0.571426
     17          1           0       -1.391563   -0.787850   -1.321331
     18          1           0       -3.128764   -0.984098   -1.123001
     19          7           0       -1.765085   -1.973786    1.543949
     20          1           0        2.810160   -1.916702    0.749761
     21          1           0        3.415423   -0.597913   -0.242674
     22          1           0        0.931152   -0.419437    1.558663
     23          1           0        2.546492    0.046974    2.048093
 ---------------------------------------------------------------------

 SCF Done:  E(UHF) =  -759.734422007     A.U. after    2 cycles

 The electronic state is 2-A.
 Alpha  occ. eigenvalues --  -81.26064 -15.64092 -15.63310 -11.29720 -11.29199
 Alpha  occ. eigenvalues --  -11.28490 -11.28295 -11.27129 -11.26532 -11.25883
 Alpha  occ. eigenvalues --  -11.25258  -7.76476  -4.91330  -4.90186  -4.89830
 Alpha  occ. eigenvalues --   -1.19944  -1.19092  -1.09789  -1.08779  -0.99907
 Alpha  occ. eigenvalues --   -0.97561  -0.87325  -0.84457  -0.72826  -0.70881
 Alpha  occ. eigenvalues --   -0.68029  -0.66354  -0.65353  -0.63246  -0.61494
 Alpha  occ. eigenvalues --   -0.59023  -0.55943  -0.54923  -0.54662  -0.54380
 Alpha  occ. eigenvalues --   -0.53256  -0.52973  -0.51950  -0.46851  -0.46374
 Alpha  occ. eigenvalues --   -0.45404  -0.45243  -0.44297  -0.37538  -0.32918
 Alpha virt. eigenvalues --    0.02639   0.03300   0.04154   0.04591   0.05256
 Alpha virt. eigenvalues --    0.05875   0.06159   0.07021   0.07544   0.08090
 Alpha virt. eigenvalues --    0.08878   0.09262   0.09693   0.10122   0.11248

  Beta  occ. eigenvalues --  -81.25348 -15.63906 -15.63311 -11.29709 -11.29312
  Beta  occ. eigenvalues --  -11.28489 -11.28289 -11.27025 -11.26494 -11.26034
  Beta  occ. eigenvalues --  -11.25395  -7.75613  -4.89674  -4.89456  -4.88096
  Beta  occ. eigenvalues --   -1.19704  -1.19087  -1.09545  -1.08694  -0.99420
  Beta  occ. eigenvalues --   -0.97495  -0.86432  -0.84403  -0.71174  -0.70260
  Beta  occ. eigenvalues --   -0.66044  -0.65952  -0.64733  -0.63001  -0.61335
  Beta  occ. eigenvalues --   -0.58778  -0.55241  -0.54497  -0.54400  -0.54000
  Beta  occ. eigenvalues --   -0.52788  -0.52626  -0.51859  -0.46340  -0.45915
  Beta  occ. eigenvalues --   -0.45284  -0.45156  -0.44027  -0.35463
  Beta virt. eigenvalues --    0.02640   0.03307   0.04037   0.04469   0.05234
  Beta virt. eigenvalues --    0.05443   0.06078   0.06462   0.07295   0.07611
  Beta virt. eigenvalues --    0.08127   0.08940   0.09443   0.09873   0.10169

 Mulliken charges and spin densities:
               1          2
     1  P    0.568873   1.282155
     2  C    0.187193  -0.147592
     3  C    0.344206   0.012762
     4  H   -0.122475   0.005500
     5  H   -0.239278  -0.007652
     6  C    0.248968   0.011566
     7  C   -0.261407  -0.070871
     8  N   -0.199567   0.059972
     9  C    0.083565  -0.171255
    10  C    0.210515   0.050143
    11  H   -0.108798   0.000259
    12  H   -0.284294  -0.000168
    13  C    0.581266  -0.007902
    14  H   -0.085692  -0.004076
    15  H   -0.083806  -0.000036
    16  C   -0.232727   0.001496
    17  H   -0.085130  -0.006875
    18  H    0.025051  -0.000377
    19  N   -0.270691   0.000229
    20  H    0.027792  -0.001261
    21  H    0.013241  -0.000102
    22  H   -0.271128  -0.005532
    23  H   -0.045678  -0.000382
 Sum of Mulliken charges =  -0.00000   1.00000

 Dipole moment (field-independent basis, Debye):
    X=              1.6498    Y=              3.3451    Z=              1.0426  Tot=              3.8728
                          Isotropic Fermi Contact Couplings
        Atom                 a.u.       MegaHertz       Gauss      10(-4) cm-1
     1  P(31)              0.26190     474.31937     169.24895     158.21591
     2  C(13)             -0.02946     -33.11766     -11.81720     -11.04686
     3  C(13)              0.02368      26.61639       9.49739       8.87827
     4  H(1)               0.00881      39.38258      14.05268      13.13661
     5  H(1)               0.00074       3.32148       1.18519       1.10793
     6  C(13)              0.00134       1.50718       0.53780       0.50274
     7  C(13)             -0.01001     -11.25166      -4.01487      -3.75315
     8  N(14)              0.01700       5.49183       1.95962       1.83188

 Normal termination of Gaussian 16 at Tue Apr  8 23:19:15 2025.
