 Gaussian 16, Revision C.01,

 ----------------------------------------------------------------------
 #t hf aug-cc-pvdz symm=none int=(grid=ultrafine) guess=(read,tcheck) s
 table=(opt,rrhf)
 ----------------------------------------------------------------------
 -----
 title
 -----
 Symbolic Z-matrix:
 Charge =  0 Multiplicity = 1

 SCF Done:  E(RHF) =  -1119.20332476     A.U. after   19 cycles
 Normal termination of Gaussian 16 at Tue Apr  8 22:58:20 2025.
 Gaussian 16:  ES64L-G16RevC.01  3-Jul-2019

 ----------------------------------------------------------------------
 #t hf aug-cc-pvdz iop(5/13=1,5/36=2,99/5=2) pseudo=read geom=check gue
 ss=(read,tcheck) scf=(maxcycle=1)
 ----------------------------------------------------------------------
 -----
 title
 -----
 Structure from the checkpoint file:  "BDE49_expt_1759_mol1.chk"
 Charge =  0 Multiplicity = 1

                         Standard orientation:
 ---------------------------------------------------------------------
 Center     Atomic      Atomic             Coordinates (Angstroms)
 Number     Number       Type             X           Y           Z
 ---------------------------------------------------------------------
      1          7           0        1.058248    0.532592   -0.394422
      2          7           0        1.437548    1.786627   -0.765937
      3          8           0        2.630656    1.936564   -0.919578
      4          6           0        2.030775   -0.577672   -0.413227
      5          8           0        1.993069   -1.389507   -1.312258
      6          7           0        2.880732   -0.593436    0.636830
      7          6           0       -0.341420    0.299262   -0.243487
      8          6           0       -1.150343    1.326205    0.255638
      9          6           0       -2.515871    1.124944    0.412524
     10          6           0       -3.067413   -0.112096    0.094076
     11          6           0       -2.271499   -1.142370   -0.392320
     12          6           0       -0.907247   -0.935684   -0.571517
     13          1           0       -3.144780    1.918474    0.794280
     14          1           0       -2.713874   -2.096977   -0.645295
     15          1           0       -0.289177   -1.718969   -0.986489
     16          6           0        3.963047   -1.574828    0.633112
     17          1           0        3.962708   -2.130604    1.574674
     18          1           0        4.928337   -1.071035    0.519722
     19          1           0        3.814669   -2.260646   -0.196120
     20          6           0        2.938794    0.419634    1.683936
     21          1           0        3.156054   -0.072547    2.634524
     22          1           0        1.984581    0.931921    1.775207
     23          1           0        3.720365    1.155566    1.474722
     24          1           0       -0.710561    2.280593    0.510116
     25         17           0       -4.788632   -0.373946    0.312450
 ---------------------------------------------------------------------

 SCF Done:  E(RHF) =  -1119.41970782     A.U. after    2 cycles

 The electronic state is 1-A.
 Alpha  occ. eigenvalues -- -103.67213 -20.63364 -20.56567 -15.82603 -15.72166
 Alpha  occ. eigenvalues --  -15.68101 -11.42837 -11.32204 -11.32086 -11.29265
 Alpha  occ. eigenvalues --  -11.28420 -11.27405 -11.27242 -11.27210 -11.26775
 Alpha  occ. eigenvalues --  -10.70478  -8.36215  -8.35910  -8.35891  -1.49585
 Alpha  occ. eigenvalues --   -1.39110  -1.27061  -1.23990  -1.20413  -1.13961
 Alpha  occ. eigenvalues --   -1.04337  -1.02164  -0.99667  -0.98271  -0.92064
 Alpha  occ. eigenvalues --   -0.86820  -0.84518  -0.78098  -0.76492  -0.74530
 Alpha  occ. eigenvalues --   -0.70680  -0.68230  -0.67565  -0.67202  -0.66353
 Alpha  occ. eigenvalues --   -0.65069  -0.63647  -0.62119  -0.60770  -0.58622
 Alpha  occ. eigenvalues --   -0.58052  -0.56947  -0.56361  -0.55570  -0.55089
 Alpha  occ. eigenvalues --   -0.53804  -0.51619  -0.49201  -0.47403  -0.44972
 Alpha  occ. eigenvalues --   -0.44025  -0.39927  -0.36857  -0.33553
 Alpha virt. eigenvalues --    0.02649   0.03323   0.03858   0.04699   0.05203
 Alpha virt. eigenvalues --    0.05888   0.06422   0.06960   0.07633   0.07782
 Alpha virt. eigenvalues --    0.08324   0.08697   0.09258   0.10167   0.10712

 Mulliken charges:
               1
     1  N   -0.408782
     2  N    0.042016
     3  O   -0.515340
     4  C    0.339490
     5  O   -0.511603
     6  N   -0.395825
     7  C    0.106774
     8  C    0.845454
     9  C    0.704911
    10  C   -0.094590
    11  C    0.777508
    12  C    0.909215
    13  H   -0.428488
    14  H   -0.441552
    15  H   -0.655163
    16  C    0.735863
    17  H   -0.138451
    18  H   -0.045997
    19  H   -0.236159
    20  C    0.929547
    21  H   -0.170510
    22  H   -0.261582
    23  H   -0.072669
    24  H   -0.655547
    25  Cl  -0.358520
 Sum of Mulliken charges =   0.00000

 Dipole moment (field-independent basis, Debye):
    X=              1.3921    Y=             -0.3194    Z=              3.9842  Tot=              4.2325

 Test job not archived.
 1\1\GINC-SE071\SP\RHF\Aug-CC-pVDZ\C9H10Cl1N3O2\OHZDE\08-Apr-2025\0\\#t
  hf aug-cc-pvdz iop(5/13=1,5/36=2,99/5=2) pseudo=read geom=check guess
 =(read,tcheck) scf=(maxcycle=1)\\title\\0,1\N,0,1.058248,0.532592,-0.3
 94422\N,0,1.437548,1.786627,-0.765937\O,0,2.630656,1.936564,-0.919578\
 C,0,2.030775,-0.577672,-0.413227\O,0,1.993069,-1.389507,-1.312258\N,0,
 2.880732,-0.593436,0.63683\C,0,-0.34142,0.299262,-0.243487\C,0,-1.1503
 43,1.326205,0.255638\C,0,-2.515871,1.124944,0.412524\C,0,-3.067413,-0.
 112096,0.094076\C,0,-2.271499,-1.14237,-0.39232\C,0,-0.907247,-0.93568

 Normal termination of Gaussian 16 at Tue Apr  8 22:58:47 2025.
