 Gaussian 16, Revision C.01,

 ----------------------------------------------------------------------
 #t hf aug-cc-pvdz symm=none int=(grid=ultrafine) guess=(read,tcheck) s
 table=(opt,rrhf)
 ----------------------------------------------------------------------
 -----
 title
 -----
 Symbolic Z-matrix:
 Charge =  0 Multiplicity = 1

 SCF Done:  E(RHF) =  -801.746907238     A.U. after   15 cycles
 Normal termination of Gaussian 16 at Tue Apr  8 23:18:20 2025.
 Gaussian 16:  ES64L-G16RevC.01  3-Jul-2019

 ----------------------------------------------------------------------
 #t hf aug-cc-pvdz iop(5/13=1,5/36=2,99/5=2) pseudo=read geom=check gue
 ss=(read,tcheck) scf=(maxcycle=1)
 ----------------------------------------------------------------------
 -----
 title
 -----
 Structure from the checkpoint file:  "BDE49_nonexpt_1075_mol1.chk"
 Charge =  0 Multiplicity = 1

                         Standard orientation:
 ---------------------------------------------------------------------
 Center     Atomic      Atomic             Coordinates (Angstroms)
 Number     Number       Type             X           Y           Z
 ---------------------------------------------------------------------
      1         17           0        2.016837    0.152023   -0.084556
      2          8           0        0.519102   -0.278020   -0.855877
      3          6           0       -0.573198   -0.462194    0.082871
      4          8           0       -0.831494    0.717214    0.781425
      5          8           0       -0.298147   -1.422205    1.025724
      6          6           0       -1.089684    1.894241    0.013314
      7          1           0       -0.303372    2.065594   -0.724731
      8          1           0       -1.107145    2.716570    0.726559
      9          1           0       -2.061095    1.836270   -0.487919
     10          6           0       -1.698736   -0.952533   -0.822584
     11          1           0       -1.851827   -0.282287   -1.667260
     12          1           0       -2.608650   -1.009626   -0.224230
     13          1           0       -1.448068   -1.943953   -1.196127
     14          1           0        0.147941   -0.979967    1.759385
 ---------------------------------------------------------------------

 SCF Done:  E(RHF) =  -801.875784930     A.U. after    2 cycles

 The electronic state is 1-A.
 Alpha  occ. eigenvalues -- -103.71139 -20.65180 -20.59971 -20.59857 -11.42785
 Alpha  occ. eigenvalues --  -11.29834 -11.24523 -10.73818  -8.39580  -8.39181
 Alpha  occ. eigenvalues --   -8.39155  -1.43578  -1.34034  -1.32781  -1.11717
 Alpha  occ. eigenvalues --   -1.00704  -0.96184  -0.83238  -0.76723  -0.73135
 Alpha  occ. eigenvalues --   -0.69790  -0.66340  -0.63321  -0.60031  -0.58391
 Alpha  occ. eigenvalues --   -0.57641  -0.56408  -0.54622  -0.52973  -0.51701
 Alpha  occ. eigenvalues --   -0.47863  -0.47159  -0.45806
 Alpha virt. eigenvalues --    0.03441   0.04511   0.04915   0.05406   0.05963
 Alpha virt. eigenvalues --    0.06616   0.07370   0.08199   0.10360   0.11662
 Alpha virt. eigenvalues --    0.13300   0.13744   0.14944   0.15927   0.16139

 Mulliken charges:
               1
     1  Cl   0.195428
     2  O   -0.728069
     3  C    0.922791
     4  O   -0.748243
     5  O   -0.556242
     6  C    0.778052
     7  H   -0.030515
     8  H   -0.236291
     9  H   -0.148543
    10  C    0.401065
    11  H   -0.034496
    12  H    0.038654
    13  H   -0.026955
    14  H    0.173363
 Sum of Mulliken charges =  -0.00000

 Dipole moment (field-independent basis, Debye):
    X=             -1.3596    Y=              1.6855    Z=             -0.0618  Tot=              2.1664

 Test job not archived.
 1\1\GINC-SE132\SP\RHF\Aug-CC-pVDZ\C3H7Cl1O3\OHZDE\08-Apr-2025\0\\#t hf
  aug-cc-pvdz iop(5/13=1,5/36=2,99/5=2) pseudo=read geom=check guess=(r
 ead,tcheck) scf=(maxcycle=1)\\title\\0,1\Cl,0,2.016837,0.152023,-0.084
 556\O,0,0.519102,-0.27802,-0.855877\C,0,-0.573198,-0.462194,0.082871\O
 ,0,-0.831494,0.717214,0.781425\O,0,-0.298147,-1.422205,1.025724\C,0,-1
 .089684,1.894241,0.013314\H,0,-0.303372,2.065594,-0.724731\H,0,-1.1071
 45,2.71657,0.726559\H,0,-2.061095,1.83627,-0.487919\C,0,-1.698736,-0.9
 52533,-0.822584\H,0,-1.851827,-0.282287,-1.66726\H,0,-2.60865,-1.00962

 Normal termination of Gaussian 16 at Tue Apr  8 23:18:25 2025.
