 Gaussian 16, Revision C.01,

 ----------------------------------------------------------------------
 #t hf aug-cc-pvdz symm=none int=(grid=ultrafine) guess=(read,tcheck) s
 table=(opt,rrhf)
 ----------------------------------------------------------------------
 -----
 title
 -----
 Symbolic Z-matrix:
 Charge =  0 Multiplicity = 1

 SCF Done:  E(RHF) =  -1901.24523542     A.U. after   13 cycles
 Normal termination of Gaussian 16 at Tue Apr  8 23:41:14 2025.
 Gaussian 16:  ES64L-G16RevC.01  3-Jul-2019

 ----------------------------------------------------------------------
 #t hf aug-cc-pvdz iop(5/13=1,5/36=2,99/5=2) pseudo=read geom=check gue
 ss=(read,tcheck) scf=(maxcycle=1)
 ----------------------------------------------------------------------
 -----
 title
 -----
 Structure from the checkpoint file:  "BDE49_nonexpt_168_mol1.chk"
 Charge =  0 Multiplicity = 1

                         Standard orientation:
 ---------------------------------------------------------------------
 Center     Atomic      Atomic             Coordinates (Angstroms)
 Number     Number       Type             X           Y           Z
 ---------------------------------------------------------------------
      1         17           0        2.130866   -0.811302   -0.735578
      2         17           0        1.020976    1.435923    0.971010
      3          5           0        0.763358    0.075419   -0.086880
      4          6           0       -0.691929   -0.422291   -0.475832
      5         17           0       -1.292612   -1.344359    0.964861
      6         17           0       -1.798264    0.912849   -0.930241
      7          1           0       -0.701630   -1.126249   -1.301506
 ---------------------------------------------------------------------

 SCF Done:  E(RHF) =  -1901.33516342     A.U. after    2 cycles

 The electronic state is 1-A.
 Alpha  occ. eigenvalues -- -103.69249-103.68970-103.68802-103.68709 -11.38142
 Alpha  occ. eigenvalues --  -10.72733 -10.72298 -10.72206 -10.71970  -8.38426
 Alpha  occ. eigenvalues --   -8.38200  -8.38164  -8.37997  -8.37921  -8.37762
 Alpha  occ. eigenvalues --   -8.37728  -8.37690  -8.37611  -8.37595  -8.37373
 Alpha  occ. eigenvalues --   -8.37361  -7.76489  -1.23140  -1.19847  -1.16820
 Alpha  occ. eigenvalues --   -1.15327  -0.92773  -0.73089  -0.66761  -0.63193
 Alpha  occ. eigenvalues --   -0.61360  -0.59014  -0.54548  -0.52238  -0.50655
 Alpha  occ. eigenvalues --   -0.49197  -0.48614  -0.48283  -0.47304  -0.45899
 Alpha virt. eigenvalues --    0.03772   0.04361   0.05326   0.05796   0.05862
 Alpha virt. eigenvalues --    0.07966   0.09108   0.10412   0.12020   0.12197
 Alpha virt. eigenvalues --    0.13455   0.15055   0.15595   0.16566   0.16985

 Mulliken charges:
               1
     1  Cl  -0.292960
     2  Cl  -0.260379
     3  B    0.975857
     4  C   -0.153289
     5  Cl  -0.123605
     6  Cl  -0.147228
     7  H    0.001604
 Sum of Mulliken charges =   0.00000

 Dipole moment (field-independent basis, Debye):
    X=              0.5105    Y=             -0.5648    Z=             -0.9994  Tot=              1.2564

 Test job not archived.
 1\1\GINC-SE460\SP\RHF\Aug-CC-pVDZ\C1H1B1Cl4\OHZDE\08-Apr-2025\0\\#t hf
  aug-cc-pvdz iop(5/13=1,5/36=2,99/5=2) pseudo=read geom=check guess=(r
 ead,tcheck) scf=(maxcycle=1)\\title\\0,1\Cl,0,2.130866,-0.811302,-0.73
 5578\Cl,0,1.020976,1.435923,0.97101\B,0,0.763358,0.075419,-0.08688\C,0
 ,-0.691929,-0.422291,-0.475832\Cl,0,-1.292612,-1.344358,0.964861\Cl,0,
 -1.798264,0.91285,-0.930241\H,0,-0.70163,-1.126249,-1.301506\\Version=
 ES64L-G16RevC.01\State=1-A\HF=-1901.3351634\RMSD=2.910e-03\Dipole=0.20
 08529,-0.2221957,-0.3932018\Quadrupole=-1.8040588,0.4897871,1.3142717,

 Normal termination of Gaussian 16 at Tue Apr  8 23:41:18 2025.
