 Gaussian 16, Revision C.01,

 ----------------------------------------------------------------------
 #t hf aug-cc-pvdz symm=none int=(grid=ultrafine) guess=(read,tcheck) s
 table=(opt,rrhf)
 ----------------------------------------------------------------------
 -----
 title
 -----
 Symbolic Z-matrix:
 Charge =  0 Multiplicity = 1

 SCF Done:  E(RHF) =  -633.544193315     A.U. after   14 cycles
 Normal termination of Gaussian 16 at Wed Apr  9 00:41:53 2025.
 Gaussian 16:  ES64L-G16RevC.01  3-Jul-2019

 ----------------------------------------------------------------------
 #t hf aug-cc-pvdz iop(5/13=1,5/36=2,99/5=2) pseudo=read geom=check gue
 ss=(read,tcheck) scf=(maxcycle=1)
 ----------------------------------------------------------------------
 -----
 title
 -----
 Structure from the checkpoint file:  "BDE49_nonexpt_728_mol1.chk"
 Charge =  0 Multiplicity = 1

                         Standard orientation:
 ---------------------------------------------------------------------
 Center     Atomic      Atomic             Coordinates (Angstroms)
 Number     Number       Type             X           Y           Z
 ---------------------------------------------------------------------
      1          6           0       -1.074865   -0.423562    0.453464
      2          5           0        1.678732    0.373133   -0.016394
      3          8           0        1.200960    1.642327   -0.105442
      4          8           0        3.028122    0.233066    0.114382
      5          6           0       -2.105721   -0.116228   -0.341366
      6          6           0       -3.384333    0.529475    0.104964
      7          1           0       -2.037921   -0.356849   -1.402026
      8          1           0       -3.384775    0.727772    1.178926
      9          1           0       -4.241322   -0.112036   -0.128003
     10          1           0       -3.552602    1.476176   -0.420139
     11          1           0        0.239735    1.663405   -0.159780
     12          1           0        3.322914   -0.678875    0.161993
     13         15           0        0.470681   -1.165242   -0.200879
     14          1           0       -1.143163   -0.208942    1.518581
     15          1           0        0.900099   -1.838925    0.971704
 ---------------------------------------------------------------------

 SCF Done:  E(RHF) =  -633.662959516     A.U. after    2 cycles

 The electronic state is 1-A.
 Alpha  occ. eigenvalues --  -81.24560 -20.58490 -20.58108 -11.26796 -11.25387
 Alpha  occ. eigenvalues --  -11.24850  -7.75118  -7.67313  -4.89206  -4.89065
 Alpha  occ. eigenvalues --   -4.88841  -1.34448  -1.31378  -1.07868  -0.95326
 Alpha  occ. eigenvalues --   -0.81479  -0.80568  -0.74702  -0.69596  -0.64075
 Alpha  occ. eigenvalues --   -0.61990  -0.61261  -0.59567  -0.59094  -0.58434
 Alpha  occ. eigenvalues --   -0.53077  -0.52260  -0.49203  -0.45339  -0.38838
 Alpha  occ. eigenvalues --   -0.33639
 Alpha virt. eigenvalues --    0.03052   0.03843   0.04656   0.05150   0.05686
 Alpha virt. eigenvalues --    0.06681   0.06838   0.07720   0.08335   0.08811
 Alpha virt. eigenvalues --    0.09425   0.10229   0.10632   0.11368   0.11980

 Mulliken charges:
               1
     1  C    0.274542
     2  B    0.841547
     3  O   -0.496753
     4  O   -0.521246
     5  C    0.228546
     6  C    0.164427
     7  H   -0.368607
     8  H   -0.116291
     9  H    0.045722
    10  H    0.044352
    11  H    0.276439
    12  H    0.194623
    13  P   -0.190741
    14  H   -0.488227
    15  H    0.111667
 Sum of Mulliken charges =  -0.00000

 Dipole moment (field-independent basis, Debye):
    X=             -2.7096    Y=             -1.3692    Z=              0.6016  Tot=              3.0949

 Test job not archived.
 1\1\GINC-SE273\SP\RHF\Aug-CC-pVDZ\C3H8B1O2P1\OHZDE\09-Apr-2025\0\\#t h
 f aug-cc-pvdz iop(5/13=1,5/36=2,99/5=2) pseudo=read geom=check guess=(
 read,tcheck) scf=(maxcycle=1)\\title\\0,1\C,0,-1.074865,-0.423562,0.45
 3464\B,0,1.678732,0.373133,-0.016394\O,0,1.20096,1.642327,-0.105442\O,
 0,3.028122,0.233066,0.114382\C,0,-2.105721,-0.116228,-0.341366\C,0,-3.
 384333,0.529475,0.104964\H,0,-2.037921,-0.356849,-1.402026\H,0,-3.3847
 75,0.727772,1.178926\H,0,-4.241322,-0.112036,-0.128003\H,0,-3.552602,1
 .476176,-0.420139\H,0,0.239735,1.663405,-0.15978\H,0,3.322914,-0.67887

 Normal termination of Gaussian 16 at Wed Apr  9 00:41:59 2025.
