 Gaussian 16, Revision C.01,

 ----------------------------------------------------------------------
 #t hf aug-cc-pvdz symm=none int=(grid=ultrafine) guess=(read,tcheck) s
 table=(opt,rrhf)
 ----------------------------------------------------------------------
 -----
 title
 -----
 Symbolic Z-matrix:
 Charge =  0 Multiplicity = 1

 SCF Done:  E(RHF) =  -1346.84592599     A.U. after   15 cycles
 Normal termination of Gaussian 16 at Wed Apr  9 00:16:34 2025.
 Gaussian 16:  ES64L-G16RevC.01  3-Jul-2019

 ----------------------------------------------------------------------
 #t hf aug-cc-pvdz iop(5/13=1,5/36=2,99/5=2) pseudo=read geom=check gue
 ss=(read,tcheck) scf=(maxcycle=1)
 ----------------------------------------------------------------------
 -----
 title
 -----
 Structure from the checkpoint file:  "BDE49_nonexpt_2571_mol1.chk"
 Charge =  0 Multiplicity = 1

                         Standard orientation:
 ---------------------------------------------------------------------
 Center     Atomic      Atomic             Coordinates (Angstroms)
 Number     Number       Type             X           Y           Z
 ---------------------------------------------------------------------
      1         17           0        1.869439   -1.058335    0.000024
      2         16           0        1.332164    0.969512   -0.000032
      3          7           0       -0.306636    1.004282    0.000026
      4          6           0       -1.322274    0.352759    0.000069
      5         16           0       -2.688437   -0.416689   -0.000031
 ---------------------------------------------------------------------

 SCF Done:  E(RHF) =  -1346.93861848     A.U. after    2 cycles

 The electronic state is 1-A.
 Alpha  occ. eigenvalues -- -103.70036 -93.67428 -93.56566 -15.71413 -11.42049
 Alpha  occ. eigenvalues --  -10.73188  -8.96200  -8.86466  -8.38911  -8.38566
 Alpha  occ. eigenvalues --   -8.38527  -6.30354  -6.29986  -6.29467  -6.20751
 Alpha  occ. eigenvalues --   -6.20118  -6.20018  -1.29544  -1.18202  -1.07150
 Alpha  occ. eigenvalues --   -0.98801  -0.72871  -0.62640  -0.62400  -0.61911
 Alpha  occ. eigenvalues --   -0.53053  -0.52610  -0.50013  -0.43880  -0.40199
 Alpha  occ. eigenvalues --   -0.34981
 Alpha virt. eigenvalues --    0.00490   0.06194   0.06557   0.07446   0.09026
 Alpha virt. eigenvalues --    0.09310   0.10335   0.10605   0.12443   0.13314
 Alpha virt. eigenvalues --    0.14535   0.15061   0.15755   0.16096   0.16787

 Mulliken charges:
               1
     1  Cl  -0.283310
     2  S    0.843583
     3  N   -0.427969
     4  C   -0.458210
     5  S    0.325906
 Sum of Mulliken charges =  -0.00000

 Dipole moment (field-independent basis, Debye):
    X=              0.3697    Y=              0.8509    Z=             -0.0000  Tot=              0.9278

 Test job not archived.
 1\1\GINC-SE339\SP\RHF\Aug-CC-pVDZ\C1Cl1N1S2\OHZDE\09-Apr-2025\0\\#t hf
  aug-cc-pvdz iop(5/13=1,5/36=2,99/5=2) pseudo=read geom=check guess=(r
 ead,tcheck) scf=(maxcycle=1)\\title\\0,1\Cl,0,-1.869439,1.058335,0.000
 024\S,0,-1.332164,-0.969512,-0.000032\N,0,0.306636,-1.004282,0.000026\
 C,0,1.322274,-0.352759,0.000069\S,0,2.688437,0.416689,-0.000031\\Versi
 on=ES64L-G16RevC.01\State=1-A\HF=-1346.9386185\RMSD=6.112e-03\Dipole=-
 0.1454486,-0.3347879,-0.0000036\Quadrupole=-0.0195207,1.2957665,-1.276
 2459,1.1943394,-0.0000243,0.0000124\PG=C01 [X(C1Cl1N1S2)]\\@

 Normal termination of Gaussian 16 at Wed Apr  9 00:16:36 2025.
