 Gaussian 16, Revision C.01,

 ----------------------------------------------------------------------
 #t hf aug-cc-pvdz symm=none int=(grid=ultrafine) guess=(read,tcheck) s
 table=(opt,rrhf)
 ----------------------------------------------------------------------
 -----
 title
 -----
 Symbolic Z-matrix:
 Charge =  0 Multiplicity = 1

 SCF Done:  E(RHF) =  -402.582139486     A.U. after   14 cycles
 Normal termination of Gaussian 16 at Tue Apr  8 23:19:56 2025.
 Gaussian 16:  ES64L-G16RevC.01  3-Jul-2019

 ----------------------------------------------------------------------
 #t hf aug-cc-pvdz iop(5/13=1,5/36=2,99/5=2) pseudo=read geom=check gue
 ss=(read,tcheck) scf=(maxcycle=1)
 ----------------------------------------------------------------------
 -----
 title
 -----
 Structure from the checkpoint file:  "BDE49_nonexpt_1166_mol1.chk"
 Charge =  0 Multiplicity = 1

                         Standard orientation:
 ---------------------------------------------------------------------
 Center     Atomic      Atomic             Coordinates (Angstroms)
 Number     Number       Type             X           Y           Z
 ---------------------------------------------------------------------
      1          9           0       -1.033782    1.358102   -0.503123
      2          8           0       -0.658936    0.729854    0.747470
      3          6           0       -0.187071   -0.582679    0.411198
      4          8           0        0.903610   -0.551310   -0.431595
      5          8           0       -1.147361   -1.384078   -0.134052
      6          6           0        1.991954    0.271098   -0.003640
      7          1           0        1.719839    1.328027   -0.030171
      8          1           0        2.804588    0.079495   -0.701849
      9          1           0        2.313728    0.001453    1.009097
     10          1           0       -1.185202   -1.181610   -1.077787
     11          1           0        0.043291   -0.936527    1.428884
 ---------------------------------------------------------------------

 SCF Done:  E(RHF) =  -402.717206056     A.U. after    2 cycles

 The electronic state is 1-A.
 Alpha  occ. eigenvalues --  -26.16618 -20.70841 -20.61134 -20.61076 -11.43681
 Alpha  occ. eigenvalues --  -11.30616  -1.66958  -1.43673  -1.34256  -1.30940
 Alpha  occ. eigenvalues --   -0.98590  -0.90737  -0.80653  -0.78430  -0.76269
 Alpha  occ. eigenvalues --   -0.74442  -0.69956  -0.67337  -0.64552  -0.61098
 Alpha  occ. eigenvalues --   -0.58742  -0.57392  -0.53824  -0.53322  -0.49094
 Alpha virt. eigenvalues --    0.03331   0.04643   0.04930   0.06109   0.06806
 Alpha virt. eigenvalues --    0.09385   0.11127   0.11575   0.12998   0.14664
 Alpha virt. eigenvalues --    0.15232   0.16040   0.17076   0.18535   0.20885

 Mulliken charges:
               1
     1  F   -0.376658
     2  O   -0.240918
     3  C    1.445949
     4  O   -0.655943
     5  O   -0.465629
     6  C    0.639061
     7  H   -0.026335
     8  H   -0.232004
     9  H   -0.039821
    10  H    0.161025
    11  H   -0.208725
 Sum of Mulliken charges =  -0.00000

 Dipole moment (field-independent basis, Debye):
    X=              2.4863    Y=             -0.4694    Z=              0.5742  Tot=              2.5945

 Test job not archived.
 1\1\GINC-SE454\SP\RHF\Aug-CC-pVDZ\C2H5F1O3\OHZDE\08-Apr-2025\0\\#t hf
 aug-cc-pvdz iop(5/13=1,5/36=2,99/5=2) pseudo=read geom=check guess=(re
 ad,tcheck) scf=(maxcycle=1)\\title\\0,1\F,0,1.033783,-1.358102,-0.5031
 23\O,0,0.658936,-0.729854,0.74747\C,0,0.187071,0.582679,0.411198\O,0,-
 0.90361,0.55131,-0.431595\O,0,1.147361,1.384078,-0.134052\C,0,-1.99195
 4,-0.271099,-0.00364\H,0,-1.719838,-1.328028,-0.030171\H,0,-2.804588,-
 0.079496,-0.701849\H,0,-2.313728,-0.001454,1.009097\H,0,1.185202,1.181
 61,-1.077787\H,0,-0.043291,0.936527,1.428884\\Version=ES64L-G16RevC.01

 Normal termination of Gaussian 16 at Tue Apr  8 23:19:59 2025.
