 Gaussian 16, Revision C.01,

 ----------------------------------------------------------------------
 #t hf aug-cc-pvdz symm=none int=(grid=ultrafine) guess=(read,tcheck) s
 table=(opt,rrhf)
 ----------------------------------------------------------------------
 -----
 title
 -----
 Symbolic Z-matrix:
 Charge =  0 Multiplicity = 1

 SCF Done:  E(RHF) =  -779.753211554     A.U. after   18 cycles
 Normal termination of Gaussian 16 at Tue Apr  8 23:38:17 2025.
 Gaussian 16:  ES64L-G16RevC.01  3-Jul-2019

 ----------------------------------------------------------------------
 #t hf aug-cc-pvdz iop(5/13=1,5/36=2,99/5=2) pseudo=read geom=check gue
 ss=(read,tcheck) scf=(maxcycle=1)
 ----------------------------------------------------------------------
 -----
 title
 -----
 Structure from the checkpoint file:  "BDE49_nonexpt_1495_mol1.chk"
 Charge =  0 Multiplicity = 1

                         Standard orientation:
 ---------------------------------------------------------------------
 Center     Atomic      Atomic             Coordinates (Angstroms)
 Number     Number       Type             X           Y           Z
 ---------------------------------------------------------------------
      1          6           0       -0.893845   -1.578182   -0.033138
      2          6           0       -2.225998   -1.915762    0.007513
      3          6           0       -3.216682   -0.911045    0.059825
      4          6           0       -2.850406    0.412527    0.062907
      5          6           0       -1.484911    0.795206    0.017352
      6          6           0       -0.475590   -0.220628   -0.025896
      7          1           0       -0.152360   -2.367568   -0.079990
      8          1           0       -2.519449   -2.959472   -0.002895
      9          1           0       -4.264215   -1.188471    0.093703
     10          1           0       -3.605896    1.190805    0.097739
     11          6           0        0.903876    0.168609   -0.059748
     12          6           0        1.227612    1.508691   -0.081022
     13          6           0       -1.098018    2.160908    0.007869
     14          6           0        0.227448    2.507075   -0.045320
     15          1           0       -1.869269    2.923399    0.038855
     16          1           0        0.519825    3.551382   -0.057940
     17          1           0        2.271149    1.796763   -0.124717
     18          7           0        3.623468   -0.220240    0.215847
     19         15           0        2.227462   -1.115631   -0.194869
     20          1           0        1.918095   -1.772898    1.030706
     21          1           0        3.769185    0.081812    1.169751
     22          1           0        4.475808   -0.543998   -0.215162
 ---------------------------------------------------------------------

 SCF Done:  E(RHF) =  -779.905659480     A.U. after    2 cycles

 The electronic state is 1-A.
 Alpha  occ. eigenvalues --  -81.27890 -15.62129 -11.25623 -11.25345 -11.24962
 Alpha  occ. eigenvalues --  -11.24781 -11.24749 -11.24627 -11.24624 -11.24574
 Alpha  occ. eigenvalues --  -11.24472 -11.24269  -7.77841  -4.92025  -4.91867
 Alpha  occ. eigenvalues --   -4.91520  -1.16623  -1.12575  -1.10098  -1.04491
 Alpha  occ. eigenvalues --   -1.00370  -0.97896  -0.85716  -0.84039  -0.82864
 Alpha  occ. eigenvalues --   -0.75388  -0.70972  -0.69366  -0.68142  -0.67207
 Alpha  occ. eigenvalues --   -0.62427  -0.61163  -0.59109  -0.57232  -0.56598
 Alpha  occ. eigenvalues --   -0.56468  -0.53809  -0.51960  -0.49261  -0.47368
 Alpha  occ. eigenvalues --   -0.45332  -0.41366  -0.39466  -0.34256  -0.32325
 Alpha  occ. eigenvalues --   -0.28615
 Alpha virt. eigenvalues --    0.03180   0.03595   0.03870   0.04867   0.05256
 Alpha virt. eigenvalues --    0.05451   0.06788   0.06919   0.07214   0.08224
 Alpha virt. eigenvalues --    0.09003   0.09662   0.09772   0.10603   0.11247

 Mulliken charges:
               1
     1  C    0.361626
     2  C    0.367530
     3  C    0.415975
     4  C    0.794219
     5  C   -0.210723
     6  C    0.843947
     7  H   -0.787742
     8  H   -0.445772
     9  H   -0.447391
    10  H   -0.582883
    11  C   -0.661210
    12  C    0.892253
    13  C    0.977425
    14  C    0.167335
    15  H   -0.599649
    16  H   -0.486033
    17  H   -0.627467
    18  N   -0.440759
    19  P    0.415313
    20  H    0.111936
    21  H   -0.033141
    22  H   -0.024787
 Sum of Mulliken charges =  -0.00000

 Dipole moment (field-independent basis, Debye):
    X=              0.7695    Y=              0.3655    Z=              1.1781  Tot=              1.4538

 Test job not archived.
 1\1\GINC-SE336\SP\RHF\Aug-CC-pVDZ\C10H10N1P1\OHZDE\08-Apr-2025\0\\#t h
 f aug-cc-pvdz iop(5/13=1,5/36=2,99/5=2) pseudo=read geom=check guess=(
 read,tcheck) scf=(maxcycle=1)\\title\\0,1\C,0,-0.893845,-1.578182,-0.0
 33138\C,0,-2.225998,-1.915762,0.007513\C,0,-3.216682,-0.911045,0.05982
 5\C,0,-2.850406,0.412527,0.062907\C,0,-1.484911,0.795206,0.017352\C,0,
 -0.47559,-0.220628,-0.025896\H,0,-0.15236,-2.367568,-0.07999\H,0,-2.51
 9449,-2.959472,-0.002895\H,0,-4.264215,-1.188471,0.093703\H,0,-3.60589
 6,1.190805,0.097739\C,0,0.903876,0.168609,-0.059748\C,0,1.227612,1.508

 Normal termination of Gaussian 16 at Tue Apr  8 23:38:35 2025.
