 Gaussian 16, Revision C.01,

 ----------------------------------------------------------------------
 #t hf aug-cc-pvdz symm=none int=(grid=ultrafine) guess=(read,tcheck) s
 table=(opt,rrhf)
 ----------------------------------------------------------------------
 -----
 title
 -----
 Symbolic Z-matrix:
 Charge =  0 Multiplicity = 1

 SCF Done:  E(RHF) =  -652.397474610     A.U. after   16 cycles
 Normal termination of Gaussian 16 at Wed Apr  9 00:44:04 2025.
 Gaussian 16:  ES64L-G16RevC.01  3-Jul-2019

 ----------------------------------------------------------------------
 #t hf aug-cc-pvdz iop(5/13=1,5/36=2,99/5=2) pseudo=read geom=check gue
 ss=(read,tcheck) scf=(maxcycle=1)
 ----------------------------------------------------------------------
 -----
 title
 -----
 Structure from the checkpoint file:  "BDE49_nonexpt_764_mol1.chk"
 Charge =  0 Multiplicity = 1

                         Standard orientation:
 ---------------------------------------------------------------------
 Center     Atomic      Atomic             Coordinates (Angstroms)
 Number     Number       Type             X           Y           Z
 ---------------------------------------------------------------------
      1          6           0       -0.553209   -0.160420   -0.021413
      2          5           0        1.907651    0.523408    0.114029
      3         15           0        3.744641   -0.016804   -0.118117
      4          6           0       -1.108232    1.124008   -0.044688
      5          6           0       -2.489083    1.285715   -0.021016
      6          6           0       -3.339173    0.181346    0.017527
      7          6           0       -2.789033   -1.097391    0.032217
      8          6           0       -1.408389   -1.267891    0.014027
      9          1           0       -0.986743   -2.268523    0.031832
     10          1           0       -0.461635    1.990150   -0.087022
     11          1           0       -2.903573    2.287503   -0.039758
     12          1           0       -4.414069    0.316713    0.032028
     13          1           0       -3.433511   -1.968779    0.059545
     14          7           0        0.846746   -0.379670   -0.036665
     15          1           0        1.690214    1.679578    0.287784
     16          1           0        1.071674   -1.360361   -0.146195
     17          1           0        3.671838   -1.339725    0.391467
     18          1           0        4.253422    0.563948    1.068665
 ---------------------------------------------------------------------

 SCF Done:  E(RHF) =  -652.509423088     A.U. after    2 cycles

 The electronic state is 1-A.
 Alpha  occ. eigenvalues --  -81.23826 -15.64764 -11.29909 -11.25346 -11.25253
 Alpha  occ. eigenvalues --  -11.24729 -11.24371 -11.24172  -7.74456  -7.62905
 Alpha  occ. eigenvalues --   -4.88475  -4.88412  -4.88137  -1.20685  -1.12650
 Alpha  occ. eigenvalues --   -1.01746  -0.99464  -0.84715  -0.83465  -0.79465
 Alpha  occ. eigenvalues --   -0.72261  -0.71755  -0.67104  -0.62361  -0.61542
 Alpha  occ. eigenvalues --   -0.59658  -0.56618  -0.54738  -0.52464  -0.50706
 Alpha  occ. eigenvalues --   -0.49731  -0.46818  -0.44259  -0.35317  -0.34842
 Alpha  occ. eigenvalues --   -0.31038
 Alpha virt. eigenvalues --    0.03132   0.03580   0.03882   0.05158   0.05338
 Alpha virt. eigenvalues --    0.05596   0.07020   0.07510   0.08134   0.08432
 Alpha virt. eigenvalues --    0.09140   0.09902   0.10462   0.11010   0.11537

 Mulliken charges:
               1
     1  C    0.266638
     2  B   -0.048226
     3  P   -0.470846
     4  C    0.641166
     5  C    0.531821
     6  C    0.579443
     7  C    0.500343
     8  C    0.584671
     9  H   -0.626123
    10  H   -0.708491
    11  H   -0.445362
    12  H   -0.447521
    13  H   -0.437206
    14  N   -0.384555
    15  H    0.219044
    16  H   -0.023133
    17  H    0.119301
    18  H    0.149035
 Sum of Mulliken charges =  -0.00000

 Dipole moment (field-independent basis, Debye):
    X=             -1.1680    Y=             -0.8808    Z=              0.4868  Tot=              1.5417

 Test job not archived.
 1\1\GINC-SE162\SP\RHF\Aug-CC-pVDZ\C6H9B1N1P1\OHZDE\09-Apr-2025\0\\#t h
 f aug-cc-pvdz iop(5/13=1,5/36=2,99/5=2) pseudo=read geom=check guess=(
 read,tcheck) scf=(maxcycle=1)\\title\\0,1\C,0,-0.553209,-0.16042,-0.02
 1413\B,0,1.907651,0.523408,0.114029\P,0,3.744641,-0.016804,-0.118117\C
 ,0,-1.108232,1.124008,-0.044688\C,0,-2.489083,1.285715,-0.021016\C,0,-
 3.339173,0.181346,0.017527\C,0,-2.789033,-1.097391,0.032217\C,0,-1.408
 389,-1.267891,0.014027\H,0,-0.986743,-2.268523,0.031832\H,0,-0.461635,
 1.99015,-0.087022\H,0,-2.903573,2.287503,-0.039758\H,0,-4.414069,0.316

 Normal termination of Gaussian 16 at Wed Apr  9 00:44:13 2025.
