 Gaussian 16, Revision C.01,

 ----------------------------------------------------------------------
 #t hf aug-cc-pvdz symm=none int=(grid=ultrafine) guess=(read,tcheck) s
 table=(opt,rrhf)
 ----------------------------------------------------------------------
 -----
 title
 -----
 Symbolic Z-matrix:
 Charge =  0 Multiplicity = 1

 SCF Done:  E(RHF) =  -882.864395689     A.U. after   12 cycles
 Normal termination of Gaussian 16 at Wed Apr  9 00:14:24 2025.
 Gaussian 16:  ES64L-G16RevC.01  3-Jul-2019

 ----------------------------------------------------------------------
 #t hf aug-cc-pvdz iop(5/13=1,5/36=2,99/5=2) pseudo=read geom=check gue
 ss=(read,tcheck) scf=(maxcycle=1)
 ----------------------------------------------------------------------
 -----
 title
 -----
 Structure from the checkpoint file:  "BDE49_nonexpt_2484_mol1.chk"
 Charge =  0 Multiplicity = 1

                         Standard orientation:
 ---------------------------------------------------------------------
 Center     Atomic      Atomic             Coordinates (Angstroms)
 Number     Number       Type             X           Y           Z
 ---------------------------------------------------------------------
      1          6           0        1.418583   -1.320478   -0.478235
      2          6           0        0.400922   -1.465265    0.677776
      3          6           0        2.260269   -0.033270   -0.411489
      4          1           0        0.889568   -1.347884   -1.438198
      5          1           0        2.089948   -2.186129   -0.477889
      6         14           0       -0.697504    0.053780    0.835831
      7          1           0        0.940504   -1.571522    1.628285
      8          1           0       -0.193179   -2.376856    0.561595
      9          6           0        1.452801    1.267691   -0.570283
     10          1           0        3.021765   -0.071970   -1.197444
     11          1           0        2.806636   -0.006876    0.541129
     12          6           0        0.450096    1.523390    0.577442
     13          1           0        0.912792    1.236476   -1.523900
     14          1           0        2.146924    2.112307   -0.640661
     15          1           0        0.996884    1.673657    1.518896
     16          1           0       -0.113478    2.445174    0.401498
     17         16           0       -2.213338   -0.104276   -0.724120
     18          1           0       -2.837618    1.045558   -0.411923
     19          1           0       -1.378314    0.131150    2.151639
 ---------------------------------------------------------------------

 SCF Done:  E(RHF) =  -882.965552209     A.U. after    2 cycles

 The electronic state is 1-A.
 Alpha  occ. eigenvalues --  -93.52024 -69.07615 -11.23640 -11.23530 -11.23160
 Alpha  occ. eigenvalues --  -11.22152 -11.22120  -8.81922  -6.82702  -6.16110
 Alpha  occ. eigenvalues --   -6.15863  -6.15607  -3.93505  -3.93425  -3.93402
 Alpha  occ. eigenvalues --   -1.07891  -0.99847  -0.95046  -0.91895  -0.82971
 Alpha  occ. eigenvalues --   -0.77868  -0.66811  -0.63151  -0.60469  -0.59501
 Alpha  occ. eigenvalues --   -0.56623  -0.54243  -0.52905  -0.50406  -0.49274
 Alpha  occ. eigenvalues --   -0.48492  -0.46992  -0.43918  -0.41937  -0.40693
 Alpha  occ. eigenvalues --   -0.36127
 Alpha virt. eigenvalues --    0.03088   0.04217   0.04413   0.04753   0.06094
 Alpha virt. eigenvalues --    0.06289   0.06464   0.06926   0.07084   0.08714
 Alpha virt. eigenvalues --    0.08835   0.09043   0.09399   0.10334   0.11557

 Mulliken charges:
               1
     1  C    0.159425
     2  C    0.223127
     3  C    0.268842
     4  H   -0.105723
     5  H   -0.109176
     6  Si   0.726051
     7  H   -0.155424
     8  H   -0.185058
     9  C    0.131512
    10  H   -0.106314
    11  H   -0.100327
    12  C    0.258051
    13  H   -0.097864
    14  H   -0.111634
    15  H   -0.166193
    16  H   -0.189679
    17  S   -0.463168
    18  H    0.020977
    19  H    0.002573
 Sum of Mulliken charges =  -0.00000

 Dipole moment (field-independent basis, Debye):
    X=              1.4218    Y=              0.7012    Z=              0.8123  Tot=              1.7813

 Test job not archived.
 1\1\GINC-SE393\SP\RHF\Aug-CC-pVDZ\C5H12S1Si1\OHZDE\09-Apr-2025\0\\#t h
 f aug-cc-pvdz iop(5/13=1,5/36=2,99/5=2) pseudo=read geom=check guess=(
 read,tcheck) scf=(maxcycle=1)\\title\\0,1\C,0,1.418583,-1.320478,-0.47
 8235\C,0,0.400922,-1.465265,0.677776\C,0,2.260269,-0.03327,-0.411489\H
 ,0,0.889568,-1.347884,-1.438198\H,0,2.089948,-2.186129,-0.477889\Si,0,
 -0.697504,0.05378,0.835831\H,0,0.940504,-1.571522,1.628285\H,0,-0.1931
 79,-2.376856,0.561595\C,0,1.452801,1.267691,-0.570283\H,0,3.021765,-0.
 07197,-1.197444\H,0,2.806636,-0.006876,0.541129\C,0,0.450096,1.52339,0

 Normal termination of Gaussian 16 at Wed Apr  9 00:14:34 2025.
