 Gaussian 16, Revision C.01,

 ----------------------------------------------------------------------
 #t hf aug-cc-pvdz symm=none int=(grid=ultrafine) guess=(read,tcheck) s
 table=opt
 ----------------------------------------------------------------------
 -----
 title
 -----
 Symbolic Z-matrix:
 Charge =  0 Multiplicity = 2

 SCF Done:  E(UHF) =  -110.598968496     A.U. after   17 cycles
 Normal termination of Gaussian 16 at Tue Apr  8 22:38:21 2025.
 Gaussian 16:  ES64L-G16RevC.01  3-Jul-2019

 ----------------------------------------------------------------------
 #t hf aug-cc-pvdz iop(5/13=1,5/36=2,99/5=2) pseudo=read geom=check gue
 ss=(read,tcheck) scf=(maxcycle=1)
 ----------------------------------------------------------------------
 -----
 title
 -----
 Structure from the checkpoint file:  "BDE49_expt_1300_mol3.chk"
 Charge =  0 Multiplicity = 2

                         Standard orientation:
 ---------------------------------------------------------------------
 Center     Atomic      Atomic             Coordinates (Angstroms)
 Number     Number       Type             X           Y           Z
 ---------------------------------------------------------------------
      1          7           0        0.741898   -0.150822    0.025775
      2          7           0       -0.597009    0.024649   -0.075750
      3          1           0       -1.029962    0.893888    0.221091
      4          1           0       -1.128031   -0.800754    0.162843
      5          1           0        1.143770    0.790076   -0.034111
 ---------------------------------------------------------------------

 SCF Done:  E(UHF) =  -110.632290179     A.U. after    2 cycles

 The electronic state is 2-A.
 Alpha  occ. eigenvalues --  -15.66529 -15.66117  -1.26446  -0.98481  -0.72787
 Alpha  occ. eigenvalues --   -0.63616  -0.58956  -0.47053  -0.35506
 Alpha virt. eigenvalues --    0.03527   0.04291   0.05911   0.13066   0.15983
 Alpha virt. eigenvalues --    0.17631   0.19089   0.19430   0.20249   0.21918
 Alpha virt. eigenvalues --    0.27992   0.30029   0.31014   0.36268   0.39119

  Beta  occ. eigenvalues --  -15.65738 -15.63062  -1.21600  -0.91544  -0.71674
  Beta  occ. eigenvalues --   -0.61758  -0.44901  -0.42336
  Beta virt. eigenvalues --    0.03572   0.04345   0.05967   0.12449   0.13931
  Beta virt. eigenvalues --    0.16319   0.17673   0.19346   0.19820   0.22153
  Beta virt. eigenvalues --    0.26082   0.28201   0.30383   0.31361   0.36552

 Mulliken charges and spin densities:
               1          2
     1  N   -0.143368   0.992986
     2  N   -0.004121   0.133720
     3  H    0.021934  -0.015793
     4  H    0.070959  -0.024801
     5  H    0.054596  -0.086112
 Sum of Mulliken charges =  -0.00000   1.00000

 Dipole moment (field-independent basis, Debye):
    X=             -1.5591    Y=              1.6134    Z=              0.7520  Tot=              2.3663
                          Isotropic Fermi Contact Couplings
        Atom                 a.u.       MegaHertz       Gauss      10(-4) cm-1
     1  N(14)              0.26580      85.88247      30.64500      28.64731
     2  N(14)              0.07873      25.43839       9.07705       8.48533
     3  H(1)               0.00005       0.23412       0.08354       0.07809
     4  H(1)              -0.00374     -16.73855      -5.97273      -5.58338
     5  H(1)              -0.02187     -97.73810     -34.87538     -32.60192
 --------------------------------------------------------
       Center         ----  Spin Dipole Couplings  ----
                      3XX-RR        3YY-RR        3ZZ-RR

 Normal termination of Gaussian 16 at Tue Apr  8 22:38:23 2025.
