 Gaussian 16, Revision C.01,

 ----------------------------------------------------------------------
 #t hf aug-cc-pvdz symm=none int=(grid=ultrafine) guess=(read,tcheck) s
 table=(opt,rrhf)
 ----------------------------------------------------------------------
 -----
 title
 -----
 Symbolic Z-matrix:
 Charge =  0 Multiplicity = 1

 SCF Done:  E(RHF) =  -790.298674796     A.U. after   13 cycles
 Normal termination of Gaussian 16 at Wed Apr  9 00:29:48 2025.
 Gaussian 16:  ES64L-G16RevC.01  3-Jul-2019

 ----------------------------------------------------------------------
 #t hf aug-cc-pvdz iop(5/13=1,5/36=2,99/5=2) pseudo=read geom=check gue
 ss=(read,tcheck) scf=(maxcycle=1)
 ----------------------------------------------------------------------
 -----
 title
 -----
 Structure from the checkpoint file:  "BDE49_nonexpt_375_mol1.chk"
 Charge =  0 Multiplicity = 1

                         Standard orientation:
 ---------------------------------------------------------------------
 Center     Atomic      Atomic             Coordinates (Angstroms)
 Number     Number       Type             X           Y           Z
 ---------------------------------------------------------------------
      1          9           0       -1.880903   -1.172246   -0.065955
      2          9           0       -1.972232    1.091392    0.029648
      3          5           0       -1.258422   -0.011489   -0.002781
      4         15           0        0.677277    0.006126    0.128824
      5          8           0        1.190693   -0.269969    1.479065
      6          8           0        1.214810   -1.027970   -0.989779
      7          1           0        1.471603   -1.871963   -0.597332
      8          8           0        1.017219    1.414078   -0.545266
      9          1           0        1.957794    1.636091   -0.546512
 ---------------------------------------------------------------------

 SCF Done:  E(RHF) =  -790.527929122     A.U. after    2 cycles

 The electronic state is 1-A.
 Alpha  occ. eigenvalues --  -81.42945 -26.17071 -26.17003 -20.63396 -20.63081
 Alpha  occ. eigenvalues --  -20.54256  -7.91422  -7.78410  -5.06071  -5.05966
 Alpha  occ. eigenvalues --   -5.05609  -1.72423  -1.70283  -1.39619  -1.36256
 Alpha  occ. eigenvalues --   -1.27451  -0.91423  -0.87836  -0.85459  -0.81431
 Alpha  occ. eigenvalues --   -0.79837  -0.77856  -0.75043  -0.74680  -0.69596
 Alpha  occ. eigenvalues --   -0.68023  -0.64463  -0.60025  -0.59444  -0.54685
 Alpha  occ. eigenvalues --   -0.50339  -0.48158
 Alpha virt. eigenvalues --    0.03000   0.04302   0.05214   0.05477   0.06820
 Alpha virt. eigenvalues --    0.08683   0.08999   0.10025   0.11821   0.12459
 Alpha virt. eigenvalues --    0.15096   0.17622   0.19358   0.19996   0.21277

 Mulliken charges:
               1
     1  F   -0.381525
     2  F   -0.359203
     3  B    0.852722
     4  P    1.852083
     5  O   -0.897861
     6  O   -0.708242
     7  H    0.155722
     8  O   -0.671732
     9  H    0.158036
 Sum of Mulliken charges =  -0.00000

 Dipole moment (field-independent basis, Debye):
    X=              1.2286    Y=             -0.3141    Z=             -2.1954  Tot=              2.5353

 Test job not archived.
 1\1\GINC-SE072\SP\RHF\Aug-CC-pVDZ\B1F2H2O3P1\OHZDE\09-Apr-2025\0\\#t h
 f aug-cc-pvdz iop(5/13=1,5/36=2,99/5=2) pseudo=read geom=check guess=(
 read,tcheck) scf=(maxcycle=1)\\title\\0,1\F,0,-1.880903,-1.172246,-0.0
 65955\F,0,-1.972232,1.091392,0.029648\B,0,-1.258422,-0.011489,-0.00278
 1\P,0,0.677277,0.006126,0.128824\O,0,1.190693,-0.269969,1.479065\O,0,1
 .21481,-1.02797,-0.989779\H,0,1.471603,-1.871963,-0.597332\O,0,1.01721
 9,1.414078,-0.545266\H,0,1.957794,1.636091,-0.546512\\Version=ES64L-G1
 6RevC.01\State=1-A\HF=-790.5279291\RMSD=5.703e-03\Dipole=0.483377,-0.1

 Normal termination of Gaussian 16 at Wed Apr  9 00:29:51 2025.
