 Gaussian 16, Revision C.01,

 ----------------------------------------------------------------------
 #t hf aug-cc-pvdz symm=none int=(grid=ultrafine) guess=(read,tcheck) s
 table=(opt,rrhf)
 ----------------------------------------------------------------------
 -----
 title
 -----
 Symbolic Z-matrix:
 Charge =  0 Multiplicity = 1

 SCF Done:  E(RHF) =  -1566.57853909     A.U. after   14 cycles
 Normal termination of Gaussian 16 at Tue Apr  8 23:06:47 2025.
 Gaussian 16:  ES64L-G16RevC.01  3-Jul-2019

 ----------------------------------------------------------------------
 #t hf aug-cc-pvdz iop(5/13=1,5/36=2,99/5=2) pseudo=read geom=check gue
 ss=(read,tcheck) scf=(maxcycle=1)
 ----------------------------------------------------------------------
 -----
 title
 -----
 Structure from the checkpoint file:  "BDE49_expt_619_mol1.chk"
 Charge =  0 Multiplicity = 1

                         Standard orientation:
 ---------------------------------------------------------------------
 Center     Atomic      Atomic             Coordinates (Angstroms)
 Number     Number       Type             X           Y           Z
 ---------------------------------------------------------------------
      1          6           0       -0.110705    0.009287    0.089546
      2          8           0        0.543338   -0.007389    1.301454
      3          8           0        1.967305    0.136924    1.094635
      4          1           0        2.246772   -0.791910    1.139082
      5         17           0       -1.822624   -0.134198    0.546527
      6         17           0        0.172657    1.520128   -0.830464
      7         17           0        0.375398   -1.403582   -0.942243
 ---------------------------------------------------------------------

 SCF Done:  E(RHF) =  -1566.69404251     A.U. after    2 cycles

 The electronic state is 1-A.
 Alpha  occ. eigenvalues -- -103.70225-103.69829-103.69487 -20.70744 -20.69051
 Alpha  occ. eigenvalues --  -11.51276 -10.73557 -10.73140 -10.72809  -8.39279
 Alpha  occ. eigenvalues --   -8.38924  -8.38919  -8.38851  -8.38529  -8.38524
 Alpha  occ. eigenvalues --   -8.38513  -8.38179  -8.38179  -1.50108  -1.30918
 Alpha  occ. eigenvalues --   -1.21328  -1.17023  -1.16575  -0.88149  -0.79008
 Alpha  occ. eigenvalues --   -0.73631  -0.72973  -0.66754  -0.61025  -0.57319
 Alpha  occ. eigenvalues --   -0.55219  -0.52278  -0.51746  -0.51200  -0.48630
 Alpha  occ. eigenvalues --   -0.48366  -0.47216
 Alpha virt. eigenvalues --    0.03623   0.06148   0.07890   0.08433   0.09443
 Alpha virt. eigenvalues --    0.11753   0.12606   0.13293   0.13545   0.14475
 Alpha virt. eigenvalues --    0.15324   0.16980   0.18569   0.18895   0.19039

 Mulliken charges:
               1
     1  C   -0.160750
     2  O   -0.288009
     3  O   -0.181265
     4  H    0.240278
     5  Cl   0.151541
     6  Cl   0.144396
     7  Cl   0.093810
 Sum of Mulliken charges =  -0.00000

 Dipole moment (field-independent basis, Debye):
    X=              0.8721    Y=             -1.4037    Z=              0.0220  Tot=              1.6527

 Test job not archived.
 1\1\GINC-SE069\SP\RHF\Aug-CC-pVDZ\C1H1Cl3O2\OHZDE\08-Apr-2025\0\\#t hf
  aug-cc-pvdz iop(5/13=1,5/36=2,99/5=2) pseudo=read geom=check guess=(r
 ead,tcheck) scf=(maxcycle=1)\\title\\0,1\C,0,-0.110705,0.009287,0.0895
 46\O,0,0.543338,-0.007389,1.301454\O,0,1.967305,0.136925,1.094635\H,0,
 2.246773,-0.791909,1.139082\Cl,0,-1.822624,-0.134199,0.546527\Cl,0,0.1
 72656,1.520128,-0.830464\Cl,0,0.375399,-1.403582,-0.942243\\Version=ES
 64L-G16RevC.01\State=1-A\HF=-1566.6940425\RMSD=2.735e-03\Dipole=0.3430
 934,-0.5522483,0.0086539\Quadrupole=1.9656463,0.0421818,-2.0078281,-2.

 Normal termination of Gaussian 16 at Tue Apr  8 23:06:50 2025.
