 Gaussian 16, Revision C.01,

 ----------------------------------------------------------------------
 #t hf aug-cc-pvdz symm=none int=(grid=ultrafine) guess=(read,tcheck) s
 table=(opt,rrhf)
 ----------------------------------------------------------------------
 -----
 title
 -----
 Symbolic Z-matrix:
 Charge =  0 Multiplicity = 1

 SCF Done:  E(RHF) =  -224.281321960     A.U. after   10 cycles
 Normal termination of Gaussian 16 at Wed Apr  9 00:35:47 2025.
 Gaussian 16:  ES64L-G16RevC.01  3-Jul-2019

 ----------------------------------------------------------------------
 #t hf aug-cc-pvdz iop(5/13=1,5/36=2,99/5=2) pseudo=read geom=check gue
 ss=(read,tcheck) scf=(maxcycle=1)
 ----------------------------------------------------------------------
 -----
 title
 -----
 Structure from the checkpoint file:  "BDE49_nonexpt_548_mol1.chk"
 Charge =  0 Multiplicity = 1

                         Standard orientation:
 ---------------------------------------------------------------------
 Center     Atomic      Atomic             Coordinates (Angstroms)
 Number     Number       Type             X           Y           Z
 ---------------------------------------------------------------------
      1          5           0       -0.000001    0.460397    0.000000
      2          9           0       -0.000001   -0.219297    1.130428
      3          1           0        0.000022    1.645361    0.000000
      4          9           0       -0.000001   -0.219297   -1.130428
 ---------------------------------------------------------------------

 SCF Done:  E(RHF) =  -224.376715262     A.U. after    2 cycles

 The electronic state is 1-A'.
 Alpha  occ. eigenvalues --  -26.14812 -26.14805  -7.75224  -1.70200  -1.68000
 Alpha  occ. eigenvalues --   -0.88851  -0.83003  -0.80001  -0.77688  -0.72986
 Alpha  occ. eigenvalues --   -0.72513  -0.57873
 Alpha virt. eigenvalues --    0.04790   0.05143   0.05541   0.05906   0.10405
 Alpha virt. eigenvalues --    0.13790   0.20749   0.22302   0.25246   0.26244
 Alpha virt. eigenvalues --    0.27822   0.27843   0.28700   0.31500   0.32667

 Mulliken charges:
               1
     1  B    0.735737
     2  F   -0.429222
     3  H    0.122707
     4  F   -0.429222
 Sum of Mulliken charges =  -0.00000

 Dipole moment (field-independent basis, Debye):
    X=             -0.0000    Y=              1.3589    Z=             -0.0000  Tot=              1.3589

 Test job not archived.
 1\1\GINC-SE253\SP\RHF\Aug-CC-pVDZ\B1F2H1\OHZDE\09-Apr-2025\0\\#t hf au
 g-cc-pvdz iop(5/13=1,5/36=2,99/5=2) pseudo=read geom=check guess=(read
 ,tcheck) scf=(maxcycle=1)\\title\\0,1\B,0,0.,0.460397,0.000007\F,0,1.1
 30428,-0.219297,-0.000002\H,0,0.,1.645361,0.\F,0,-1.130428,-0.219297,-
 0.000002\\Version=ES64L-G16RevC.01\State=1-A'\HF=-224.3767153\RMSD=8.2
 64e-03\Dipole=0.,0.5346205,0.0000155\Quadrupole=-2.0977504,0.5052062,1
 .5925442,0.,0.,0.0000019\PG=CS [SG(B1H1),X(F2)]\\@

 Normal termination of Gaussian 16 at Wed Apr  9 00:35:49 2025.
