 Gaussian 16, Revision C.01,

 ----------------------------------------------------------------------
 #t hf aug-cc-pvdz symm=none int=(grid=ultrafine) guess=(read,tcheck) s
 table=opt
 ----------------------------------------------------------------------
 -----
 title
 -----
 Symbolic Z-matrix:
 Charge =  0 Multiplicity = 2

 SCF Done:  E(UHF) =  -617.903940948     A.U. after   16 cycles
 Normal termination of Gaussian 16 at Tue Apr  8 23:40:21 2025.
 Gaussian 16:  ES64L-G16RevC.01  3-Jul-2019

 ----------------------------------------------------------------------
 #t hf aug-cc-pvdz iop(5/13=1,5/36=2,99/5=2) pseudo=read geom=check gue
 ss=(read,tcheck) scf=(maxcycle=1)
 ----------------------------------------------------------------------
 -----
 title
 -----
 Structure from the checkpoint file:  "BDE49_nonexpt_165_mol2.chk"
 Charge =  0 Multiplicity = 2

                         Standard orientation:
 ---------------------------------------------------------------------
 Center     Atomic      Atomic             Coordinates (Angstroms)
 Number     Number       Type             X           Y           Z
 ---------------------------------------------------------------------
      1         17           0        1.966888   -0.075900   -0.000008
      2          7           0       -0.852352   -0.085261    0.000003
      3          5           0        0.339815   -0.778998   -0.000002
      4          6           0       -2.131394   -0.795995    0.000008
      5          1           0       -2.717286   -0.533454    0.888047
      6          1           0       -1.952671   -1.870352    0.000007
      7          1           0       -2.717293   -0.533454   -0.888026
      8          6           0       -0.986321    1.374030    0.000004
      9          1           0       -0.003436    1.840336   -0.000003
     10          1           0       -1.536355    1.705418    0.887495
     11          1           0       -1.536368    1.705418   -0.887478
 ---------------------------------------------------------------------

 SCF Done:  E(UHF) =  -617.973256042     A.U. after    2 cycles

 The electronic state is 2-A.
 Alpha  occ. eigenvalues -- -103.64801 -15.64244 -11.27859 -11.27709 -10.68260
 Alpha  occ. eigenvalues --   -8.34036  -8.33735  -8.33699  -7.67571  -1.20109
 Alpha  occ. eigenvalues --   -1.13874  -0.97235  -0.89242  -0.70603  -0.64250
 Alpha  occ. eigenvalues --   -0.63697  -0.60687  -0.56424  -0.54734  -0.53765
 Alpha  occ. eigenvalues --   -0.48950  -0.48640  -0.38591  -0.33900
 Alpha virt. eigenvalues --    0.03119   0.04336   0.04478   0.05655   0.07383
 Alpha virt. eigenvalues --    0.07427   0.07544   0.07869   0.09254   0.09705
 Alpha virt. eigenvalues --    0.13124   0.13747   0.14330   0.14971   0.15974

  Beta  occ. eigenvalues -- -103.64699 -15.64457 -11.27783 -11.27589 -10.68140
  Beta  occ. eigenvalues --   -8.33819  -8.33648  -8.33516  -7.65396  -1.20020
  Beta  occ. eigenvalues --   -1.13000  -0.96920  -0.88509  -0.69553  -0.64638
  Beta  occ. eigenvalues --   -0.63081  -0.58184  -0.56425  -0.54102  -0.53519
  Beta  occ. eigenvalues --   -0.48532  -0.46857  -0.39565
  Beta virt. eigenvalues --    0.02986   0.04349   0.04452   0.05028   0.07438
  Beta virt. eigenvalues --    0.07452   0.07612   0.07917   0.08285   0.09505
  Beta virt. eigenvalues --    0.12923   0.13794   0.14460   0.14725   0.15923

 Mulliken charges and spin densities:
               1          2
     1  Cl  -0.347917   0.019736
     2  N   -0.231695  -0.162885
     3  B   -0.034148   1.105676
     4  C    0.712778   0.064612
     5  H   -0.081880  -0.000112
     6  H   -0.276025  -0.016937
     7  H   -0.081881  -0.000112
     8  C    0.760779   0.003469
     9  H   -0.268389  -0.003424
    10  H   -0.075809  -0.005011
    11  H   -0.075811  -0.005011
 Sum of Mulliken charges =  -0.00000   1.00000

 Dipole moment (field-independent basis, Debye):
    X=             -3.0398    Y=              0.8432    Z=              0.0000  Tot=              3.1546
                          Isotropic Fermi Contact Couplings
        Atom                 a.u.       MegaHertz       Gauss      10(-4) cm-1
     1  Cl(35)             0.10852      47.57983      16.97767      15.87092
     2  N(14)              0.01440       4.65114       1.65964       1.55145
     3  B(11)              0.41053     588.85093     210.11666     196.41953
     4  C(13)              0.01962      22.06005       7.87157       7.35844
     5  H(1)              -0.00076      -3.39975      -1.21312      -1.13404
     6  H(1)              -0.00054      -2.40143      -0.85689      -0.80103
     7  H(1)              -0.00076      -3.39975      -1.21311      -1.13403
     8  C(13)              0.02292      25.76476       9.19351       8.59420

 1\1\GINC-SE080\SP\UHF\Aug-CC-pVDZ\C2H6B1Cl1N1(2)\OHZDE\08-Apr-2025\0\\
 #t hf aug-cc-pvdz iop(5/13=1,5/36=2,99/5=2) pseudo=read geom=check gue
 ss=(read,tcheck) scf=(maxcycle=1)\\title\\0,2\Cl,0,1.966888,-0.0759,-0
 .000008\N,0,-0.852352,-0.085261,0.000003\B,0,0.339815,-0.778998,-0.000
 002\C,0,-2.131394,-0.795995,0.000008\H,0,-2.717286,-0.533454,0.888047\
 H,0,-1.952671,-1.870352,0.000007\H,0,-2.717293,-0.533454,-0.888026\C,0
 ,-0.986321,1.37403,0.000004\H,0,-0.003436,1.840336,-0.000003\H,0,-1.53
 6355,1.705418,0.887495\H,0,-1.536368,1.705418,-0.887478\\Version=ES64L

 Normal termination of Gaussian 16 at Tue Apr  8 23:40:25 2025.
