 Gaussian 16, Revision C.01,

 ----------------------------------------------------------------------
 #t hf aug-cc-pvdz symm=none int=(grid=ultrafine) guess=(read,tcheck) s
 table=(opt,rrhf)
 ----------------------------------------------------------------------
 -----
 title
 -----
 Symbolic Z-matrix:
 Charge =  0 Multiplicity = 1

 SCF Done:  E(RHF) =  -1448.98856476     A.U. after   14 cycles
 Normal termination of Gaussian 16 at Wed Apr  9 00:49:15 2025.
 Gaussian 16:  ES64L-G16RevC.01  3-Jul-2019

 ----------------------------------------------------------------------
 #t hf aug-cc-pvdz iop(5/13=1,5/36=2,99/5=2) pseudo=read geom=check gue
 ss=(read,tcheck) scf=(maxcycle=1)
 ----------------------------------------------------------------------
 -----
 title
 -----
 Structure from the checkpoint file:  "BDE49_nonexpt_905_mol1.chk"
 Charge =  0 Multiplicity = 1

                         Standard orientation:
 ---------------------------------------------------------------------
 Center     Atomic      Atomic             Coordinates (Angstroms)
 Number     Number       Type             X           Y           Z
 ---------------------------------------------------------------------
      1          6           0       -2.614334   -0.540838   -0.000165
      2          6           0       -1.272231    0.185976   -0.000174
      3         16           0        0.136012   -0.975388   -0.000320
      4          8           0       -1.180751    1.386328   -0.000031
      5          5           0        1.721881   -0.037951   -0.000045
      6         16           0        1.970548    1.746282    0.000284
      7          6           0       -3.389607   -0.164878   -1.274841
      8          1           0       -3.558366    0.913196   -1.313201
      9          1           0       -4.358717   -0.669400   -1.282283
     10          1           0       -2.846520   -0.459754   -2.176077
     11          6           0       -3.388797   -0.166128    1.275377
     12          1           0       -2.423546   -1.617655   -0.000743
     13          1           0       -3.557518    0.911912    1.314909
     14          1           0       -2.845160   -0.461909    2.175985
     15          1           0       -4.357919   -0.670628    1.282931
     16         16           0        3.235428   -1.054490   -0.000095
     17          1           0        2.642268   -2.261602   -0.000330
     18          1           0        0.660082    2.067712    0.000202
 ---------------------------------------------------------------------

 SCF Done:  E(RHF) =  -1449.12144719     A.U. after    2 cycles

 The electronic state is 1-A.
 Alpha  occ. eigenvalues --  -93.55992 -93.54686 -93.53526 -20.59877 -11.39794
 Alpha  occ. eigenvalues --  -11.27649 -11.24879 -11.24872  -8.86013  -8.84631
 Alpha  occ. eigenvalues --   -8.83560  -7.70571  -6.20186  -6.19897  -6.19683
 Alpha  occ. eigenvalues --   -6.18815  -6.18568  -6.18307  -6.17732  -6.17525
 Alpha  occ. eigenvalues --   -6.17268  -1.39655  -1.10031  -1.02790  -0.97941
 Alpha  occ. eigenvalues --   -0.95186  -0.95161  -0.87127  -0.75948  -0.70374
 Alpha  occ. eigenvalues --   -0.67911  -0.63783  -0.62095  -0.61488  -0.58120
 Alpha  occ. eigenvalues --   -0.56984  -0.55014  -0.53203  -0.52386  -0.50606
 Alpha  occ. eigenvalues --   -0.50553  -0.48193  -0.45360  -0.43563  -0.41635
 Alpha  occ. eigenvalues --   -0.38592  -0.36752
 Alpha virt. eigenvalues --    0.02955   0.04255   0.04454   0.04747   0.05853
 Alpha virt. eigenvalues --    0.06458   0.06488   0.06648   0.07318   0.07681
 Alpha virt. eigenvalues --    0.08125   0.08751   0.09444   0.09831   0.11649

 Mulliken charges:
               1
     1  C   -0.761061
     2  C   -0.101523
     3  S    0.053572
     4  O   -0.566215
     5  B    0.697446
     6  S   -0.177092
     7  C    0.691809
     8  H    0.016379
     9  H   -0.072631
    10  H   -0.073079
    11  C    0.691721
    12  H   -0.079475
    13  H    0.016420
    14  H   -0.073077
    15  H   -0.072701
    16  S   -0.276045
    17  H   -0.000228
    18  H    0.085780
 Sum of Mulliken charges =  -0.00000

 Dipole moment (field-independent basis, Debye):
    X=             -3.1952    Y=             -2.4152    Z=             -0.0001  Tot=              4.0053

 Test job not archived.
 1\1\GINC-SE435\SP\RHF\Aug-CC-pVDZ\C4H9B1O1S3\OHZDE\09-Apr-2025\0\\#t h
 f aug-cc-pvdz iop(5/13=1,5/36=2,99/5=2) pseudo=read geom=check guess=(
 read,tcheck) scf=(maxcycle=1)\\title\\0,1\C,0,-2.614334,-0.540838,-0.0
 00165\C,0,-1.272231,0.185976,-0.000174\S,0,0.136012,-0.975388,-0.00032
 \O,0,-1.180751,1.386328,-0.000031\B,0,1.721881,-0.037951,-0.000045\S,0
 ,1.970548,1.746282,0.000284\C,0,-3.389607,-0.164878,-1.274841\H,0,-3.5
 58366,0.913196,-1.313201\H,0,-4.358717,-0.6694,-1.282283\H,0,-2.84652,
 -0.459754,-2.176077\C,0,-3.388797,-0.166128,1.275377\H,0,-2.423546,-1.

 Normal termination of Gaussian 16 at Wed Apr  9 00:49:24 2025.
