 Gaussian 16, Revision C.01,

 ----------------------------------------------------------------------
 #t hf aug-cc-pvdz symm=none int=(grid=ultrafine) guess=(read,tcheck) s
 table=opt
 ----------------------------------------------------------------------
 -----
 title
 -----
 Symbolic Z-matrix:
 Charge =  0 Multiplicity = 2

 SCF Done:  E(UHF) =  -621.366343402     A.U. after   19 cycles
 Normal termination of Gaussian 16 at Tue Apr  8 23:40:20 2025.
 Gaussian 16:  ES64L-G16RevC.01  3-Jul-2019

 ----------------------------------------------------------------------
 #t hf aug-cc-pvdz iop(5/13=1,5/36=2,99/5=2) pseudo=read geom=check gue
 ss=(read,tcheck) scf=(maxcycle=1)
 ----------------------------------------------------------------------
 -----
 title
 -----
 Structure from the checkpoint file:  "BDE49_nonexpt_1646_mol2.chk"
 Charge =  0 Multiplicity = 2

                         Standard orientation:
 ---------------------------------------------------------------------
 Center     Atomic      Atomic             Coordinates (Angstroms)
 Number     Number       Type             X           Y           Z
 ---------------------------------------------------------------------
      1          7           0        0.954173   -0.000000    0.434948
      2          9           0        1.687162   -1.111245   -0.044244
      3          9           0        1.687162    1.111245   -0.044244
      4         14           0       -0.664017    0.000000   -0.440263
      5          6           0       -1.484824    1.573374    0.175162
      6          1           0       -1.517706    1.580914    1.269953
      7          1           0       -2.508511    1.634687   -0.203536
      8          1           0       -0.940787    2.458391   -0.159671
      9          6           0       -1.484824   -1.573374    0.175162
     10          1           0       -1.517706   -1.580914    1.269953
     11          1           0       -0.940788   -2.458391   -0.159671
     12          1           0       -2.508511   -1.634687   -0.203536
 ---------------------------------------------------------------------

 SCF Done:  E(UHF) =  -621.502414768     A.U. after    2 cycles

 The electronic state is 2-A.
 Alpha  occ. eigenvalues --  -69.10995 -26.15046 -26.15042 -15.79536 -11.24093
 Alpha  occ. eigenvalues --  -11.24088  -6.86129  -3.97370  -3.96637  -3.96485
 Alpha  occ. eigenvalues --   -1.69222  -1.64092  -1.08603  -0.97605  -0.94947
 Alpha  occ. eigenvalues --   -0.81105  -0.78792  -0.78369  -0.73043  -0.68830
 Alpha  occ. eigenvalues --   -0.67116  -0.60370  -0.59085  -0.57400  -0.57183
 Alpha  occ. eigenvalues --   -0.55667  -0.47446  -0.46956  -0.34386
 Alpha virt. eigenvalues --    0.02873   0.04319   0.04646   0.05502   0.07082
 Alpha virt. eigenvalues --    0.07281   0.07456   0.08178   0.09518   0.11375
 Alpha virt. eigenvalues --    0.14267   0.14629   0.15460   0.15810   0.15966

  Beta  occ. eigenvalues --  -69.10432 -26.15036 -26.15032 -15.79367 -11.23935
  Beta  occ. eigenvalues --  -11.23930  -6.85255  -3.96278  -3.96132  -3.95249
  Beta  occ. eigenvalues --   -1.69127  -1.64039  -1.08200  -0.96768  -0.94418
  Beta  occ. eigenvalues --   -0.80434  -0.78718  -0.78314  -0.73056  -0.68803
  Beta  occ. eigenvalues --   -0.65916  -0.59064  -0.58107  -0.57134  -0.56680
  Beta  occ. eigenvalues --   -0.54190  -0.46177  -0.45401
  Beta virt. eigenvalues --    0.01749   0.04298   0.04404   0.05010   0.06272
  Beta virt. eigenvalues --    0.07098   0.07312   0.07889   0.08552   0.09719
  Beta virt. eigenvalues --    0.12003   0.14398   0.15080   0.15552   0.16618

 Mulliken charges and spin densities:
               1          2
     1  N    0.032016   0.019892
     2  F   -0.388953  -0.001493
     3  F   -0.388953  -0.001493
     4  Si   1.419699   0.872915
     5  C    0.233913   0.060076
     6  H   -0.169797   0.011914
     7  H   -0.215511  -0.007152
     8  H   -0.185510  -0.009749
     9  C    0.233914   0.060076
    10  H   -0.169797   0.011914
    11  H   -0.185512  -0.009749
    12  H   -0.215511  -0.007152
 Sum of Mulliken charges =  -0.00000   1.00000

 Dipole moment (field-independent basis, Debye):
    X=             -4.0129    Y=             -0.0000    Z=             -0.1329  Tot=              4.0151
                          Isotropic Fermi Contact Couplings
        Atom                 a.u.       MegaHertz       Gauss      10(-4) cm-1
     1  N(14)              0.02446       7.90236       2.81976       2.63594
     2  F(19)              0.00821      34.53720      12.32373      11.52037
     3  F(19)              0.00821      34.53721      12.32373      11.52037
     4  Si(29)             0.61865    -549.80848    -196.18534    -183.39637
     5  C(13)              0.03410      38.34043      13.68082      12.78899
     6  H(1)               0.00791      35.34876      12.61332      11.79108
     7  H(1)              -0.00109      -4.85713      -1.73314      -1.62016
     8  H(1)              -0.00031      -1.37755      -0.49154      -0.45950

 1\1\GINC-SE179\SP\UHF\Aug-CC-pVDZ\C2H6F2N1Si1(2)\OHZDE\08-Apr-2025\0\\
 #t hf aug-cc-pvdz iop(5/13=1,5/36=2,99/5=2) pseudo=read geom=check gue
 ss=(read,tcheck) scf=(maxcycle=1)\\title\\0,2\N,0,-0.954173,0.,0.43494
 8\F,0,-1.687162,1.111245,-0.044244\F,0,-1.687162,-1.111245,-0.044244\S
 i,0,0.664017,0.,-0.440263\C,0,1.484824,-1.573374,0.175162\H,0,1.517706
 ,-1.580914,1.269953\H,0,2.508511,-1.634687,-0.203536\H,0,0.940787,-2.4
 58391,-0.159671\C,0,1.484824,1.573374,0.175162\H,0,1.517706,1.580914,1
 .269953\H,0,0.940788,2.458391,-0.159671\H,0,2.508511,1.634687,-0.20353

 Normal termination of Gaussian 16 at Tue Apr  8 23:40:25 2025.
