 Gaussian 16, Revision C.01,

 ----------------------------------------------------------------------
 #t hf aug-cc-pvdz symm=none int=(grid=ultrafine) guess=(read,tcheck) s
 table=(opt,rrhf)
 ----------------------------------------------------------------------
 -----
 title
 -----
 Symbolic Z-matrix:
 Charge =  0 Multiplicity = 1

 SCF Done:  E(RHF) =  -445.818259628     A.U. after   13 cycles
 Normal termination of Gaussian 16 at Wed Apr  9 00:41:23 2025.
 Gaussian 16:  ES64L-G16RevC.01  3-Jul-2019

 ----------------------------------------------------------------------
 #t hf aug-cc-pvdz iop(5/13=1,5/36=2,99/5=2) pseudo=read geom=check gue
 ss=(read,tcheck) scf=(maxcycle=1)
 ----------------------------------------------------------------------
 -----
 title
 -----
 Structure from the checkpoint file:  "BDE49_nonexpt_726_mol1.chk"
 Charge =  0 Multiplicity = 1

                         Standard orientation:
 ---------------------------------------------------------------------
 Center     Atomic      Atomic             Coordinates (Angstroms)
 Number     Number       Type             X           Y           Z
 ---------------------------------------------------------------------
      1          6           0       -1.360913    0.666686    0.000786
      2          5           0        0.169424    0.989721    0.048201
      3         15           0        1.570536   -0.274863   -0.114859
      4          6           0       -1.832574   -0.793382    0.004339
      5          1           0       -1.759213    1.192881   -0.881956
      6          1           0       -1.817295    1.217880    0.838340
      7          1           0       -1.431401   -1.345143   -0.851143
      8          1           0       -2.922606   -0.865069   -0.043869
      9          1           0       -1.510383   -1.315203    0.909906
     10          1           0        0.512247    2.134832    0.038453
     11          1           0        1.141643   -1.352982    0.689409
     12          1           0        2.542774    0.267317    0.751981
 ---------------------------------------------------------------------

 SCF Done:  E(RHF) =  -445.871603377     A.U. after    2 cycles

 The electronic state is 1-A.
 Alpha  occ. eigenvalues --  -81.23782 -11.22873 -11.21961  -7.74512  -7.62137
 Alpha  occ. eigenvalues --   -4.88567  -4.88493  -4.88218  -1.01800  -0.85776
 Alpha  occ. eigenvalues --   -0.79920  -0.63577  -0.60440  -0.58945  -0.52683
 Alpha  occ. eigenvalues --   -0.51646  -0.49476  -0.45770  -0.43992  -0.34434
 Alpha virt. eigenvalues --    0.03168   0.04710   0.04819   0.05121   0.06573
 Alpha virt. eigenvalues --    0.06853   0.06930   0.07929   0.08189   0.09133
 Alpha virt. eigenvalues --    0.10307   0.11663   0.12344   0.13718   0.13917

 Mulliken charges:
               1
     1  C    0.264680
     2  B   -0.031629
     3  P   -0.477761
     4  C    0.240508
     5  H   -0.145727
     6  H   -0.157126
     7  H   -0.096289
     8  H   -0.087001
     9  H   -0.113440
    10  H    0.283056
    11  H    0.175411
    12  H    0.145318
 Sum of Mulliken charges =  -0.00000

 Dipole moment (field-independent basis, Debye):
    X=             -0.8233    Y=              0.1508    Z=              0.6613  Tot=              1.0667

 Test job not archived.
 1\1\GINC-SE222\SP\RHF\Aug-CC-pVDZ\C2H8B1P1\OHZDE\09-Apr-2025\0\\#t hf
 aug-cc-pvdz iop(5/13=1,5/36=2,99/5=2) pseudo=read geom=check guess=(re
 ad,tcheck) scf=(maxcycle=1)\\title\\0,1\C,0,-1.360913,0.666686,0.00078
 6\B,0,0.169424,0.989721,0.048201\P,0,1.570536,-0.274863,-0.114859\C,0,
 -1.832574,-0.793382,0.004339\H,0,-1.759213,1.192881,-0.881956\H,0,-1.8
 17295,1.21788,0.83834\H,0,-1.431401,-1.345143,-0.851143\H,0,-2.922606,
 -0.865069,-0.043869\H,0,-1.510383,-1.315203,0.909906\H,0,0.512247,2.13
 4832,0.038453\H,0,1.141643,-1.352982,0.689409\H,0,2.542774,0.267317,0.

 Normal termination of Gaussian 16 at Wed Apr  9 00:41:27 2025.
