 Gaussian 16, Revision C.01,

 ----------------------------------------------------------------------
 #t hf aug-cc-pvdz symm=none int=(grid=ultrafine) guess=(read,tcheck) s
 table=opt
 ----------------------------------------------------------------------
 -----
 title
 -----
 Symbolic Z-matrix:
 Charge =  0 Multiplicity = 2

 SCF Done:  E(UHF) =  -324.498541782     A.U. after   20 cycles
 Normal termination of Gaussian 16 at Tue Apr  8 23:02:42 2025.
 Gaussian 16:  ES64L-G16RevC.01  3-Jul-2019

 ----------------------------------------------------------------------
 #t hf aug-cc-pvdz iop(5/13=1,5/36=2,99/5=2) pseudo=read geom=check gue
 ss=(read,tcheck) scf=(maxcycle=1)
 ----------------------------------------------------------------------
 -----
 title
 -----
 Structure from the checkpoint file:  "BDE49_expt_357_mol2.chk"
 Charge =  0 Multiplicity = 2

                         Standard orientation:
 ---------------------------------------------------------------------
 Center     Atomic      Atomic             Coordinates (Angstroms)
 Number     Number       Type             X           Y           Z
 ---------------------------------------------------------------------
      1          7           0       -0.074459   -0.568157   -0.006862
      2          6           0        1.225292   -0.069196   -0.142888
      3          6           0       -1.284376    0.099632   -0.029848
      4          8           0       -1.396335    1.308502   -0.143655
      5          6           0       -2.503227   -0.801955    0.098027
      6          1           0       -2.270621   -1.862397    0.219542
      7          1           0       -3.125664   -0.675101   -0.790867
      8          1           0       -3.092157   -0.470063    0.955692
      9          6           0        2.306474   -1.097128   -0.032683
     10          1           0        2.551689   -1.340361    1.015982
     11          1           0        3.227518   -0.737136   -0.497156
     12          1           0        2.033749   -2.036179   -0.527297
     13          6           0        1.530822    1.366402    0.132138
     14          1           0        2.514364    1.616562   -0.274167
     15          1           0        1.566648    1.571117    1.216248
     16          1           0        0.779128    2.030845   -0.287744
     17          1           0       -0.142674   -1.574737    0.018563
 ---------------------------------------------------------------------

 SCF Done:  E(UHF) =  -324.601316486     A.U. after    2 cycles

 The electronic state is 2-A.
 Alpha  occ. eigenvalues --  -20.53513 -15.66285 -11.36739 -11.27440 -11.25030
 Alpha  occ. eigenvalues --  -11.24078 -11.21908  -1.34828  -1.21879  -1.05875
 Alpha  occ. eigenvalues --   -0.98501  -0.94401  -0.84135  -0.76527  -0.69230
 Alpha  occ. eigenvalues --   -0.65627  -0.64401  -0.60599  -0.60238  -0.57679
 Alpha  occ. eigenvalues --   -0.55737  -0.54619  -0.53907  -0.53052  -0.51357
 Alpha  occ. eigenvalues --   -0.46322  -0.43402  -0.28382
 Alpha virt. eigenvalues --    0.02661   0.03857   0.04646   0.04834   0.06343
 Alpha virt. eigenvalues --    0.06619   0.06981   0.07763   0.08729   0.09067
 Alpha virt. eigenvalues --    0.10526   0.12551   0.13147   0.13680   0.14379

  Beta  occ. eigenvalues --  -20.53127 -15.66411 -11.36749 -11.25049 -11.24902
  Beta  occ. eigenvalues --  -11.24387 -11.22203  -1.34094  -1.20520  -1.03455
  Beta  occ. eigenvalues --   -0.98252  -0.94313  -0.82755  -0.75256  -0.68777
  Beta  occ. eigenvalues --   -0.63929  -0.61884  -0.59922  -0.57722  -0.57466
  Beta  occ. eigenvalues --   -0.55175  -0.53590  -0.53444  -0.51951  -0.50646
  Beta  occ. eigenvalues --   -0.43038  -0.42644
  Beta virt. eigenvalues --    0.02657   0.03862   0.04618   0.04853   0.06348
  Beta virt. eigenvalues --    0.06534   0.06963   0.07779   0.08740   0.09046
  Beta virt. eigenvalues --    0.10322   0.12429   0.12988   0.13167   0.13718

 Mulliken charges and spin densities:
               1          2
     1  N   -0.430281  -0.052885
     2  C   -0.144062   1.302421
     3  C    0.133695   0.001418
     4  O   -0.536397   0.085144
     5  C    0.439196  -0.010826
     6  H   -0.181465   0.001183
     7  H    0.034151   0.002876
     8  H    0.034909   0.001763
     9  C    0.448310  -0.238291
    10  H    0.048684   0.053427
    11  H   -0.064092   0.004378
    12  H   -0.141139   0.003282
    13  C    0.466681  -0.234969
    14  H   -0.055421   0.004361
    15  H    0.049340   0.057535
    16  H   -0.057569   0.006845
    17  H   -0.044540   0.012338
 Sum of Mulliken charges =   0.00000   1.00000

 Dipole moment (field-independent basis, Debye):
    X=              0.8837    Y=             -4.0712    Z=              0.4408  Tot=              4.1893
                          Isotropic Fermi Contact Couplings
        Atom                 a.u.       MegaHertz       Gauss      10(-4) cm-1
     1  N(14)             -0.04057     -13.10685      -4.67685      -4.37197
     2  C(13)              0.26066     293.03369     104.56171      97.74552
     3  C(13)             -0.00159      -1.78840      -0.63814      -0.59654
     4  O(17)              0.03455     -20.94346      -7.47315      -6.98599
     5  C(13)             -0.00381      -4.28259      -1.52813      -1.42852
     6  H(1)              -0.00001      -0.06465      -0.02307      -0.02156
     7  H(1)               0.00114       5.07881       1.81225       1.69411
     8  H(1)               0.00075       3.37335       1.20369       1.12523

 Normal termination of Gaussian 16 at Tue Apr  8 23:02:48 2025.
