 Gaussian 16, Revision C.01,

 ----------------------------------------------------------------------
 #t hf aug-cc-pvdz symm=none int=(grid=ultrafine) guess=(read,tcheck) s
 table=(opt,rrhf)
 ----------------------------------------------------------------------
 -----
 title
 -----
 Symbolic Z-matrix:
 Charge =  0 Multiplicity = 1

 SCF Done:  E(RHF) =  -833.163402480     A.U. after   13 cycles
 Normal termination of Gaussian 16 at Wed Apr  9 00:22:40 2025.
 Gaussian 16:  ES64L-G16RevC.01  3-Jul-2019

 ----------------------------------------------------------------------
 #t hf aug-cc-pvdz iop(5/13=1,5/36=2,99/5=2) pseudo=read geom=check gue
 ss=(read,tcheck) scf=(maxcycle=1)
 ----------------------------------------------------------------------
 -----
 title
 -----
 Structure from the checkpoint file:  "BDE49_nonexpt_2709_mol1.chk"
 Charge =  0 Multiplicity = 1

                         Standard orientation:
 ---------------------------------------------------------------------
 Center     Atomic      Atomic             Coordinates (Angstroms)
 Number     Number       Type             X           Y           Z
 ---------------------------------------------------------------------
      1          9           0       -1.564451   -1.258469    0.000000
      2          9           0        1.086844    1.436839    0.000000
      3          9           0        1.086844   -0.461951    1.077763
      4          9           0        1.086844   -0.461951   -1.077763
      5          6           0        0.621662    0.173985    0.000000
      6         16           0       -1.187168    0.354117    0.000000
 ---------------------------------------------------------------------

 SCF Done:  E(RHF) =  -833.346771157     A.U. after    2 cycles

 The electronic state is 1-A'.
 Alpha  occ. eigenvalues --  -93.67086 -26.20397 -26.19609 -26.19598 -26.16925
 Alpha  occ. eigenvalues --  -11.58006  -8.96012  -6.30169  -6.29823  -6.29336
 Alpha  occ. eigenvalues --   -1.79595  -1.72789  -1.72226  -1.68113  -1.10538
 Alpha  occ. eigenvalues --   -0.99888  -0.91605  -0.91295  -0.87047  -0.80623
 Alpha  occ. eigenvalues --   -0.80223  -0.77204  -0.77115  -0.75841  -0.75814
 Alpha  occ. eigenvalues --   -0.74752  -0.71319  -0.55705  -0.43731
 Alpha virt. eigenvalues --    0.03516   0.06488   0.08338   0.09912   0.10959
 Alpha virt. eigenvalues --    0.11148   0.12118   0.13736   0.19357   0.21849
 Alpha virt. eigenvalues --    0.22566   0.23643   0.27112   0.27426   0.29170

 Mulliken charges:
               1
     1  F   -0.590002
     2  F   -0.258772
     3  F   -0.261246
     4  F   -0.261246
     5  C    0.550657
     6  S    0.820609
 Sum of Mulliken charges =  -0.00000

 Dipole moment (field-independent basis, Debye):
    X=             -0.8030    Y=              1.5721    Z=             -0.0000  Tot=              1.7653

 Test job not archived.
 1\1\GINC-SE187\SP\RHF\Aug-CC-pVDZ\C1F4S1\OHZDE\09-Apr-2025\0\\#t hf au
 g-cc-pvdz iop(5/13=1,5/36=2,99/5=2) pseudo=read geom=check guess=(read
 ,tcheck) scf=(maxcycle=1)\\title\\0,1\F,0,-1.564451,-1.258469,0.\F,0,1
 .086844,1.436839,0.\F,0,1.086844,-0.461951,1.077763\F,0,1.086844,-0.46
 1951,-1.077763\C,0,0.621662,0.173985,0.\S,0,-1.187168,0.354117,0.\\Ver
 sion=ES64L-G16RevC.01\State=1-A'\HF=-833.3467712\RMSD=5.901e-03\Dipole
 =-0.3159254,0.6185188,0.\Quadrupole=0.7177828,-0.3343975,-0.3833853,-1
 .7875489,0.,0.\PG=CS [SG(C1F2S1),X(F2)]\\@

 Normal termination of Gaussian 16 at Wed Apr  9 00:22:42 2025.
