 Gaussian 16, Revision C.01,

 ----------------------------------------------------------------------
 #t hf aug-cc-pvdz symm=none int=(grid=ultrafine) guess=(read,tcheck) s
 table=(opt,rrhf)
 ----------------------------------------------------------------------
 -----
 title
 -----
 Symbolic Z-matrix:
 Charge =  0 Multiplicity = 1

 SCF Done:  E(RHF) =  -1045.73682243     A.U. after   17 cycles
 Normal termination of Gaussian 16 at Tue Apr  8 23:26:35 2025.
 Gaussian 16:  ES64L-G16RevC.01  3-Jul-2019

 ----------------------------------------------------------------------
 #t hf aug-cc-pvdz iop(5/13=1,5/36=2,99/5=2) pseudo=read geom=check gue
 ss=(read,tcheck) scf=(maxcycle=1)
 ----------------------------------------------------------------------
 -----
 title
 -----
 Structure from the checkpoint file:  "BDE49_nonexpt_1201_mol1.chk"
 Charge =  0 Multiplicity = 1

                         Standard orientation:
 ---------------------------------------------------------------------
 Center     Atomic      Atomic             Coordinates (Angstroms)
 Number     Number       Type             X           Y           Z
 ---------------------------------------------------------------------
      1          6           0        0.537911    0.161389   -0.259182
      2          8           0       -0.177055    1.129804   -0.234783
      3         16           0       -0.139453   -1.488888   -0.599978
      4          8           0       -1.766281   -1.068820   -0.752621
      5          6           0       -2.506246   -0.849104    0.407691
      6          8           0       -2.064296   -0.983433    1.507935
      7          6           0        2.014450    0.189547   -0.072950
      8          6           0        2.672124    1.412382   -0.254994
      9          6           0        4.050359    1.489794   -0.101322
     10          6           0        4.779832    0.351801    0.244674
     11          6           0        4.128012   -0.864251    0.440914
     12          6           0        2.748059   -0.947445    0.285286
     13          1           0        2.243922   -1.888788    0.473086
     14          1           0        2.086344    2.284430   -0.517648
     15          1           0        4.557680    2.436214   -0.248335
     16          1           0        5.855070    0.414536    0.367894
     17          1           0        4.692092   -1.744515    0.725766
     18          6           0       -3.900287   -0.413979    0.022477
     19          6           0       -3.946086    1.034351   -0.511414
     20          1           0       -4.518923   -0.513537    0.916632
     21          1           0       -4.275954   -1.097467   -0.743364
     22          6           0       -3.539641    2.085950    0.523723
     23          1           0       -4.968660    1.223746   -0.853397
     24          1           0       -3.299220    1.105995   -1.389459
     25          1           0       -4.165644    2.023596    1.419279
     26          1           0       -3.647516    3.091868    0.109668
     27          1           0       -2.497800    1.963116    0.825870
 ---------------------------------------------------------------------

 SCF Done:  E(RHF) =  -1045.95692935     A.U. after    2 cycles

 The electronic state is 1-A.
 Alpha  occ. eigenvalues --  -93.61192 -20.64027 -20.58483 -20.57200 -11.40099
 Alpha  occ. eigenvalues --  -11.39021 -11.27801 -11.27685 -11.27311 -11.27130
 Alpha  occ. eigenvalues --  -11.26639 -11.26502 -11.25370 -11.24000 -11.21716
 Alpha  occ. eigenvalues --   -8.90347  -6.24594  -6.24205  -6.23858  -1.42104
 Alpha  occ. eigenvalues --   -1.38186  -1.33429  -1.17173  -1.07705  -1.05954
 Alpha  occ. eigenvalues --   -1.03633  -1.00167  -0.95176  -0.88660  -0.85594
 Alpha  occ. eigenvalues --   -0.83163  -0.80048  -0.76214  -0.72623  -0.70324
 Alpha  occ. eigenvalues --   -0.69789  -0.67994  -0.66559  -0.65560  -0.63493
 Alpha  occ. eigenvalues --   -0.62524  -0.61742  -0.61234  -0.58907  -0.57799
 Alpha  occ. eigenvalues --   -0.57253  -0.54428  -0.53824  -0.52535  -0.52080
 Alpha  occ. eigenvalues --   -0.51501  -0.50447  -0.48750  -0.48056  -0.45873
 Alpha  occ. eigenvalues --   -0.42784  -0.39354  -0.36355  -0.36270
 Alpha virt. eigenvalues --    0.02890   0.03801   0.03888   0.04745   0.05027
 Alpha virt. eigenvalues --    0.05101   0.05626   0.06247   0.06708   0.07307
 Alpha virt. eigenvalues --    0.07745   0.08047   0.08673   0.08954   0.09780

 Mulliken charges:
               1
     1  C   -0.801730
     2  O   -0.471431
     3  S    0.741682
     4  O   -0.898253
     5  C    0.554673
     6  O   -0.473040
     7  C    1.519400
     8  C    0.084953
     9  C    0.630421
    10  C    0.492037
    11  C    0.260010
    12  C    0.509047
    13  H   -0.504909
    14  H   -0.612300
    15  H   -0.421057
    16  H   -0.430556
    17  H   -0.442427
    18  C    0.199863
    19  C    0.183959
    20  H   -0.045918
    21  H   -0.010585
    22  C    0.395416
    23  H   -0.090055
    24  H   -0.101625
    25  H   -0.051598
    26  H   -0.085622
    27  H   -0.130359
 Sum of Mulliken charges =  -0.00000

 Dipole moment (field-independent basis, Debye):
    X=              2.3522    Y=             -0.3516    Z=             -1.3327  Tot=              2.7263

 Test job not archived.
 1\1\GINC-SE340\SP\RHF\Aug-CC-pVDZ\C11H12O3S1\OHZDE\08-Apr-2025\0\\#t h
 f aug-cc-pvdz iop(5/13=1,5/36=2,99/5=2) pseudo=read geom=check guess=(
 read,tcheck) scf=(maxcycle=1)\\title\\0,1\C,0,0.537911,0.161389,-0.259
 182\O,0,-0.177055,1.129804,-0.234783\S,0,-0.139453,-1.488888,-0.599978
 \O,0,-1.766281,-1.06882,-0.752621\C,0,-2.506246,-0.849104,0.407691\O,0
 ,-2.064296,-0.983433,1.507935\C,0,2.01445,0.189547,-0.07295\C,0,2.6721
 24,1.412382,-0.254994\C,0,4.050359,1.489794,-0.101322\C,0,4.779832,0.3
 51801,0.244674\C,0,4.128012,-0.864251,0.440914\C,0,2.748059,-0.947445,

 Normal termination of Gaussian 16 at Tue Apr  8 23:26:59 2025.
