 Gaussian 16, Revision C.01,

 ----------------------------------------------------------------------
 #t hf aug-cc-pvdz symm=none int=(grid=ultrafine) guess=(read,tcheck) s
 table=(opt,rrhf)
 ----------------------------------------------------------------------
 -----
 title
 -----
 Symbolic Z-matrix:
 Charge =  0 Multiplicity = 1

 SCF Done:  E(RHF) =  -1015.60224463     A.U. after   13 cycles
 Normal termination of Gaussian 16 at Wed Apr  9 00:39:57 2025.
 Gaussian 16:  ES64L-G16RevC.01  3-Jul-2019

 ----------------------------------------------------------------------
 #t hf aug-cc-pvdz iop(5/13=1,5/36=2,99/5=2) pseudo=read geom=check gue
 ss=(read,tcheck) scf=(maxcycle=1)
 ----------------------------------------------------------------------
 -----
 title
 -----
 Structure from the checkpoint file:  "BDE49_nonexpt_689_mol1.chk"
 Charge =  0 Multiplicity = 1

                         Standard orientation:
 ---------------------------------------------------------------------
 Center     Atomic      Atomic             Coordinates (Angstroms)
 Number     Number       Type             X           Y           Z
 ---------------------------------------------------------------------
      1         15           0       -0.394166    0.485087    0.690827
      2          5           0        1.278171   -0.302959    0.047886
      3          8           0        1.372047   -1.650767   -0.082195
      4          6           0       -0.500733    1.943905   -0.451341
      5          1           0       -0.470248    1.666469   -1.505489
      6          1           0        0.358608    2.581611   -0.225060
      7         17           0       -1.806235   -0.817784   -0.210716
      8          1           0       -1.416880    2.498911   -0.246047
      9          1           0        2.237351   -1.990996   -0.334337
     10          8           0        2.298359    0.589693   -0.126339
     11          1           0        3.159951    0.209986   -0.332417
 ---------------------------------------------------------------------

 SCF Done:  E(RHF) =  -1015.71643391     A.U. after    2 cycles

 The electronic state is 1-A.
 Alpha  occ. eigenvalues -- -103.63690 -81.28526 -20.61136 -20.60621 -11.24507
 Alpha  occ. eigenvalues --  -10.66989  -8.32690  -8.32420  -8.32408  -7.78591
 Alpha  occ. eigenvalues --   -7.69262  -4.92553  -4.92384  -4.92111  -1.37075
 Alpha  occ. eigenvalues --   -1.33462  -1.11545  -0.96638  -0.82447  -0.78257
 Alpha  occ. eigenvalues --   -0.71514  -0.67322  -0.61727  -0.58638  -0.58305
 Alpha  occ. eigenvalues --   -0.57491  -0.54994  -0.50765  -0.49054  -0.46682
 Alpha  occ. eigenvalues --   -0.42756  -0.33655
 Alpha virt. eigenvalues --    0.01849   0.04560   0.05220   0.05416   0.06996
 Alpha virt. eigenvalues --    0.07035   0.07578   0.08212   0.09743   0.10401
 Alpha virt. eigenvalues --    0.11504   0.12202   0.14123   0.15170   0.16163

 Mulliken charges:
               1
     1  P    0.200094
     2  B    1.076471
     3  O   -0.457489
     4  C    0.213257
     5  H   -0.151183
     6  H   -0.126057
     7  Cl  -0.474778
     8  H   -0.148396
     9  H    0.174404
    10  O   -0.483736
    11  H    0.177413
 Sum of Mulliken charges =  -0.00000

 Dipole moment (field-independent basis, Debye):
    X=              4.7076    Y=              0.6242    Z=             -1.1341  Tot=              4.8824

 Test job not archived.
 1\1\GINC-SE455\SP\RHF\Aug-CC-pVDZ\C1H5B1Cl1O2P1\OHZDE\09-Apr-2025\0\\#
 t hf aug-cc-pvdz iop(5/13=1,5/36=2,99/5=2) pseudo=read geom=check gues
 s=(read,tcheck) scf=(maxcycle=1)\\title\\0,1\P,0,-0.394166,0.485087,0.
 690827\B,0,1.278171,-0.302959,0.047886\O,0,1.372047,-1.650767,-0.08219
 5\C,0,-0.500733,1.943905,-0.451341\H,0,-0.470248,1.666469,-1.505489\H,
 0,0.358608,2.581611,-0.22506\Cl,0,-1.806235,-0.817784,-0.210716\H,0,-1
 .41688,2.498911,-0.246047\H,0,2.237351,-1.990996,-0.334337\O,0,2.29835
 9,0.589693,-0.126339\H,0,3.159951,0.209986,-0.332417\\Version=ES64L-G1

 Normal termination of Gaussian 16 at Wed Apr  9 00:40:02 2025.
