 Gaussian 16, Revision C.01,

 ----------------------------------------------------------------------
 #t hf aug-cc-pvdz symm=none int=(grid=ultrafine) guess=(read,tcheck) s
 table=opt
 ----------------------------------------------------------------------
 -----
 title
 -----
 Symbolic Z-matrix:
 Charge =  0 Multiplicity = 2

 SCF Done:  E(UHF) =  -368.723225957     A.U. after   14 cycles

 1\1\GINC-SE116\Stability\UHF\Aug-CC-pVDZ\C2H7Si1\OHZDE\08-Apr-2025\0\\
 #t hf aug-cc-pvdz symm=none int=(grid=ultrafine) guess=(read,tcheck) s
 table=opt\\title\\0,2\Si,0,-0.036548,-0.590051,0.\C,0,-0.036548,0.4684
 15,1.563797\H,0,-0.024601,-0.155466,2.460912\H,0,-0.922381,1.107625,1.
 60852\H,0,0.848053,1.115673,1.591448\C,0,-0.036548,0.468415,-1.563797\
 H,0,-0.922381,1.107625,-1.60852\H,0,-0.024601,-0.155466,-2.460912\H,0,
 0.848053,1.115673,-1.591448\H,0,1.148119,-1.495928,0.\\Version=ES64L-G
 16RevC.01\HF=-368.723226\S2=0.753464\S2-1=0.\S2A=0.750006\RMSD=4.656e-

 Normal termination of Gaussian 16 at Tue Apr  8 22:43:44 2025.
 Gaussian 16:  ES64L-G16RevC.01  3-Jul-2019

 ----------------------------------------------------------------------
 #t hf aug-cc-pvdz iop(5/13=1,5/36=2,99/5=2) pseudo=read geom=check gue
 ss=(read,tcheck) scf=(maxcycle=1)
 ----------------------------------------------------------------------
 -----
 title
 -----
 Structure from the checkpoint file:  "BDE49_expt_1538_mol2.chk"
 Charge =  0 Multiplicity = 2

                         Standard orientation:
 ---------------------------------------------------------------------
 Center     Atomic      Atomic             Coordinates (Angstroms)
 Number     Number       Type             X           Y           Z
 ---------------------------------------------------------------------
      1         14           0       -0.036548   -0.590051    0.000000
      2          6           0       -0.036548    0.468415    1.563797
      3          1           0       -0.024601   -0.155466    2.460912
      4          1           0       -0.922381    1.107625    1.608520
      5          1           0        0.848053    1.115673    1.591448
      6          6           0       -0.036548    0.468415   -1.563797
      7          1           0       -0.922381    1.107625   -1.608520
      8          1           0       -0.024601   -0.155466   -2.460912
      9          1           0        0.848053    1.115673   -1.591448
     10          1           0        1.148119   -1.495928    0.000000
 ---------------------------------------------------------------------

 SCF Done:  E(UHF) =  -368.773194115     A.U. after    2 cycles

 The electronic state is 2-A'.
 Alpha  occ. eigenvalues --  -69.05949 -11.21909 -11.21905  -6.81244  -3.92583
 Alpha  occ. eigenvalues --   -3.91711  -3.91707  -0.95341  -0.92493  -0.65100
 Alpha  occ. eigenvalues --   -0.57144  -0.56999  -0.55152  -0.55056  -0.45473
 Alpha  occ. eigenvalues --   -0.44439  -0.30469
 Alpha virt. eigenvalues --    0.03398   0.04685   0.05213   0.05323   0.07134
 Alpha virt. eigenvalues --    0.07343   0.07807   0.08770   0.09075   0.09795
 Alpha virt. eigenvalues --    0.14959   0.15674   0.16197   0.16631   0.16644

  Beta  occ. eigenvalues --  -69.05404 -11.21854 -11.21850  -6.80425  -3.91341
  Beta  occ. eigenvalues --   -3.91335  -3.90476  -0.94653  -0.92175  -0.61404
  Beta  occ. eigenvalues --   -0.56855  -0.55826  -0.54931  -0.54504  -0.44598
  Beta  occ. eigenvalues --   -0.43652
  Beta virt. eigenvalues --    0.03022   0.04762   0.04806   0.05370   0.06829
  Beta virt. eigenvalues --    0.07162   0.07514   0.07816   0.09188   0.09940
  Beta virt. eigenvalues --    0.10774   0.15277   0.16011   0.16432   0.17030

 Mulliken charges and spin densities:
               1          2
     1  Si   0.942992   0.959914
     2  C    0.189033   0.006411
     3  H   -0.252366  -0.007841
     4  H   -0.184984  -0.003441
     5  H   -0.179578   0.014016
     6  C    0.189033   0.006411
     7  H   -0.184984  -0.003441
     8  H   -0.252366  -0.007841
     9  H   -0.179578   0.014016
    10  H   -0.087202   0.021794
 Sum of Mulliken charges =  -0.00000   1.00000

 Dipole moment (field-independent basis, Debye):
    X=             -0.0111    Y=              0.7745    Z=             -0.0000  Tot=              0.7746
                          Isotropic Fermi Contact Couplings
        Atom                 a.u.       MegaHertz       Gauss      10(-4) cm-1
     1  Si(29)             0.51487    -457.58300    -163.27699    -152.63326
     2  C(13)              0.01357      15.25755       5.44427       5.08937
     3  H(1)               0.00015       0.68764       0.24537       0.22937
     4  H(1)               0.00040       1.80101       0.64265       0.60075
     5  H(1)               0.00951      42.50061      15.16527      14.17668
     6  C(13)              0.01357      15.25755       5.44427       5.08937
     7  H(1)               0.00040       1.80101       0.64265       0.60075
     8  H(1)               0.00015       0.68764       0.24537       0.22937

 Normal termination of Gaussian 16 at Tue Apr  8 22:43:48 2025.
