 Gaussian 16, Revision C.01,

 ----------------------------------------------------------------------
 #t hf aug-cc-pvdz symm=none int=(grid=ultrafine) guess=(read,tcheck) s
 table=(opt,rrhf)
 ----------------------------------------------------------------------
 -----
 title
 -----
 Symbolic Z-matrix:
 Charge =  0 Multiplicity = 1

 SCF Done:  E(RHF) =  -1032.83668026     A.U. after   14 cycles
 Normal termination of Gaussian 16 at Tue Apr  8 23:14:48 2025.
 Gaussian 16:  ES64L-G16RevC.01  3-Jul-2019

 ----------------------------------------------------------------------
 #t hf aug-cc-pvdz iop(5/13=1,5/36=2,99/5=2) pseudo=read geom=check gue
 ss=(read,tcheck) scf=(maxcycle=1)
 ----------------------------------------------------------------------
 -----
 title
 -----
 Structure from the checkpoint file:  "BDE49_nonexpt_1024_mol1.chk"
 Charge =  0 Multiplicity = 1

                         Standard orientation:
 ---------------------------------------------------------------------
 Center     Atomic      Atomic             Coordinates (Angstroms)
 Number     Number       Type             X           Y           Z
 ---------------------------------------------------------------------
      1         17           0        1.702964   -0.420436    0.066709
      2          8           0        0.616093    0.846555   -0.435147
      3          6           0       -0.542350    0.882780    0.327182
      4         17           0       -1.720773   -0.444952   -0.061931
      5          1           0       -1.018953    1.819231    0.039625
      6          1           0       -0.352925    0.823258    1.397231
 ---------------------------------------------------------------------

 SCF Done:  E(RHF) =  -1032.91114713     A.U. after    2 cycles

 The electronic state is 1-A.
 Alpha  occ. eigenvalues -- -103.73143-103.66454 -20.68331 -11.38860 -10.75825
 Alpha  occ. eigenvalues --  -10.69770  -8.41584  -8.41156  -8.41132  -8.35482
 Alpha  occ. eigenvalues --   -8.35189  -8.35177  -1.41218  -1.17377  -1.12635
 Alpha  occ. eigenvalues --   -0.91846  -0.72406  -0.71067  -0.68003  -0.57439
 Alpha  occ. eigenvalues --   -0.54522  -0.49899  -0.47585  -0.47308  -0.46223
 Alpha virt. eigenvalues --    0.03557   0.03700   0.05279   0.07711   0.08574
 Alpha virt. eigenvalues --    0.12877   0.13962   0.14547   0.14868   0.15893
 Alpha virt. eigenvalues --    0.16263   0.18105   0.18426   0.20597   0.24254

 Mulliken charges:
               1
     1  Cl   0.289441
     2  O   -0.634035
     3  C    0.491457
     4  Cl  -0.140706
     5  H   -0.030008
     6  H    0.023852
 Sum of Mulliken charges =   0.00000

 Dipole moment (field-independent basis, Debye):
    X=              0.2176    Y=              1.2429    Z=              1.4405  Tot=              1.9149

 Test job not archived.
 1\1\GINC-SE227\SP\RHF\Aug-CC-pVDZ\C1H2Cl2O1\OHZDE\08-Apr-2025\0\\#t hf
  aug-cc-pvdz iop(5/13=1,5/36=2,99/5=2) pseudo=read geom=check guess=(r
 ead,tcheck) scf=(maxcycle=1)\\title\\0,1\Cl,0,1.702964,-0.420436,0.066
 709\O,0,0.616093,0.846555,-0.435147\C,0,-0.54235,0.88278,0.327182\Cl,0
 ,-1.720773,-0.444952,-0.061931\H,0,-1.018953,1.819231,0.039625\H,0,-0.
 352925,0.823258,1.397231\\Version=ES64L-G16RevC.01\State=1-A\HF=-1032.
 9111471\RMSD=2.619e-03\Dipole=0.0855933,0.4889849,0.5667241\Quadrupole
 =-1.3365067,1.5323593,-0.1958526,-2.5730637,0.3435262,0.824732\PG=C01

 Normal termination of Gaussian 16 at Tue Apr  8 23:14:49 2025.
