 Gaussian 16, Revision C.01,

 ----------------------------------------------------------------------
 #t hf aug-cc-pvdz symm=none int=(grid=ultrafine) guess=(read,tcheck) s
 table=opt
 ----------------------------------------------------------------------
 -----
 title
 -----
 Symbolic Z-matrix:
 Charge =  0 Multiplicity = 2

 SCF Done:  E(UHF) =  -1454.45056846     A.U. after   21 cycles
 Normal termination of Gaussian 16 at Tue Apr  8 23:46:28 2025.
 Gaussian 16:  ES64L-G16RevC.01  3-Jul-2019

 ----------------------------------------------------------------------
 #t hf aug-cc-pvdz iop(5/13=1,5/36=2,99/5=2) pseudo=read geom=check gue
 ss=(read,tcheck) scf=(maxcycle=1)
 ----------------------------------------------------------------------
 -----
 title
 -----
 Structure from the checkpoint file:  "BDE49_nonexpt_1785_mol2.chk"
 Charge =  0 Multiplicity = 2

                         Standard orientation:
 ---------------------------------------------------------------------
 Center     Atomic      Atomic             Coordinates (Angstroms)
 Number     Number       Type             X           Y           Z
 ---------------------------------------------------------------------
      1         14           0        0.853920    0.162101    0.562053
      2          6           0       -0.802694   -0.646485   -0.140351
      3         17           0        2.368390   -1.224040    0.268454
      4         17           0        1.245865    1.823966   -0.657000
      5          7           0       -1.998102   -0.076053    0.164079
      6          6           0       -2.142515    1.140486    0.944402
      7          8           0       -0.660973   -1.643837   -0.822953
      8          1           0       -1.199609    1.397241    1.431196
      9          1           0       -2.892920    0.993884    1.726848
     10          1           0       -2.448194    1.982982    0.315190
     11          6           0       -3.221254   -0.633128   -0.410223
     12          1           0       -3.935439   -0.865546    0.385191
     13          1           0       -2.966500   -1.541670   -0.950673
     14          1           0       -3.681282    0.082786   -1.099112
 ---------------------------------------------------------------------

 SCF Done:  E(UHF) =  -1454.58646795     A.U. after    2 cycles

 The electronic state is 2-A.
 Alpha  occ. eigenvalues -- -103.67050-103.66504 -69.18018 -20.55892 -15.67549
 Alpha  occ. eigenvalues --  -11.37821 -11.30253 -11.28226 -10.70424 -10.69903
 Alpha  occ. eigenvalues --   -8.36197  -8.35906  -8.35855  -8.35705  -8.35366
 Alpha  occ. eigenvalues --   -8.35319  -6.92416  -4.03479  -4.02833  -4.02681
 Alpha  occ. eigenvalues --   -1.36786  -1.23550  -1.16224  -1.14052  -0.99491
 Alpha  occ. eigenvalues --   -0.95842  -0.79057  -0.73196  -0.68578  -0.67559
 Alpha  occ. eigenvalues --   -0.65755  -0.59397  -0.58411  -0.58268  -0.57423
 Alpha  occ. eigenvalues --   -0.56081  -0.55354  -0.52592  -0.50604  -0.48915
 Alpha  occ. eigenvalues --   -0.47399  -0.44798  -0.39535  -0.35996
 Alpha virt. eigenvalues --    0.02626   0.03935   0.04066   0.05223   0.06308
 Alpha virt. eigenvalues --    0.06990   0.07201   0.07624   0.08705   0.09202
 Alpha virt. eigenvalues --    0.09773   0.12034   0.12315   0.12823   0.13614

  Beta  occ. eigenvalues -- -103.66954-103.66397 -69.17454 -20.55675 -15.67539
  Beta  occ. eigenvalues --  -11.37458 -11.30216 -11.28211 -10.70320 -10.69786
  Beta  occ. eigenvalues --   -8.35984  -8.35804  -8.35681  -8.35436  -8.35266
  Beta  occ. eigenvalues --   -8.35146  -6.91497  -4.02464  -4.02373  -4.01509
  Beta  occ. eigenvalues --   -1.36225  -1.23385  -1.15339  -1.13219  -0.99362
  Beta  occ. eigenvalues --   -0.95449  -0.77536  -0.72052  -0.68012  -0.67482
  Beta  occ. eigenvalues --   -0.63846  -0.58832  -0.58371  -0.57595  -0.56565
  Beta  occ. eigenvalues --   -0.55662  -0.54632  -0.50994  -0.49612  -0.48006
  Beta  occ. eigenvalues --   -0.47228  -0.41745  -0.39429
  Beta virt. eigenvalues --    0.00316   0.02878   0.04174   0.04284   0.05697
  Beta virt. eigenvalues --    0.06627   0.07030   0.07331   0.07697   0.08946
  Beta virt. eigenvalues --    0.09446   0.10807   0.12239   0.13078   0.13346

 Mulliken charges and spin densities:
               1          2
     1  Si   0.991720   0.783359
     2  C   -0.125614   0.154358
     3  Cl  -0.473731   0.038026
     4  Cl  -0.495100   0.040652
     5  N   -0.155852  -0.043117
     6  C    0.819545   0.017913
     7  O   -0.502502   0.040741
     8  H   -0.262207  -0.035928
     9  H   -0.114883   0.002969
    10  H   -0.084204  -0.000638
    11  C    0.791331   0.002695
    12  H   -0.099836  -0.000162
    13  H   -0.227109  -0.000269
    14  H   -0.061559  -0.000600
 Sum of Mulliken charges =   0.00000   1.00000

 Dipole moment (field-independent basis, Debye):
    X=             -3.7791    Y=              2.6994    Z=              2.8402  Tot=              5.4439
                          Isotropic Fermi Contact Couplings
        Atom                 a.u.       MegaHertz       Gauss      10(-4) cm-1
     1  Si(29)             0.78738    -699.76496    -249.69354    -233.41646
     2  C(13)              0.07731      86.91417      31.01314      28.99145
     3  Cl(35)             0.05915      25.93396       9.25388       8.65064
     4  Cl(35)             0.04985      21.85941       7.79998       7.29151
     5  N(14)              0.00049       0.15706       0.05604       0.05239
     6  C(13)              0.00501       5.62998       2.00892       1.87796
     7  O(17)              0.02396     -14.52630      -5.18335      -4.84545
     8  H(1)              -0.00037      -1.64190      -0.58587      -0.54768

 Normal termination of Gaussian 16 at Tue Apr  8 23:46:35 2025.
