 Gaussian 16, Revision C.01,

 ----------------------------------------------------------------------
 #t hf aug-cc-pvdz symm=none int=(grid=ultrafine) guess=(read,tcheck) s
 table=opt
 ----------------------------------------------------------------------
 -----
 title
 -----
 Symbolic Z-matrix:
 Charge =  0 Multiplicity = 2

 SCF Done:  E(UHF) =  -480.639554974     A.U. after   25 cycles
 Normal termination of Gaussian 16 at Tue Apr  8 23:13:28 2025.
 Gaussian 16:  ES64L-G16RevC.01  3-Jul-2019

 ----------------------------------------------------------------------
 #t hf aug-cc-pvdz iop(5/13=1,5/36=2,99/5=2) pseudo=read geom=check gue
 ss=(read,tcheck) scf=(maxcycle=1)
 ----------------------------------------------------------------------
 -----
 title
 -----
 Structure from the checkpoint file:  "BDE49_expt_429_mol2.chk"
 Charge =  0 Multiplicity = 2

                         Standard orientation:
 ---------------------------------------------------------------------
 Center     Atomic      Atomic             Coordinates (Angstroms)
 Number     Number       Type             X           Y           Z
 ---------------------------------------------------------------------
      1          6           0       -1.874797    0.180962   -0.003140
      2          6           0       -2.389150    0.403300   -1.444468
      3          1           0       -2.498554   -0.549106   -1.969427
      4          1           0       -1.702552    1.033177   -2.013348
      5          1           0       -3.367743    0.891913   -1.417490
      6          6           0       -1.722147    1.537473    0.710087
      7          1           0       -1.023823    2.189962    0.180577
      8          1           0       -1.363985    1.410553    1.736060
      9          1           0       -2.689515    2.045894    0.755836
     10          6           0       -2.843894   -0.727704    0.767055
     11          1           0       -3.836415   -0.269540    0.801354
     12          1           0       -2.507408   -0.886658    1.795120
     13          1           0       -2.925173   -1.705204    0.290542
     14          6           0       -0.509391   -0.516458   -0.107121
     15          8           0       -0.368144   -1.731497   -0.011263
     16          7           0        0.544524    0.280805   -0.489629
     17          6           0        1.907294    0.112877    0.007221
     18          6           0        2.597216    1.480643   -0.159190
     19          1           0        2.532636    1.818335   -1.195293
     20          1           0        3.650539    1.405348    0.123018
     21          1           0        2.125876    2.233640    0.477323
     22          6           0        2.588594   -0.922298   -0.927720
     23          1           0        2.513454   -0.604231   -1.969356
     24          1           0        2.111526   -1.895698   -0.820373
     25          1           0        3.646313   -1.001488   -0.659754
     26          6           0        1.985043   -0.354455    1.471901
     27          1           0        1.498902    0.368475    2.133418
     28          1           0        3.030010   -0.439839    1.781117
     29          1           0        1.506792   -1.325230    1.600438
 ---------------------------------------------------------------------

 SCF Done:  E(UHF) =  -480.787219024     A.U. after    2 cycles

 The electronic state is 2-A.
 Alpha  occ. eigenvalues --  -20.56609 -15.66272 -11.35459 -11.28822 -11.26119
 Alpha  occ. eigenvalues --  -11.23365 -11.23119 -11.23043 -11.22836 -11.22735
 Alpha  occ. eigenvalues --  -11.22323  -1.37023  -1.21465  -1.10206  -1.04734
 Alpha  occ. eigenvalues --   -0.94097  -0.93859  -0.93480  -0.93135  -0.85903
 Alpha  occ. eigenvalues --   -0.77817  -0.70473  -0.67724  -0.66292  -0.64126
 Alpha  occ. eigenvalues --   -0.61865  -0.60809  -0.60161  -0.58853  -0.57203
 Alpha  occ. eigenvalues --   -0.55747  -0.55034  -0.54231  -0.53625  -0.53480
 Alpha  occ. eigenvalues --   -0.52201  -0.52171  -0.50454  -0.49450  -0.47736
 Alpha  occ. eigenvalues --   -0.47538  -0.45353  -0.43345  -0.41782
 Alpha virt. eigenvalues --    0.03277   0.03737   0.04182   0.04468   0.05655
 Alpha virt. eigenvalues --    0.05824   0.05946   0.06752   0.06912   0.07590
 Alpha virt. eigenvalues --    0.07812   0.08111   0.08503   0.08540   0.09343

  Beta  occ. eigenvalues --  -20.55461 -15.63171 -11.36090 -11.29079 -11.26056
  Beta  occ. eigenvalues --  -11.23356 -11.23144 -11.22976 -11.22704 -11.22614
  Beta  occ. eigenvalues --  -11.22331  -1.34368  -1.15017  -1.09995  -1.01815
  Beta  occ. eigenvalues --   -0.93909  -0.93674  -0.93162  -0.92957  -0.85206
  Beta  occ. eigenvalues --   -0.77303  -0.68881  -0.66193  -0.65408  -0.62418
  Beta  occ. eigenvalues --   -0.60756  -0.60506  -0.59970  -0.56912  -0.55960
  Beta  occ. eigenvalues --   -0.55041  -0.54720  -0.53556  -0.53189  -0.52401
  Beta  occ. eigenvalues --   -0.52086  -0.51144  -0.48821  -0.47652  -0.47608
  Beta  occ. eigenvalues --   -0.46925  -0.42350  -0.39519
  Beta virt. eigenvalues --    0.03269   0.03736   0.04171   0.04359   0.05648
  Beta virt. eigenvalues --    0.05820   0.05930   0.06739   0.06831   0.07051
  Beta virt. eigenvalues --    0.07629   0.07839   0.08138   0.08520   0.08546

 Mulliken charges and spin densities:
               1          2
     1  C   -2.722714   0.040593
     2  C    1.066616   0.001175
     3  H   -0.006055   0.002125
     4  H   -0.011578  -0.000328
     5  H   -0.055523   0.000079
     6  C    1.129337   0.001415
     7  H   -0.036135  -0.002012
     8  H   -0.047722   0.007253
     9  H   -0.067534   0.001585
    10  C    1.206065  -0.002776
    11  H   -0.002724   0.000929
    12  H   -0.018097   0.000919
    13  H    0.006069  -0.001239
    14  C    0.093488  -0.398328
    15  O   -0.523527   0.255128
    16  N   -0.286529   1.232191
    17  C   -3.283411  -0.276353
    18  C    1.227883   0.026250
    19  H    0.006575  -0.003704
    20  H    0.030124  -0.000857
    21  H   -0.016451   0.002405
    22  C    1.132876   0.081848
    23  H   -0.023688   0.000031
    24  H   -0.041418  -0.001351
    25  H    0.019389   0.005322
    26  C    1.207995   0.028003
    27  H    0.021497   0.001978
    28  H   -0.041050  -0.002071
    29  H    0.036241  -0.000210
 Sum of Mulliken charges =  -0.00000   1.00000

 Dipole moment (field-independent basis, Debye):
    X=              0.3062    Y=              2.3607    Z=              0.5506  Tot=              2.4434
                          Isotropic Fermi Contact Couplings
        Atom                 a.u.       MegaHertz       Gauss      10(-4) cm-1
     1  C(13)              0.01042      11.71794       4.18125       3.90868
     2  C(13)             -0.00577      -6.48181      -2.31287      -2.16210
     3  H(1)               0.00005       0.22056       0.07870       0.07357
     4  H(1)               0.00024       1.07025       0.38189       0.35700
     5  H(1)              -0.00011      -0.48158      -0.17184      -0.16064
     6  C(13)              0.00227       2.55692       0.91237       0.85290
     7  H(1)               0.00069       3.09363       1.10388       1.03192
     8  H(1)              -0.00003      -0.11235      -0.04009      -0.03748

 Normal termination of Gaussian 16 at Tue Apr  8 23:13:54 2025.
