 Gaussian 16, Revision C.01,

 ----------------------------------------------------------------------
 #t hf aug-cc-pvdz symm=none int=(grid=ultrafine) guess=(read,tcheck) s
 table=opt
 ----------------------------------------------------------------------
 -----
 title
 -----
 Symbolic Z-matrix:
 Charge =  0 Multiplicity = 2

 SCF Done:  E(UHF) =  -785.789867462     A.U. after   19 cycles
 Normal termination of Gaussian 16 at Wed Apr  9 00:31:36 2025.
 Gaussian 16:  ES64L-G16RevC.01  3-Jul-2019

 ----------------------------------------------------------------------
 #t hf aug-cc-pvdz iop(5/13=1,5/36=2,99/5=2) pseudo=read geom=check gue
 ss=(read,tcheck) scf=(maxcycle=1)
 ----------------------------------------------------------------------
 -----
 title
 -----
 Structure from the checkpoint file:  "BDE49_nonexpt_403_mol2.chk"
 Charge =  0 Multiplicity = 2

                         Standard orientation:
 ---------------------------------------------------------------------
 Center     Atomic      Atomic             Coordinates (Angstroms)
 Number     Number       Type             X           Y           Z
 ---------------------------------------------------------------------
      1          9           0       -2.469759   -0.919102   -0.080506
      2          5           0       -1.192224   -1.065611   -0.215254
      3         16           0       -0.030543    0.433514    0.063996
      4          8           0        0.226882    0.449129    1.487258
      5          8           0        1.313127   -0.015936   -0.710675
      6          6           0        2.183046   -0.981539   -0.069989
      7          1           0        3.064595   -1.027814   -0.705729
      8          1           0        1.701889   -1.961913   -0.030772
      9          1           0        2.448255   -0.646086    0.931423
     10          8           0       -0.494431    1.590407   -0.651344
 ---------------------------------------------------------------------

 SCF Done:  E(UHF) =  -786.006454139     A.U. after    2 cycles

 The electronic state is 2-A.
 Alpha  occ. eigenvalues --  -93.83029 -26.20500 -20.64726 -20.59013 -20.58675
 Alpha  occ. eigenvalues --  -11.32823  -9.09313  -7.79175  -6.43909  -6.43832
 Alpha  occ. eigenvalues --   -6.43721  -1.75134  -1.48044  -1.36506  -1.34115
 Alpha  occ. eigenvalues --   -1.00578  -0.93221  -0.88678  -0.83115  -0.80299
 Alpha  occ. eigenvalues --   -0.77079  -0.74008  -0.71148  -0.66767  -0.65297
 Alpha  occ. eigenvalues --   -0.58908  -0.55853  -0.55393  -0.53476  -0.53022
 Alpha  occ. eigenvalues --   -0.52059  -0.41557
 Alpha virt. eigenvalues --    0.01889   0.02959   0.04300   0.05512   0.05843
 Alpha virt. eigenvalues --    0.07085   0.07149   0.08002   0.11337   0.12515
 Alpha virt. eigenvalues --    0.13027   0.15157   0.15323   0.15896   0.17256

  Beta  occ. eigenvalues --  -93.82897 -26.20215 -20.64760 -20.58917 -20.58426
  Beta  occ. eigenvalues --  -11.32811  -9.09129  -7.77111  -6.43857  -6.43760
  Beta  occ. eigenvalues --   -6.43271  -1.74313  -1.47681  -1.36378  -1.33589
  Beta  occ. eigenvalues --   -1.00319  -0.91855  -0.87454  -0.80780  -0.80512
  Beta  occ. eigenvalues --   -0.75882  -0.73592  -0.70921  -0.66444  -0.64794
  Beta  occ. eigenvalues --   -0.58741  -0.55573  -0.54068  -0.52979  -0.51949
  Beta  occ. eigenvalues --   -0.49370
  Beta virt. eigenvalues --    0.00750   0.03494   0.03928   0.05330   0.05662
  Beta virt. eigenvalues --    0.06230   0.07171   0.08235   0.08699   0.12013
  Beta virt. eigenvalues --    0.12762   0.13414   0.15297   0.15403   0.16211

 Mulliken charges and spin densities:
               1          2
     1  F   -0.215377  -0.050709
     2  B    0.400725   0.971640
     3  S    2.266190   0.046566
     4  O   -0.993896   0.018343
     5  O   -0.920124  -0.008970
     6  C    0.723657  -0.008471
     7  H   -0.187512  -0.001098
     8  H   -0.088984  -0.008963
     9  H   -0.034626   0.000032
    10  O   -0.950052   0.041631
 Sum of Mulliken charges =   0.00000   1.00000

 Dipole moment (field-independent basis, Debye):
    X=              1.6570    Y=             -4.6929    Z=             -0.6842  Tot=              5.0237
                          Isotropic Fermi Contact Couplings
        Atom                 a.u.       MegaHertz       Gauss      10(-4) cm-1
     1  F(19)              0.05692     239.46895      85.44848      79.87824
     2  B(11)              0.42530     610.03294     217.67492     203.48509
     3  S(33)              0.24453      83.98839      29.96915      28.01551
     4  O(17)              0.00643      -3.89934      -1.39138      -1.30068
     5  O(17)             -0.00690       4.18171       1.49214       1.39487
     6  C(13)              0.00220       2.47395       0.88277       0.82522
     7  H(1)               0.00025       1.11664       0.39844       0.37247
     8  H(1)               0.00016       0.70512       0.25160       0.23520

 Normal termination of Gaussian 16 at Wed Apr  9 00:31:40 2025.
