 Gaussian 16, Revision C.01,

 ----------------------------------------------------------------------
 #t hf aug-cc-pvdz symm=none int=(grid=ultrafine) guess=(read,tcheck) s
 table=opt
 ----------------------------------------------------------------------
 -----
 title
 -----
 Symbolic Z-matrix:
 Charge =  0 Multiplicity = 2

 SCF Done:  E(UHF) =  -237.296684598     A.U. after   14 cycles
 Normal termination of Gaussian 16 at Tue Apr  8 22:26:35 2025.
 Gaussian 16:  ES64L-G16RevC.01  3-Jul-2019

 ----------------------------------------------------------------------
 #t hf aug-cc-pvdz iop(5/13=1,5/36=2,99/5=2) pseudo=read geom=check gue
 ss=(read,tcheck) scf=(maxcycle=1)
 ----------------------------------------------------------------------
 -----
 title
 -----
 Structure from the checkpoint file:  "BDE49_expt_1002_mol2.chk"
 Charge =  0 Multiplicity = 2

                         Standard orientation:
 ---------------------------------------------------------------------
 Center     Atomic      Atomic             Coordinates (Angstroms)
 Number     Number       Type             X           Y           Z
 ---------------------------------------------------------------------
      1          6           0       -0.030161    0.509436   -0.000000
      2          9           0       -0.030161   -0.241860    1.100484
      3          9           0       -0.030161   -0.241860   -1.100484
      4          1           0        0.723863    1.296858   -0.000000
 ---------------------------------------------------------------------

 SCF Done:  E(UHF) =  -237.385421935     A.U. after    2 cycles

 The electronic state is 2-A'.
 Alpha  occ. eigenvalues --  -26.16553 -26.16544 -11.43940  -1.73638  -1.69126
 Alpha  occ. eigenvalues --   -1.01857  -0.84897  -0.84569  -0.83102  -0.76679
 Alpha  occ. eigenvalues --   -0.72458  -0.66781  -0.45265
 Alpha virt. eigenvalues --    0.03601   0.08761   0.08966   0.09346   0.16325
 Alpha virt. eigenvalues --    0.23947   0.25309   0.26437   0.26910   0.27734
 Alpha virt. eigenvalues --    0.29963   0.31591   0.33781   0.35459   0.45225

  Beta  occ. eigenvalues --  -26.16086 -26.16076 -11.41085  -1.72097  -1.67873
  Beta  occ. eigenvalues --   -0.97216  -0.83613  -0.83282  -0.77231  -0.72802
  Beta  occ. eigenvalues --   -0.71906  -0.64562
  Beta virt. eigenvalues --    0.03648   0.06609   0.08871   0.09088   0.14188
  Beta virt. eigenvalues --    0.17974   0.24018   0.25772   0.26568   0.27373
  Beta virt. eigenvalues --    0.28423   0.31438   0.33035   0.35581   0.37282

 Mulliken charges and spin densities:
               1          2
     1  C    0.754014   1.014047
     2  F   -0.309657   0.009169
     3  F   -0.309657   0.009169
     4  H   -0.134700  -0.032386
 Sum of Mulliken charges =  -0.00000   1.00000

 Dipole moment (field-independent basis, Debye):
    X=              0.6807    Y=              1.7988    Z=              0.0000  Tot=              1.9232
                          Isotropic Fermi Contact Couplings
        Atom                 a.u.       MegaHertz       Gauss      10(-4) cm-1
     1  C(13)              0.45481     511.29431     182.44252     170.54942
     2  F(19)              0.06837     287.66324     102.64540      95.95413
     3  F(19)              0.06837     287.66324     102.64540      95.95413
     4  H(1)               0.00324      14.48219       5.16761       4.83074
 --------------------------------------------------------
       Center         ----  Spin Dipole Couplings  ----
                      3XX-RR        3YY-RR        3ZZ-RR
 --------------------------------------------------------

 Normal termination of Gaussian 16 at Tue Apr  8 22:26:37 2025.
