 Gaussian 16, Revision C.01,

 ----------------------------------------------------------------------
 #t hf aug-cc-pvdz symm=none int=(grid=ultrafine) guess=(read,tcheck) s
 table=(opt,rrhf)
 ----------------------------------------------------------------------
 -----
 title
 -----
 Symbolic Z-matrix:
 Charge =  0 Multiplicity = 1

 SCF Done:  E(RHF) =  -423.171110072     A.U. after   12 cycles
 Normal termination of Gaussian 16 at Tue Apr  8 23:57:22 2025.
 Gaussian 16:  ES64L-G16RevC.01  3-Jul-2019

 ----------------------------------------------------------------------
 #t hf aug-cc-pvdz iop(5/13=1,5/36=2,99/5=2) pseudo=read geom=check gue
 ss=(read,tcheck) scf=(maxcycle=1)
 ----------------------------------------------------------------------
 -----
 title
 -----
 Structure from the checkpoint file:  "BDE49_nonexpt_2060_mol1.chk"
 Charge =  0 Multiplicity = 1

                         Standard orientation:
 ---------------------------------------------------------------------
 Center     Atomic      Atomic             Coordinates (Angstroms)
 Number     Number       Type             X           Y           Z
 ---------------------------------------------------------------------
      1         14           0        1.719144   -0.064587    0.000001
      2          6           0       -0.096217    0.450957    0.000008
      3          7           0       -1.008670   -0.434224   -0.000010
      4          1           0       -0.354733    1.527949    0.000027
      5          6           0       -2.396274   -0.001286   -0.000003
      6          1           0       -2.896460   -0.420233   -0.878176
      7          1           0       -2.516075    1.092807    0.000017
      8          1           0       -2.896461   -0.420265    0.878155
      9          1           0        1.828121   -1.536578   -0.000046
     10          1           0        2.391612    0.500999    1.195714
     11          1           0        2.391625    0.501076   -1.195668
 ---------------------------------------------------------------------

 SCF Done:  E(RHF) =  -423.235692199     A.U. after    2 cycles

 The electronic state is 1-A.
 Alpha  occ. eigenvalues --  -69.06648 -15.63992 -11.27622 -11.26279  -6.81993
 Alpha  occ. eigenvalues --   -3.92784  -3.92758  -3.92754  -1.19810  -0.95636
 Alpha  occ. eigenvalues --   -0.78797  -0.70115  -0.63901  -0.59878  -0.59441
 Alpha  occ. eigenvalues --   -0.49281  -0.49038  -0.48168  -0.41540  -0.39013
 Alpha virt. eigenvalues --    0.03395   0.04174   0.04734   0.05344   0.06717
 Alpha virt. eigenvalues --    0.07157   0.07487   0.09203   0.09692   0.09909
 Alpha virt. eigenvalues --    0.10261   0.12471   0.15014   0.15439   0.15507

 Mulliken charges:
               1
     1  Si   0.443891
     2  C    0.075755
     3  N   -0.397272
     4  H   -0.308116
     5  C    0.692713
     6  H   -0.131822
     7  H   -0.093731
     8  H   -0.131820
     9  H    0.012509
    10  H   -0.081055
    11  H   -0.081053
 Sum of Mulliken charges =  -0.00000

 Dipole moment (field-independent basis, Debye):
    X=             -0.6828    Y=              1.4389    Z=              0.0000  Tot=              1.5927

 Test job not archived.
 1\1\GINC-SE419\SP\RHF\Aug-CC-pVDZ\C2H7N1Si1\OHZDE\08-Apr-2025\0\\#t hf
  aug-cc-pvdz iop(5/13=1,5/36=2,99/5=2) pseudo=read geom=check guess=(r
 ead,tcheck) scf=(maxcycle=1)\\title\\0,1\Si,0,1.719144,-0.064587,0.000
 001\C,0,-0.096217,0.450957,0.000008\N,0,-1.00867,-0.434224,-0.00001\H,
 0,-0.354733,1.527949,0.000027\C,0,-2.396274,-0.001286,-0.000003\H,0,-2
 .89646,-0.420233,-0.878176\H,0,-2.516075,1.092807,0.000017\H,0,-2.8964
 61,-0.420265,0.878155\H,0,1.828121,-1.536578,-0.000046\H,0,2.391612,0.
 500999,1.195714\H,0,2.391625,0.501076,-1.195668\\Version=ES64L-G16RevC

 Normal termination of Gaussian 16 at Tue Apr  8 23:57:25 2025.
