 Gaussian 16, Revision C.01,

 ----------------------------------------------------------------------
 #t hf aug-cc-pvdz symm=none int=(grid=ultrafine) guess=(read,tcheck) s
 table=opt
 ----------------------------------------------------------------------
 -----
 title
 -----
 Symbolic Z-matrix:
 Charge =  0 Multiplicity = 2

 SCF Done:  E(UHF) =  -661.757281571     A.U. after   40 cycles
 Normal termination of Gaussian 16 at Wed Apr  9 00:21:50 2025.
 Gaussian 16:  ES64L-G16RevC.01  3-Jul-2019

 ----------------------------------------------------------------------
 #t hf aug-cc-pvdz iop(5/13=1,5/36=2,99/5=2) pseudo=read geom=check gue
 ss=(read,tcheck) scf=(maxcycle=1)
 ----------------------------------------------------------------------
 -----
 title
 -----
 Structure from the checkpoint file:  "BDE49_nonexpt_2677_mol2.chk"
 Charge =  0 Multiplicity = 2

                         Standard orientation:
 ---------------------------------------------------------------------
 Center     Atomic      Atomic             Coordinates (Angstroms)
 Number     Number       Type             X           Y           Z
 ---------------------------------------------------------------------
      1         16           0       -1.512776   -0.000095    0.035670
      2          6           0        0.334998   -0.000003   -0.021581
      3          8           0        0.801590   -1.098369   -0.729385
      4          1           0        0.602754   -1.880611   -0.201695
      5          8           0        0.799890    0.000024    1.299161
      6          1           0        1.767287    0.000041    1.238509
      7          8           0        0.801275    1.098524   -0.729340
      8          1           0        0.602339    1.880674   -0.201547
 ---------------------------------------------------------------------

 SCF Done:  E(UHF) =  -661.859292027     A.U. after    2 cycles

 The electronic state is 2-A.
 Alpha  occ. eigenvalues --  -93.56797 -20.61993 -20.61144 -20.61140 -11.46179
 Alpha  occ. eigenvalues --   -8.86593  -6.21942  -6.20280  -6.19774  -1.45069
 Alpha  occ. eigenvalues --   -1.34121  -1.33941  -1.01278  -0.88498  -0.80938
 Alpha  occ. eigenvalues --   -0.72208  -0.69553  -0.66287  -0.65956  -0.58160
 Alpha  occ. eigenvalues --   -0.56349  -0.53151  -0.47632  -0.45648  -0.39541
 Alpha virt. eigenvalues --    0.03089   0.04788   0.05764   0.07550   0.10305
 Alpha virt. eigenvalues --    0.12336   0.12527   0.13382   0.14420   0.16106
 Alpha virt. eigenvalues --    0.18823   0.19364   0.20524   0.22019   0.23335

  Beta  occ. eigenvalues --  -93.55873 -20.61933 -20.61105 -20.61101 -11.46326
  Beta  occ. eigenvalues --   -8.85564  -6.19718  -6.19212  -6.17897  -1.44969
  Beta  occ. eigenvalues --   -1.34024  -1.33786  -0.96537  -0.86168  -0.79117
  Beta  occ. eigenvalues --   -0.72155  -0.68720  -0.65890  -0.64893  -0.57942
  Beta  occ. eigenvalues --   -0.56090  -0.53003  -0.46220  -0.37224
  Beta virt. eigenvalues --    0.00577   0.03138   0.04800   0.05809   0.07708
  Beta virt. eigenvalues --    0.10704   0.12572   0.13574   0.14454   0.14555
  Beta virt. eigenvalues --    0.16242   0.18873   0.19659   0.20975   0.22420

 Mulliken charges and spin densities:
               1          2
     1  S    0.272520   1.071880
     2  C    0.715988  -0.072421
     3  O   -0.438039   0.004118
     4  H    0.134770  -0.000386
     5  O   -0.474903  -0.005846
     6  H    0.092928  -0.001084
     7  O   -0.438047   0.004133
     8  H    0.134782  -0.000394
 Sum of Mulliken charges =  -0.00000   1.00000

 Dipole moment (field-independent basis, Debye):
    X=              0.8994    Y=             -0.0002    Z=              1.6419  Tot=              1.8721
                          Isotropic Fermi Contact Couplings
        Atom                 a.u.       MegaHertz       Gauss      10(-4) cm-1
     1  S(33)              0.19824      68.08942      24.29600      22.71219
     2  C(13)             -0.03028     -34.04288     -12.14735     -11.35548
     3  O(17)              0.00660      -3.99924      -1.42703      -1.33400
     4  H(1)              -0.00021      -0.93749      -0.33452      -0.31271
     5  O(17)              0.02729     -16.54294      -5.90293      -5.51813
     6  H(1)               0.00155       6.92284       2.47024       2.30921
     7  O(17)              0.00662      -4.01436      -1.43242      -1.33905
     8  H(1)              -0.00021      -0.94038      -0.33555      -0.31368

 Normal termination of Gaussian 16 at Wed Apr  9 00:21:53 2025.
