 Gaussian 16, Revision C.01,

 ----------------------------------------------------------------------
 #t hf aug-cc-pvdz symm=none int=(grid=ultrafine) guess=(read,tcheck) s
 table=(opt,rrhf)
 ----------------------------------------------------------------------
 -----
 title
 -----
 Symbolic Z-matrix:
 Charge =  0 Multiplicity = 1

 SCF Done:  E(RHF) =  -486.462149245     A.U. after   14 cycles
 Normal termination of Gaussian 16 at Tue Apr  8 22:52:35 2025.
 Gaussian 16:  ES64L-G16RevC.01  3-Jul-2019

 ----------------------------------------------------------------------
 #t hf aug-cc-pvdz iop(5/13=1,5/36=2,99/5=2) pseudo=read geom=check gue
 ss=(read,tcheck) scf=(maxcycle=1)
 ----------------------------------------------------------------------
 -----
 title
 -----
 Structure from the checkpoint file:  "BDE49_expt_1845_mol1.chk"
 Charge =  0 Multiplicity = 1

                         Standard orientation:
 ---------------------------------------------------------------------
 Center     Atomic      Atomic             Coordinates (Angstroms)
 Number     Number       Type             X           Y           Z
 ---------------------------------------------------------------------
      1          8           0       -1.886608   -0.023863   -0.119877
      2          8           0       -0.716350    0.824348   -0.086415
      3          1           0       -2.206449    0.082668    0.789068
      4          6           0        0.384922    0.007480   -0.003504
      5          9           0        1.431681    0.827577    0.014467
      6          9           0        0.490374   -0.826005   -1.036800
      7          9           0        0.380232   -0.727286    1.120365
 ---------------------------------------------------------------------

 SCF Done:  E(RHF) =  -486.636026662     A.U. after    2 cycles

 The electronic state is 1-A.
 Alpha  occ. eigenvalues --  -26.19097 -26.18726 -26.18550 -20.70602 -20.69700
 Alpha  occ. eigenvalues --  -11.59717  -1.79248  -1.71973  -1.71422  -1.49836
 Alpha  occ. eigenvalues --   -1.27975  -1.02847  -0.91718  -0.91538  -0.88410
 Alpha  occ. eigenvalues --   -0.80630  -0.79947  -0.76812  -0.75352  -0.74599
 Alpha  occ. eigenvalues --   -0.73839  -0.72172  -0.67536  -0.58612  -0.57034
 Alpha virt. eigenvalues --    0.03247   0.08511   0.09095   0.09382   0.12511
 Alpha virt. eigenvalues --    0.14046   0.16999   0.19263   0.21294   0.21889
 Alpha virt. eigenvalues --    0.22208   0.26773   0.27339   0.27718   0.31095

 Mulliken charges:
               1
     1  O   -0.226728
     2  O   -0.409426
     3  H    0.229805
     4  C    1.178980
     5  F   -0.240510
     6  F   -0.250752
     7  F   -0.281369
 Sum of Mulliken charges =  -0.00000

 Dipole moment (field-independent basis, Debye):
    X=             -1.5364    Y=              0.1249    Z=              1.5783  Tot=              2.2061

 Test job not archived.
 1\1\GINC-SE460\SP\RHF\Aug-CC-pVDZ\C1H1F3O2\OHZDE\08-Apr-2025\0\\#t hf
 aug-cc-pvdz iop(5/13=1,5/36=2,99/5=2) pseudo=read geom=check guess=(re
 ad,tcheck) scf=(maxcycle=1)\\title\\0,1\O,0,-1.886608,-0.023863,-0.119
 877\O,0,-0.71635,0.824348,-0.086415\H,0,-2.206449,0.082668,0.789068\C,
 0,0.384922,0.00748,-0.003504\F,0,1.431681,0.827577,0.014467\F,0,0.4903
 74,-0.826005,-1.0368\F,0,0.380232,-0.727286,1.120365\\Version=ES64L-G1
 6RevC.01\State=1-A\HF=-486.6360267\RMSD=5.622e-03\Dipole=-0.6044591,0.
 0491295,0.6209516\Quadrupole=1.8792595,-1.6717967,-0.2074628,-0.146542

 Normal termination of Gaussian 16 at Tue Apr  8 22:52:37 2025.
