 Gaussian 16, Revision C.01,

 ----------------------------------------------------------------------
 #t hf aug-cc-pvdz symm=none int=(grid=ultrafine) guess=(read,tcheck) s
 table=opt
 ----------------------------------------------------------------------
 -----
 title
 -----
 Symbolic Z-matrix:
 Charge =  0 Multiplicity = 2

 SCF Done:  E(UHF) =  -588.919189626     A.U. after   20 cycles
 Normal termination of Gaussian 16 at Tue Apr  8 23:13:59 2025.
 Gaussian 16:  ES64L-G16RevC.01  3-Jul-2019

 ----------------------------------------------------------------------
 #t hf aug-cc-pvdz iop(5/13=1,5/36=2,99/5=2) pseudo=read geom=check gue
 ss=(read,tcheck) scf=(maxcycle=1)
 ----------------------------------------------------------------------
 -----
 title
 -----
 Structure from the checkpoint file:  "BDE49_nonexpt_1005_mol2.chk"
 Charge =  0 Multiplicity = 2

                         Standard orientation:
 ---------------------------------------------------------------------
 Center     Atomic      Atomic             Coordinates (Angstroms)
 Number     Number       Type             X           Y           Z
 ---------------------------------------------------------------------
      1          6           0       -0.989368   -0.762376    0.000087
      2          6           0        0.139225    0.239337    0.000175
      3         16           0        1.822028   -0.313701   -0.000115
      4          8           0        0.010411    1.443792   -0.000018
      5          6           0       -2.376000   -0.117875    0.000032
      6          1           0       -0.847939   -1.408635    0.873935
      7          1           0       -0.847853   -1.408597   -0.873777
      8          1           0       -2.517332    0.510553    0.880916
      9          1           0       -3.148506   -0.889542   -0.000024
     10          1           0       -2.517245    0.510594   -0.880837
 ---------------------------------------------------------------------

 SCF Done:  E(UHF) =  -588.997327043     A.U. after    2 cycles

 The electronic state is 2-A.
 Alpha  occ. eigenvalues --  -93.57981 -20.58306 -11.38587 -11.27338 -11.24447
 Alpha  occ. eigenvalues --   -8.87844  -6.23201  -6.21508  -6.21036  -1.38089
 Alpha  occ. eigenvalues --   -1.07654  -1.01478  -0.89601  -0.74937  -0.67766
 Alpha  occ. eigenvalues --   -0.65597  -0.63079  -0.56656  -0.56421  -0.53444
 Alpha  occ. eigenvalues --   -0.51490  -0.46500  -0.43643  -0.40597
 Alpha virt. eigenvalues --    0.03157   0.04915   0.04929   0.05784   0.07628
 Alpha virt. eigenvalues --    0.07717   0.10559   0.11369   0.11933   0.12162
 Alpha virt. eigenvalues --    0.13321   0.14021   0.15596   0.15921   0.16415

  Beta  occ. eigenvalues --  -93.57055 -20.58099 -11.38700 -11.27335 -11.24432
  Beta  occ. eigenvalues --   -8.86811  -6.20985  -6.20448  -6.19143  -1.37500
  Beta  occ. eigenvalues --   -1.07126  -0.96360  -0.87517  -0.73940  -0.66355
  Beta  occ. eigenvalues --   -0.65576  -0.61328  -0.56488  -0.55620  -0.53271
  Beta  occ. eigenvalues --   -0.51444  -0.42608  -0.38285
  Beta virt. eigenvalues --   -0.00238   0.03194   0.04933   0.05150   0.05827
  Beta virt. eigenvalues --    0.07720   0.07775   0.10938   0.11248   0.12138
  Beta virt. eigenvalues --    0.12590   0.13433   0.14802   0.15950   0.16463

 Mulliken charges and spin densities:
               1          2
     1  C   -0.145693   0.008190
     2  C   -0.042690  -0.117059
     3  S    0.229726   1.090313
     4  O   -0.490730   0.020338
     5  C    0.491155  -0.002411
     6  H    0.046337   0.000586
     7  H    0.046293   0.000583
     8  H   -0.044185  -0.000468
     9  H   -0.046034   0.000395
    10  H   -0.044177  -0.000468
 Sum of Mulliken charges =  -0.00000   1.00000

 Dipole moment (field-independent basis, Debye):
    X=             -1.1577    Y=             -3.0781    Z=              0.0003  Tot=              3.2886
                          Isotropic Fermi Contact Couplings
        Atom                 a.u.       MegaHertz       Gauss      10(-4) cm-1
     1  C(13)              0.00103       1.16101       0.41428       0.38727
     2  C(13)             -0.01900     -21.36096      -7.62212      -7.12525
     3  S(33)              0.21276      73.07672      26.07559      24.37577
     4  O(17)              0.03134     -18.99836      -6.77909      -6.33717
     5  C(13)              0.00292       3.28162       1.17096       1.09463
     6  H(1)               0.00009       0.39037       0.13929       0.13021
     7  H(1)               0.00009       0.39072       0.13942       0.13033
     8  H(1)              -0.00008      -0.36893      -0.13164      -0.12306

 Normal termination of Gaussian 16 at Tue Apr  8 23:14:02 2025.
