 Gaussian 16, Revision C.01,

 ----------------------------------------------------------------------
 #t hf aug-cc-pvdz symm=none int=(grid=ultrafine) guess=(read,tcheck) s
 table=(opt,rrhf)
 ----------------------------------------------------------------------
 -----
 title
 -----
 Symbolic Z-matrix:
 Charge =  0 Multiplicity = 1

 SCF Done:  E(RHF) =  -596.288706458     A.U. after   15 cycles
 Normal termination of Gaussian 16 at Tue Apr  8 23:01:45 2025.
 Gaussian 16:  ES64L-G16RevC.01  3-Jul-2019

 ----------------------------------------------------------------------
 #t hf aug-cc-pvdz iop(5/13=1,5/36=2,99/5=2) pseudo=read geom=check gue
 ss=(read,tcheck) scf=(maxcycle=1)
 ----------------------------------------------------------------------
 -----
 title
 -----
 Structure from the checkpoint file:  "BDE49_expt_322_mol1.chk"
 Charge =  0 Multiplicity = 1

                         Standard orientation:
 ---------------------------------------------------------------------
 Center     Atomic      Atomic             Coordinates (Angstroms)
 Number     Number       Type             X           Y           Z
 ---------------------------------------------------------------------
      1          7           0        1.189102    0.404613    0.570324
      2          7           0        2.438136    0.245035   -0.021518
      3          8           0        2.614058   -0.772449   -0.675780
      4          8           0        3.225527    1.161699    0.136419
      5          6           0        0.374813   -0.789618    0.799662
      6          1           0        1.263669    1.097060    1.304007
      7          7           0       -1.360464   -0.116754   -0.892826
      8          7           0       -2.406348    0.276698   -0.072216
      9          8           0       -2.756026   -0.506825    0.801028
     10          8           0       -2.911476    1.357392   -0.328353
     11          6           0       -0.465405   -1.166578   -0.427508
     12          1           0       -0.965212    0.700640   -1.339575
     13          1           0        0.187292   -1.402033   -1.267749
     14          1           0       -1.062557   -2.048781   -0.199034
     15          1           0       -0.283619   -0.556168    1.637464
     16          1           0        1.004323   -1.639224    1.079099
 ---------------------------------------------------------------------

 SCF Done:  E(RHF) =  -596.470317295     A.U. after    2 cycles

 The electronic state is 1-A.
 Alpha  occ. eigenvalues --  -20.63939 -20.63750 -20.63172 -20.63042 -15.97277
 Alpha  occ. eigenvalues --  -15.96603 -15.73541 -15.72667 -11.32656 -11.31961
 Alpha  occ. eigenvalues --   -1.59043  -1.58279  -1.39822  -1.38972  -1.28196
 Alpha  occ. eigenvalues --   -1.25804  -1.07118  -0.97028  -0.90138  -0.86247
 Alpha  occ. eigenvalues --   -0.81590  -0.81019  -0.77862  -0.77501  -0.76621
 Alpha  occ. eigenvalues --   -0.75253  -0.70270  -0.68746  -0.64634  -0.59958
 Alpha  occ. eigenvalues --   -0.58979  -0.54898  -0.54011  -0.53594  -0.52837
 Alpha  occ. eigenvalues --   -0.50520  -0.49831  -0.48282  -0.44877
 Alpha virt. eigenvalues --    0.02535   0.03142   0.03503   0.05383   0.06466
 Alpha virt. eigenvalues --    0.07130   0.07689   0.08222   0.10293   0.11230
 Alpha virt. eigenvalues --    0.12035   0.12580   0.13524   0.14055   0.15145

 Mulliken charges:
               1
     1  N   -0.035879
     2  N    0.525453
     3  O   -0.520696
     4  O   -0.530952
     5  C    0.858307
     6  H   -0.002523
     7  N   -0.054286
     8  N    0.617125
     9  O   -0.554540
    10  O   -0.569202
    11  C    0.679002
    12  H    0.044322
    13  H   -0.146489
    14  H   -0.081668
    15  H   -0.161098
    16  H   -0.066875
 Sum of Mulliken charges =  -0.00000

 Dipole moment (field-independent basis, Debye):
    X=              0.6175    Y=             -1.4846    Z=              0.9961  Tot=              1.8914

 Test job not archived.
 1\1\GINC-SE073\SP\RHF\Aug-CC-pVDZ\C2H6N4O4\OHZDE\08-Apr-2025\0\\#t hf
 aug-cc-pvdz iop(5/13=1,5/36=2,99/5=2) pseudo=read geom=check guess=(re
 ad,tcheck) scf=(maxcycle=1)\\title\\0,1\N,0,1.189102,0.404613,0.570324
 \N,0,2.438136,0.245035,-0.021518\O,0,2.614058,-0.772449,-0.67578\O,0,3
 .225527,1.161699,0.136419\C,0,0.374813,-0.789618,0.799662\H,0,1.263669
 ,1.09706,1.304007\N,0,-1.360464,-0.116754,-0.892826\N,0,-2.406348,0.27
 6698,-0.072216\O,0,-2.756026,-0.506825,0.801028\O,0,-2.911476,1.357392
 ,-0.328353\C,0,-0.465405,-1.166578,-0.427508\H,0,-0.965212,0.70064,-1.

 Normal termination of Gaussian 16 at Tue Apr  8 23:01:53 2025.
