 Gaussian 16, Revision C.01,

 ----------------------------------------------------------------------
 #t hf aug-cc-pvdz symm=none int=(grid=ultrafine) guess=(read,tcheck) s
 table=(opt,rrhf)
 ----------------------------------------------------------------------
 -----
 title
 -----
 Symbolic Z-matrix:
 Charge =  0 Multiplicity = 1

 SCF Done:  E(RHF) =  -773.460419895     A.U. after   15 cycles
 Normal termination of Gaussian 16 at Wed Apr  9 00:00:39 2025.
 Gaussian 16:  ES64L-G16RevC.01  3-Jul-2019

 ----------------------------------------------------------------------
 #t hf aug-cc-pvdz iop(5/13=1,5/36=2,99/5=2) pseudo=read geom=check gue
 ss=(read,tcheck) scf=(maxcycle=1)
 ----------------------------------------------------------------------
 -----
 title
 -----
 Structure from the checkpoint file:  "BDE49_nonexpt_2140_mol1.chk"
 Charge =  0 Multiplicity = 1

                         Standard orientation:
 ---------------------------------------------------------------------
 Center     Atomic      Atomic             Coordinates (Angstroms)
 Number     Number       Type             X           Y           Z
 ---------------------------------------------------------------------
      1          6           0       -0.505766   -0.000003    0.507068
      2          7           0        2.509663   -0.000000   -0.178696
      3          9           0        2.177059   -1.111179   -0.998348
      4          9           0        2.177061    1.111190   -0.998334
      5          6           0       -1.177816   -1.207153    0.253768
      6          6           0       -1.177813    1.207151    0.253774
      7          6           0       -2.479817   -1.207453   -0.238128
      8          6           0       -3.130733    0.000004   -0.484666
      9          6           0       -2.479813    1.207457   -0.238121
     10          1           0       -2.986020    2.146913   -0.429050
     11          1           0       -0.682085    2.153583    0.442583
     12          1           0       -2.986026   -2.146907   -0.429061
     13          1           0       -4.145328    0.000006   -0.867149
     14          1           0       -0.682092   -2.153588    0.442572
     15         14           0        1.236216   -0.000007    1.140289
     16          1           0        1.565180   -1.227961    1.887445
     17          1           0        1.565182    1.227938    1.887459
 ---------------------------------------------------------------------

 SCF Done:  E(RHF) =  -773.637765495     A.U. after    2 cycles

 The electronic state is 1-A.
 Alpha  occ. eigenvalues --  -69.11137 -26.15243 -26.15239 -15.79963 -11.26833
 Alpha  occ. eigenvalues --  -11.26829 -11.26606 -11.25897 -11.25890 -11.25263
 Alpha  occ. eigenvalues --   -6.86312  -3.97116  -3.97018  -3.96996  -1.69285
 Alpha  occ. eigenvalues --   -1.64174  -1.15744  -1.08718  -1.02692  -1.02479
 Alpha  occ. eigenvalues --   -0.84681  -0.84348  -0.81302  -0.78818  -0.78513
 Alpha  occ. eigenvalues --   -0.73317  -0.73284  -0.69132  -0.68899  -0.64837
 Alpha  occ. eigenvalues --   -0.64620  -0.60858  -0.60676  -0.56075  -0.52302
 Alpha  occ. eigenvalues --   -0.51653  -0.50857  -0.48722  -0.45837  -0.36054
 Alpha  occ. eigenvalues --   -0.35588
 Alpha virt. eigenvalues --    0.02915   0.03841   0.03853   0.05308   0.05710
 Alpha virt. eigenvalues --    0.05718   0.07014   0.07434   0.08045   0.08952
 Alpha virt. eigenvalues --    0.10073   0.10201   0.11211   0.12266   0.13044

 Mulliken charges:
               1
     1  C   -0.619937
     2  N    0.036144
     3  F   -0.415239
     4  F   -0.415239
     5  C    0.467313
     6  C    0.467310
     7  C    0.734365
     8  C    0.617756
     9  C    0.734367
    10  H   -0.438610
    11  H   -0.605809
    12  H   -0.438610
    13  H   -0.438256
    14  H   -0.605809
    15  Si   1.031686
    16  H   -0.055717
    17  H   -0.055716
 Sum of Mulliken charges =  -0.00000

 Dipole moment (field-independent basis, Debye):
    X=             -2.9376    Y=             -0.0000    Z=              2.2926  Tot=              3.7263

 Test job not archived.
 1\1\GINC-SE070\SP\RHF\Aug-CC-pVDZ\C6H7F2N1Si1\OHZDE\09-Apr-2025\0\\#t
 hf aug-cc-pvdz iop(5/13=1,5/36=2,99/5=2) pseudo=read geom=check guess=
 (read,tcheck) scf=(maxcycle=1)\\title\\0,1\C,0,-0.505766,-0.000003,0.5
 07068\N,0,2.509663,0.,-0.178696\F,0,2.177059,-1.111179,-0.998348\F,0,2
 .177061,1.11119,-0.998334\C,0,-1.177816,-1.207153,0.253768\C,0,-1.1778
 13,1.207151,0.253774\C,0,-2.479817,-1.207453,-0.238128\C,0,-3.130733,0
 .000004,-0.484666\C,0,-2.479813,1.207457,-0.238121\H,0,-2.98602,2.1469
 13,-0.42905\H,0,-0.682085,2.153583,0.442583\H,0,-2.986026,-2.146907,-0

 Normal termination of Gaussian 16 at Wed Apr  9 00:00:48 2025.
