 Gaussian 16, Revision C.01,

 ----------------------------------------------------------------------
 #t hf aug-cc-pvdz symm=none int=(grid=ultrafine) guess=(read,tcheck) s
 table=(opt,rrhf)
 ----------------------------------------------------------------------
 -----
 title
 -----
 Symbolic Z-matrix:
 Charge =  0 Multiplicity = 1

 SCF Done:  E(RHF) =  -1172.22933196     A.U. after   13 cycles
 Normal termination of Gaussian 16 at Wed Apr  9 00:24:54 2025.
 Gaussian 16:  ES64L-G16RevC.01  3-Jul-2019

 ----------------------------------------------------------------------
 #t hf aug-cc-pvdz iop(5/13=1,5/36=2,99/5=2) pseudo=read geom=check gue
 ss=(read,tcheck) scf=(maxcycle=1)
 ----------------------------------------------------------------------
 -----
 title
 -----
 Structure from the checkpoint file:  "BDE49_nonexpt_283_mol1.chk"
 Charge =  0 Multiplicity = 1

                         Standard orientation:
 ---------------------------------------------------------------------
 Center     Atomic      Atomic             Coordinates (Angstroms)
 Number     Number       Type             X           Y           Z
 ---------------------------------------------------------------------
      1          6           0       -0.256063   -0.158161    0.311908
      2          5           0        1.264878    0.240454   -0.011632
      3          8           0        1.611553    1.253228   -0.842653
      4          8           0        2.218155   -0.511490    0.593634
      5          6           0       -0.512599   -0.814696    1.653275
      6          1           0        0.126381   -1.693650    1.747982
      7          1           0       -1.557517   -1.111000    1.752035
      8          1           0       -0.262546   -0.116097    2.455141
      9         17           0       -1.317466    1.328483    0.155141
     10         17           0       -0.719114   -1.321068   -1.028645
     11          1           0        3.108890   -0.254865    0.330460
     12          1           0        0.856574    1.750524   -1.176847
 ---------------------------------------------------------------------

 SCF Done:  E(RHF) =  -1172.34933133     A.U. after    2 cycles

 The electronic state is 1-A.
 Alpha  occ. eigenvalues -- -103.67229-103.66936 -20.60099 -20.60069 -11.37015
 Alpha  occ. eigenvalues --  -11.25748 -10.70507 -10.70183  -8.36211  -8.35933
 Alpha  occ. eigenvalues --   -8.35920  -8.35891  -8.35597  -8.35593  -7.68985
 Alpha  occ. eigenvalues --   -1.36659  -1.33086  -1.20933  -1.13431  -1.01456
 Alpha  occ. eigenvalues --   -0.85153  -0.79248  -0.76626  -0.67449  -0.63750
 Alpha  occ. eigenvalues --   -0.61980  -0.60730  -0.60472  -0.58298  -0.54476
 Alpha  occ. eigenvalues --   -0.53743  -0.53113  -0.47962  -0.47493  -0.45459
 Alpha  occ. eigenvalues --   -0.44751
 Alpha virt. eigenvalues --    0.03228   0.04816   0.05258   0.05568   0.06813
 Alpha virt. eigenvalues --    0.07226   0.07658   0.08993   0.09658   0.10068
 Alpha virt. eigenvalues --    0.10618   0.13197   0.14467   0.15226   0.16597

 Mulliken charges:
               1
     1  C   -0.800304
     2  B    1.080559
     3  O   -0.416006
     4  O   -0.470818
     5  C    0.657285
     6  H   -0.019844
     7  H   -0.043635
     8  H   -0.030446
     9  Cl  -0.217051
    10  Cl  -0.144536
    11  H    0.203711
    12  H    0.201084
 Sum of Mulliken charges =  -0.00000

 Dipole moment (field-independent basis, Debye):
    X=              1.1462    Y=              0.4207    Z=              1.1085  Tot=              1.6492

 Test job not archived.
 1\1\GINC-SE132\SP\RHF\Aug-CC-pVDZ\C2H5B1Cl2O2\OHZDE\09-Apr-2025\0\\#t
 hf aug-cc-pvdz iop(5/13=1,5/36=2,99/5=2) pseudo=read geom=check guess=
 (read,tcheck) scf=(maxcycle=1)\\title\\0,1\C,0,-0.256063,-0.158161,0.3
 11908\B,0,1.264878,0.240454,-0.011632\O,0,1.611553,1.253228,-0.842653\
 O,0,2.218155,-0.51149,0.593634\C,0,-0.512599,-0.814696,1.653275\H,0,0.
 126381,-1.69365,1.747982\H,0,-1.557517,-1.110999,1.752035\H,0,-0.26254
 6,-0.116097,2.455141\Cl,0,-1.317466,1.328484,0.155141\Cl,0,-0.719114,-
 1.321068,-1.028645\H,0,3.10889,-0.254866,0.33046\H,0,0.856575,1.750524

 Normal termination of Gaussian 16 at Wed Apr  9 00:25:00 2025.
