 Gaussian 16, Revision C.01,

 ----------------------------------------------------------------------
 #t hf aug-cc-pvdz symm=none int=(grid=ultrafine) guess=(read,tcheck) s
 table=(opt,rrhf)
 ----------------------------------------------------------------------
 -----
 title
 -----
 Symbolic Z-matrix:
 Charge =  0 Multiplicity = 1

 SCF Done:  E(RHF) =  -1606.70462820     A.U. after   13 cycles
 Normal termination of Gaussian 16 at Wed Apr  9 00:14:56 2025.
 Gaussian 16:  ES64L-G16RevC.01  3-Jul-2019

 ----------------------------------------------------------------------
 #t hf aug-cc-pvdz iop(5/13=1,5/36=2,99/5=2) pseudo=read geom=check gue
 ss=(read,tcheck) scf=(maxcycle=1)
 ----------------------------------------------------------------------
 -----
 title
 -----
 Structure from the checkpoint file:  "BDE49_nonexpt_2533_mol1.chk"
 Charge =  0 Multiplicity = 1

                         Standard orientation:
 ---------------------------------------------------------------------
 Center     Atomic      Atomic             Coordinates (Angstroms)
 Number     Number       Type             X           Y           Z
 ---------------------------------------------------------------------
      1         17           0        1.931598   -0.870440    0.194129
      2         16           0        1.048965    0.889932   -0.491372
      3         14           0       -0.858999    0.748303    0.497239
      4         17           0       -2.085804   -0.732575   -0.266773
      5          1           0       -0.677077    0.472601    1.929098
      6          1           0       -1.458883    2.063492    0.206447
 ---------------------------------------------------------------------

 SCF Done:  E(RHF) =  -1606.78646273     A.U. after    2 cycles

 The electronic state is 1-A.
 Alpha  occ. eigenvalues -- -103.69387-103.66916 -93.60064 -69.15936 -10.72492
 Alpha  occ. eigenvalues --  -10.70376  -8.89633  -8.38227  -8.37869  -8.37841
 Alpha  occ. eigenvalues --   -8.36068  -8.35831  -8.35825  -6.90542  -6.23701
 Alpha  occ. eigenvalues --   -6.23401  -6.23089  -4.01382  -4.01302  -4.01214
 Alpha  occ. eigenvalues --   -1.17728  -1.15298  -0.93672  -0.71960  -0.57753
 Alpha  occ. eigenvalues --   -0.56436  -0.55884  -0.52880  -0.52319  -0.49534
 Alpha  occ. eigenvalues --   -0.47612  -0.44072  -0.39299
 Alpha virt. eigenvalues --    0.02465   0.04188   0.05302   0.05513   0.06201
 Alpha virt. eigenvalues --    0.09197   0.09638   0.11008   0.12141   0.12891
 Alpha virt. eigenvalues --    0.13793   0.14644   0.15265   0.16199   0.17181

 Mulliken charges:
               1
     1  Cl  -0.310948
     2  S   -0.178550
     3  Si   1.071687
     4  Cl  -0.487620
     5  H   -0.026185
     6  H   -0.068385
 Sum of Mulliken charges =  -0.00000

 Dipole moment (field-independent basis, Debye):
    X=             -0.6547    Y=              1.7072    Z=              0.7878  Tot=              1.9909

 Test job not archived.
 1\1\GINC-SE222\SP\RHF\Aug-CC-pVDZ\Cl2H2S1Si1\OHZDE\09-Apr-2025\0\\#t h
 f aug-cc-pvdz iop(5/13=1,5/36=2,99/5=2) pseudo=read geom=check guess=(
 read,tcheck) scf=(maxcycle=1)\\title\\0,1\Cl,0,1.931598,-0.87044,0.194
 129\S,0,1.048965,0.889932,-0.491372\Si,0,-0.858999,0.748303,0.497239\C
 l,0,-2.085804,-0.732574,-0.266773\H,0,-0.677077,0.472601,1.929098\H,0,
 -1.458883,2.063492,0.206447\\Version=ES64L-G16RevC.01\State=1-A\HF=-16
 06.7864627\RMSD=5.122e-03\Dipole=-0.2575908,0.6716695,0.3099342\Quadru
 pole=-1.9175131,1.5382758,0.3792373,-1.6177168,-0.8784098,-0.1413252\P

 Normal termination of Gaussian 16 at Wed Apr  9 00:14:58 2025.
