 Gaussian 16, Revision C.01,

 ----------------------------------------------------------------------
 #t hf aug-cc-pvdz symm=none int=(grid=ultrafine) guess=(read,tcheck) s
 table=(opt,rrhf)
 ----------------------------------------------------------------------
 -----
 title
 -----
 Symbolic Z-matrix:
 Charge =  0 Multiplicity = 1

 SCF Done:  E(RHF) =  -687.469145345     A.U. after   17 cycles
 Normal termination of Gaussian 16 at Wed Apr  9 00:03:41 2025.
 Gaussian 16:  ES64L-G16RevC.01  3-Jul-2019

 ----------------------------------------------------------------------
 #t hf aug-cc-pvdz iop(5/13=1,5/36=2,99/5=2) pseudo=read geom=check gue
 ss=(read,tcheck) scf=(maxcycle=1)
 ----------------------------------------------------------------------
 -----
 title
 -----
 Structure from the checkpoint file:  "BDE49_nonexpt_2205_mol1.chk"
 Charge =  0 Multiplicity = 1

                         Standard orientation:
 ---------------------------------------------------------------------
 Center     Atomic      Atomic             Coordinates (Angstroms)
 Number     Number       Type             X           Y           Z
 ---------------------------------------------------------------------
      1          6           0       -1.990076   -0.044218   -0.000002
      2          6           0       -1.467135    1.259262    0.000001
      3          6           0       -0.097905    1.463506    0.000000
      4          6           0       -1.111376   -1.135254   -0.000007
      5          6           0        0.261890   -0.931350   -0.000008
      6          6           0        0.775089    0.369957   -0.000004
      7          1           0       -1.508499   -2.142643   -0.000010
      8          1           0        0.929882   -1.784971   -0.000012
      9          8           0        2.107149    0.638138   -0.000006
     10         14           0        3.436116   -0.371169    0.000010
     11          1           0       -2.142414    2.105777    0.000005
     12          1           0        0.321070    2.461679    0.000003
     13          6           0       -3.403087   -0.255855   -0.000001
     14          7           0       -4.546104   -0.426503    0.000000
     15          1           0        4.593722    0.537237    0.000018
     16          1           0        3.430884   -1.228295   -1.205889
     17          1           0        3.430860   -1.228287    1.205913
 ---------------------------------------------------------------------

 SCF Done:  E(RHF) =  -687.618076603     A.U. after    2 cycles

 The electronic state is 1-A.
 Alpha  occ. eigenvalues --  -69.12131 -20.61151 -15.63777 -11.35165 -11.29311
 Alpha  occ. eigenvalues --  -11.28882 -11.28863 -11.28658 -11.27120 -11.26588
 Alpha  occ. eigenvalues --   -6.86933  -3.97848  -3.97690  -3.97664  -1.37240
 Alpha  occ. eigenvalues --   -1.19904  -1.16709  -1.04900  -1.04854  -0.89686
 Alpha  occ. eigenvalues --   -0.87621  -0.78560  -0.77114  -0.70631  -0.67318
 Alpha  occ. eigenvalues --   -0.65039  -0.64364  -0.62621  -0.59201  -0.58926
 Alpha  occ. eigenvalues --   -0.55051  -0.54196  -0.53065  -0.49980  -0.49445
 Alpha  occ. eigenvalues --   -0.46908  -0.46433  -0.37636  -0.34353
 Alpha virt. eigenvalues --    0.02483   0.03562   0.04018   0.04974   0.05293
 Alpha virt. eigenvalues --    0.06086   0.06576   0.07157   0.07837   0.08342
 Alpha virt. eigenvalues --    0.08761   0.10002   0.10018   0.10673   0.11435

 Mulliken charges:
               1
     1  C    2.145815
     2  C    0.177990
     3  C    0.906330
     4  C   -0.000708
     5  C    1.079492
     6  C   -0.419788
     7  H   -0.569026
     8  H   -0.582154
     9  O   -0.811448
    10  Si   0.267334
    11  H   -0.552467
    12  H   -0.528006
    13  C   -1.244366
    14  N   -0.113636
    15  H    0.055347
    16  H    0.094644
    17  H    0.094647
 Sum of Mulliken charges =  -0.00000

 Dipole moment (field-independent basis, Debye):
    X=              5.2610    Y=             -0.0811    Z=              0.0000  Tot=              5.2616

 Test job not archived.
 1\1\GINC-SE366\SP\RHF\Aug-CC-pVDZ\C7H7N1O1Si1\OHZDE\09-Apr-2025\0\\#t
 hf aug-cc-pvdz iop(5/13=1,5/36=2,99/5=2) pseudo=read geom=check guess=
 (read,tcheck) scf=(maxcycle=1)\\title\\0,1\C,0,-1.990076,-0.044218,-0.
 000002\C,0,-1.467135,1.259262,0.000001\C,0,-0.097905,1.463506,0.\C,0,-
 1.111376,-1.135254,-0.000007\C,0,0.26189,-0.93135,-0.000008\C,0,0.7750
 89,0.369957,-0.000004\H,0,-1.508499,-2.142643,-0.00001\H,0,0.929882,-1
 .784971,-0.000012\O,0,2.107149,0.638138,-0.000006\Si,0,3.436116,-0.371
 169,0.00001\H,0,-2.142414,2.105777,0.000005\H,0,0.32107,2.461679,0.000

 Normal termination of Gaussian 16 at Wed Apr  9 00:03:49 2025.
