 Gaussian 16, Revision C.01,

 ----------------------------------------------------------------------
 #t hf aug-cc-pvdz symm=none int=(grid=ultrafine) guess=(read,tcheck) s
 table=(opt,rrhf)
 ----------------------------------------------------------------------
 -----
 title
 -----
 Symbolic Z-matrix:
 Charge =  0 Multiplicity = 1

 SCF Done:  E(RHF) =  -515.702910424     A.U. after   14 cycles
 Normal termination of Gaussian 16 at Wed Apr  9 00:34:46 2025.
 Gaussian 16:  ES64L-G16RevC.01  3-Jul-2019

 ----------------------------------------------------------------------
 #t hf aug-cc-pvdz iop(5/13=1,5/36=2,99/5=2) pseudo=read geom=check gue
 ss=(read,tcheck) scf=(maxcycle=1)
 ----------------------------------------------------------------------
 -----
 title
 -----
 Structure from the checkpoint file:  "BDE49_nonexpt_488_mol1.chk"
 Charge =  0 Multiplicity = 1

                         Standard orientation:
 ---------------------------------------------------------------------
 Center     Atomic      Atomic             Coordinates (Angstroms)
 Number     Number       Type             X           Y           Z
 ---------------------------------------------------------------------
      1          1           0       -1.101813    1.956420   -0.000004
      2          1           0       -2.748631    0.652781   -0.000007
      3          5           0       -1.585831    0.879816    0.000020
      4          6           0        1.020807    0.013406   -0.000002
      5          7           0        2.124865    0.357498    0.000011
      6         16           0       -0.576206   -0.599450   -0.000010
 ---------------------------------------------------------------------

 SCF Done:  E(RHF) =  -515.758958197     A.U. after    2 cycles

 The electronic state is 1-A.
 Alpha  occ. eigenvalues --  -93.60881 -15.66129 -11.32043  -8.90766  -7.68388
 Alpha  occ. eigenvalues --   -6.24988  -6.24619  -6.24402  -1.21126  -1.05401
 Alpha  occ. eigenvalues --   -0.76113  -0.65078  -0.57171  -0.55889  -0.53662
 Alpha  occ. eigenvalues --   -0.52051  -0.45897  -0.41686
 Alpha virt. eigenvalues --    0.02841   0.03621   0.04590   0.05492   0.08204
 Alpha virt. eigenvalues --    0.09070   0.09566   0.10815   0.11871   0.12353
 Alpha virt. eigenvalues --    0.12947   0.13423   0.15209   0.16373   0.17182

 Mulliken charges:
               1
     1  H    0.232199
     2  H    0.238547
     3  B   -0.179811
     4  C   -0.495799
     5  N   -0.138031
     6  S    0.342895
 Sum of Mulliken charges =  -0.00000

 Dipole moment (field-independent basis, Debye):
    X=             -3.5514    Y=             -0.1380    Z=              0.0000  Tot=              3.5541

 Test job not archived.
 1\1\GINC-SE125\SP\RHF\Aug-CC-pVDZ\C1H2B1N1S1\OHZDE\09-Apr-2025\0\\#t h
 f aug-cc-pvdz iop(5/13=1,5/36=2,99/5=2) pseudo=read geom=check guess=(
 read,tcheck) scf=(maxcycle=1)\\title\\0,1\H,0,-1.101813,1.95642,-0.000
 004\H,0,-2.748631,0.652781,-0.000007\B,0,-1.585831,0.879816,0.00002\C,
 0,1.020807,0.013406,-0.000002\N,0,2.124865,0.357498,0.000011\S,0,-0.57
 6206,-0.59945,-0.00001\\Version=ES64L-G16RevC.01\State=1-A\HF=-515.758
 9582\RMSD=6.243e-03\Dipole=-1.3972248,-0.0542842,0.0000102\Quadrupole=
 -2.8104949,1.3747743,1.4357206,-1.7759776,-0.0001038,0.0000496\PG=C01

 Normal termination of Gaussian 16 at Wed Apr  9 00:34:49 2025.
