 Gaussian 16, Revision C.01,

 ----------------------------------------------------------------------
 #t hf aug-cc-pvdz symm=none int=(grid=ultrafine) guess=(read,tcheck) s
 table=(opt,rrhf)
 ----------------------------------------------------------------------
 -----
 title
 -----
 Symbolic Z-matrix:
 Charge =  0 Multiplicity = 1

 SCF Done:  E(RHF) =  -1084.26876906     A.U. after   14 cycles
 Normal termination of Gaussian 16 at Wed Apr  9 00:15:38 2025.
 Gaussian 16:  ES64L-G16RevC.01  3-Jul-2019

 ----------------------------------------------------------------------
 #t hf aug-cc-pvdz iop(5/13=1,5/36=2,99/5=2) pseudo=read geom=check gue
 ss=(read,tcheck) scf=(maxcycle=1)
 ----------------------------------------------------------------------
 -----
 title
 -----
 Structure from the checkpoint file:  "BDE49_nonexpt_2552_mol1.chk"
 Charge =  0 Multiplicity = 1

                         Standard orientation:
 ---------------------------------------------------------------------
 Center     Atomic      Atomic             Coordinates (Angstroms)
 Number     Number       Type             X           Y           Z
 ---------------------------------------------------------------------
      1         17           0       -2.301556    0.375818    0.000623
      2         16           0       -0.738382   -0.960210   -0.000217
      3          6           0        0.659043    0.192028   -0.000566
      4          8           0        0.615069    1.382853   -0.000262
      5          8           0        1.748048   -0.586458   -0.000272
      6          6           0        3.017302    0.110214    0.000037
      7          1           0        3.770326   -0.673114    0.000243
      8          1           0        3.103399    0.731502    0.891665
      9          1           0        3.103845    0.731463   -0.891577
 ---------------------------------------------------------------------

 SCF Done:  E(RHF) =  -1084.38451003     A.U. after    2 cycles

 The electronic state is 1-A.
 Alpha  occ. eigenvalues -- -103.69043 -93.62161 -20.65112 -20.59602 -11.44807
 Alpha  occ. eigenvalues --  -11.32281 -10.72203  -8.91557  -8.37942  -8.37570
 Alpha  occ. eigenvalues --   -8.37543  -6.25633  -6.25368  -6.24948  -1.45546
 Alpha  occ. eigenvalues --   -1.36668  -1.18317  -1.03536  -0.94492  -0.81044
 Alpha  occ. eigenvalues --   -0.72471  -0.71677  -0.71497  -0.61864  -0.59846
 Alpha  occ. eigenvalues --   -0.56849  -0.55205  -0.52748  -0.51196  -0.50267
 Alpha  occ. eigenvalues --   -0.45920  -0.39380
 Alpha virt. eigenvalues --    0.03110   0.04217   0.05587   0.05719   0.06777
 Alpha virt. eigenvalues --    0.09137   0.11613   0.12103   0.12891   0.12923
 Alpha virt. eigenvalues --    0.13624   0.14196   0.14882   0.15550   0.16774

 Mulliken charges:
               1
     1  Cl  -0.248059
     2  S    0.475421
     3  C    0.118286
     4  O   -0.320282
     5  O   -0.447978
     6  C    0.749325
     7  H   -0.221186
     8  H   -0.052761
     9  H   -0.052766
 Sum of Mulliken charges =  -0.00000

 Dipole moment (field-independent basis, Debye):
    X=              2.8742    Y=             -1.4821    Z=             -0.0004  Tot=              3.2338

 Test job not archived.
 1\1\GINC-SE364\SP\RHF\Aug-CC-pVDZ\C2H3Cl1O2S1\OHZDE\09-Apr-2025\0\\#t
 hf aug-cc-pvdz iop(5/13=1,5/36=2,99/5=2) pseudo=read geom=check guess=
 (read,tcheck) scf=(maxcycle=1)\\title\\0,1\Cl,0,2.301556,0.375818,-0.0
 00623\S,0,0.738382,-0.96021,0.000217\C,0,-0.659043,0.192028,0.000566\O
 ,0,-0.615069,1.382853,0.000262\O,0,-1.748048,-0.586458,0.000272\C,0,-3
 .017302,0.110214,-0.000037\H,0,-3.770326,-0.673114,-0.000243\H,0,-3.10
 3399,0.731502,-0.891665\H,0,-3.103845,0.731463,0.891577\\Version=ES64L
 -G16RevC.01\State=1-A\HF=-1084.38451\RMSD=3.491e-03\Dipole=-1.1307786,

 Normal termination of Gaussian 16 at Wed Apr  9 00:15:41 2025.
