 Gaussian 16, Revision C.01,

 ----------------------------------------------------------------------
 #t hf aug-cc-pvdz symm=none int=(grid=ultrafine) guess=(read,tcheck) s
 table=(opt,rrhf)
 ----------------------------------------------------------------------
 -----
 title
 -----
 Symbolic Z-matrix:
 Charge =  0 Multiplicity = 1

 SCF Done:  E(RHF) =  -971.480369167     A.U. after   14 cycles
 Normal termination of Gaussian 16 at Wed Apr  9 00:18:34 2025.
 Gaussian 16:  ES64L-G16RevC.01  3-Jul-2019

 ----------------------------------------------------------------------
 #t hf aug-cc-pvdz iop(5/13=1,5/36=2,99/5=2) pseudo=read geom=check gue
 ss=(read,tcheck) scf=(maxcycle=1)
 ----------------------------------------------------------------------
 -----
 title
 -----
 Structure from the checkpoint file:  "BDE49_nonexpt_2606_mol1.chk"
 Charge =  0 Multiplicity = 1

                         Standard orientation:
 ---------------------------------------------------------------------
 Center     Atomic      Atomic             Coordinates (Angstroms)
 Number     Number       Type             X           Y           Z
 ---------------------------------------------------------------------
      1         16           0       -0.057569    0.911860    0.158492
      2         17           0       -1.596337   -0.506319   -0.034448
      3          8           0        1.234364    0.208081   -0.558851
      4          6           0        1.958579   -0.769770    0.222322
      5          1           0        2.864898   -0.979693   -0.344468
      6          1           0        1.362295   -1.678918    0.323190
      7          1           0        2.205244   -0.369747    1.207905
 ---------------------------------------------------------------------

 SCF Done:  E(RHF) =  -971.564407573     A.U. after    2 cycles

 The electronic state is 1-A.
 Alpha  occ. eigenvalues -- -103.67800 -93.64998 -20.63868 -11.31275 -10.70982
 Alpha  occ. eigenvalues --   -8.93670  -8.36701  -8.36375  -8.36337  -6.27783
 Alpha  occ. eigenvalues --   -6.27488  -6.26980  -1.37767  -1.15858  -0.99129
 Alpha  occ. eigenvalues --   -0.87241  -0.68476  -0.67167  -0.66771  -0.55834
 Alpha  occ. eigenvalues --   -0.54292  -0.51178  -0.48488  -0.47430  -0.37473
 Alpha virt. eigenvalues --    0.03422   0.04238   0.05667   0.06635   0.08106
 Alpha virt. eigenvalues --    0.08696   0.12267   0.12719   0.13716   0.14536
 Alpha virt. eigenvalues --    0.15260   0.16372   0.17707   0.18125   0.19642

 Mulliken charges:
               1
     1  S    0.705566
     2  Cl  -0.318319
     3  O   -0.806466
     4  C    0.750452
     5  H   -0.177690
     6  H   -0.079668
     7  H   -0.073874
 Sum of Mulliken charges =  -0.00000

 Dipole moment (field-independent basis, Debye):
    X=              2.0139    Y=             -0.4896    Z=              1.1977  Tot=              2.3938

 Test job not archived.
 1\1\GINC-SE247\SP\RHF\Aug-CC-pVDZ\C1H3Cl1O1S1\OHZDE\09-Apr-2025\0\\#t
 hf aug-cc-pvdz iop(5/13=1,5/36=2,99/5=2) pseudo=read geom=check guess=
 (read,tcheck) scf=(maxcycle=1)\\title\\0,1\S,0,-0.057569,0.91186,0.158
 492\Cl,0,-1.596337,-0.506319,-0.034448\O,0,1.234364,0.208081,-0.558851
 \C,0,1.958579,-0.76977,0.222322\H,0,2.864898,-0.979693,-0.344468\H,0,1
 .362295,-1.678918,0.32319\H,0,2.205244,-0.369747,1.207905\\Version=ES6
 4L-G16RevC.01\State=1-A\HF=-971.5644076\RMSD=3.285e-03\Dipole=0.792343
 6,-0.1926166,0.4712126\Quadrupole=1.4337527,0.6954582,-2.129211,-1.585

 Normal termination of Gaussian 16 at Wed Apr  9 00:18:36 2025.
