 Gaussian 16, Revision C.01,

 ----------------------------------------------------------------------
 #t hf aug-cc-pvdz symm=none int=(grid=ultrafine) guess=(read,tcheck) s
 table=(opt,rrhf)
 ----------------------------------------------------------------------
 -----
 title
 -----
 Symbolic Z-matrix:
 Charge =  0 Multiplicity = 1

 SCF Done:  E(RHF) =  -434.212595700     A.U. after   13 cycles
 Normal termination of Gaussian 16 at Tue Apr  8 23:24:48 2025.
 Gaussian 16:  ES64L-G16RevC.01  3-Jul-2019

 ----------------------------------------------------------------------
 #t hf aug-cc-pvdz iop(5/13=1,5/36=2,99/5=2) pseudo=read geom=check gue
 ss=(read,tcheck) scf=(maxcycle=1)
 ----------------------------------------------------------------------
 -----
 title
 -----
 Structure from the checkpoint file:  "BDE49_nonexpt_1291_mol1.chk"
 Charge =  0 Multiplicity = 1

                         Standard orientation:
 ---------------------------------------------------------------------
 Center     Atomic      Atomic             Coordinates (Angstroms)
 Number     Number       Type             X           Y           Z
 ---------------------------------------------------------------------
      1         15           0       -1.030769    0.000116   -0.121684
      2          6           0        0.756835   -0.000889    0.027373
      3          7           0        1.912293    0.000386    0.001905
      4          1           0       -1.231905    1.036268    0.823659
      5          1           0       -1.233619   -1.035371    0.824032
 ---------------------------------------------------------------------

 SCF Done:  E(RHF) =  -434.261287225     A.U. after    2 cycles

 The electronic state is 1-A.
 Alpha  occ. eigenvalues --  -81.32203 -15.65611 -11.29274  -7.82462  -4.96504
 Alpha  occ. eigenvalues --   -4.96298  -4.96041  -1.19936  -0.89180  -0.65491
 Alpha  occ. eigenvalues --   -0.57811  -0.55311  -0.50605  -0.47358  -0.40317
 Alpha virt. eigenvalues --    0.02681   0.06013   0.06129   0.08459   0.08645
 Alpha virt. eigenvalues --    0.09989   0.11814   0.12182   0.14365   0.14987
 Alpha virt. eigenvalues --    0.15378   0.17856   0.20143   0.21230   0.22474

 Mulliken charges:
               1
     1  P    0.113808
     2  C   -0.209984
     3  N   -0.213046
     4  H    0.154534
     5  H    0.154687
 Sum of Mulliken charges =   0.00000

 Dipole moment (field-independent basis, Debye):
    X=             -3.6555    Y=             -0.0007    Z=              0.6077  Tot=              3.7056

 Test job not archived.
 1\1\GINC-SE084\SP\RHF\Aug-CC-pVDZ\C1H2N1P1\OHZDE\08-Apr-2025\0\\#t hf
 aug-cc-pvdz iop(5/13=1,5/36=2,99/5=2) pseudo=read geom=check guess=(re
 ad,tcheck) scf=(maxcycle=1)\\title\\0,1\P,0,1.030769,-0.000116,-0.1216
 84\C,0,-0.756835,0.000889,0.027373\N,0,-1.912293,-0.000386,0.001905\H,
 0,1.231905,-1.036268,0.823659\H,0,1.233619,1.035371,0.824032\\Version=
 ES64L-G16RevC.01\State=1-A\HF=-434.2612872\RMSD=1.335e-02\Dipole=1.438
 1681,0.0002649,0.2390923\Quadrupole=-2.7990547,2.1136995,0.6853552,-0.
 0011508,1.1541626,-0.0004309\PG=C01 [X(C1H2N1P1)]\\@

 Normal termination of Gaussian 16 at Tue Apr  8 23:24:50 2025.
