 Gaussian 16, Revision C.01,

 ----------------------------------------------------------------------
 #t hf aug-cc-pvdz symm=none int=(grid=ultrafine) guess=(read,tcheck) s
 table=(opt,rrhf)
 ----------------------------------------------------------------------
 -----
 title
 -----
 Symbolic Z-matrix:
 Charge =  0 Multiplicity = 1

 SCF Done:  E(RHF) =  -1021.68296262     A.U. after   14 cycles
 Normal termination of Gaussian 16 at Wed Apr  9 00:38:06 2025.
 Gaussian 16:  ES64L-G16RevC.01  3-Jul-2019

 ----------------------------------------------------------------------
 #t hf aug-cc-pvdz iop(5/13=1,5/36=2,99/5=2) pseudo=read geom=check gue
 ss=(read,tcheck) scf=(maxcycle=1)
 ----------------------------------------------------------------------
 -----
 title
 -----
 Structure from the checkpoint file:  "BDE49_nonexpt_627_mol1.chk"
 Charge =  0 Multiplicity = 1

                         Standard orientation:
 ---------------------------------------------------------------------
 Center     Atomic      Atomic             Coordinates (Angstroms)
 Number     Number       Type             X           Y           Z
 ---------------------------------------------------------------------
      1          8           0        1.109572    0.597697   -0.504327
      2          5           0        2.198623   -0.194406   -0.074056
      3          8           0        2.127869   -1.519675    0.154231
      4          8           0        3.359275    0.484991    0.088226
      5          8           0       -0.083041   -0.232193   -0.679169
      6          6           0       -1.074238    0.319938    0.096887
      7         17           0       -2.491385   -0.722639   -0.166500
      8          9           0       -1.350638    1.576446   -0.256372
      9          9           0       -0.743228    0.328725    1.397003
     10          1           0        1.252466   -1.880681   -0.015607
     11          1           0        3.288777    1.424845   -0.102307
 ---------------------------------------------------------------------

 SCF Done:  E(RHF) =  -1021.90031305     A.U. after    2 cycles

 The electronic state is 1-A.
 Alpha  occ. eigenvalues -- -103.71038 -26.19390 -26.19260 -20.72003 -20.68785
 Alpha  occ. eigenvalues --  -20.60454 -20.60399 -11.57885 -10.74394  -8.40120
 Alpha  occ. eigenvalues --   -8.39775  -8.39767  -7.72313  -1.77328  -1.71894
 Alpha  occ. eigenvalues --   -1.50030  -1.37116  -1.34221  -1.29194  -1.20099
 Alpha  occ. eigenvalues --   -1.00302  -0.89716  -0.87272  -0.85736  -0.82942
 Alpha  occ. eigenvalues --   -0.79683  -0.78004  -0.75565  -0.74831  -0.72974
 Alpha  occ. eigenvalues --   -0.70568  -0.63861  -0.63051  -0.61464  -0.59638
 Alpha  occ. eigenvalues --   -0.58581  -0.55718  -0.54689  -0.51968  -0.51858
 Alpha virt. eigenvalues --    0.03695   0.05054   0.05914   0.06171   0.07513
 Alpha virt. eigenvalues --    0.08693   0.10055   0.10539   0.11019   0.11506
 Alpha virt. eigenvalues --    0.12994   0.14706   0.15796   0.16909   0.18388

 Mulliken charges:
               1
     1  O   -0.322085
     2  B    0.854950
     3  O   -0.384381
     4  O   -0.470507
     5  O   -0.421928
     6  C    0.968742
     7  Cl  -0.130408
     8  F   -0.236847
     9  F   -0.262002
    10  H    0.232660
    11  H    0.171807
 Sum of Mulliken charges =  -0.00000

 Dipole moment (field-independent basis, Debye):
    X=             -1.1098    Y=              0.2892    Z=             -0.7023  Tot=              1.3448

 Test job not archived.
 1\1\GINC-SE250\SP\RHF\Aug-CC-pVDZ\C1H2B1Cl1F2O4\OHZDE\09-Apr-2025\0\\#
 t hf aug-cc-pvdz iop(5/13=1,5/36=2,99/5=2) pseudo=read geom=check gues
 s=(read,tcheck) scf=(maxcycle=1)\\title\\0,1\O,0,1.109572,0.597697,-0.
 504327\B,0,2.198623,-0.194406,-0.074056\O,0,2.127869,-1.519675,0.15423
 1\O,0,3.359275,0.484991,0.088226\O,0,-0.083041,-0.232193,-0.679169\C,0
 ,-1.074238,0.319938,0.096887\Cl,0,-2.491385,-0.722639,-0.1665\F,0,-1.3
 50638,1.576446,-0.256372\F,0,-0.743228,0.328725,1.397003\H,0,1.252466,
 -1.880681,-0.015607\H,0,3.288777,1.424845,-0.102307\\Version=ES64L-G16

 Normal termination of Gaussian 16 at Wed Apr  9 00:38:11 2025.
