 Gaussian 16, Revision C.01,

 ----------------------------------------------------------------------
 #t hf aug-cc-pvdz symm=none int=(grid=ultrafine) guess=(read,tcheck) s
 table=(opt,rrhf)
 ----------------------------------------------------------------------
 -----
 title
 -----
 Symbolic Z-matrix:
 Charge =  0 Multiplicity = 1

 SCF Done:  E(RHF) =  -1203.48738524     A.U. after   13 cycles
 Normal termination of Gaussian 16 at Wed Apr  9 00:15:08 2025.
 Gaussian 16:  ES64L-G16RevC.01  3-Jul-2019

 ----------------------------------------------------------------------
 #t hf aug-cc-pvdz iop(5/13=1,5/36=2,99/5=2) pseudo=read geom=check gue
 ss=(read,tcheck) scf=(maxcycle=1)
 ----------------------------------------------------------------------
 -----
 title
 -----
 Structure from the checkpoint file:  "BDE49_nonexpt_2518_mol1.chk"
 Charge =  0 Multiplicity = 1

                         Standard orientation:
 ---------------------------------------------------------------------
 Center     Atomic      Atomic             Coordinates (Angstroms)
 Number     Number       Type             X           Y           Z
 ---------------------------------------------------------------------
      1         14           0       -1.501272    0.064940   -0.349277
      2         16           0        0.376211   -0.829018   -1.020580
      3         16           0        1.616538   -0.483963    0.649974
      4          6           0        2.543314    1.008608    0.149356
      5          1           0        3.259368    1.192590    0.954525
      6          1           0        1.885271    1.870234    0.044383
      7          1           0        3.083946    0.828680   -0.778997
      8          6           0       -1.337100    1.906436   -0.033005
      9          1           0       -0.653749    2.103745    0.797208
     10          1           0       -2.312891    2.326754    0.231526
     11          1           0       -0.970414    2.430526   -0.918572
     12          6           0       -2.176996   -0.825193    1.154015
     13          1           0       -1.495761   -0.730312    2.003495
     14          1           0       -2.320240   -1.888175    0.946910
     15          1           0       -3.142890   -0.398772    1.443777
     16          1           0       -2.374113   -0.175833   -1.526868
 ---------------------------------------------------------------------

 SCF Done:  E(RHF) =  -1203.59108416     A.U. after    2 cycles

 The electronic state is 1-A.
 Alpha  occ. eigenvalues --  -93.55736 -93.53802 -69.08355 -11.27207 -11.22368
 Alpha  occ. eigenvalues --  -11.21955  -8.85225  -8.83527  -6.83329  -6.19346
 Alpha  occ. eigenvalues --   -6.19085  -6.18773  -6.17642  -6.17368  -6.17145
 Alpha  occ. eigenvalues --   -3.94149  -3.94071  -3.94034  -1.04681  -0.96523
 Alpha  occ. eigenvalues --   -0.93376  -0.92945  -0.80155  -0.64748  -0.60264
 Alpha  occ. eigenvalues --   -0.59611  -0.57794  -0.57289  -0.55685  -0.55505
 Alpha  occ. eigenvalues --   -0.51553  -0.47330  -0.46006  -0.45429  -0.42825
 Alpha  occ. eigenvalues --   -0.36068  -0.34093
 Alpha virt. eigenvalues --    0.03143   0.04184   0.04780   0.05147   0.06286
 Alpha virt. eigenvalues --    0.06374   0.06879   0.07114   0.07443   0.08543
 Alpha virt. eigenvalues --    0.09335   0.09817   0.10471   0.11773   0.12387

 Mulliken charges:
               1
     1  Si   1.491824
     2  S   -0.579625
     3  S    0.013328
     4  C    0.107191
     5  H   -0.055057
     6  H   -0.132384
     7  H   -0.050932
     8  C    0.416346
     9  H   -0.197534
    10  H   -0.244800
    11  H   -0.318738
    12  C    0.346619
    13  H   -0.169871
    14  H   -0.297721
    15  H   -0.226045
    16  H   -0.102601
 Sum of Mulliken charges =  -0.00000

 Dipole moment (field-independent basis, Debye):
    X=             -0.4488    Y=              2.2074    Z=              0.7657  Tot=              2.3791

 Test job not archived.
 1\1\GINC-SE247\SP\RHF\Aug-CC-pVDZ\C3H10S2Si1\OHZDE\09-Apr-2025\0\\#t h
 f aug-cc-pvdz iop(5/13=1,5/36=2,99/5=2) pseudo=read geom=check guess=(
 read,tcheck) scf=(maxcycle=1)\\title\\0,1\Si,0,-1.501272,0.06494,-0.34
 9277\S,0,0.376211,-0.829018,-1.02058\S,0,1.616538,-0.483963,0.649974\C
 ,0,2.543314,1.008608,0.149356\H,0,3.259368,1.19259,0.954525\H,0,1.8852
 71,1.870234,0.044383\H,0,3.083946,0.82868,-0.778997\C,0,-1.3371,1.9064
 36,-0.033005\H,0,-0.653749,2.103745,0.797208\H,0,-2.312891,2.326754,0.
 231526\H,0,-0.970414,2.430526,-0.918572\C,0,-2.176996,-0.825193,1.1540

 Normal termination of Gaussian 16 at Wed Apr  9 00:15:15 2025.
