 Gaussian 16, Revision C.01,

 ----------------------------------------------------------------------
 #t hf aug-cc-pvdz symm=none int=(grid=ultrafine) guess=(read,tcheck) s
 table=opt
 ----------------------------------------------------------------------
 -----
 title
 -----
 Symbolic Z-matrix:
 Charge =  0 Multiplicity = 2

 SCF Done:  E(UHF) =  -1491.18088128     A.U. after   20 cycles

 1\1\GINC-SE458\Stability\UHF\Aug-CC-pVDZ\C1Cl3O1\OHZDE\08-Apr-2025\0\\
 #t hf aug-cc-pvdz symm=none int=(grid=ultrafine) guess=(read,tcheck) s
 table=opt\\title\\0,2\O,0,0.298272,0.000038,1.568705\C,0,-0.02477,0.00
 0001,0.321248\Cl,0,1.696474,0.000215,-0.381303\Cl,0,-0.914247,1.467102
 ,-0.235145\Cl,0,-0.913849,-1.467335,-0.235148\\Version=ES64L-G16RevC.0
 1\HF=-1491.1808813\S2=0.777796\S2-1=0.\S2A=0.750365\RMSD=4.603e-09\Dip
 ole=-0.0441431,-0.0000043,-0.0876358\Quadrupole=0.7487098,0.1664107,-0
 .9151206,0.0000504,-0.591148,-0.0000702\PG=Unknown\\@

 Normal termination of Gaussian 16 at Tue Apr  8 23:14:52 2025.
 Gaussian 16:  ES64L-G16RevC.01  3-Jul-2019

 ----------------------------------------------------------------------
 #t hf aug-cc-pvdz iop(5/13=1,5/36=2,99/5=2) pseudo=read geom=check gue
 ss=(read,tcheck) scf=(maxcycle=1)
 ----------------------------------------------------------------------
 -----
 title
 -----
 Structure from the checkpoint file:  "BDE49_nonexpt_1031_mol2.chk"
 Charge =  0 Multiplicity = 2

                         Standard orientation:
 ---------------------------------------------------------------------
 Center     Atomic      Atomic             Coordinates (Angstroms)
 Number     Number       Type             X           Y           Z
 ---------------------------------------------------------------------
      1          8           0       -0.298272   -0.000039    1.568705
      2          6           0        0.024770   -0.000001    0.321248
      3         17           0       -1.696474   -0.000220   -0.381303
      4         17           0        0.914251   -1.467099   -0.235145
      5         17           0        0.913844    1.467338   -0.235148
 ---------------------------------------------------------------------

 SCF Done:  E(UHF) =  -1491.27252276     A.U. after    2 cycles

 The electronic state is 2-A.
 Alpha  occ. eigenvalues -- -103.71262-103.70474-103.70474 -20.72398 -11.51557
 Alpha  occ. eigenvalues --  -10.74490 -10.73781 -10.73765  -8.40643  -8.39805
 Alpha  occ. eigenvalues --   -8.39756  -8.39543  -8.39536  -8.39136  -8.39135
 Alpha  occ. eigenvalues --   -8.39128  -8.39125  -1.51218  -1.23868  -1.18268
 Alpha  occ. eigenvalues --   -1.17345  -0.88377  -0.80681  -0.74529  -0.73215
 Alpha  occ. eigenvalues --   -0.60652  -0.57311  -0.53501  -0.52338  -0.52288
 Alpha  occ. eigenvalues --   -0.49300  -0.49186  -0.48074
 Alpha virt. eigenvalues --    0.04998   0.07464   0.08233   0.08306   0.10255
 Alpha virt. eigenvalues --    0.11819   0.12488   0.14142   0.14560   0.14791
 Alpha virt. eigenvalues --    0.18426   0.18555   0.18571   0.18709   0.21521

  Beta  occ. eigenvalues -- -103.70961-103.70448-103.70447 -20.68436 -11.52192
  Beta  occ. eigenvalues --  -10.74181 -10.73756 -10.73740  -8.39727  -8.39589
  Beta  occ. eigenvalues --   -8.39416  -8.39409  -8.39288  -8.39127  -8.39125
  Beta  occ. eigenvalues --   -8.39116  -8.39115  -1.40771  -1.21343  -1.17132
  Beta  occ. eigenvalues --   -1.15882  -0.85404  -0.72481  -0.71225  -0.66013
  Beta  occ. eigenvalues --   -0.55373  -0.53284  -0.51935  -0.51128  -0.49213
  Beta  occ. eigenvalues --   -0.48969  -0.47973
  Beta virt. eigenvalues --   -0.02253   0.05067   0.07761   0.08309   0.09045
  Beta virt. eigenvalues --    0.10502   0.12089   0.12337   0.14394   0.14666
  Beta virt. eigenvalues --    0.14840   0.18543   0.18587   0.18700   0.20085

 Mulliken charges and spin densities:
               1          2
     1  O   -0.140648   1.013732
     2  C   -0.289205  -0.270265
     3  Cl   0.148570   0.216639
     4  Cl   0.140641   0.019946
     5  Cl   0.140642   0.019947
 Sum of Mulliken charges =  -0.00000   1.00000

 Dipole moment (field-independent basis, Debye):
    X=              0.1328    Y=              0.0000    Z=             -0.2949  Tot=              0.3235
                          Isotropic Fermi Contact Couplings
        Atom                 a.u.       MegaHertz       Gauss      10(-4) cm-1
     1  O(17)              0.27641    -167.56131     -59.79004     -55.89244
     2  C(13)             -0.10470    -117.70429     -41.99982     -39.26193
     3  Cl(35)             0.05105      22.38245       7.98662       7.46598
     4  Cl(35)            -0.00753      -3.30288      -1.17855      -1.10172
     5  Cl(35)            -0.00753      -3.30272      -1.17849      -1.10167
 --------------------------------------------------------
       Center         ----  Spin Dipole Couplings  ----
                      3XX-RR        3YY-RR        3ZZ-RR

 Normal termination of Gaussian 16 at Tue Apr  8 23:14:54 2025.
