 Gaussian 16, Revision C.01,

 ----------------------------------------------------------------------
 #t hf aug-cc-pvdz symm=none int=(grid=ultrafine) guess=(read,tcheck) s
 table=(opt,rrhf)
 ----------------------------------------------------------------------
 -----
 title
 -----
 Symbolic Z-matrix:
 Charge =  0 Multiplicity = 1

 SCF Done:  E(RHF) =  -1174.28891703     A.U. after   16 cycles
 Normal termination of Gaussian 16 at Tue Apr  8 23:34:59 2025.
 Gaussian 16:  ES64L-G16RevC.01  3-Jul-2019

 ----------------------------------------------------------------------
 #t hf aug-cc-pvdz iop(5/13=1,5/36=2,99/5=2) pseudo=read geom=check gue
 ss=(read,tcheck) scf=(maxcycle=1)
 ----------------------------------------------------------------------
 -----
 title
 -----
 Structure from the checkpoint file:  "BDE49_nonexpt_1463_mol1.chk"
 Charge =  0 Multiplicity = 1

                         Standard orientation:
 ---------------------------------------------------------------------
 Center     Atomic      Atomic             Coordinates (Angstroms)
 Number     Number       Type             X           Y           Z
 ---------------------------------------------------------------------
      1         16           0        0.886447    0.641188    0.519521
      2          8           0        1.002707    2.089113    0.386269
      3         15           0        2.086627   -0.256776   -1.160323
      4          6           0       -0.824134    0.195833    0.191327
      5          6           0       -1.586863    1.003466   -0.651225
      6          6           0       -2.904368    0.643626   -0.919603
      7          6           0       -3.445259   -0.508498   -0.348771
      8          6           0       -2.674704   -1.302983    0.498731
      9          6           0       -1.354731   -0.953523    0.774364
     10          1           0       -3.103193   -2.189067    0.952658
     11          1           0       -0.746258   -1.540234    1.450591
     12          1           0       -1.155062    1.904840   -1.067449
     13          1           0       -3.510790    1.265985   -1.567289
     14          1           0       -4.472758   -0.782852   -0.558941
     15          8           0        1.275914   -0.045710    1.750836
     16          7           0        2.573961   -1.732007   -0.499292
     17          1           0        2.024989   -2.533139   -0.779048
     18          1           0        2.808517   -1.758062    0.487455
     19          1           0        3.165662    0.534468   -0.696197
 ---------------------------------------------------------------------

 SCF Done:  E(RHF) =  -1174.51254086     A.U. after    2 cycles

 The electronic state is 1-A.
 Alpha  occ. eigenvalues --  -93.76392 -81.32650 -20.55642 -20.55494 -15.65166
 Alpha  occ. eigenvalues --  -11.28757 -11.27594 -11.27523 -11.27326 -11.26790
 Alpha  occ. eigenvalues --  -11.26747  -9.03335  -7.82551  -6.37943  -6.37696
 Alpha  occ. eigenvalues --   -6.37598  -4.96558  -4.96335  -4.96115  -1.40438
 Alpha  occ. eigenvalues --   -1.29670  -1.17196  -1.15517  -1.05010  -1.03747
 Alpha  occ. eigenvalues --   -0.91637  -0.85668  -0.84042  -0.78609  -0.73375
 Alpha  occ. eigenvalues --   -0.70194  -0.67758  -0.67093  -0.66711  -0.64345
 Alpha  occ. eigenvalues --   -0.63682  -0.61937  -0.58150  -0.55178  -0.53553
 Alpha  occ. eigenvalues --   -0.52655  -0.52162  -0.50791  -0.49440  -0.48012
 Alpha  occ. eigenvalues --   -0.42384  -0.37884  -0.36745  -0.36407
 Alpha virt. eigenvalues --    0.02604   0.03466   0.04045   0.05161   0.05237
 Alpha virt. eigenvalues --    0.05709   0.06595   0.07350   0.07720   0.08253
 Alpha virt. eigenvalues --    0.08703   0.09814   0.10241   0.11577   0.12231

 Mulliken charges:
               1
     1  S    2.491314
     2  O   -1.163753
     3  P    0.593159
     4  C    0.338717
     5  C   -0.153628
     6  C    0.649687
     7  C    0.457141
     8  C    0.629016
     9  C   -0.003156
    10  H   -0.438448
    11  H   -0.554302
    12  H   -0.521757
    13  H   -0.431662
    14  H   -0.434226
    15  O   -1.215121
    16  N   -0.482418
    17  H    0.053900
    18  H    0.032545
    19  H    0.152993
 Sum of Mulliken charges =  -0.00000

 Dipole moment (field-independent basis, Debye):
    X=             -2.4371    Y=             -4.0984    Z=             -2.9733  Tot=              5.6193

 Test job not archived.
 1\1\GINC-SE132\SP\RHF\Aug-CC-pVDZ\C6H8N1O2P1S1\OHZDE\08-Apr-2025\0\\#t
  hf aug-cc-pvdz iop(5/13=1,5/36=2,99/5=2) pseudo=read geom=check guess
 =(read,tcheck) scf=(maxcycle=1)\\title\\0,1\S,0,-0.886447,-0.641188,0.
 519521\O,0,-1.002707,-2.089113,0.386269\P,0,-2.086627,0.256776,-1.1603
 23\C,0,0.824134,-0.195833,0.191327\C,0,1.586863,-1.003466,-0.651225\C,
 0,2.904368,-0.643626,-0.919603\C,0,3.445259,0.508499,-0.348771\C,0,2.6
 74704,1.302983,0.498731\C,0,1.354731,0.953523,0.774364\H,0,3.103192,2.
 189068,0.952658\H,0,0.746258,1.540234,1.450591\H,0,1.155062,-1.90484,-

 Normal termination of Gaussian 16 at Tue Apr  8 23:35:12 2025.
