 Gaussian 16, Revision C.01,

 ----------------------------------------------------------------------
 #t hf aug-cc-pvdz symm=none int=(grid=ultrafine) guess=(read,tcheck) s
 table=(opt,rrhf)
 ----------------------------------------------------------------------
 -----
 title
 -----
 Symbolic Z-matrix:
 Charge =  0 Multiplicity = 1

 SCF Done:  E(RHF) =  -336.814029347     A.U. after   10 cycles
 Normal termination of Gaussian 16 at Tue Apr  8 22:33:39 2025.
 Gaussian 16:  ES64L-G16RevC.01  3-Jul-2019

 ----------------------------------------------------------------------
 #t hf aug-cc-pvdz iop(5/13=1,5/36=2,99/5=2) pseudo=read geom=check gue
 ss=(read,tcheck) scf=(maxcycle=1)
 ----------------------------------------------------------------------
 -----
 title
 -----
 Structure from the checkpoint file:  "BDE49_expt_111_mol1.chk"
 Charge =  0 Multiplicity = 1

                         Standard orientation:
 ---------------------------------------------------------------------
 Center     Atomic      Atomic             Coordinates (Angstroms)
 Number     Number       Type             X           Y           Z
 ---------------------------------------------------------------------
      1          6           0       -0.000012   -0.000003    0.339711
      2          1           0        0.000006   -0.000001    1.429999
      3          9           0        0.748719   -1.010052   -0.128455
      4          9           0        0.500404    1.153414   -0.128458
      5          9           0       -1.249115   -0.143359   -0.128449
 ---------------------------------------------------------------------

 SCF Done:  E(RHF) =  -336.940417080     A.U. after    2 cycles

 The electronic state is 1-A.
 Alpha  occ. eigenvalues --  -26.17244 -26.17244 -26.17229 -11.53114  -1.76763
 Alpha  occ. eigenvalues --   -1.69783  -1.69783  -1.04293  -0.89005  -0.88434
 Alpha  occ. eigenvalues --   -0.88434  -0.77665  -0.77664  -0.73595  -0.73595
 Alpha  occ. eigenvalues --   -0.72352  -0.63651
 Alpha virt. eigenvalues --    0.03436   0.08658   0.08658   0.09019   0.15885
 Alpha virt. eigenvalues --    0.23646   0.23646   0.24711   0.24711   0.25434
 Alpha virt. eigenvalues --    0.29581   0.29582   0.32192   0.33277   0.34888

 Mulliken charges:
               1
     1  C    1.090318
     2  H   -0.203688
     3  F   -0.295544
     4  F   -0.295539
     5  F   -0.295548
 Sum of Mulliken charges =  -0.00000

 Dipole moment (field-independent basis, Debye):
    X=             -0.0001    Y=             -0.0000    Z=              2.0671  Tot=              2.0671

 Test job not archived.
 1\1\GINC-SE083\SP\RHF\Aug-CC-pVDZ\C1H1F3\OHZDE\08-Apr-2025\0\\#t hf au
 g-cc-pvdz iop(5/13=1,5/36=2,99/5=2) pseudo=read geom=check guess=(read
 ,tcheck) scf=(maxcycle=1)\\title\\0,1\C,0,-0.000012,-0.000003,0.339711
 \H,0,0.000006,-0.000001,1.429999\F,0,0.745052,-1.01276,-0.128455\F,0,0
 .504582,1.151592,-0.128458\F,0,-1.249627,-0.13883,-0.128449\\Version=E
 S64L-G16RevC.01\State=1-A\HF=-336.9404171\RMSD=6.338e-03\Dipole=-0.000
 0254,-0.0000042,0.8132701\Quadrupole=-1.133866,-1.1337672,2.2676332,0.
 0000051,0.0000183,0.000003\PG=C01 [X(C1H1F3)]\\@

 Normal termination of Gaussian 16 at Tue Apr  8 22:33:42 2025.
