 Gaussian 16, Revision C.01,

 ----------------------------------------------------------------------
 #t hf aug-cc-pvdz symm=none int=(grid=ultrafine) guess=(read,tcheck) s
 table=(opt,rrhf)
 ----------------------------------------------------------------------
 -----
 title
 -----
 Symbolic Z-matrix:
 Charge =  0 Multiplicity = 1

 SCF Done:  E(RHF) =  -479.951684434     A.U. after   14 cycles
 Normal termination of Gaussian 16 at Tue Apr  8 23:56:21 2025.
 Gaussian 16:  ES64L-G16RevC.01  3-Jul-2019

 ----------------------------------------------------------------------
 #t hf aug-cc-pvdz iop(5/13=1,5/36=2,99/5=2) pseudo=read geom=check gue
 ss=(read,tcheck) scf=(maxcycle=1)
 ----------------------------------------------------------------------
 -----
 title
 -----
 Structure from the checkpoint file:  "BDE49_nonexpt_2043_mol1.chk"
 Charge =  0 Multiplicity = 1

                         Standard orientation:
 ---------------------------------------------------------------------
 Center     Atomic      Atomic             Coordinates (Angstroms)
 Number     Number       Type             X           Y           Z
 ---------------------------------------------------------------------
      1         14           0        1.494487   -0.127067    0.107798
      2          8           0        0.056214    0.699998   -0.175360
      3          8           0       -0.940694   -0.332543   -0.495330
      4          6           0       -2.075272   -0.039795    0.302222
      5          1           0       -2.813306   -0.789985    0.008216
      6          1           0       -2.453707    0.962438    0.082801
      7          1           0       -1.851720   -0.133752    1.369652
      8          1           0        2.441999    0.971114    0.387670
      9          1           0        1.915026   -0.901936   -1.077629
     10          1           0        1.366363   -1.029814    1.272305
 ---------------------------------------------------------------------

 SCF Done:  E(RHF) =  -480.045422499     A.U. after    2 cycles

 The electronic state is 1-A.
 Alpha  occ. eigenvalues --  -69.09983 -20.64793 -20.62167 -11.29691  -6.84818
 Alpha  occ. eigenvalues --   -3.95725  -3.95593  -3.95545  -1.41345  -1.19647
 Alpha  occ. eigenvalues --   -0.92200  -0.74771  -0.68524  -0.67134  -0.64754
 Alpha  occ. eigenvalues --   -0.57396  -0.54935  -0.53065  -0.48546  -0.48265
 Alpha  occ. eigenvalues --   -0.45707
 Alpha virt. eigenvalues --    0.03544   0.04621   0.05390   0.05978   0.06672
 Alpha virt. eigenvalues --    0.07390   0.07583   0.09349   0.09961   0.12162
 Alpha virt. eigenvalues --    0.14815   0.15188   0.16039   0.16328   0.17481

 Mulliken charges:
               1
     1  Si   0.791053
     2  O   -0.705508
     3  O   -0.418674
     4  C    0.826604
     5  H   -0.172423
     6  H   -0.091341
     7  H   -0.104815
     8  H   -0.019500
     9  H   -0.049998
    10  H   -0.055398
 Sum of Mulliken charges =  -0.00000

 Dipole moment (field-independent basis, Debye):
    X=             -0.6170    Y=             -0.5335    Z=              1.2108  Tot=              1.4599

 Test job not archived.
 1\1\GINC-SE331\SP\RHF\Aug-CC-pVDZ\C1H6O2Si1\OHZDE\08-Apr-2025\0\\#t hf
  aug-cc-pvdz iop(5/13=1,5/36=2,99/5=2) pseudo=read geom=check guess=(r
 ead,tcheck) scf=(maxcycle=1)\\title\\0,1\Si,0,-1.494487,-0.127067,-0.1
 07798\O,0,-0.056214,0.699998,0.17536\O,0,0.940694,-0.332543,0.49533\C,
 0,2.075272,-0.039795,-0.302222\H,0,2.813306,-0.789985,-0.008216\H,0,2.
 453707,0.962438,-0.082801\H,0,1.85172,-0.133752,-1.369652\H,0,-2.44199
 9,0.971114,-0.38767\H,0,-1.915026,-0.901936,1.077629\H,0,-1.366363,-1.
 029814,-1.272305\\Version=ES64L-G16RevC.01\State=1-A\HF=-480.0454225\R

 Normal termination of Gaussian 16 at Tue Apr  8 23:56:23 2025.
