 Gaussian 16, Revision C.01,

 ----------------------------------------------------------------------
 #t hf aug-cc-pvdz symm=none int=(grid=ultrafine) guess=(read,tcheck) s
 table=opt
 ----------------------------------------------------------------------
 -----
 title
 -----
 Symbolic Z-matrix:
 Charge =  0 Multiplicity = 2

 SCF Done:  E(UHF) =  -996.458881209     A.U. after   16 cycles

 1\1\GINC-SE338\Stability\UHF\Aug-CC-pVDZ\C2H3Cl2\OHZDE\08-Apr-2025\0\\
 #t hf aug-cc-pvdz symm=none int=(grid=ultrafine) guess=(read,tcheck) s
 table=opt\\title\\0,2\C,0,0.,1.787336,0.041659\H,0,-0.889023,2.247258,
 -0.394506\H,0,0.889023,2.247258,-0.394506\H,0,0.,1.999527,1.119935\C,0
 ,0.,0.32372,-0.232989\Cl,0,-1.467886,-0.563541,0.024031\Cl,0,1.467887,
 -0.563541,0.024031\\Version=ES64L-G16RevC.01\HF=-996.4588812\S2=0.7673
 74\S2-1=0.\S2A=0.750253\RMSD=8.871e-09\Dipole=-0.0000012,0.7452517,0.0
 193999\Quadrupole=-0.9074158,1.5838992,-0.6764834,0.0000013,0.,-0.1052

 Normal termination of Gaussian 16 at Tue Apr  8 22:29:20 2025.
 Gaussian 16:  ES64L-G16RevC.01  3-Jul-2019

 ----------------------------------------------------------------------
 #t hf aug-cc-pvdz iop(5/13=1,5/36=2,99/5=2) pseudo=read geom=check gue
 ss=(read,tcheck) scf=(maxcycle=1)
 ----------------------------------------------------------------------
 -----
 title
 -----
 Structure from the checkpoint file:  "BDE49_expt_1030_mol2.chk"
 Charge =  0 Multiplicity = 2

                         Standard orientation:
 ---------------------------------------------------------------------
 Center     Atomic      Atomic             Coordinates (Angstroms)
 Number     Number       Type             X           Y           Z
 ---------------------------------------------------------------------
      1          6           0       -0.000001    1.787336    0.041659
      2          1           0       -0.889024    2.247258   -0.394506
      3          1           0        0.889022    2.247259   -0.394506
      4          1           0       -0.000001    1.999527    1.119935
      5          6           0       -0.000000    0.323720   -0.232989
      6         17           0       -1.467886   -0.563541    0.024031
      7         17           0        1.467887   -0.563540    0.024031
 ---------------------------------------------------------------------

 SCF Done:  E(UHF) =  -996.522158753     A.U. after    2 cycles

 The electronic state is 2-A.
 Alpha  occ. eigenvalues -- -103.68303-103.68302 -11.37549 -11.26567 -10.71611
 Alpha  occ. eigenvalues --  -10.71600  -8.37271  -8.37267  -8.37094  -8.37092
 Alpha  occ. eigenvalues --   -8.37005  -8.37004  -1.24257  -1.15617  -1.02373
 Alpha  occ. eigenvalues --   -0.81969  -0.65206  -0.65116  -0.62690  -0.55492
 Alpha  occ. eigenvalues --   -0.54772  -0.49690  -0.48691  -0.46775  -0.36893
 Alpha virt. eigenvalues --    0.03542   0.05778   0.05910   0.07547   0.09331
 Alpha virt. eigenvalues --    0.09759   0.13762   0.14207   0.14541   0.15216
 Alpha virt. eigenvalues --    0.17278   0.17334   0.18120   0.18341   0.19085

  Beta  occ. eigenvalues -- -103.68275-103.68274 -11.34589 -11.26813 -10.71579
  Beta  occ. eigenvalues --  -10.71567  -8.37436  -8.37430  -8.36987  -8.36986
  Beta  occ. eigenvalues --   -8.36817  -8.36817  -1.21903  -1.15256  -1.01107
  Beta  occ. eigenvalues --   -0.76579  -0.64278  -0.61405  -0.59617  -0.55098
  Beta  occ. eigenvalues --   -0.51334  -0.48521  -0.47699  -0.46709
  Beta virt. eigenvalues --    0.03464   0.05636   0.05907   0.07392   0.09036
  Beta virt. eigenvalues --    0.09512   0.10665   0.13967   0.14467   0.14598
  Beta virt. eigenvalues --    0.16128   0.17446   0.17501   0.18374   0.18543

 Mulliken charges and spin densities:
               1          2
     1  C    0.507436  -0.175816
     2  H   -0.019190   0.006867
     3  H   -0.019190   0.006867
     4  H    0.077778   0.050018
     5  C   -0.311028   1.140822
     6  Cl  -0.117903  -0.014379
     7  Cl  -0.117903  -0.014379
 Sum of Mulliken charges =  -0.00000   1.00000

 Dipole moment (field-independent basis, Debye):
    X=             -0.0000    Y=              1.9630    Z=              0.0453  Tot=              1.9635
                          Isotropic Fermi Contact Couplings
        Atom                 a.u.       MegaHertz       Gauss      10(-4) cm-1
     1  C(13)             -0.04070     -45.75403     -16.32618     -15.26190
     2  H(1)               0.00540      24.13653       8.61252       8.05108
     3  H(1)               0.00540      24.13654       8.61252       8.05108
     4  H(1)               0.02313     103.39512      36.89395      34.48890
     5  C(13)              0.38668     434.69965     155.11165     145.00020
     6  Cl(35)             0.03905      17.11999       6.10884       5.71061
     7  Cl(35)             0.03905      17.11999       6.10884       5.71062
 --------------------------------------------------------

 Normal termination of Gaussian 16 at Tue Apr  8 22:29:22 2025.
