 Gaussian 16, Revision C.01,

 ----------------------------------------------------------------------
 #t hf aug-cc-pvdz symm=none int=(grid=ultrafine) guess=(read,tcheck) s
 table=(opt,rrhf)
 ----------------------------------------------------------------------
 -----
 title
 -----
 Symbolic Z-matrix:
 Charge =  0 Multiplicity = 1

 SCF Done:  E(RHF) =  -983.552969488     A.U. after   19 cycles
 Normal termination of Gaussian 16 at Tue Apr  8 23:17:19 2025.
 Gaussian 16:  ES64L-G16RevC.01  3-Jul-2019

 ----------------------------------------------------------------------
 #t hf aug-cc-pvdz iop(5/13=1,5/36=2,99/5=2) pseudo=read geom=check gue
 ss=(read,tcheck) scf=(maxcycle=1)
 ----------------------------------------------------------------------
 -----
 title
 -----
 Structure from the checkpoint file:  "BDE49_nonexpt_1003_mol1.chk"
 Charge =  0 Multiplicity = 1

                         Standard orientation:
 ---------------------------------------------------------------------
 Center     Atomic      Atomic             Coordinates (Angstroms)
 Number     Number       Type             X           Y           Z
 ---------------------------------------------------------------------
      1          6           0        2.807224    0.166725    0.008832
      2          6           0        2.213343    1.440271    0.004072
      3          6           0        0.839888    1.563470   -0.007423
      4          6           0        1.998838   -0.976397    0.001967
      5          6           0        0.615260   -0.838203   -0.009484
      6          6           0        0.015834    0.422947   -0.014431
      7          1           0        2.860164    2.308845    0.009445
      8          1           0        0.372288    2.540026   -0.011358
      9          1           0        2.432477   -1.966678    0.006176
     10          1           0        0.000597   -1.730307   -0.013026
     11          6           0       -1.451255    0.633880   -0.027621
     12         16           0       -2.467462   -0.908588   -0.068378
     13          7           0       -4.173044    0.029106    0.082642
     14          8           0       -5.097369   -0.671000    0.069016
     15          8           0       -1.977089    1.714657   -0.019269
     16          8           0        4.160517    0.151349    0.020139
     17          6           0        4.835999   -1.103080    0.025053
     18          1           0        4.586935   -1.685801    0.917774
     19          1           0        5.897726   -0.865039    0.033654
     20          1           0        4.601245   -1.685108   -0.871990
 ---------------------------------------------------------------------

 SCF Done:  E(RHF) =  -983.748956653     A.U. after    2 cycles

 The electronic state is 1-A.
 Alpha  occ. eigenvalues --  -93.57072 -20.70398 -20.62292 -20.57889 -15.84733
 Alpha  occ. eigenvalues --  -11.39012 -11.34261 -11.31449 -11.28246 -11.27283
 Alpha  occ. eigenvalues --  -11.26566 -11.26163 -11.25563  -8.86760  -6.20792
 Alpha  occ. eigenvalues --   -6.20627  -6.20272  -1.55647  -1.39415  -1.37974
 Alpha  occ. eigenvalues --   -1.16764  -1.06168  -1.03900  -1.02279  -0.97301
 Alpha  occ. eigenvalues --   -0.91083  -0.87187  -0.84684  -0.78451  -0.74995
 Alpha  occ. eigenvalues --   -0.73447  -0.70754  -0.68966  -0.68850  -0.68570
 Alpha  occ. eigenvalues --   -0.67131  -0.64920  -0.62448  -0.61508  -0.59361
 Alpha  occ. eigenvalues --   -0.59339  -0.58188  -0.54968  -0.54862  -0.50955
 Alpha  occ. eigenvalues --   -0.49415  -0.42613  -0.39612  -0.38574  -0.36718
 Alpha  occ. eigenvalues --   -0.34143
 Alpha virt. eigenvalues --    0.02641   0.03842   0.04347   0.05097   0.05277
 Alpha virt. eigenvalues --    0.05977   0.06233   0.06986   0.07725   0.08260
 Alpha virt. eigenvalues --    0.08653   0.09465   0.10479   0.10843   0.11351

 Mulliken charges:
               1
     1  C    0.314100
     2  C    1.138977
     3  C    0.123095
     4  C    0.411426
     5  C    0.350283
     6  C    1.220120
     7  H   -0.575753
     8  H   -0.658183
     9  H   -0.681067
    10  H   -0.543277
    11  C   -0.525293
    12  S    0.553264
    13  N   -0.060520
    14  O   -0.302121
    15  O   -0.477152
    16  O   -0.661101
    17  C    0.842408
    18  H   -0.082720
    19  H   -0.303450
    20  H   -0.083033
 Sum of Mulliken charges =  -0.00000

 Dipole moment (field-independent basis, Debye):
    X=              4.7067    Y=             -2.9775    Z=              0.0253  Tot=              5.5695

 Test job not archived.
 1\1\GINC-SE049\SP\RHF\Aug-CC-pVDZ\C8H7N1O3S1\OHZDE\08-Apr-2025\0\\#t h
 f aug-cc-pvdz iop(5/13=1,5/36=2,99/5=2) pseudo=read geom=check guess=(
 read,tcheck) scf=(maxcycle=1)\\title\\0,1\C,0,2.807224,0.166725,0.0088
 32\C,0,2.213343,1.440271,0.004072\C,0,0.839888,1.56347,-0.007423\C,0,1
 .998838,-0.976397,0.001967\C,0,0.61526,-0.838203,-0.009484\C,0,0.01583
 4,0.422947,-0.014431\H,0,2.860164,2.308845,0.009445\H,0,0.372288,2.540
 026,-0.011358\H,0,2.432477,-1.966678,0.006176\H,0,0.000597,-1.730307,-
 0.013026\C,0,-1.451255,0.63388,-0.027621\S,0,-2.467462,-0.908588,-0.06

 Normal termination of Gaussian 16 at Tue Apr  8 23:17:34 2025.
