 Gaussian 16, Revision C.01,

 ----------------------------------------------------------------------
 #t hf aug-cc-pvdz symm=none int=(grid=ultrafine) guess=(read,tcheck) s
 table=(opt,rrhf)
 ----------------------------------------------------------------------
 -----
 title
 -----
 Symbolic Z-matrix:
 Charge =  0 Multiplicity = 1

 SCF Done:  E(RHF) =  -548.396451640     A.U. after   13 cycles
 Normal termination of Gaussian 16 at Tue Apr  8 22:55:33 2025.
 Gaussian 16:  ES64L-G16RevC.01  3-Jul-2019

 ----------------------------------------------------------------------
 #t hf aug-cc-pvdz iop(5/13=1,5/36=2,99/5=2) pseudo=read geom=check gue
 ss=(read,tcheck) scf=(maxcycle=1)
 ----------------------------------------------------------------------
 -----
 title
 -----
 Structure from the checkpoint file:  "BDE49_expt_1913_mol1.chk"
 Charge =  0 Multiplicity = 1

                         Standard orientation:
 ---------------------------------------------------------------------
 Center     Atomic      Atomic             Coordinates (Angstroms)
 Number     Number       Type             X           Y           Z
 ---------------------------------------------------------------------
      1          8           0        0.000000    1.315761   -0.467978
      2         16           0       -0.000000    0.000000    0.558858
      3          1           0        0.915625    1.486325   -0.727042
      4          8           0       -0.000000   -1.315761   -0.467978
      5          1           0       -0.915625   -1.486325   -0.727042
 ---------------------------------------------------------------------

 SCF Done:  E(RHF) =  -548.476962359     A.U. after    2 cycles

 The electronic state is 1-A.
 Alpha  occ. eigenvalues --  -93.64142 -20.62526 -20.62524  -8.92598  -6.26799
 Alpha  occ. eigenvalues --   -6.26477  -6.25968  -1.37600  -1.33037  -0.92493
 Alpha  occ. eigenvalues --   -0.75559  -0.67686  -0.64110  -0.62794  -0.54183
 Alpha  occ. eigenvalues --   -0.50421  -0.37239
 Alpha virt. eigenvalues --    0.03625   0.04749   0.08222   0.09228   0.12365
 Alpha virt. eigenvalues --    0.16715   0.17541   0.18050   0.20543   0.21058
 Alpha virt. eigenvalues --    0.22305   0.22791   0.23536   0.27531   0.32003

 Mulliken charges:
               1
     1  O   -0.656986
     2  S    0.956443
     3  H    0.178764
     4  O   -0.656986
     5  H    0.178764
 Sum of Mulliken charges =  -0.00000

 Dipole moment (field-independent basis, Debye):
    X=             -0.0000    Y=             -0.0000    Z=             -0.2709  Tot=              0.2709

 Test job not archived.
 1\1\GINC-SE221\SP\RHF\Aug-CC-pVDZ\H2O2S1\OHZDE\08-Apr-2025\0\\#t hf au
 g-cc-pvdz iop(5/13=1,5/36=2,99/5=2) pseudo=read geom=check guess=(read
 ,tcheck) scf=(maxcycle=1)\\title\\0,1\O,0,0.,-1.315761,-0.467978\S,0,0
 .,0.,0.558858\H,0,-0.915625,-1.486325,-0.727042\O,0,0.,1.315761,-0.467
 978\H,0,0.915625,1.486325,-0.727042\\Version=ES64L-G16RevC.01\State=1-
 A\HF=-548.4769624\RMSD=3.232e-03\Dipole=0.,0.,-0.1065985\Quadrupole=0.
 9838691,-0.7096872,-0.2741818,4.1791986,0.,0.\PG=C02 [C2(S1),X(H2O2)]\
 \@

 Normal termination of Gaussian 16 at Tue Apr  8 22:55:35 2025.
