 Gaussian 16, Revision C.01,

 ----------------------------------------------------------------------
 #t hf aug-cc-pvdz symm=none int=(grid=ultrafine) guess=(read,tcheck) s
 table=opt
 ----------------------------------------------------------------------
 -----
 title
 -----
 Symbolic Z-matrix:
 Charge =  0 Multiplicity = 2

 SCF Done:  E(UHF) =  -231.560052156     A.U. after   24 cycles
 Normal termination of Gaussian 16 at Tue Apr  8 22:40:55 2025.
 Gaussian 16:  ES64L-G16RevC.01  3-Jul-2019

 ----------------------------------------------------------------------
 #t hf aug-cc-pvdz iop(5/13=1,5/36=2,99/5=2) pseudo=read geom=check gue
 ss=(read,tcheck) scf=(maxcycle=1)
 ----------------------------------------------------------------------
 -----
 title
 -----
 Structure from the checkpoint file:  "BDE49_expt_1378_mol2.chk"
 Charge =  0 Multiplicity = 2

                         Standard orientation:
 ---------------------------------------------------------------------
 Center     Atomic      Atomic             Coordinates (Angstroms)
 Number     Number       Type             X           Y           Z
 ---------------------------------------------------------------------
      1          6           0        2.354568   -0.122102   -0.139025
      2          6           0        0.917260   -0.343319    0.337807
      3          1           0        2.736656    0.851730    0.183395
      4          1           0        2.417081   -0.156438   -1.231035
      5          1           0        3.026298   -0.889032    0.255597
      6          6           0       -0.063979    0.708932   -0.187218
      7          1           0        0.890680   -0.345278    1.434872
      8          1           0        0.566333   -1.330048    0.019694
      9          6           0       -1.516504    0.416054    0.198730
     10          1           0       -0.003035    0.758860   -1.280770
     11          1           0        0.206639    1.704020    0.188023
     12          8           0       -2.020284   -0.770333   -0.255204
     13          1           0       -2.199301    1.236180   -0.094092
     14          1           0       -1.627151    0.375285    1.304179
 ---------------------------------------------------------------------

 SCF Done:  E(UHF) =  -231.634448681     A.U. after    2 cycles

 The electronic state is 2-A.
 Alpha  occ. eigenvalues --  -20.63034 -11.29214 -11.23486 -11.23072 -11.22527
 Alpha  occ. eigenvalues --   -1.37140  -1.06216  -0.97050  -0.86263  -0.79814
 Alpha  occ. eigenvalues --   -0.71956  -0.67183  -0.63514  -0.62116  -0.57642
 Alpha  occ. eigenvalues --   -0.54605  -0.52841  -0.50716  -0.47593  -0.47058
 Alpha  occ. eigenvalues --   -0.45587
 Alpha virt. eigenvalues --    0.03538   0.04296   0.04665   0.05244   0.06497
 Alpha virt. eigenvalues --    0.06907   0.07307   0.08127   0.09383   0.11718
 Alpha virt. eigenvalues --    0.12487   0.13239   0.14908   0.16155   0.16198

  Beta  occ. eigenvalues --  -20.58992 -11.29524 -11.23481 -11.23075 -11.22528
  Beta  occ. eigenvalues --   -1.24458  -1.05625  -0.95842  -0.84858  -0.78853
  Beta  occ. eigenvalues --   -0.65464  -0.63065  -0.60815  -0.59545  -0.55173
  Beta  occ. eigenvalues --   -0.52337  -0.51189  -0.47745  -0.47356  -0.43816
  Beta virt. eigenvalues --    0.03520   0.04299   0.04668   0.05256   0.06353
  Beta virt. eigenvalues --    0.06805   0.07260   0.07984   0.08288   0.09465
  Beta virt. eigenvalues --    0.12413   0.12580   0.13288   0.15159   0.16173

 Mulliken charges and spin densities:
               1          2
     1  C    0.388942   0.000062
     2  C    0.116761   0.001976
     3  H   -0.070249   0.000060
     4  H   -0.066645   0.000080
     5  H   -0.064622  -0.000064
     6  C    0.026445  -0.001698
     7  H   -0.150142   0.000271
     8  H   -0.095797  -0.000540
     9  C    0.755191  -0.181850
    10  H   -0.126705   0.000978
    11  H   -0.086437   0.000957
    12  O   -0.445026   1.039222
    13  H   -0.087679   0.051236
    14  H   -0.094036   0.089310
 Sum of Mulliken charges =  -0.00000   1.00000

 Dipole moment (field-independent basis, Debye):
    X=              0.8517    Y=              1.5991    Z=              0.6635  Tot=              1.9295
                          Isotropic Fermi Contact Couplings
        Atom                 a.u.       MegaHertz       Gauss      10(-4) cm-1
     1  C(13)              0.00005       0.05870       0.02095       0.01958
     2  C(13)             -0.00108      -1.21104      -0.43213      -0.40396
     3  H(1)               0.00001       0.03960       0.01413       0.01321
     4  H(1)               0.00001       0.03915       0.01397       0.01306
     5  H(1)              -0.00001      -0.04198      -0.01498      -0.01400
     6  C(13)              0.00037       0.41846       0.14932       0.13958
     7  H(1)               0.00002       0.10280       0.03668       0.03429
     8  H(1)               0.00024       1.06188       0.37891       0.35421

 Normal termination of Gaussian 16 at Tue Apr  8 22:41:00 2025.
