 Gaussian 16, Revision C.01,

 ----------------------------------------------------------------------
 #t hf aug-cc-pvdz symm=none int=(grid=ultrafine) guess=(read,tcheck) s
 table=(opt,rrhf)
 ----------------------------------------------------------------------
 -----
 title
 -----
 Symbolic Z-matrix:
 Charge =  0 Multiplicity = 1

 SCF Done:  E(RHF) =  -896.803000218     A.U. after   16 cycles
 Normal termination of Gaussian 16 at Tue Apr  8 22:52:58 2025.
 Gaussian 16:  ES64L-G16RevC.01  3-Jul-2019

 ----------------------------------------------------------------------
 #t hf aug-cc-pvdz iop(5/13=1,5/36=2,99/5=2) pseudo=read geom=check gue
 ss=(read,tcheck) scf=(maxcycle=1)
 ----------------------------------------------------------------------
 -----
 title
 -----
 Structure from the checkpoint file:  "BDE49_expt_1585_mol1.chk"
 Charge =  0 Multiplicity = 1

                         Standard orientation:
 ---------------------------------------------------------------------
 Center     Atomic      Atomic             Coordinates (Angstroms)
 Number     Number       Type             X           Y           Z
 ---------------------------------------------------------------------
      1          6           0       -4.138805   -0.266122   -0.137084
      2          6           0       -2.997468   -1.037526    0.042015
      3          6           0       -4.037625    1.110802   -0.337014
      4          6           0       -2.779592    1.704273   -0.350622
      5          6           0       -1.627095    0.940924   -0.165611
      6          6           0       -1.728620   -0.440188    0.028734
      7          1           0       -3.085849   -2.108825    0.186558
      8          1           0       -5.111667   -0.744908   -0.125299
      9          1           0       -4.928777    1.710725   -0.479254
     10          1           0       -2.684658    2.773993   -0.501817
     11          1           0       -0.663467    1.431998   -0.163058
     12         16           0       -0.346694   -1.538941    0.270694
     13          6           0        1.125998   -0.483506    0.002632
     14          6           0        2.332942   -1.370166   -0.171132
     15          6           0        1.437056    0.461437    1.136500
     16          1           0        0.972594    0.083698   -0.922675
     17          6           0        2.361790    1.432847    0.992152
     18          6           0        3.490630   -0.870042   -0.647255
     19          6           0        3.774382    0.529412   -0.857290
     20          6           0        3.268419    1.561703   -0.123691
     21          1           0        2.251863   -2.423344    0.078869
     22          1           0        4.296512   -1.565147   -0.867628
     23          1           0        0.887231    0.347565    2.064579
     24          1           0        2.470272    2.162760    1.790375
     25          1           0        4.562474    0.762996   -1.567755
     26          1           0        3.688499    2.548459   -0.297992
 ---------------------------------------------------------------------

 SCF Done:  E(RHF) =  -896.967065616     A.U. after    2 cycles

 The electronic state is 1-A.
 Alpha  occ. eigenvalues --  -93.54097 -11.28877 -11.28371 -11.26250 -11.25952
 Alpha  occ. eigenvalues --  -11.25730 -11.25593 -11.25062 -11.25055 -11.24939
 Alpha  occ. eigenvalues --  -11.24883 -11.24806 -11.24790 -11.24399  -8.83863
 Alpha  occ. eigenvalues --   -6.18078  -6.17850  -6.17489  -1.15553  -1.14125
 Alpha  occ. eigenvalues --   -1.06830  -1.04645  -1.02779  -1.01512  -0.95005
 Alpha  occ. eigenvalues --   -0.87775  -0.87099  -0.83404  -0.79929  -0.75187
 Alpha  occ. eigenvalues --   -0.71535  -0.70339  -0.68941  -0.64148  -0.63919
 Alpha  occ. eigenvalues --   -0.63517  -0.63280  -0.59801  -0.58823  -0.56738
 Alpha  occ. eigenvalues --   -0.54901  -0.53780  -0.52049  -0.50775  -0.50413
 Alpha  occ. eigenvalues --   -0.48798  -0.45585  -0.44042  -0.40299  -0.36390
 Alpha  occ. eigenvalues --   -0.34640  -0.32005  -0.30228
 Alpha virt. eigenvalues --    0.03088   0.03484   0.03909   0.04474   0.04772
 Alpha virt. eigenvalues --    0.05302   0.05972   0.06320   0.06900   0.07101
 Alpha virt. eigenvalues --    0.07748   0.08060   0.09485   0.09970   0.10790

 Mulliken charges:
               1
     1  C    0.530612
     2  C    0.297414
     3  C    0.681221
     4  C    0.587196
     5  C    0.605237
     6  C   -0.187633
     7  H   -0.563379
     8  H   -0.459211
     9  H   -0.448945
    10  H   -0.488560
    11  H   -0.698487
    12  S    0.757835
    13  C   -1.012944
    14  C    1.077796
    15  C    0.718022
    16  H   -0.022246
    17  C    0.519457
    18  C    0.620131
    19  C    0.278657
    20  C    0.058443
    21  H   -0.517180
    22  H   -0.449010
    23  H   -0.540090
    24  H   -0.453947
    25  H   -0.452456
    26  H   -0.437931
 Sum of Mulliken charges =   0.00000

 Dipole moment (field-independent basis, Debye):
    X=              0.6193    Y=              1.3116    Z=             -0.1626  Tot=              1.4595

 Test job not archived.
 1\1\GINC-SE044\SP\RHF\Aug-CC-pVDZ\C13H12S1\OHZDE\08-Apr-2025\0\\#t hf
 aug-cc-pvdz iop(5/13=1,5/36=2,99/5=2) pseudo=read geom=check guess=(re
 ad,tcheck) scf=(maxcycle=1)\\title\\0,1\C,0,-4.138805,-0.266122,-0.137
 084\C,0,-2.997468,-1.037526,0.042015\C,0,-4.037625,1.110802,-0.337014\
 C,0,-2.779592,1.704273,-0.350622\C,0,-1.627095,0.940924,-0.165611\C,0,
 -1.72862,-0.440188,0.028734\H,0,-3.085849,-2.108825,0.186558\H,0,-5.11
 1667,-0.744908,-0.125299\H,0,-4.928777,1.710725,-0.479254\H,0,-2.68465
 8,2.773993,-0.501817\H,0,-0.663467,1.431998,-0.163058\S,0,-0.346694,-1

 Normal termination of Gaussian 16 at Tue Apr  8 22:53:24 2025.
