 Gaussian 16, Revision C.01,

 ----------------------------------------------------------------------
 #t hf aug-cc-pvdz symm=none int=(grid=ultrafine) guess=(read,tcheck) s
 table=(opt,rrhf)
 ----------------------------------------------------------------------
 -----
 title
 -----
 Symbolic Z-matrix:
 Charge =  0 Multiplicity = 1

 SCF Done:  E(RHF) =  -235.389620233     A.U. after   11 cycles
 Normal termination of Gaussian 16 at Tue Apr  8 22:51:22 2025.
 Gaussian 16:  ES64L-G16RevC.01  3-Jul-2019

 ----------------------------------------------------------------------
 #t hf aug-cc-pvdz iop(5/13=1,5/36=2,99/5=2) pseudo=read geom=check gue
 ss=(read,tcheck) scf=(maxcycle=1)
 ----------------------------------------------------------------------
 -----
 title
 -----
 Structure from the checkpoint file:  "BDE49_expt_17_mol1.chk"
 Charge =  0 Multiplicity = 1

                         Standard orientation:
 ---------------------------------------------------------------------
 Center     Atomic      Atomic             Coordinates (Angstroms)
 Number     Number       Type             X           Y           Z
 ---------------------------------------------------------------------
      1          6           0       -1.616497    0.989496   -0.000006
      2          6           0       -0.436356   -0.000579   -0.000001
      3          1           0       -2.574311    0.459994   -0.000006
      4          1           0       -1.590700    1.634070   -0.884342
      5          1           0       -1.590702    1.634077    0.884324
      6          6           0        0.878380    0.822885   -0.000002
      7          6           0        2.192336    0.033560    0.000003
      8          1           0        0.863542    1.483676    0.875555
      9          1           0        0.863544    1.483669   -0.875564
     10          1           0        2.288443   -0.603286    0.883213
     11          1           0        3.044975    0.718355    0.000002
     12          1           0        2.288446   -0.603293   -0.883201
     13          6           0       -0.528963   -0.884362   -1.257931
     14          1           0       -0.448818   -0.282749   -2.169135
     15          1           0       -1.487939   -1.410736   -1.290059
     16          1           0        0.260351   -1.640106   -1.283770
     17          6           0       -0.528967   -0.884352    1.257936
     18          1           0       -0.448825   -0.282732    2.169136
     19          1           0        0.260347   -1.640096    1.283784
     20          1           0       -1.487943   -1.410726    1.290066
 ---------------------------------------------------------------------

 SCF Done:  E(RHF) =  -235.465807606     A.U. after    2 cycles

 The electronic state is 1-A.
 Alpha  occ. eigenvalues --  -11.23894 -11.22367 -11.21948 -11.21715 -11.21710
 Alpha  occ. eigenvalues --  -11.21700  -1.09458  -0.98917  -0.92332  -0.92302
 Alpha  occ. eigenvalues --   -0.84775  -0.72372  -0.62480  -0.62395  -0.59788
 Alpha  occ. eigenvalues --   -0.58232  -0.55228  -0.53232  -0.52644  -0.51087
 Alpha  occ. eigenvalues --   -0.50227  -0.48689  -0.45006  -0.44756  -0.43983
 Alpha virt. eigenvalues --    0.03568   0.04419   0.04682   0.04786   0.06478
 Alpha virt. eigenvalues --    0.06623   0.06749   0.06880   0.06985   0.09162
 Alpha virt. eigenvalues --    0.09220   0.09450   0.09697   0.10103   0.12795

 Mulliken charges:
               1
     1  C    1.406505
     2  C   -4.587998
     3  H   -0.043813
     4  H   -0.034887
     5  H   -0.034890
     6  C    0.997778
     7  C    0.466690
     8  H   -0.131776
     9  H   -0.131776
    10  H   -0.074265
    11  H   -0.053848
    12  H   -0.074266
    13  C    1.254010
    14  H   -0.002433
    15  H   -0.018082
    16  H   -0.085221
    17  C    1.254009
    18  H   -0.002433
    19  H   -0.085221
    20  H   -0.018083
 Sum of Mulliken charges =  -0.00000

 Dipole moment (field-independent basis, Debye):
    X=              0.0391    Y=              0.0327    Z=             -0.0000  Tot=              0.0509

 Test job not archived.
 1\1\GINC-SE016\SP\RHF\Aug-CC-pVDZ\C6H14\OHZDE\08-Apr-2025\0\\#t hf aug
 -cc-pvdz iop(5/13=1,5/36=2,99/5=2) pseudo=read geom=check guess=(read,
 tcheck) scf=(maxcycle=1)\\title\\0,1\C,0,-1.616497,0.989496,-0.000006\
 C,0,-0.436356,-0.000579,-0.000001\H,0,-2.574311,0.459995,-0.000006\H,0
 ,-1.5907,1.63407,-0.884342\H,0,-1.590702,1.634077,0.884324\C,0,0.87838
 ,0.822885,-0.000002\C,0,2.192336,0.03356,0.000003\H,0,0.863542,1.48367
 6,0.875555\H,0,0.863544,1.483669,-0.875564\H,0,2.288443,-0.603286,0.88
 3213\H,0,3.044975,0.718354,0.000002\H,0,2.288446,-0.603293,-0.883201\C

 Normal termination of Gaussian 16 at Tue Apr  8 22:51:29 2025.
