 Gaussian 16, Revision C.01,

 ----------------------------------------------------------------------
 #t hf aug-cc-pvdz symm=none int=(grid=ultrafine) guess=(read,tcheck) s
 table=(opt,rrhf)
 ----------------------------------------------------------------------
 -----
 title
 -----
 Symbolic Z-matrix:
 Charge =  0 Multiplicity = 1

 SCF Done:  E(RHF) =  -458.949582327     A.U. after   15 cycles
 Normal termination of Gaussian 16 at Tue Apr  8 23:51:19 2025.
 Gaussian 16:  ES64L-G16RevC.01  3-Jul-2019

 ----------------------------------------------------------------------
 #t hf aug-cc-pvdz iop(5/13=1,5/36=2,99/5=2) pseudo=read geom=check gue
 ss=(read,tcheck) scf=(maxcycle=1)
 ----------------------------------------------------------------------
 -----
 title
 -----
 Structure from the checkpoint file:  "BDE49_nonexpt_1922_mol1.chk"
 Charge =  0 Multiplicity = 1

                         Standard orientation:
 ---------------------------------------------------------------------
 Center     Atomic      Atomic             Coordinates (Angstroms)
 Number     Number       Type             X           Y           Z
 ---------------------------------------------------------------------
      1         14           0        1.460639   -0.215337   -0.001125
      2          6           0       -0.149830    0.804305   -0.154189
      3          7           0       -1.243904    0.080137    0.514362
      4          8           0       -2.008806   -0.465130   -0.241823
      5          1           0        2.539704    0.571141   -0.637687
      6          1           0        1.289050   -1.505235   -0.701385
      7          1           0        1.778186   -0.444538    1.423383
      8          1           0       -0.386595    0.991462   -1.206862
      9          1           0        0.007466    1.736141    0.397488
 ---------------------------------------------------------------------

 SCF Done:  E(RHF) =  -459.024153279     A.U. after    2 cycles

 The electronic state is 1-A.
 Alpha  occ. eigenvalues --  -69.08605 -20.64149 -15.77236 -11.27571  -6.83894
 Alpha  occ. eigenvalues --   -3.94691  -3.94663  -3.94649  -1.46861  -1.06313
 Alpha  occ. eigenvalues --   -0.85318  -0.72568  -0.69455  -0.68711  -0.61412
 Alpha  occ. eigenvalues --   -0.57373  -0.50021  -0.49320  -0.47247  -0.40911
 Alpha virt. eigenvalues --    0.03069   0.04307   0.04723   0.06388   0.07201
 Alpha virt. eigenvalues --    0.07609   0.08279   0.09150   0.09404   0.10858
 Alpha virt. eigenvalues --    0.14939   0.15167   0.15644   0.15921   0.16550

 Mulliken charges:
               1
     1  Si   0.575643
     2  C    0.413098
     3  N   -0.190067
     4  O   -0.408783
     5  H   -0.043637
     6  H   -0.045275
     7  H   -0.027957
     8  H   -0.134212
     9  H   -0.138810
 Sum of Mulliken charges =  -0.00000

 Dipole moment (field-independent basis, Debye):
    X=              2.5085    Y=              1.6480    Z=             -0.2918  Tot=              3.0156

 Test job not archived.
 1\1\GINC-SE253\SP\RHF\Aug-CC-pVDZ\C1H5N1O1Si1\OHZDE\08-Apr-2025\0\\#t
 hf aug-cc-pvdz iop(5/13=1,5/36=2,99/5=2) pseudo=read geom=check guess=
 (read,tcheck) scf=(maxcycle=1)\\title\\0,1\Si,0,1.460639,-0.215337,-0.
 001125\C,0,-0.14983,0.804305,-0.154189\N,0,-1.243904,0.080137,0.514362
 \O,0,-2.008806,-0.46513,-0.241823\H,0,2.539704,0.571141,-0.637687\H,0,
 1.28905,-1.505235,-0.701385\H,0,1.778186,-0.444538,1.423383\H,0,-0.386
 595,0.991462,-1.206862\H,0,0.007466,1.736141,0.397488\\Version=ES64L-G
 16RevC.01\State=1-A\HF=-459.0241533\RMSD=4.255e-03\Dipole=0.9869211,0.

 Normal termination of Gaussian 16 at Tue Apr  8 23:51:22 2025.
