 Gaussian 16, Revision C.01,

 ----------------------------------------------------------------------
 #t hf aug-cc-pvdz symm=none int=(grid=ultrafine) guess=(read,tcheck) s
 table=(opt,rrhf)
 ----------------------------------------------------------------------
 -----
 title
 -----
 Symbolic Z-matrix:
 Charge =  0 Multiplicity = 1

 SCF Done:  E(RHF) =  -2037.12322735     A.U. after   16 cycles
 Normal termination of Gaussian 16 at Tue Apr  8 23:24:07 2025.
 Gaussian 16:  ES64L-G16RevC.01  3-Jul-2019

 ----------------------------------------------------------------------
 #t hf aug-cc-pvdz iop(5/13=1,5/36=2,99/5=2) pseudo=read geom=check gue
 ss=(read,tcheck) scf=(maxcycle=1)
 ----------------------------------------------------------------------
 -----
 title
 -----
 Structure from the checkpoint file:  "BDE49_nonexpt_1244_mol1.chk"
 Charge =  0 Multiplicity = 1

                         Standard orientation:
 ---------------------------------------------------------------------
 Center     Atomic      Atomic             Coordinates (Angstroms)
 Number     Number       Type             X           Y           Z
 ---------------------------------------------------------------------
      1         17           0       -1.595392   -1.618073   -1.264123
      2         17           0       -1.595367    1.618323   -1.263817
      3         16           0       -0.348266   -0.000133    1.368435
      4          8           0       -0.483475   -1.270457    2.059279
      5          8           0       -0.483466    1.270054    2.059533
      6         15           0       -2.115121    0.000015   -0.059847
      7          6           0        1.767144   -1.220047    0.113332
      8          6           0        2.968576   -1.210984   -0.588048
      9          6           0        3.564118    0.000085   -0.939600
     10          6           0        2.968581    1.211088   -0.587810
     11          6           0        1.767149    1.220019    0.113572
     12          6           0        1.180831   -0.000047    0.453968
     13          1           0        1.297157   -2.146901    0.413795
     14          1           0        3.442005   -2.148470   -0.854245
     15          1           0        4.500768    0.000136   -1.485198
     16          1           0        3.442015    2.148624   -0.853823
     17          1           0        1.297166    2.146815    0.414216
 ---------------------------------------------------------------------

 SCF Done:  E(RHF) =  -2037.36344461     A.U. after    2 cycles

 The electronic state is 1-A.
 Alpha  occ. eigenvalues -- -103.69642-103.69641 -93.79665 -81.40964 -20.57840
 Alpha  occ. eigenvalues --  -20.57839 -11.30201 -11.28775 -11.28766 -11.28369
 Alpha  occ. eigenvalues --  -11.27469 -11.27462 -10.72967 -10.72966  -9.06449
 Alpha  occ. eigenvalues --   -8.38669  -8.38667  -8.38373  -8.38371  -8.38357
 Alpha  occ. eigenvalues --   -8.38356  -7.90246  -6.41060  -6.40804  -6.40757
 Alpha  occ. eigenvalues --   -5.03861  -5.03787  -5.03518  -1.43222  -1.32306
 Alpha  occ. eigenvalues --   -1.19286  -1.18225  -1.16298  -1.06304  -1.04746
 Alpha  occ. eigenvalues --   -0.93105  -0.86658  -0.84726  -0.78948  -0.74500
 Alpha  occ. eigenvalues --   -0.69500  -0.68327  -0.68322  -0.65389  -0.65336
 Alpha  occ. eigenvalues --   -0.62947  -0.60068  -0.56517  -0.56381  -0.54396
 Alpha  occ. eigenvalues --   -0.54383  -0.53642  -0.53426  -0.52101  -0.51441
 Alpha  occ. eigenvalues --   -0.50478  -0.48846  -0.46311  -0.40028  -0.37469
 Alpha  occ. eigenvalues --   -0.37202
 Alpha virt. eigenvalues --    0.02643   0.03409   0.03694   0.04720   0.05513
 Alpha virt. eigenvalues --    0.05733   0.06404   0.07181   0.07613   0.08493
 Alpha virt. eigenvalues --    0.09108   0.09904   0.10672   0.11290   0.11377

 Mulliken charges:
               1
     1  Cl  -0.358709
     2  Cl  -0.358709
     3  S    2.707785
     4  O   -1.161843
     5  O   -1.161843
     6  P    0.720565
     7  C   -0.017367
     8  C    0.646498
     9  C    0.443757
    10  C    0.646496
    11  C   -0.017364
    12  C    0.282779
    13  H   -0.533863
    14  H   -0.437109
    15  H   -0.430101
    16  H   -0.437108
    17  H   -0.533866
 Sum of Mulliken charges =  -0.00000

 Dipole moment (field-independent basis, Debye):
    X=              2.6787    Y=              0.0004    Z=             -4.0227  Tot=              4.8330

 Test job not archived.
 1\1\GINC-SE364\SP\RHF\Aug-CC-pVDZ\C6H5Cl2O2P1S1\OHZDE\08-Apr-2025\0\\#
 t hf aug-cc-pvdz iop(5/13=1,5/36=2,99/5=2) pseudo=read geom=check gues
 s=(read,tcheck) scf=(maxcycle=1)\\title\\0,1\Cl,0,-1.595392,-1.618073,
 -1.264123\Cl,0,-1.595367,1.618323,-1.263817\S,0,-0.348266,-0.000133,1.
 368435\O,0,-0.483475,-1.270457,2.059279\O,0,-0.483466,1.270054,2.05953
 3\P,0,-2.115121,0.000015,-0.059847\C,0,1.767144,-1.220047,0.113332\C,0
 ,2.968576,-1.210984,-0.588048\C,0,3.564118,0.000085,-0.9396\C,0,2.9685
 81,1.211088,-0.58781\C,0,1.767149,1.220019,0.113572\C,0,1.180831,-0.00

 Normal termination of Gaussian 16 at Tue Apr  8 23:24:20 2025.
