 Gaussian 16, Revision C.01,

 ----------------------------------------------------------------------
 #t hf aug-cc-pvdz symm=none int=(grid=ultrafine) guess=(read,tcheck) s
 table=(opt,rrhf)
 ----------------------------------------------------------------------
 -----
 title
 -----
 Symbolic Z-matrix:
 Charge =  0 Multiplicity = 1

 SCF Done:  E(RHF) =  -822.112966653     A.U. after   13 cycles
 Normal termination of Gaussian 16 at Tue Apr  8 22:42:45 2025.
 Gaussian 16:  ES64L-G16RevC.01  3-Jul-2019

 ----------------------------------------------------------------------
 #t hf aug-cc-pvdz iop(5/13=1,5/36=2,99/5=2) pseudo=read geom=check gue
 ss=(read,tcheck) scf=(maxcycle=1)
 ----------------------------------------------------------------------
 -----
 title
 -----
 Structure from the checkpoint file:  "BDE49_expt_1472_mol1.chk"
 Charge =  0 Multiplicity = 1

                         Standard orientation:
 ---------------------------------------------------------------------
 Center     Atomic      Atomic             Coordinates (Angstroms)
 Number     Number       Type             X           Y           Z
 ---------------------------------------------------------------------
      1          6           0        0.029138    1.631559   -0.004337
      2          8           0        0.531347    0.492543   -0.622448
      3          8           0       -0.531347   -0.492543   -0.622448
      4          6           0       -0.029138   -1.631559   -0.004337
      5          9           0        1.029550    2.500656   -0.060922
      6          9           0       -0.310185    1.412469    1.263185
      7          9           0       -1.029550    2.116714   -0.646084
      8          9           0       -1.029550   -2.500656   -0.060922
      9          9           0        1.029550   -2.116714   -0.646084
     10          9           0        0.310185   -1.412469    1.263185
 ---------------------------------------------------------------------

 SCF Done:  E(RHF) =  -822.410523345     A.U. after    2 cycles

 The electronic state is 1-A.
 Alpha  occ. eigenvalues --  -26.20858 -26.20858 -26.20392 -26.20392 -26.20345
 Alpha  occ. eigenvalues --  -26.20345 -20.74150 -20.74121 -11.61890 -11.61889
 Alpha  occ. eigenvalues --   -1.81293  -1.81129  -1.73877  -1.73819  -1.73347
 Alpha  occ. eigenvalues --   -1.73277  -1.53884  -1.34168  -1.06449  -1.03884
 Alpha  occ. eigenvalues --   -0.94740  -0.93979  -0.93838  -0.92951  -0.90870
 Alpha  occ. eigenvalues --   -0.88757  -0.82352  -0.81495  -0.81231  -0.80762
 Alpha  occ. eigenvalues --   -0.77458  -0.77275  -0.76918  -0.76345  -0.75534
 Alpha  occ. eigenvalues --   -0.75479  -0.73985  -0.73599  -0.70566  -0.63152
 Alpha  occ. eigenvalues --   -0.59577
 Alpha virt. eigenvalues --    0.07364   0.07687   0.08003   0.08218   0.10376
 Alpha virt. eigenvalues --    0.10722   0.11089   0.12544   0.16978   0.18657
 Alpha virt. eigenvalues --    0.20274   0.23092   0.23238   0.24744   0.25131

 Mulliken charges:
               1
     1  C    1.161999
     2  O   -0.423308
     3  O   -0.423308
     4  C    1.161999
     5  F   -0.231777
     6  F   -0.253852
     7  F   -0.253062
     8  F   -0.231777
     9  F   -0.253062
    10  F   -0.253852
 Sum of Mulliken charges =  -0.00000

 Dipole moment (field-independent basis, Debye):
    X=              0.0000    Y=             -0.0000    Z=             -0.0817  Tot=              0.0817

 Test job not archived.
 1\1\GINC-SE043\SP\RHF\Aug-CC-pVDZ\C2F6O2\OHZDE\08-Apr-2025\0\\#t hf au
 g-cc-pvdz iop(5/13=1,5/36=2,99/5=2) pseudo=read geom=check guess=(read
 ,tcheck) scf=(maxcycle=1)\\title\\0,1\C,0,0.029138,1.631559,-0.004337\
 O,0,0.531347,0.492543,-0.622448\O,0,-0.531347,-0.492543,-0.622448\C,0,
 -0.029138,-1.631559,-0.004337\F,0,1.02955,2.500656,-0.060922\F,0,-0.31
 0185,1.412469,1.263185\F,0,-1.02955,2.116714,-0.646084\F,0,-1.02955,-2
 .500656,-0.060922\F,0,1.02955,-2.116714,-0.646084\F,0,0.310185,-1.4124
 69,1.263185\\Version=ES64L-G16RevC.01\State=1-A\HF=-822.4105233\RMSD=5

 Normal termination of Gaussian 16 at Tue Apr  8 22:42:51 2025.
