 Gaussian 16, Revision C.01,

 ----------------------------------------------------------------------
 #t hf aug-cc-pvdz symm=none int=(grid=ultrafine) guess=(read,tcheck) s
 table=(opt,rrhf)
 ----------------------------------------------------------------------
 -----
 title
 -----
 Symbolic Z-matrix:
 Charge =  0 Multiplicity = 1

 SCF Done:  E(RHF) =  -537.104297397     A.U. after   13 cycles
 Normal termination of Gaussian 16 at Tue Apr  8 23:56:40 2025.
 Gaussian 16:  ES64L-G16RevC.01  3-Jul-2019

 ----------------------------------------------------------------------
 #t hf aug-cc-pvdz iop(5/13=1,5/36=2,99/5=2) pseudo=read geom=check gue
 ss=(read,tcheck) scf=(maxcycle=1)
 ----------------------------------------------------------------------
 -----
 title
 -----
 Structure from the checkpoint file:  "BDE49_nonexpt_2049_mol1.chk"
 Charge =  0 Multiplicity = 1

                         Standard orientation:
 ---------------------------------------------------------------------
 Center     Atomic      Atomic             Coordinates (Angstroms)
 Number     Number       Type             X           Y           Z
 ---------------------------------------------------------------------
      1         14           0        1.958583    0.289699   -0.000000
      2          6           0        0.200902   -0.491048   -0.000003
      3          8           0        0.271765   -1.718452    0.000003
      4          7           0       -0.988319    0.181227   -0.000001
      5          6           0       -1.113000    1.627647   -0.000000
      6          1           0       -0.130596    2.094580   -0.000001
      7          1           0       -1.658808    1.969028    0.886983
      8          1           0       -1.658810    1.969028   -0.886982
      9          6           0       -2.236129   -0.574094   -0.000000
     10          1           0       -1.994421   -1.634320   -0.000001
     11          1           0       -2.828392   -0.332791   -0.889141
     12          1           0       -2.828389   -0.332792    0.889144
     13          1           0        2.622040   -0.227813    1.213365
     14          1           0        2.068648    1.771109   -0.000001
     15          1           0        2.622044   -0.227814   -1.213363
 ---------------------------------------------------------------------

 SCF Done:  E(RHF) =  -537.206359368     A.U. after    2 cycles

 The electronic state is 1-A.
 Alpha  occ. eigenvalues --  -69.07669 -20.53639 -15.65897 -11.35008 -11.28651
 Alpha  occ. eigenvalues --  -11.26889  -6.82968  -3.93760  -3.93725  -3.93706
 Alpha  occ. eigenvalues --   -1.34054  -1.21515  -0.97947  -0.93852  -0.77835
 Alpha  occ. eigenvalues --   -0.72249  -0.66609  -0.65926  -0.64479  -0.57501
 Alpha  occ. eigenvalues --   -0.56832  -0.55268  -0.54898  -0.54179  -0.48402
 Alpha  occ. eigenvalues --   -0.48212  -0.40623  -0.37815
 Alpha virt. eigenvalues --    0.02862   0.04022   0.04221   0.04881   0.06573
 Alpha virt. eigenvalues --    0.06731   0.07221   0.07785   0.08107   0.09038
 Alpha virt. eigenvalues --    0.09443   0.10580   0.12264   0.12608   0.13937

 Mulliken charges:
               1
     1  Si   0.130193
     2  C    0.083900
     3  O   -0.597905
     4  N   -0.338653
     5  C    0.880579
     6  H   -0.381445
     7  H   -0.067475
     8  H   -0.067474
     9  C    0.733095
    10  H   -0.223342
    11  H   -0.088923
    12  H   -0.088922
    13  H    0.043790
    14  H   -0.061209
    15  H    0.043791
 Sum of Mulliken charges =   0.00000

 Dipole moment (field-independent basis, Debye):
    X=             -1.6794    Y=              3.9195    Z=             -0.0000  Tot=              4.2642

 Test job not archived.
 1\1\GINC-SE366\SP\RHF\Aug-CC-pVDZ\C3H9N1O1Si1\OHZDE\08-Apr-2025\0\\#t
 hf aug-cc-pvdz iop(5/13=1,5/36=2,99/5=2) pseudo=read geom=check guess=
 (read,tcheck) scf=(maxcycle=1)\\title\\0,1\Si,0,1.958583,0.289699,0.\C
 ,0,0.200902,-0.491048,-0.000003\O,0,0.271765,-1.718452,0.000003\N,0,-0
 .988319,0.181227,-0.000001\C,0,-1.113,1.627647,0.\H,0,-0.130596,2.0945
 8,-0.000001\H,0,-1.658808,1.969028,0.886983\H,0,-1.65881,1.969028,-0.8
 86982\C,0,-2.236129,-0.574094,0.\H,0,-1.994421,-1.63432,-0.000001\H,0,
 -2.828392,-0.332791,-0.889141\H,0,-2.828389,-0.332792,0.889144\H,0,2.6

 Normal termination of Gaussian 16 at Tue Apr  8 23:56:44 2025.
