 Gaussian 16, Revision C.01,

 ----------------------------------------------------------------------
 #t hf aug-cc-pvdz symm=none int=(grid=ultrafine) guess=(read,tcheck) s
 table=(opt,rrhf)
 ----------------------------------------------------------------------
 -----
 title
 -----
 Symbolic Z-matrix:
 Charge =  0 Multiplicity = 1

 SCF Done:  E(RHF) =  -664.452892365     A.U. after   16 cycles
 Normal termination of Gaussian 16 at Wed Apr  9 00:39:56 2025.
 Gaussian 16:  ES64L-G16RevC.01  3-Jul-2019

 ----------------------------------------------------------------------
 #t hf aug-cc-pvdz iop(5/13=1,5/36=2,99/5=2) pseudo=read geom=check gue
 ss=(read,tcheck) scf=(maxcycle=1)
 ----------------------------------------------------------------------
 -----
 title
 -----
 Structure from the checkpoint file:  "BDE49_nonexpt_597_mol1.chk"
 Charge =  0 Multiplicity = 1

                         Standard orientation:
 ---------------------------------------------------------------------
 Center     Atomic      Atomic             Coordinates (Angstroms)
 Number     Number       Type             X           Y           Z
 ---------------------------------------------------------------------
      1          6           0        1.177739    2.396641    0.186051
      2          6           0       -0.187986    2.177505    0.063188
      3          6           0        2.078646    1.334702    0.153056
      4          6           0        1.556871    0.061788   -0.027605
      5          6           0        0.198486   -0.188008   -0.177366
      6          6           0       -0.706774    0.880642   -0.111957
      7          1           0       -0.120905   -1.197924   -0.389581
      8          1           0        1.545603    3.406961    0.319970
      9          1           0       -0.874434    3.016416    0.109056
     10          5           0       -2.895623   -0.464202    0.039701
     11          8           0       -2.457126   -1.619319    0.631106
     12          8           0       -4.213744   -0.357083   -0.311021
     13          1           0        3.144536    1.473537    0.256531
     14          7           0        2.487438   -1.091462   -0.087729
     15          8           0        3.685511   -0.856251   -0.026477
     16          8           0        1.999522   -2.209662   -0.190091
     17          1           0       -4.715238   -1.134335   -0.048788
     18          1           0       -1.567299   -1.587236    0.991156
     19          7           0       -2.080776    0.689182   -0.237923
     20          1           0       -2.595970    1.518448   -0.497631
 ---------------------------------------------------------------------

 SCF Done:  E(RHF) =  -664.658852353     A.U. after    2 cycles

 The electronic state is 1-A.
 Alpha  occ. eigenvalues --  -20.62346 -20.62263 -20.59515 -20.58649 -15.92515
 Alpha  occ. eigenvalues --  -15.64576 -11.32943 -11.32917 -11.28240 -11.28088
 Alpha  occ. eigenvalues --  -11.27875 -11.27816  -7.68896  -1.55507  -1.37075
 Alpha  occ. eigenvalues --   -1.35764  -1.31951  -1.22787  -1.16782  -1.08028
 Alpha  occ. eigenvalues --   -1.02943  -0.95935  -0.87204  -0.84144  -0.80471
 Alpha  occ. eigenvalues --   -0.78935  -0.76153  -0.74287  -0.73170  -0.71975
 Alpha  occ. eigenvalues --   -0.71224  -0.67065  -0.65440  -0.63976  -0.61326
 Alpha  occ. eigenvalues --   -0.59276  -0.58682  -0.56922  -0.56089  -0.54655
 Alpha  occ. eigenvalues --   -0.53407  -0.51966  -0.51572  -0.48005  -0.47511
 Alpha  occ. eigenvalues --   -0.38597  -0.33523
 Alpha virt. eigenvalues --    0.02344   0.02620   0.03276   0.04169   0.04911
 Alpha virt. eigenvalues --    0.05430   0.05815   0.07278   0.07996   0.08126
 Alpha virt. eigenvalues --    0.08640   0.09122   0.09958   0.11887   0.12486

 Mulliken charges:
               1
     1  C    0.364413
     2  C    0.799695
     3  C    0.491658
     4  C    0.987182
     5  C    0.595581
     6  C    0.367635
     7  H   -0.657579
     8  H   -0.423471
     9  H   -0.616486
    10  B    0.670382
    11  O   -0.506578
    12  O   -0.507046
    13  H   -0.461139
    14  N    0.119093
    15  O   -0.566941
    16  O   -0.567764
    17  H    0.205629
    18  H    0.232485
    19  N   -0.449455
    20  H   -0.077296
 Sum of Mulliken charges =   0.00000

 Dipole moment (field-independent basis, Debye):
    X=             -2.7117    Y=              4.2282    Z=              0.8048  Tot=              5.0872

 Test job not archived.
 1\1\GINC-SE435\SP\RHF\Aug-CC-pVDZ\C6H7B1N2O4\OHZDE\09-Apr-2025\0\\#t h
 f aug-cc-pvdz iop(5/13=1,5/36=2,99/5=2) pseudo=read geom=check guess=(
 read,tcheck) scf=(maxcycle=1)\\title\\0,1\C,0,1.177739,2.396641,0.1860
 51\C,0,-0.187986,2.177505,0.063188\C,0,2.078646,1.334702,0.153056\C,0,
 1.556871,0.061788,-0.027605\C,0,0.198486,-0.188008,-0.177366\C,0,-0.70
 6774,0.880642,-0.111957\H,0,-0.120905,-1.197924,-0.389581\H,0,1.545603
 ,3.406961,0.31997\H,0,-0.874434,3.016416,0.109056\B,0,-2.895623,-0.464
 202,0.039701\O,0,-2.457126,-1.619319,0.631106\O,0,-4.213744,-0.357083,

 Normal termination of Gaussian 16 at Wed Apr  9 00:40:10 2025.
