 Gaussian 16, Revision C.01,

 ----------------------------------------------------------------------
 #t hf aug-cc-pvdz symm=none int=(grid=ultrafine) guess=(read,tcheck) s
 table=opt
 ----------------------------------------------------------------------
 -----
 title
 -----
 Symbolic Z-matrix:
 Charge =  0 Multiplicity = 2

 SCF Done:  E(UHF) =  -138.424552130     A.U. after   14 cycles
 Normal termination of Gaussian 16 at Tue Apr  8 22:27:14 2025.
 Gaussian 16:  ES64L-G16RevC.01  3-Jul-2019

 ----------------------------------------------------------------------
 #t hf aug-cc-pvdz iop(5/13=1,5/36=2,99/5=2) pseudo=read geom=check gue
 ss=(read,tcheck) scf=(maxcycle=1)
 ----------------------------------------------------------------------
 -----
 title
 -----
 Structure from the checkpoint file:  "BDE49_expt_1006_mol2.chk"
 Charge =  0 Multiplicity = 2

                         Standard orientation:
 ---------------------------------------------------------------------
 Center     Atomic      Atomic             Coordinates (Angstroms)
 Number     Number       Type             X           Y           Z
 ---------------------------------------------------------------------
      1          6           0       -0.024489    0.657344    0.000000
      2          1           0        0.183669    1.113696    0.958489
      3          1           0        0.183669    1.113696   -0.958489
      4          9           0       -0.024489   -0.685717   -0.000000
 ---------------------------------------------------------------------

 SCF Done:  E(UHF) =  -138.475505286     A.U. after    2 cycles

 The electronic state is 2-A'.
 Alpha  occ. eigenvalues --  -26.13489 -11.33551  -1.67692  -0.97983  -0.77690
 Alpha  occ. eigenvalues --   -0.77440  -0.73661  -0.58446  -0.40338
 Alpha virt. eigenvalues --    0.03625   0.05300   0.08800   0.10413   0.15622
 Alpha virt. eigenvalues --    0.16892   0.24184   0.26076   0.27652   0.29151
 Alpha virt. eigenvalues --    0.30290   0.32020   0.40448   0.43021   0.46207

  Beta  occ. eigenvalues --  -26.12997 -11.30892  -1.66277  -0.91514  -0.76787
  Beta  occ. eigenvalues --   -0.72245  -0.70678  -0.57261
  Beta virt. eigenvalues --    0.03766   0.05344   0.06908   0.08970   0.15726
  Beta virt. eigenvalues --    0.17017   0.18630   0.24429   0.27913   0.27996
  Beta virt. eigenvalues --    0.29459   0.31418   0.33519   0.40753   0.46380

 Mulliken charges and spin densities:
               1          2
     1  C    0.592188   1.187235
     2  H   -0.127922  -0.095875
     3  H   -0.127922  -0.095875
     4  F   -0.336344   0.004516
 Sum of Mulliken charges =   0.00000   1.00000

 Dipole moment (field-independent basis, Debye):
    X=              0.3709    Y=              1.8452    Z=             -0.0000  Tot=              1.8821
                          Isotropic Fermi Contact Couplings
        Atom                 a.u.       MegaHertz       Gauss      10(-4) cm-1
     1  C(13)              0.26978     303.28518     108.21969     101.16505
     2  H(1)              -0.02338    -104.48468     -37.28273     -34.85234
     3  H(1)              -0.02338    -104.48468     -37.28273     -34.85234
     4  F(19)              0.05872     247.04517      88.15186      82.40540
 --------------------------------------------------------
       Center         ----  Spin Dipole Couplings  ----
                      3XX-RR        3YY-RR        3ZZ-RR
 --------------------------------------------------------

 Normal termination of Gaussian 16 at Tue Apr  8 22:27:16 2025.
