 Gaussian 16, Revision C.01,

 ----------------------------------------------------------------------
 #t hf aug-cc-pvdz symm=none int=(grid=ultrafine) guess=(read,tcheck) s
 table=(opt,rrhf)
 ----------------------------------------------------------------------
 -----
 title
 -----
 Symbolic Z-matrix:
 Charge =  0 Multiplicity = 1

 SCF Done:  E(RHF) =  -158.330127667     A.U. after   13 cycles
 Normal termination of Gaussian 16 at Wed Apr  9 00:34:53 2025.
 Gaussian 16:  ES64L-G16RevC.01  3-Jul-2019

 ----------------------------------------------------------------------
 #t hf aug-cc-pvdz iop(5/13=1,5/36=2,99/5=2) pseudo=read geom=check gue
 ss=(read,tcheck) scf=(maxcycle=1)
 ----------------------------------------------------------------------
 -----
 title
 -----
 Structure from the checkpoint file:  "BDE49_nonexpt_507_mol1.chk"
 Charge =  0 Multiplicity = 1

                         Standard orientation:
 ---------------------------------------------------------------------
 Center     Atomic      Atomic             Coordinates (Angstroms)
 Number     Number       Type             X           Y           Z
 ---------------------------------------------------------------------
      1          1           0       -2.261439   -1.292854    0.000118
      2          1           0       -2.963340    0.651085    0.000140
      3          5           0       -2.055730   -0.122546   -0.000099
      4          6           0       -0.586044    0.389603   -0.000022
      5          7           0        0.376659   -0.458387   -0.000009
      6          1           0       -0.356040    1.469880    0.000013
      7          6           0        1.736372    0.040581    0.000043
      8          1           0        2.254672   -0.362805    0.876029
      9          1           0        1.811487    1.137804    0.000065
     10          1           0        2.254730   -0.362773   -0.875925
 ---------------------------------------------------------------------

 SCF Done:  E(RHF) =  -158.379547399     A.U. after    2 cycles

 The electronic state is 1-A.
 Alpha  occ. eigenvalues --  -15.65060 -11.26538 -11.26411  -7.61806  -1.19906
 Alpha  occ. eigenvalues --   -0.96157  -0.79356  -0.69115  -0.64085  -0.59573
 Alpha  occ. eigenvalues --   -0.59322  -0.50176  -0.48599  -0.42098  -0.40422
 Alpha virt. eigenvalues --    0.03173   0.03451   0.04292   0.05046   0.06534
 Alpha virt. eigenvalues --    0.06986   0.07154   0.08193   0.10175   0.10383
 Alpha virt. eigenvalues --    0.12152   0.12994   0.14378   0.15346   0.16805

 Mulliken charges:
               1
     1  H    0.343870
     2  H    0.273492
     3  B   -0.521500
     4  C    0.221784
     5  N   -0.350186
     6  H   -0.323747
     7  C    0.686447
     8  H   -0.125695
     9  H   -0.078772
    10  H   -0.125694
 Sum of Mulliken charges =   0.00000

 Dipole moment (field-independent basis, Debye):
    X=              0.9061    Y=              1.5234    Z=             -0.0003  Tot=              1.7725

 Test job not archived.
 1\1\GINC-SE284\SP\RHF\Aug-CC-pVDZ\C2H6B1N1\OHZDE\09-Apr-2025\0\\#t hf
 aug-cc-pvdz iop(5/13=1,5/36=2,99/5=2) pseudo=read geom=check guess=(re
 ad,tcheck) scf=(maxcycle=1)\\title\\0,1\H,0,-2.261439,-1.292854,0.0001
 18\H,0,-2.96334,0.651085,0.00014\B,0,-2.05573,-0.122546,-0.000099\C,0,
 -0.586044,0.389603,-0.000022\N,0,0.376659,-0.458387,-0.000009\H,0,-0.3
 5604,1.46988,0.000013\C,0,1.736372,0.040581,0.000043\H,0,2.254672,-0.3
 62805,0.876029\H,0,1.811487,1.137804,0.000065\H,0,2.25473,-0.362773,-0
 .875925\\Version=ES64L-G16RevC.01\State=1-A\HF=-158.3795474\RMSD=1.786

 Normal termination of Gaussian 16 at Wed Apr  9 00:34:57 2025.
