 Gaussian 16, Revision C.01,

 ----------------------------------------------------------------------
 #t hf aug-cc-pvdz symm=none int=(grid=ultrafine) guess=(read,tcheck) s
 table=(opt,rrhf)
 ----------------------------------------------------------------------
 -----
 title
 -----
 Symbolic Z-matrix:
 Charge =  0 Multiplicity = 1

 SCF Done:  E(RHF) =  -839.284504808     A.U. after   15 cycles
 Normal termination of Gaussian 16 at Tue Apr  8 23:08:28 2025.
 Gaussian 16:  ES64L-G16RevC.01  3-Jul-2019

 ----------------------------------------------------------------------
 #t hf aug-cc-pvdz iop(5/13=1,5/36=2,99/5=2) pseudo=read geom=check gue
 ss=(read,tcheck) scf=(maxcycle=1)
 ----------------------------------------------------------------------
 -----
 title
 -----
 Structure from the checkpoint file:  "BDE49_expt_635_mol1.chk"
 Charge =  0 Multiplicity = 1

                         Standard orientation:
 ---------------------------------------------------------------------
 Center     Atomic      Atomic             Coordinates (Angstroms)
 Number     Number       Type             X           Y           Z
 ---------------------------------------------------------------------
      1          6           0       -1.385642   -0.019376    0.002043
      2          6           0       -0.830716    1.258337   -0.003139
      3          6           0        0.549576    1.405557   -0.008773
      4          6           0       -0.574039   -1.145821    0.001321
      5          6           0        0.813001   -1.004809   -0.000373
      6          6           0        1.365549    0.271678    0.000645
      7          1           0       -1.472480    2.129682   -0.007278
      8          1           0        1.003891    2.388523   -0.018427
      9          1           0       -1.017464   -2.133097   -0.000464
     10          1           0        1.456875   -1.870985   -0.006752
     11          8           0        2.716470    0.542602    0.011879
     12          8           0        3.490125   -0.672075   -0.099877
     13          1           0        4.022666   -0.599130    0.704803
     14         17           0       -3.133683   -0.204271    0.004809
 ---------------------------------------------------------------------

 SCF Done:  E(RHF) =  -839.418455952     A.U. after    2 cycles

 The electronic state is 1-A.
 Alpha  occ. eigenvalues -- -103.66564 -20.67506 -20.66913 -11.33030 -11.31059
 Alpha  occ. eigenvalues --  -11.27021 -11.26948 -11.26214 -11.25998 -10.69827
 Alpha  occ. eigenvalues --   -8.35564  -8.35262  -8.35241  -1.46439  -1.25314
 Alpha  occ. eigenvalues --   -1.19653  -1.12880  -1.03672  -0.99280  -0.86832
 Alpha  occ. eigenvalues --   -0.82955  -0.76079  -0.75123  -0.69963  -0.66913
 Alpha  occ. eigenvalues --   -0.64495  -0.63098  -0.61367  -0.58686  -0.55370
 Alpha  occ. eigenvalues --   -0.54277  -0.53525  -0.52109  -0.46912  -0.46808
 Alpha  occ. eigenvalues --   -0.36430  -0.33231
 Alpha virt. eigenvalues --    0.03020   0.04019   0.04520   0.05765   0.06489
 Alpha virt. eigenvalues --    0.08987   0.09321   0.09604   0.10565   0.12474
 Alpha virt. eigenvalues --    0.12849   0.13430   0.13654   0.13982   0.14195

 Mulliken charges:
               1
     1  C   -0.371248
     2  C    0.670552
     3  C    0.560151
     4  C    0.518331
     5  C    0.961853
     6  C    0.383452
     7  H   -0.417575
     8  H   -0.499168
     9  H   -0.413522
    10  H   -0.479545
    11  O   -0.525167
    12  O   -0.259143
    13  H    0.237908
    14  Cl  -0.366877
 Sum of Mulliken charges =  -0.00000

 Dipole moment (field-independent basis, Debye):
    X=              2.0348    Y=             -0.1778    Z=              1.3934  Tot=              2.4726

 Test job not archived.
 1\1\GINC-SE080\SP\RHF\Aug-CC-pVDZ\C6H5Cl1O2\OHZDE\08-Apr-2025\0\\#t hf
  aug-cc-pvdz iop(5/13=1,5/36=2,99/5=2) pseudo=read geom=check guess=(r
 ead,tcheck) scf=(maxcycle=1)\\title\\0,1\C,0,-1.385642,-0.019376,0.002
 043\C,0,-0.830716,1.258337,-0.003139\C,0,0.549576,1.405557,-0.008773\C
 ,0,-0.574039,-1.145821,0.001321\C,0,0.813001,-1.004809,-0.000373\C,0,1
 .365549,0.271678,0.000645\H,0,-1.47248,2.129682,-0.007278\H,0,1.003891
 ,2.388523,-0.018427\H,0,-1.017464,-2.133097,-0.000464\H,0,1.456875,-1.
 870985,-0.006752\O,0,2.71647,0.542602,0.011879\O,0,3.490125,-0.672075,

 Normal termination of Gaussian 16 at Tue Apr  8 23:08:34 2025.
