 Gaussian 16, Revision C.01,

 ----------------------------------------------------------------------
 #t hf aug-cc-pvdz symm=none int=(grid=ultrafine) guess=(read,tcheck) s
 table=(opt,rrhf)
 ----------------------------------------------------------------------
 -----
 title
 -----
 Symbolic Z-matrix:
 Charge =  0 Multiplicity = 1

 SCF Done:  E(RHF) =  -520.749466307     A.U. after   13 cycles
 Normal termination of Gaussian 16 at Wed Apr  9 00:40:12 2025.
 Gaussian 16:  ES64L-G16RevC.01  3-Jul-2019

 ----------------------------------------------------------------------
 #t hf aug-cc-pvdz iop(5/13=1,5/36=2,99/5=2) pseudo=read geom=check gue
 ss=(read,tcheck) scf=(maxcycle=1)
 ----------------------------------------------------------------------
 -----
 title
 -----
 Structure from the checkpoint file:  "BDE49_nonexpt_696_mol1.chk"
 Charge =  0 Multiplicity = 1

                         Standard orientation:
 ---------------------------------------------------------------------
 Center     Atomic      Atomic             Coordinates (Angstroms)
 Number     Number       Type             X           Y           Z
 ---------------------------------------------------------------------
      1         15           0        0.483700   -0.009230   -0.576893
      2          5           0       -1.155246   -0.808200   -0.006484
      3          8           0       -2.247041   -0.019628    0.178656
      4          6           0        1.758220   -0.948687    0.405582
      5          1           0        1.693703   -2.007822    0.146107
      6          1           0        1.632711   -0.843017    1.485971
      7          6           0        0.466091    1.661593    0.241440
      8          1           0        0.451712    1.595990    1.332134
      9          1           0       -0.429508    2.193516   -0.085182
     10          1           0        1.339295    2.238961   -0.069028
     11          1           0        2.756481   -0.600054    0.132903
     12          1           0       -3.052015   -0.516220    0.355791
     13          1           0       -1.241182   -2.002310    0.075739
 ---------------------------------------------------------------------

 SCF Done:  E(RHF) =  -520.834189685     A.U. after    2 cycles

 The electronic state is 1-A.
 Alpha  occ. eigenvalues --  -81.22429 -20.59622 -11.23357 -11.22897  -7.73013
 Alpha  occ. eigenvalues --   -7.64336  -4.87050  -4.87014  -4.86706  -1.33697
 Alpha  occ. eigenvalues --   -0.97119  -0.92804  -0.79058  -0.69727  -0.65744
 Alpha  occ. eigenvalues --   -0.58767  -0.58165  -0.56474  -0.55364  -0.55086
 Alpha  occ. eigenvalues --   -0.53383  -0.45203  -0.41899  -0.30826
 Alpha virt. eigenvalues --    0.02967   0.04380   0.04895   0.05312   0.06519
 Alpha virt. eigenvalues --    0.06780   0.07121   0.07827   0.08503   0.08992
 Alpha virt. eigenvalues --    0.10660   0.11043   0.11502   0.13391   0.13436

 Mulliken charges:
               1
     1  P    0.212025
     2  B    0.434575
     3  O   -0.513657
     4  C    0.268943
     5  H   -0.202408
     6  H   -0.179729
     7  C    0.276617
     8  H   -0.180361
     9  H   -0.180033
    10  H   -0.160951
    11  H   -0.154319
    12  H    0.186238
    13  H    0.193059
 Sum of Mulliken charges =  -0.00000

 Dipole moment (field-independent basis, Debye):
    X=             -0.7697    Y=             -0.8730    Z=              1.5319  Tot=              1.9238

 Test job not archived.
 1\1\GINC-SE212\SP\RHF\Aug-CC-pVDZ\C2H8B1O1P1\OHZDE\09-Apr-2025\0\\#t h
 f aug-cc-pvdz iop(5/13=1,5/36=2,99/5=2) pseudo=read geom=check guess=(
 read,tcheck) scf=(maxcycle=1)\\title\\0,1\P,0,0.4837,-0.00923,-0.57689
 3\B,0,-1.155246,-0.8082,-0.006484\O,0,-2.247041,-0.019628,0.178656\C,0
 ,1.75822,-0.948687,0.405582\H,0,1.693704,-2.007822,0.146107\H,0,1.6327
 11,-0.843017,1.485971\C,0,0.466091,1.661593,0.24144\H,0,0.451712,1.595
 99,1.332134\H,0,-0.429508,2.193516,-0.085182\H,0,1.339295,2.238961,-0.
 069028\H,0,2.756481,-0.600053,0.132903\H,0,-3.052015,-0.51622,0.355791

 Normal termination of Gaussian 16 at Wed Apr  9 00:40:16 2025.
