 Gaussian 16, Revision C.01,

 ----------------------------------------------------------------------
 #t hf aug-cc-pvdz symm=none int=(grid=ultrafine) guess=(read,tcheck) s
 table=(opt,rrhf)
 ----------------------------------------------------------------------
 -----
 title
 -----
 Symbolic Z-matrix:
 Charge =  0 Multiplicity = 1

 SCF Done:  E(RHF) =  -464.448681214     A.U. after   12 cycles
 Normal termination of Gaussian 16 at Wed Apr  9 00:39:57 2025.
 Gaussian 16:  ES64L-G16RevC.01  3-Jul-2019

 ----------------------------------------------------------------------
 #t hf aug-cc-pvdz iop(5/13=1,5/36=2,99/5=2) pseudo=read geom=check gue
 ss=(read,tcheck) scf=(maxcycle=1)
 ----------------------------------------------------------------------
 -----
 title
 -----
 Structure from the checkpoint file:  "BDE49_nonexpt_608_mol1.chk"
 Charge =  0 Multiplicity = 1

                         Standard orientation:
 ---------------------------------------------------------------------
 Center     Atomic      Atomic             Coordinates (Angstroms)
 Number     Number       Type             X           Y           Z
 ---------------------------------------------------------------------
      1          6           0        1.988878   -1.270014    0.446708
      2          6           0        0.996575   -1.264189   -0.726193
      3          6           0        2.853530   -0.000267    0.458312
      4          1           0        2.622683   -2.160934    0.395785
      5          1           0        1.440150   -1.346908    1.395003
      6          6           0        1.988641    1.269336    0.448997
      7          1           0        3.499012    0.000593   -0.429734
      8          1           0        3.520044   -0.000990    1.327036
      9          6           0        0.996364    1.265447   -0.723929
     10          1           0        2.622283    2.160464    0.399704
     11          1           0        1.439863    1.344403    1.397407
     12          6           0        0.112298    0.000570   -0.744600
     13          1           0        1.558634    1.311533   -1.665095
     14          1           0        0.354850    2.150649   -0.690473
     15          1           0        0.355218   -2.149563   -0.694315
     16          1           0        1.558845   -1.308493   -1.667442
     17          5           0       -2.271284   -0.000200    0.184349
     18          8           0       -3.163106   -0.001305    1.243337
     19          8           0       -2.802666    0.001276   -1.085523
     20          1           0       -3.762907    0.001246   -1.054451
     21          1           0       -2.748707   -0.002374    2.108550
     22          7           0       -0.864757   -0.000497    0.347008
     23          1           0       -0.474203    0.001348   -1.664488
     24          1           0       -0.467589   -0.001564    1.273424
 ---------------------------------------------------------------------

 SCF Done:  E(RHF) =  -464.597008444     A.U. after    2 cycles

 The electronic state is 1-A.
 Alpha  occ. eigenvalues --  -20.57129 -20.56235 -15.59784 -11.26070 -11.22793
 Alpha  occ. eigenvalues --  -11.22781 -11.22700 -11.22279 -11.22271  -7.65429
 Alpha  occ. eigenvalues --   -1.33123  -1.29273  -1.16024  -1.07664  -0.99561
 Alpha  occ. eigenvalues --   -0.97311  -0.83167  -0.82769  -0.77450  -0.74984
 Alpha  occ. eigenvalues --   -0.74283  -0.66680  -0.64227  -0.62056  -0.61198
 Alpha  occ. eigenvalues --   -0.59396  -0.58170  -0.57317  -0.57064  -0.53020
 Alpha  occ. eigenvalues --   -0.52803  -0.52088  -0.51267  -0.50553  -0.48982
 Alpha  occ. eigenvalues --   -0.45898  -0.44281  -0.43118  -0.37129
 Alpha virt. eigenvalues --    0.02882   0.03867   0.03973   0.04220   0.05801
 Alpha virt. eigenvalues --    0.06250   0.06325   0.06403   0.06847   0.07876
 Alpha virt. eigenvalues --    0.08243   0.08575   0.08798   0.09088   0.10134

 Mulliken charges:
               1
     1  C    0.367042
     2  C    0.471440
     3  C    0.196905
     4  H   -0.125978
     5  H   -0.121215
     6  C    0.367039
     7  H   -0.111931
     8  H   -0.143439
     9  C    0.471264
    10  H   -0.125981
    11  H   -0.121196
    12  C   -0.215549
    13  H   -0.047714
    14  H   -0.152195
    15  H   -0.152180
    16  H   -0.047746
    17  B    0.716665
    18  O   -0.506366
    19  O   -0.555132
    20  H    0.202233
    21  H    0.140186
    22  N   -0.247363
    23  H   -0.194311
    24  H   -0.064478
 Sum of Mulliken charges =  -0.00000

 Dipole moment (field-independent basis, Debye):
    X=              1.2712    Y=             -0.0021    Z=              1.4954  Tot=              1.9626

 Test job not archived.
 1\1\GINC-SE105\SP\RHF\Aug-CC-pVDZ\C6H14B1N1O2\OHZDE\09-Apr-2025\0\\#t
 hf aug-cc-pvdz iop(5/13=1,5/36=2,99/5=2) pseudo=read geom=check guess=
 (read,tcheck) scf=(maxcycle=1)\\title\\0,1\C,0,-1.988878,1.270014,0.44
 6708\C,0,-0.996575,1.264189,-0.726193\C,0,-2.85353,0.000267,0.458312\H
 ,0,-2.622683,2.160934,0.395785\H,0,-1.44015,1.346908,1.395003\C,0,-1.9
 88641,-1.269336,0.448997\H,0,-3.499012,-0.000593,-0.429734\H,0,-3.5200
 44,0.00099,1.327036\C,0,-0.996364,-1.265447,-0.723929\H,0,-2.622283,-2
 .160464,0.399704\H,0,-1.439863,-1.344403,1.397407\C,0,-0.112298,-0.000

 Normal termination of Gaussian 16 at Wed Apr  9 00:40:13 2025.
