 Gaussian 16, Revision C.01,

 ----------------------------------------------------------------------
 #t hf aug-cc-pvdz symm=none int=(grid=ultrafine) guess=(read,tcheck) s
 table=opt
 ----------------------------------------------------------------------
 -----
 title
 -----
 Symbolic Z-matrix:
 Charge =  0 Multiplicity = 2

 SCF Done:  E(UHF) =  -703.909032907     A.U. after   22 cycles
 Normal termination of Gaussian 16 at Wed Apr  9 00:14:45 2025.
 Gaussian 16:  ES64L-G16RevC.01  3-Jul-2019

 ----------------------------------------------------------------------
 #t hf aug-cc-pvdz iop(5/13=1,5/36=2,99/5=2) pseudo=read geom=check gue
 ss=(read,tcheck) scf=(maxcycle=1)
 ----------------------------------------------------------------------
 -----
 title
 -----
 Structure from the checkpoint file:  "BDE49_nonexpt_2482_mol2.chk"
 Charge =  0 Multiplicity = 2

                         Standard orientation:
 ---------------------------------------------------------------------
 Center     Atomic      Atomic             Coordinates (Angstroms)
 Number     Number       Type             X           Y           Z
 ---------------------------------------------------------------------
      1         16           0        1.587995   -0.029893   -0.043528
      2          8           0        1.373230   -1.380363   -0.581609
      3          8           0        1.568517    0.219819    1.403010
      4          6           0        0.293451    1.081249   -0.794556
      5          6           0       -1.058219    0.951330   -0.091363
      6          1           0        0.267806    0.792765   -1.846509
      7          1           0        0.713583    2.083299   -0.694480
      8          6           0       -1.752584   -0.404577   -0.258257
      9          1           0       -1.696406    1.742713   -0.505978
     10          1           0       -0.926756    1.180561    0.969988
     11          6           0       -3.128361   -0.438939    0.412630
     12          1           0       -1.855098   -0.629630   -1.326154
     13          1           0       -1.120487   -1.194388    0.157961
     14          1           0       -3.798605    0.315502   -0.011169
     15          1           0       -3.048813   -0.247885    1.486931
     16          1           0       -3.602838   -1.414667    0.283929
 ---------------------------------------------------------------------

 SCF Done:  E(UHF) =  -704.067580494     A.U. after    2 cycles

 The electronic state is 2-A.
 Alpha  occ. eigenvalues --  -93.75418 -20.60120 -20.59484 -11.31175 -11.26358
 Alpha  occ. eigenvalues --  -11.24246 -11.23290  -9.02879  -6.37597  -6.37162
 Alpha  occ. eigenvalues --   -6.36784  -1.43068  -1.33475  -1.10402  -1.02577
 Alpha  occ. eigenvalues --   -0.92720  -0.84952  -0.80947  -0.71497  -0.69229
 Alpha  occ. eigenvalues --   -0.68159  -0.65263  -0.62819  -0.61078  -0.58347
 Alpha  occ. eigenvalues --   -0.56625  -0.54942  -0.52640  -0.51858  -0.50645
 Alpha  occ. eigenvalues --   -0.48888  -0.48744  -0.41359
 Alpha virt. eigenvalues --    0.02882   0.03942   0.04531   0.05199   0.06245
 Alpha virt. eigenvalues --    0.06796   0.07176   0.08119   0.09118   0.10047
 Alpha virt. eigenvalues --    0.11072   0.11656   0.12959   0.13957   0.14192

  Beta  occ. eigenvalues --  -93.75061 -20.58521 -20.58110 -11.30685 -11.26327
  Beta  occ. eigenvalues --  -11.24248 -11.23287  -9.02430  -6.37127  -6.36839
  Beta  occ. eigenvalues --   -6.35829  -1.39843  -1.29266  -1.09556  -1.01575
  Beta  occ. eigenvalues --   -0.91001  -0.82830  -0.79007  -0.68374  -0.66787
  Beta  occ. eigenvalues --   -0.64758  -0.63656  -0.61541  -0.58634  -0.56274
  Beta  occ. eigenvalues --   -0.54697  -0.51263  -0.50313  -0.49579  -0.48914
  Beta  occ. eigenvalues --   -0.47788  -0.45274
  Beta virt. eigenvalues --   -0.00326   0.03005   0.03999   0.04559   0.05411
  Beta virt. eigenvalues --    0.06281   0.06821   0.07215   0.08291   0.09153
  Beta virt. eigenvalues --    0.10133   0.11179   0.11894   0.13130   0.14029

 Mulliken charges and spin densities:
               1          2
     1  S    2.020283   0.310615
     2  O   -0.934651   0.288312
     3  O   -0.967747   0.247957
     4  C   -0.068619   0.167338
     5  C    0.116133   0.003423
     6  H   -0.048264  -0.014152
     7  H    0.013932  -0.001308
     8  C    0.105172  -0.004815
     9  H   -0.079990   0.006184
    10  H   -0.144232  -0.002574
    11  C    0.457957   0.002857
    12  H   -0.126623   0.000736
    13  H   -0.136112  -0.004522
    14  H   -0.084003  -0.000247
    15  H   -0.064017   0.000138
    16  H   -0.059218   0.000059
 Sum of Mulliken charges =  -0.00000   1.00000

 Dipole moment (field-independent basis, Debye):
    X=             -1.9254    Y=              3.2044    Z=             -2.4851  Tot=              4.4890
                          Isotropic Fermi Contact Couplings
        Atom                 a.u.       MegaHertz       Gauss      10(-4) cm-1
     1  S(33)              0.44229     151.91551      54.20723      50.67356
     2  O(17)              0.11797     -71.51563     -25.51856     -23.85505
     3  O(17)              0.10356     -62.77968     -22.40135     -20.94105
     4  C(13)              0.06881      77.35409      27.60186      25.80255
     5  C(13)              0.00330       3.71306       1.32491       1.23854
     6  H(1)              -0.00348     -15.55262      -5.54956      -5.18780
     7  H(1)              -0.00385     -17.22456      -6.14615      -5.74549
     8  C(13)             -0.00104      -1.16815      -0.41683      -0.38965

 Normal termination of Gaussian 16 at Wed Apr  9 00:14:51 2025.
