 Gaussian 16, Revision C.01,

 ----------------------------------------------------------------------
 #t hf aug-cc-pvdz symm=none int=(grid=ultrafine) guess=(read,tcheck) s
 table=(opt,rrhf)
 ----------------------------------------------------------------------
 -----
 title
 -----
 Symbolic Z-matrix:
 Charge =  0 Multiplicity = 1

 SCF Done:  E(RHF) =  -1009.39413871     A.U. after   14 cycles
 Normal termination of Gaussian 16 at Wed Apr  9 00:15:35 2025.
 Gaussian 16:  ES64L-G16RevC.01  3-Jul-2019

 ----------------------------------------------------------------------
 #t hf aug-cc-pvdz iop(5/13=1,5/36=2,99/5=2) pseudo=read geom=check gue
 ss=(read,tcheck) scf=(maxcycle=1)
 ----------------------------------------------------------------------
 -----
 title
 -----
 Structure from the checkpoint file:  "BDE49_nonexpt_2553_mol1.chk"
 Charge =  0 Multiplicity = 1

                         Standard orientation:
 ---------------------------------------------------------------------
 Center     Atomic      Atomic             Coordinates (Angstroms)
 Number     Number       Type             X           Y           Z
 ---------------------------------------------------------------------
      1         17           0        1.872446    0.321210   -0.000447
      2         16           0        0.248969   -0.984190    0.000342
      3          6           0       -1.250244    0.040210    0.000374
      4          8           0       -2.258619   -0.611372   -0.000179
      5          6           0       -1.147826    1.537269    0.000162
      6          1           0       -0.600641    1.882323    0.880051
      7          1           0       -2.156958    1.948182   -0.000197
      8          1           0       -0.600122    1.882063   -0.879508
 ---------------------------------------------------------------------

 SCF Done:  E(RHF) =  -1009.48239986     A.U. after    2 cycles

 The electronic state is 1-A.
 Alpha  occ. eigenvalues -- -103.69637 -93.61731 -20.60437 -11.40881 -11.27657
 Alpha  occ. eigenvalues --  -10.72782  -8.91172  -8.38513  -8.38173  -8.38136
 Alpha  occ. eigenvalues --   -6.25229  -6.24942  -6.24543  -1.40393  -1.18403
 Alpha  occ. eigenvalues --   -1.04897  -0.96430  -0.76937  -0.68734  -0.67027
 Alpha  occ. eigenvalues --   -0.64546  -0.59100  -0.55936  -0.53068  -0.53020
 Alpha  occ. eigenvalues --   -0.51235  -0.43624  -0.39346
 Alpha virt. eigenvalues --    0.03313   0.03888   0.05588   0.06155   0.07594
 Alpha virt. eigenvalues --    0.08947   0.10211   0.11828   0.12272   0.13134
 Alpha virt. eigenvalues --    0.13885   0.13897   0.15574   0.16611   0.16836

 Mulliken charges:
               1
     1  Cl  -0.302609
     2  S    0.470719
     3  C   -0.086211
     4  O   -0.462923
     5  C    0.313970
     6  H    0.064095
     7  H   -0.061125
     8  H    0.064083
 Sum of Mulliken charges =  -0.00000

 Dipole moment (field-independent basis, Debye):
    X=              0.7268    Y=              2.3875    Z=              0.0012  Tot=              2.4957

 Test job not archived.
 1\1\GINC-SE331\SP\RHF\Aug-CC-pVDZ\C2H3Cl1O1S1\OHZDE\09-Apr-2025\0\\#t
 hf aug-cc-pvdz iop(5/13=1,5/36=2,99/5=2) pseudo=read geom=check guess=
 (read,tcheck) scf=(maxcycle=1)\\title\\0,1\Cl,0,-1.872446,0.32121,0.00
 0447\S,0,-0.248969,-0.98419,-0.000342\C,0,1.250244,0.04021,-0.000374\O
 ,0,2.258619,-0.611372,0.000179\C,0,1.147826,1.537269,-0.000162\H,0,0.6
 00641,1.882323,-0.880051\H,0,2.156958,1.948182,0.000197\H,0,0.600122,1
 .882063,0.879508\\Version=ES64L-G16RevC.01\State=1-A\HF=-1009.4823999\
 RMSD=4.593e-03\Dipole=-0.2859362,0.9393331,-0.0004565\Quadrupole=-4.03

 Normal termination of Gaussian 16 at Wed Apr  9 00:15:38 2025.
