 Gaussian 16, Revision C.01,

 ----------------------------------------------------------------------
 #t hf aug-cc-pvdz symm=none int=(grid=ultrafine) guess=(read,tcheck) s
 table=(opt,rrhf)
 ----------------------------------------------------------------------
 -----
 title
 -----
 Symbolic Z-matrix:
 Charge =  0 Multiplicity = 1

 SCF Done:  E(RHF) =  -975.019232284     A.U. after   11 cycles
 Normal termination of Gaussian 16 at Tue Apr  8 22:56:38 2025.
 Gaussian 16:  ES64L-G16RevC.01  3-Jul-2019

 ----------------------------------------------------------------------
 #t hf aug-cc-pvdz iop(5/13=1,5/36=2,99/5=2) pseudo=read geom=check gue
 ss=(read,tcheck) scf=(maxcycle=1)
 ----------------------------------------------------------------------
 -----
 title
 -----
 Structure from the checkpoint file:  "BDE49_expt_1946_mol1.chk"
 Charge =  0 Multiplicity = 1

                         Standard orientation:
 ---------------------------------------------------------------------
 Center     Atomic      Atomic             Coordinates (Angstroms)
 Number     Number       Type             X           Y           Z
 ---------------------------------------------------------------------
      1         14           0       -0.381933    0.000006   -0.000003
      2         17           0        1.706775   -0.000029    0.000014
      3          8           0       -0.909799    1.532794   -0.037031
      4          8           0       -0.909849   -0.798433   -1.308909
      5          8           0       -0.909880   -0.734317    1.345911
      6          1           0       -0.610485    2.109364   -0.744171
      7          1           0       -0.610671   -1.699168   -1.454628
      8          1           0       -0.610732   -0.410142    2.198838
 ---------------------------------------------------------------------

 SCF Done:  E(RHF) =  -975.165776082     A.U. after    2 cycles

 The electronic state is 1-A.
 Alpha  occ. eigenvalues -- -103.65392 -69.18908 -20.59329 -20.59328 -20.59328
 Alpha  occ. eigenvalues --  -10.68880  -8.34563  -8.34355  -8.34355  -6.92624
 Alpha  occ. eigenvalues --   -4.03659  -4.03659  -4.03609  -1.35101  -1.32013
 Alpha  occ. eigenvalues --   -1.32013  -1.13721  -0.81326  -0.74592  -0.74591
 Alpha  occ. eigenvalues --   -0.65305  -0.60517  -0.60517  -0.56926  -0.56822
 Alpha  occ. eigenvalues --   -0.56821  -0.52481  -0.47946  -0.47945
 Alpha virt. eigenvalues --    0.03080   0.05094   0.05094   0.06499   0.07653
 Alpha virt. eigenvalues --    0.07653   0.10407   0.13745   0.15172   0.15172
 Alpha virt. eigenvalues --    0.19190   0.19275   0.19275   0.22299   0.22299

 Mulliken charges:
               1
     1  Si   2.412601
     2  Cl  -0.518538
     3  O   -0.761078
     4  O   -0.761080
     5  O   -0.761076
     6  H    0.129728
     7  H    0.129724
     8  H    0.129720
 Sum of Mulliken charges =  -0.00000

 Dipole moment (field-independent basis, Debye):
    X=              0.5338    Y=              0.0000    Z=              0.0001  Tot=              0.5338

 Test job not archived.
 1\1\GINC-SE460\SP\RHF\Aug-CC-pVDZ\Cl1H3O3Si1\OHZDE\08-Apr-2025\0\\#t h
 f aug-cc-pvdz iop(5/13=1,5/36=2,99/5=2) pseudo=read geom=check guess=(
 read,tcheck) scf=(maxcycle=1)\\title\\0,1\Si,0,0.381933,-0.000006,-0.0
 00003\Cl,0,-1.706775,0.000028,0.000014\O,0,0.909799,-1.532344,-0.05242
 2\O,0,0.909849,0.811537,-1.300825\O,0,0.909879,0.720765,1.353217\H,0,0
 .610486,-2.101784,-0.765316\H,0,0.61067,1.71369,-1.437491\H,0,0.610731
 ,0.388041,2.202846\\Version=ES64L-G16RevC.01\State=1-A\HF=-975.1657761
 \RMSD=3.524e-03\Dipole=-0.2100203,-0.0000091,0.0000543\Quadrupole=-5.6

 Normal termination of Gaussian 16 at Tue Apr  8 22:56:40 2025.
