 Gaussian 16, Revision C.01,

 ----------------------------------------------------------------------
 #t hf aug-cc-pvdz symm=none int=(grid=ultrafine) guess=(read,tcheck) s
 table=(opt,rrhf)
 ----------------------------------------------------------------------
 -----
 title
 -----
 Symbolic Z-matrix:
 Charge =  0 Multiplicity = 1

 SCF Done:  E(RHF) =  -1116.51323573     A.U. after   14 cycles
 Normal termination of Gaussian 16 at Tue Apr  8 23:43:45 2025.
 Gaussian 16:  ES64L-G16RevC.01  3-Jul-2019

 ----------------------------------------------------------------------
 #t hf aug-cc-pvdz iop(5/13=1,5/36=2,99/5=2) pseudo=read geom=check gue
 ss=(read,tcheck) scf=(maxcycle=1)
 ----------------------------------------------------------------------
 -----
 title
 -----
 Structure from the checkpoint file:  "BDE49_nonexpt_1719_mol1.chk"
 Charge =  0 Multiplicity = 1

                         Standard orientation:
 ---------------------------------------------------------------------
 Center     Atomic      Atomic             Coordinates (Angstroms)
 Number     Number       Type             X           Y           Z
 ---------------------------------------------------------------------
      1          6           0       -3.172026   -0.316479    0.170287
      2          6           0       -1.770646    0.200931   -0.032466
      3          1           0       -3.882177    0.431872   -0.181238
      4          1           0       -3.328895   -0.477161    1.241288
      5          1           0       -3.330736   -1.267720   -0.339277
      6         16           0       -0.536092   -1.110829   -0.145272
      7          8           0       -1.515943    1.385169   -0.106644
      8         15           0        1.324584   -0.010444   -0.056241
      9          8           0        2.398421   -0.868372   -0.544599
     10          8           0        1.031431    1.338561   -0.797134
     11          1           0        0.120276    1.666555   -0.590534
     12          8           0        1.448583    0.454768    1.472530
     13          1           0        1.886346   -0.211338    2.017571
 ---------------------------------------------------------------------

 SCF Done:  E(RHF) =  -1116.72091945     A.U. after    2 cycles

 The electronic state is 1-A.
 Alpha  occ. eigenvalues --  -93.57852 -81.45098 -20.63190 -20.61921 -20.61814
 Alpha  occ. eigenvalues --  -20.54334 -11.42371 -11.28453  -8.87855  -7.93237
 Alpha  occ. eigenvalues --   -6.21966  -6.21728  -6.21436  -5.07894  -5.07767
 Alpha  occ. eigenvalues --   -5.07446  -1.41764  -1.39274  -1.35822  -1.27931
 Alpha  occ. eigenvalues --   -1.07439  -0.99756  -0.85146  -0.81016  -0.77162
 Alpha  occ. eigenvalues --   -0.71186  -0.69199  -0.67640  -0.65778  -0.65642
 Alpha  occ. eigenvalues --   -0.61946  -0.60841  -0.59180  -0.58113  -0.56626
 Alpha  occ. eigenvalues --   -0.53017  -0.50926  -0.46465  -0.46175  -0.41715
 Alpha virt. eigenvalues --    0.02505   0.03933   0.04890   0.05170   0.06785
 Alpha virt. eigenvalues --    0.08198   0.08420   0.08998   0.10295   0.11126
 Alpha virt. eigenvalues --    0.11571   0.12211   0.13021   0.13802   0.14388

 Mulliken charges:
               1
     1  C    0.392756
     2  C   -0.209629
     3  H   -0.027755
     4  H    0.105781
     5  H   -0.000102
     6  S   -0.096870
     7  O   -0.548795
     8  P    2.127170
     9  O   -0.841265
    10  O   -0.700421
    11  H    0.295930
    12  O   -0.651068
    13  H    0.154269
 Sum of Mulliken charges =  -0.00000

 Dipole moment (field-independent basis, Debye):
    X=             -5.0444    Y=             -1.2201    Z=              2.6913  Tot=              5.8462

 Test job not archived.
 1\1\GINC-SE029\SP\RHF\Aug-CC-pVDZ\C2H5O4P1S1\OHZDE\08-Apr-2025\0\\#t h
 f aug-cc-pvdz iop(5/13=1,5/36=2,99/5=2) pseudo=read geom=check guess=(
 read,tcheck) scf=(maxcycle=1)\\title\\0,1\C,0,-3.172026,-0.316479,0.17
 0287\C,0,-1.770646,0.200931,-0.032466\H,0,-3.882177,0.431872,-0.181238
 \H,0,-3.328895,-0.477161,1.241288\H,0,-3.330736,-1.26772,-0.339277\S,0
 ,-0.536092,-1.110829,-0.145272\O,0,-1.515943,1.385169,-0.106644\P,0,1.
 324584,-0.010444,-0.056241\O,0,2.398421,-0.868372,-0.544599\O,0,1.0314
 31,1.338561,-0.797134\H,0,0.120276,1.666555,-0.590534\O,0,1.448583,0.4

 Normal termination of Gaussian 16 at Tue Apr  8 23:43:50 2025.
