 Gaussian 16, Revision C.01,

 ----------------------------------------------------------------------
 #t hf aug-cc-pvdz symm=none int=(grid=ultrafine) guess=(read,tcheck) s
 table=opt
 ----------------------------------------------------------------------
 -----
 title
 -----
 Symbolic Z-matrix:
 Charge =  0 Multiplicity = 2

 SCF Done:  E(UHF) =  -292.507437124     A.U. after   21 cycles
 Normal termination of Gaussian 16 at Wed Apr  9 00:30:58 2025.
 Gaussian 16:  ES64L-G16RevC.01  3-Jul-2019

 ----------------------------------------------------------------------
 #t hf aug-cc-pvdz iop(5/13=1,5/36=2,99/5=2) pseudo=read geom=check gue
 ss=(read,tcheck) scf=(maxcycle=1)
 ----------------------------------------------------------------------
 -----
 title
 -----
 Structure from the checkpoint file:  "BDE49_nonexpt_389_mol2.chk"
 Charge =  0 Multiplicity = 2

                         Standard orientation:
 ---------------------------------------------------------------------
 Center     Atomic      Atomic             Coordinates (Angstroms)
 Number     Number       Type             X           Y           Z
 ---------------------------------------------------------------------
      1          9           0       -2.009249   -0.183591   -0.223582
      2          5           0       -0.946733   -0.296800    0.529461
      3          6           0        0.516117    0.102160    0.073453
      4          8           0        0.678558    1.313926   -0.019946
      5          7           0        1.500773   -0.814551   -0.100542
      6          1           0        1.346395   -1.793731    0.074504
      7          1           0        2.439934   -0.492458   -0.286922
 ---------------------------------------------------------------------

 SCF Done:  E(UHF) =  -292.610565678     A.U. after    2 cycles

 The electronic state is 2-A.
 Alpha  occ. eigenvalues --  -26.16436 -20.55987 -15.67158 -11.37216  -7.73183
 Alpha  occ. eigenvalues --   -1.70829  -1.36177  -1.19668  -0.89306  -0.84751
 Alpha  occ. eigenvalues --   -0.79519  -0.76473  -0.75941  -0.69618  -0.62713
 Alpha  occ. eigenvalues --   -0.59778  -0.47320  -0.44113  -0.37504
 Alpha virt. eigenvalues --    0.02231   0.04105   0.05397   0.05757   0.06868
 Alpha virt. eigenvalues --    0.07500   0.08919   0.13128   0.13689   0.14337
 Alpha virt. eigenvalues --    0.15930   0.17864   0.18375   0.19559   0.20541

  Beta  occ. eigenvalues --  -26.16101 -20.55764 -15.67152 -11.36936  -7.71283
  Beta  occ. eigenvalues --   -1.69873  -1.35658  -1.19511  -0.87614  -0.83737
  Beta  occ. eigenvalues --   -0.77247  -0.76474  -0.74864  -0.68890  -0.61598
  Beta  occ. eigenvalues --   -0.58518  -0.45114  -0.43171
  Beta virt. eigenvalues --    0.02055   0.03551   0.04819   0.05834   0.06807
  Beta virt. eigenvalues --    0.07230   0.09724   0.10918   0.13153   0.14294
  Beta virt. eigenvalues --    0.15371   0.17147   0.18291   0.19035   0.20111

 Mulliken charges and spin densities:
               1          2
     1  F   -0.276869  -0.040783
     2  B    0.276505   0.975452
     3  C    0.644249   0.006080
     4  O   -0.521031   0.049238
     5  N   -0.106004   0.010905
     6  H   -0.011035   0.000027
     7  H   -0.005815  -0.000919
 Sum of Mulliken charges =  -0.00000   1.00000

 Dipole moment (field-independent basis, Debye):
    X=              1.6888    Y=             -4.2178    Z=              0.4120  Tot=              4.5620
                          Isotropic Fermi Contact Couplings
        Atom                 a.u.       MegaHertz       Gauss      10(-4) cm-1
     1  F(19)              0.06796     285.93332     102.02812      95.37709
     2  B(11)              0.34003     487.72498     174.03240     162.68754
     3  C(13)              0.07706      86.63505      30.91354      28.89834
     4  O(17)              0.01851     -11.22053      -4.00377      -3.74277
     5  N(14)              0.00022       0.07144       0.02549       0.02383
     6  H(1)              -0.00015      -0.69251      -0.24710      -0.23100
     7  H(1)               0.00024       1.09359       0.39022       0.36478
 --------------------------------------------------------

 Normal termination of Gaussian 16 at Wed Apr  9 00:31:03 2025.
