 Gaussian 16, Revision C.01,

 ----------------------------------------------------------------------
 #t hf aug-cc-pvdz symm=none int=(grid=ultrafine) guess=(read,tcheck) s
 table=(opt,rrhf)
 ----------------------------------------------------------------------
 -----
 title
 -----
 Symbolic Z-matrix:
 Charge =  0 Multiplicity = 1

 SCF Done:  E(RHF) =  -306.709454260     A.U. after   14 cycles
 Normal termination of Gaussian 16 at Tue Apr  8 23:19:52 2025.
 Gaussian 16:  ES64L-G16RevC.01  3-Jul-2019

 ----------------------------------------------------------------------
 #t hf aug-cc-pvdz iop(5/13=1,5/36=2,99/5=2) pseudo=read geom=check gue
 ss=(read,tcheck) scf=(maxcycle=1)
 ----------------------------------------------------------------------
 -----
 title
 -----
 Structure from the checkpoint file:  "BDE49_nonexpt_1153_mol1.chk"
 Charge =  0 Multiplicity = 1

                         Standard orientation:
 ---------------------------------------------------------------------
 Center     Atomic      Atomic             Coordinates (Angstroms)
 Number     Number       Type             X           Y           Z
 ---------------------------------------------------------------------
      1          9           0        1.831897   -0.201531   -0.000012
      2          8           0        0.527162   -0.797671   -0.000005
      3          6           0       -0.441322    0.209338    0.000002
      4          6           0       -1.771614   -0.488860    0.000014
      5          7           0       -0.264635    1.449146    0.000002
      6          1           0       -1.878008   -1.120443   -0.884644
      7          1           0       -2.543926    0.277770    0.000013
      8          1           0       -1.877998   -1.120431    0.884682
      9          1           0        0.725619    1.691351   -0.000005
 ---------------------------------------------------------------------

 SCF Done:  E(RHF) =  -306.810267976     A.U. after    2 cycles

 The electronic state is 1-A.
 Alpha  occ. eigenvalues --  -26.19043 -20.73434 -15.63162 -11.38447 -11.26883
 Alpha  occ. eigenvalues --   -1.69581  -1.37146  -1.19363  -1.01907  -0.85171
 Alpha  occ. eigenvalues --   -0.79802  -0.78401  -0.74960  -0.66632  -0.65249
 Alpha  occ. eigenvalues --   -0.60112  -0.58602  -0.58200  -0.46305  -0.44502
 Alpha virt. eigenvalues --    0.03358   0.04888   0.05386   0.05811   0.09673
 Alpha virt. eigenvalues --    0.10083   0.12170   0.12218   0.14384   0.14598
 Alpha virt. eigenvalues --    0.15506   0.15865   0.16825   0.18553   0.20681

 Mulliken charges:
               1
     1  F   -0.355356
     2  O   -0.148885
     3  C    0.393477
     4  C    0.265355
     5  N   -0.257399
     6  H    0.034310
     7  H   -0.009254
     8  H    0.034312
     9  H    0.043440
 Sum of Mulliken charges =  -0.00000

 Dipole moment (field-independent basis, Debye):
    X=             -1.6398    Y=             -1.1002    Z=              0.0000  Tot=              1.9747

 Test job not archived.
 1\1\GINC-SE126\SP\RHF\Aug-CC-pVDZ\C2H4F1N1O1\OHZDE\08-Apr-2025\0\\#t h
 f aug-cc-pvdz iop(5/13=1,5/36=2,99/5=2) pseudo=read geom=check guess=(
 read,tcheck) scf=(maxcycle=1)\\title\\0,1\F,0,1.831897,-0.201531,-0.00
 0012\O,0,0.527162,-0.797671,-0.000005\C,0,-0.441322,0.209338,0.000002\
 C,0,-1.771614,-0.48886,0.000014\N,0,-0.264635,1.449146,0.000002\H,0,-1
 .878008,-1.120443,-0.884644\H,0,-2.543926,0.27777,0.000013\H,0,-1.8779
 98,-1.120431,0.884682\H,0,0.725619,1.691351,-0.000005\\Version=ES64L-G
 16RevC.01\State=1-A\HF=-306.810268\RMSD=4.065e-03\Dipole=-0.6451444,-0

 Normal termination of Gaussian 16 at Tue Apr  8 23:19:55 2025.
