 Gaussian 16, Revision C.01,

 ----------------------------------------------------------------------
 #t hf aug-cc-pvdz symm=none int=(grid=ultrafine) guess=(read,tcheck) s
 table=opt
 ----------------------------------------------------------------------
 -----
 title
 -----
 Symbolic Z-matrix:
 Charge =  0 Multiplicity = 2

 SCF Done:  E(UHF) =  -634.855082803     A.U. after   14 cycles
 Normal termination of Gaussian 16 at Wed Apr  9 00:19:05 2025.
 Gaussian 16:  ES64L-G16RevC.01  3-Jul-2019

 ----------------------------------------------------------------------
 #t hf aug-cc-pvdz iop(5/13=1,5/36=2,99/5=2) pseudo=read geom=check gue
 ss=(read,tcheck) scf=(maxcycle=1)
 ----------------------------------------------------------------------
 -----
 title
 -----
 Structure from the checkpoint file:  "BDE49_nonexpt_2623_mol2.chk"
 Charge =  0 Multiplicity = 2

                         Standard orientation:
 ---------------------------------------------------------------------
 Center     Atomic      Atomic             Coordinates (Angstroms)
 Number     Number       Type             X           Y           Z
 ---------------------------------------------------------------------
      1         16           0        1.355136   -0.000001   -0.055917
      2          6           0       -0.402588   -0.000001    0.348483
      3          9           0       -1.043463    1.093074   -0.146524
      4          9           0       -1.043468   -1.093071   -0.146525
      5          1           0       -0.484257   -0.000001    1.441210
 ---------------------------------------------------------------------

 SCF Done:  E(UHF) =  -634.959007518     A.U. after    2 cycles

 The electronic state is 2-A.
 Alpha  occ. eigenvalues --  -93.59166 -26.15700 -26.15690 -11.47062  -8.88996
 Alpha  occ. eigenvalues --   -6.24320  -6.22636  -6.22146  -1.72236  -1.67586
 Alpha  occ. eigenvalues --   -1.08132  -0.94165  -0.84340  -0.83331  -0.78833
 Alpha  occ. eigenvalues --   -0.74784  -0.71428  -0.67210  -0.53096  -0.47961
 Alpha  occ. eigenvalues --   -0.42254
 Alpha virt. eigenvalues --    0.03645   0.06673   0.09635   0.10047   0.11082
 Alpha virt. eigenvalues --    0.12391   0.12758   0.15605   0.21318   0.23172
 Alpha virt. eigenvalues --    0.24157   0.24480   0.26644   0.27877   0.30355

  Beta  occ. eigenvalues --  -93.58254 -26.15673 -26.15663 -11.47204  -8.87981
  Beta  occ. eigenvalues --   -6.22110  -6.21594  -6.20298  -1.72134  -1.67482
  Beta  occ. eigenvalues --   -1.05249  -0.89633  -0.83956  -0.83177  -0.76810
  Beta  occ. eigenvalues --   -0.74812  -0.71369  -0.65910  -0.51596  -0.39891
  Beta virt. eigenvalues --   -0.01856   0.03720   0.06886   0.10099   0.10296
  Beta virt. eigenvalues --    0.11561   0.12842   0.14035   0.15939   0.22597
  Beta virt. eigenvalues --    0.23575   0.24667   0.25117   0.26689   0.30443

 Mulliken charges and spin densities:
               1          2
     1  S    0.244337   1.073979
     2  C    0.536180  -0.086111
     3  F   -0.325329   0.000069
     4  F   -0.325327   0.000069
     5  H   -0.129861   0.011994
 Sum of Mulliken charges =  -0.00000   1.00000

 Dipole moment (field-independent basis, Debye):
    X=              1.1310    Y=             -0.0000    Z=              1.6034  Tot=              1.9622
                          Isotropic Fermi Contact Couplings
        Atom                 a.u.       MegaHertz       Gauss      10(-4) cm-1
     1  S(33)              0.19448      66.79858      23.83539      22.28161
     2  C(13)             -0.02541     -28.57105     -10.19486      -9.53028
     3  F(19)              0.00584      24.55923       8.76334       8.19208
     4  F(19)              0.00584      24.55823       8.76299       8.19174
     5  H(1)               0.00891      39.84393      14.21730      13.29050
 --------------------------------------------------------
       Center         ----  Spin Dipole Couplings  ----
                      3XX-RR        3YY-RR        3ZZ-RR

 Normal termination of Gaussian 16 at Wed Apr  9 00:19:07 2025.
