 Gaussian 16, Revision C.01,

 ----------------------------------------------------------------------
 #t hf aug-cc-pvdz symm=none int=(grid=ultrafine) guess=(read,tcheck) s
 table=(opt,rrhf)
 ----------------------------------------------------------------------
 -----
 title
 -----
 Symbolic Z-matrix:
 Charge =  0 Multiplicity = 1

 SCF Done:  E(RHF) =  -249.060504610     A.U. after   13 cycles
 Normal termination of Gaussian 16 at Tue Apr  8 22:36:47 2025.
 Gaussian 16:  ES64L-G16RevC.01  3-Jul-2019

 ----------------------------------------------------------------------
 #t hf aug-cc-pvdz iop(5/13=1,5/36=2,99/5=2) pseudo=read geom=check gue
 ss=(read,tcheck) scf=(maxcycle=1)
 ----------------------------------------------------------------------
 -----
 title
 -----
 Structure from the checkpoint file:  "BDE49_expt_1156_mol1.chk"
 Charge =  0 Multiplicity = 1

                         Standard orientation:
 ---------------------------------------------------------------------
 Center     Atomic      Atomic             Coordinates (Angstroms)
 Number     Number       Type             X           Y           Z
 ---------------------------------------------------------------------
      1          6           0       -1.872938   -0.166075    0.005088
      2          7           0       -2.535536   -1.096537   -0.151030
      3          6           0       -1.016364    1.004645    0.189977
      4          6           0        0.419085    0.795082   -0.335563
      5          1           0       -0.997433    1.248100    1.257576
      6          1           0       -1.487079    1.851086   -0.319144
      7          6           0        1.195955   -0.298764    0.403706
      8          1           0        0.946362    1.750550   -0.242535
      9          1           0        0.376202    0.562886   -1.404687
     10          6           0        2.618552   -0.478409   -0.132532
     11          1           0        0.651664   -1.245777    0.325083
     12          1           0        1.234309   -0.053273    1.471972
     13          1           0        2.609769   -0.759634   -1.189892
     14          1           0        3.149886   -1.261591    0.413783
     15          1           0        3.199334    0.444539   -0.039000
 ---------------------------------------------------------------------

 SCF Done:  E(RHF) =  -249.137898484     A.U. after    2 cycles

 The electronic state is 1-A.
 Alpha  occ. eigenvalues --  -15.63440 -11.29190 -11.28487 -11.25972 -11.24387
 Alpha  occ. eigenvalues --  -11.23439  -1.19150  -1.09618  -1.02001  -0.90796
 Alpha  occ. eigenvalues --   -0.82005  -0.70479  -0.64897  -0.62973  -0.61207
 Alpha  occ. eigenvalues --   -0.56746  -0.54760  -0.53358  -0.50777  -0.49488
 Alpha  occ. eigenvalues --   -0.48788  -0.45319  -0.45027
 Alpha virt. eigenvalues --    0.02857   0.03843   0.04227   0.05139   0.06240
 Alpha virt. eigenvalues --    0.06571   0.06990   0.08214   0.09076   0.10320
 Alpha virt. eigenvalues --    0.11032   0.12395   0.13816   0.14164   0.14879

 Mulliken charges:
               1
     1  C   -0.184617
     2  N   -0.230568
     3  C    0.417590
     4  C    0.092019
     5  H    0.005019
     6  H    0.044963
     7  C    0.190041
     8  H   -0.088773
     9  H   -0.172417
    10  C    0.422198
    11  H   -0.165923
    12  H   -0.125949
    13  H   -0.062087
    14  H   -0.062507
    15  H   -0.078991
 Sum of Mulliken charges =  -0.00000

 Dipole moment (field-independent basis, Debye):
    X=              2.8421    Y=              3.0953    Z=              0.4880  Tot=              4.2304

 Test job not archived.
 1\1\GINC-SE083\SP\RHF\Aug-CC-pVDZ\C5H9N1\OHZDE\08-Apr-2025\0\\#t hf au
 g-cc-pvdz iop(5/13=1,5/36=2,99/5=2) pseudo=read geom=check guess=(read
 ,tcheck) scf=(maxcycle=1)\\title\\0,1\C,0,-1.872938,-0.166075,0.005088
 \N,0,-2.535536,-1.096537,-0.15103\C,0,-1.016364,1.004645,0.189977\C,0,
 0.419085,0.795082,-0.335563\H,0,-0.997433,1.2481,1.257576\H,0,-1.48707
 9,1.851086,-0.319144\C,0,1.195955,-0.298764,0.403706\H,0,0.946362,1.75
 055,-0.242535\H,0,0.376202,0.562886,-1.404687\C,0,2.618552,-0.478409,-
 0.132532\H,0,0.651664,-1.245777,0.325083\H,0,1.234309,-0.053273,1.4719

 Normal termination of Gaussian 16 at Tue Apr  8 22:36:53 2025.
