 Gaussian 16, Revision C.01,

 ----------------------------------------------------------------------
 #t hf aug-cc-pvdz symm=none int=(grid=ultrafine) guess=(read,tcheck) s
 table=opt
 ----------------------------------------------------------------------
 -----
 title
 -----
 Symbolic Z-matrix:
 Charge =  0 Multiplicity = 2

 SCF Done:  E(UHF) =  -396.925100589     A.U. after   16 cycles
 Normal termination of Gaussian 16 at Tue Apr  8 23:25:54 2025.
 Gaussian 16:  ES64L-G16RevC.01  3-Jul-2019

 ----------------------------------------------------------------------
 #t hf aug-cc-pvdz iop(5/13=1,5/36=2,99/5=2) pseudo=read geom=check gue
 ss=(read,tcheck) scf=(maxcycle=1)
 ----------------------------------------------------------------------
 -----
 title
 -----
 Structure from the checkpoint file:  "BDE49_nonexpt_1315_mol2.chk"
 Charge =  0 Multiplicity = 2

                         Standard orientation:
 ---------------------------------------------------------------------
 Center     Atomic      Atomic             Coordinates (Angstroms)
 Number     Number       Type             X           Y           Z
 ---------------------------------------------------------------------
      1         15           0       -0.645532   -0.098601    0.008282
      2          7           0        1.055834    0.018146   -0.049380
      3          1           0        1.598137   -0.820356    0.092300
      4          1           0        1.555562    0.866225    0.169168
      5          1           0       -0.861552    1.306123   -0.040039
 ---------------------------------------------------------------------

 SCF Done:  E(UHF) =  -396.966914128     A.U. after    2 cycles

 The electronic state is 2-A.
 Alpha  occ. eigenvalues --  -81.27446 -15.63401  -7.77589  -4.92091  -4.91343
 Alpha  occ. eigenvalues --   -4.90938  -1.13547  -0.78022  -0.68605  -0.56095
 Alpha  occ. eigenvalues --   -0.49148  -0.40855  -0.29435
 Alpha virt. eigenvalues --    0.03395   0.04958   0.05782   0.09136   0.10609
 Alpha virt. eigenvalues --    0.11761   0.16743   0.17381   0.18054   0.20316
 Alpha virt. eigenvalues --    0.20763   0.23223   0.25470   0.27295   0.30216

  Beta  occ. eigenvalues --  -81.26834 -15.62665  -7.76856  -4.90995  -4.90642
  Beta  occ. eigenvalues --   -4.89207  -1.11532  -0.73604  -0.68118  -0.54558
  Beta  occ. eigenvalues --   -0.41865  -0.37854
  Beta virt. eigenvalues --    0.03437   0.05014   0.05887   0.06102   0.09322
  Beta virt. eigenvalues --    0.11906   0.14600   0.17152   0.18095   0.18810
  Beta virt. eigenvalues --    0.20571   0.21215   0.25417   0.27543   0.27916

 Mulliken charges and spin densities:
               1          2
     1  P    0.502332   1.068962
     2  N   -0.422101   0.109434
     3  H    0.020285  -0.018773
     4  H   -0.009327  -0.023366
     5  H   -0.091188  -0.136256
 Sum of Mulliken charges =  -0.00000   1.00000

 Dipole moment (field-independent basis, Debye):
    X=              1.6231    Y=              0.5467    Z=              0.5250  Tot=              1.7913
                          Isotropic Fermi Contact Couplings
        Atom                 a.u.       MegaHertz       Gauss      10(-4) cm-1
     1  P(31)              0.22333     404.46667     144.32377     134.91556
     2  N(14)              0.07371      23.81506       8.49781       7.94385
     3  H(1)              -0.00477     -21.32521      -7.60936      -7.11332
     4  H(1)              -0.00365     -16.31786      -5.82262      -5.44305
     5  H(1)              -0.01264     -56.50139     -20.16110     -18.84684
 --------------------------------------------------------
       Center         ----  Spin Dipole Couplings  ----
                      3XX-RR        3YY-RR        3ZZ-RR

 Normal termination of Gaussian 16 at Tue Apr  8 23:25:56 2025.
