 Gaussian 16, Revision C.01,

 ----------------------------------------------------------------------
 #t hf aug-cc-pvdz symm=none int=(grid=ultrafine) guess=(read,tcheck) s
 table=(opt,rrhf)
 ----------------------------------------------------------------------
 -----
 title
 -----
 Symbolic Z-matrix:
 Charge =  0 Multiplicity = 1

 SCF Done:  E(RHF) =  -1897.76958679     A.U. after   14 cycles
 Normal termination of Gaussian 16 at Tue Apr  8 23:48:26 2025.
 Gaussian 16:  ES64L-G16RevC.01  3-Jul-2019

 ----------------------------------------------------------------------
 #t hf aug-cc-pvdz iop(5/13=1,5/36=2,99/5=2) pseudo=read geom=check gue
 ss=(read,tcheck) scf=(maxcycle=1)
 ----------------------------------------------------------------------
 -----
 title
 -----
 Structure from the checkpoint file:  "BDE49_nonexpt_1825_mol1.chk"
 Charge =  0 Multiplicity = 1

                         Standard orientation:
 ---------------------------------------------------------------------
 Center     Atomic      Atomic             Coordinates (Angstroms)
 Number     Number       Type             X           Y           Z
 ---------------------------------------------------------------------
      1          6           0       -1.639896    1.208485   -0.025811
      2          6           0       -3.031405    1.206723    0.000333
      3          6           0       -3.727890   -0.000001    0.013870
      4          6           0       -3.031404   -1.206723    0.000333
      5          6           0       -1.639895   -1.208484   -0.025811
      6          6           0       -0.925819    0.000001   -0.039217
      7          1           0       -1.110882    2.154503   -0.043055
      8          1           0       -3.570775    2.146928    0.006799
      9         14           0        0.925458    0.000000   -0.007827
     10          1           0       -1.110880   -2.154501   -0.043055
     11         17           0        1.683041   -1.673519   -0.945509
     12         17           0        1.645486   -0.000022    1.926754
     13         17           0        1.683041    1.673540   -0.945472
     14          1           0       -3.570773   -2.146931    0.006798
     15          1           0       -4.811919   -0.000002    0.031750
 ---------------------------------------------------------------------

 SCF Done:  E(RHF) =  -1897.91786203     A.U. after    2 cycles

 The electronic state is 1-A.
 Alpha  occ. eigenvalues -- -103.67201-103.67201-103.66793 -69.20407 -11.27312
 Alpha  occ. eigenvalues --  -11.27306 -11.27026 -11.26340 -11.26333 -11.26280
 Alpha  occ. eigenvalues --  -10.70660 -10.70651 -10.70236  -8.36352  -8.36348
 Alpha  occ. eigenvalues --   -8.36119  -8.36116  -8.36110  -8.36109  -8.35932
 Alpha  occ. eigenvalues --   -8.35695  -8.35692  -6.94350  -4.05179  -4.05132
 Alpha  occ. eigenvalues --   -4.05009  -1.18105  -1.16050  -1.14680  -1.14308
 Alpha  occ. eigenvalues --   -1.03200  -1.03054  -0.84900  -0.84821  -0.74284
 Alpha  occ. eigenvalues --   -0.69805  -0.65312  -0.64958  -0.61399  -0.59674
 Alpha  occ. eigenvalues --   -0.58349  -0.57843  -0.53009  -0.52772  -0.51918
 Alpha  occ. eigenvalues --   -0.51019  -0.50836  -0.48410  -0.48174  -0.47046
 Alpha  occ. eigenvalues --   -0.46837  -0.36548  -0.36043
 Alpha virt. eigenvalues --    0.02922   0.03881   0.04344   0.05973   0.06160
 Alpha virt. eigenvalues --    0.06220   0.06698   0.07539   0.08700   0.08959
 Alpha virt. eigenvalues --    0.09424   0.11399   0.11846   0.12032   0.13176

 Mulliken charges:
               1
     1  C    0.407039
     2  C    0.727976
     3  C    0.664470
     4  C    0.727979
     5  C    0.407057
     6  C   -0.506944
     7  H   -0.619585
     8  H   -0.447982
     9  Si   1.607686
    10  H   -0.619589
    11  Cl  -0.478624
    12  Cl  -0.513080
    13  Cl  -0.478624
    14  H   -0.447981
    15  H   -0.429796
 Sum of Mulliken charges =  -0.00000

 Dipole moment (field-independent basis, Debye):
    X=             -3.2410    Y=             -0.0000    Z=             -0.0846  Tot=              3.2421

 Test job not archived.
 1\1\GINC-SE461\SP\RHF\Aug-CC-pVDZ\C6H5Cl3Si1\OHZDE\08-Apr-2025\0\\#t h
 f aug-cc-pvdz iop(5/13=1,5/36=2,99/5=2) pseudo=read geom=check guess=(
 read,tcheck) scf=(maxcycle=1)\\title\\0,1\C,0,-1.639896,1.208485,-0.02
 5811\C,0,-3.031405,1.206723,0.000333\C,0,-3.72789,0.,0.01387\C,0,-3.03
 1404,-1.206723,0.000333\C,0,-1.639895,-1.208484,-0.025811\C,0,-0.92581
 9,0.000001,-0.039217\H,0,-1.110882,2.154503,-0.043055\H,0,-3.570775,2.
 146929,0.006799\Si,0,0.925458,0.,-0.007827\H,0,-1.11088,-2.154501,-0.0
 43055\Cl,0,1.683041,-1.673519,-0.945509\Cl,0,1.645486,-0.000022,1.9267

 Normal termination of Gaussian 16 at Tue Apr  8 23:48:35 2025.
