 Gaussian 16, Revision C.01,

 ----------------------------------------------------------------------
 #t hf aug-cc-pvdz symm=none int=(grid=ultrafine) guess=(read,tcheck) s
 table=(opt,rrhf)
 ----------------------------------------------------------------------
 -----
 title
 -----
 Symbolic Z-matrix:
 Charge =  0 Multiplicity = 1

 SCF Done:  E(RHF) =  -483.640297594     A.U. after   14 cycles
 Normal termination of Gaussian 16 at Wed Apr  9 00:41:03 2025.
 Gaussian 16:  ES64L-G16RevC.01  3-Jul-2019

 ----------------------------------------------------------------------
 #t hf aug-cc-pvdz iop(5/13=1,5/36=2,99/5=2) pseudo=read geom=check gue
 ss=(read,tcheck) scf=(maxcycle=1)
 ----------------------------------------------------------------------
 -----
 title
 -----
 Structure from the checkpoint file:  "BDE49_nonexpt_719_mol1.chk"
 Charge =  0 Multiplicity = 1

                         Standard orientation:
 ---------------------------------------------------------------------
 Center     Atomic      Atomic             Coordinates (Angstroms)
 Number     Number       Type             X           Y           Z
 ---------------------------------------------------------------------
      1          5           0       -2.330612    0.695143    0.105876
      2          6           0        0.622379    0.005986    0.538521
      3          6           0        1.534613    0.922525   -0.252276
      4          6           0        1.924685   -0.511155   -0.040918
      5          1           0        1.871185   -1.181080   -0.890928
      6          1           0        2.723438   -0.732304    0.656852
      7          1           0        2.061040    1.691202    0.300167
      8          1           0        1.218494    1.221697   -1.244478
      9         15           0       -0.964669   -0.506364   -0.207422
     10          1           0        0.611210    0.163512    1.610938
     11          1           0       -3.450623    0.293715    0.098166
     12          1           0       -2.100925    1.862208    0.124535
     13          1           0       -1.300798   -1.703347    0.454734
 ---------------------------------------------------------------------

 SCF Done:  E(RHF) =  -483.706456043     A.U. after    2 cycles

 The electronic state is 1-A.
 Alpha  occ. eigenvalues --  -81.23825 -11.25554 -11.24770 -11.24690  -7.74596
 Alpha  occ. eigenvalues --   -7.61965  -4.88706  -4.88665  -4.88347  -1.13696
 Alpha  occ. eigenvalues --   -0.85879  -0.83037  -0.76280  -0.68276  -0.65251
 Alpha  occ. eigenvalues --   -0.61210  -0.53085  -0.52353  -0.48438  -0.48007
 Alpha  occ. eigenvalues --   -0.42746  -0.42009  -0.32496
 Alpha virt. eigenvalues --    0.03235   0.04388   0.04545   0.04693   0.05573
 Alpha virt. eigenvalues --    0.06097   0.06586   0.07302   0.07935   0.09183
 Alpha virt. eigenvalues --    0.09836   0.10973   0.12300   0.13099   0.13422

 Mulliken charges:
               1
     1  B   -0.424707
     2  C    0.177086
     3  C    0.684160
     4  C    0.776874
     5  H   -0.359452
     6  H   -0.319392
     7  H   -0.328158
     8  H   -0.357127
     9  P    0.026397
    10  H   -0.474480
    11  H    0.298241
    12  H    0.233731
    13  H    0.066827
 Sum of Mulliken charges =  -0.00000

 Dipole moment (field-independent basis, Debye):
    X=              1.2151    Y=              0.0459    Z=              0.9831  Tot=              1.5637

 Test job not archived.
 1\1\GINC-SE070\SP\RHF\Aug-CC-pVDZ\C3H8B1P1\OHZDE\09-Apr-2025\0\\#t hf
 aug-cc-pvdz iop(5/13=1,5/36=2,99/5=2) pseudo=read geom=check guess=(re
 ad,tcheck) scf=(maxcycle=1)\\title\\0,1\B,0,-2.330612,0.695143,0.10587
 6\C,0,0.622379,0.005986,0.538521\C,0,1.534613,0.922525,-0.252276\C,0,1
 .924685,-0.511155,-0.040918\H,0,1.871185,-1.18108,-0.890928\H,0,2.7234
 38,-0.732304,0.656852\H,0,2.06104,1.691202,0.300167\H,0,1.218494,1.221
 697,-1.244478\P,0,-0.964669,-0.506364,-0.207422\H,0,0.61121,0.163512,1
 .610938\H,0,-3.450623,0.293714,0.098166\H,0,-2.100925,1.862208,0.12453

 Normal termination of Gaussian 16 at Wed Apr  9 00:41:07 2025.
