 Gaussian 16, Revision C.01,

 ----------------------------------------------------------------------
 #t hf aug-cc-pvdz symm=none int=(grid=ultrafine) guess=(read,tcheck) s
 table=opt
 ----------------------------------------------------------------------
 -----
 title
 -----
 Symbolic Z-matrix:
 Charge =  0 Multiplicity = 2

 SCF Done:  E(UHF) =  -262.531011116     A.U. after   16 cycles
 Normal termination of Gaussian 16 at Wed Apr  9 00:33:46 2025.
 Gaussian 16:  ES64L-G16RevC.01  3-Jul-2019

 ----------------------------------------------------------------------
 #t hf aug-cc-pvdz iop(5/13=1,5/36=2,99/5=2) pseudo=read geom=check gue
 ss=(read,tcheck) scf=(maxcycle=1)
 ----------------------------------------------------------------------
 -----
 title
 -----
 Structure from the checkpoint file:  "BDE49_nonexpt_456_mol2.chk"
 Charge =  0 Multiplicity = 2

                         Standard orientation:
 ---------------------------------------------------------------------
 Center     Atomic      Atomic             Coordinates (Angstroms)
 Number     Number       Type             X           Y           Z
 ---------------------------------------------------------------------
      1          1           0        0.869810    1.883359   -0.954479
      2          5           0        0.856654    1.298723    0.076363
      3          6           0       -0.013535    0.025716    0.412862
      4          9           0       -1.257752    0.075878   -0.179114
      5          9           0        0.712927   -0.994916   -0.194159
      6          1           0       -0.168443   -0.259927    1.454950
 ---------------------------------------------------------------------

 SCF Done:  E(UHF) =  -262.622630556     A.U. after    2 cycles

 The electronic state is 2-A.
 Alpha  occ. eigenvalues --  -26.14207 -26.13840 -11.41300  -7.67966  -1.69527
 Alpha  occ. eigenvalues --   -1.65541  -1.00541  -0.82732  -0.81101  -0.80646
 Alpha  occ. eigenvalues --   -0.73411  -0.69983  -0.68364  -0.63437  -0.53081
 Alpha  occ. eigenvalues --   -0.38016
 Alpha virt. eigenvalues --    0.01989   0.03697   0.05236   0.05783   0.07962
 Alpha virt. eigenvalues --    0.08715   0.09952   0.12562   0.14128   0.16121
 Alpha virt. eigenvalues --    0.19555   0.22278   0.23475   0.25392   0.26498

  Beta  occ. eigenvalues --  -26.14187 -26.13661 -11.41273  -7.66061  -1.69220
  Beta  occ. eigenvalues --   -1.65219  -0.99905  -0.81909  -0.80625  -0.80177
  Beta  occ. eigenvalues --   -0.73169  -0.69796  -0.65939  -0.61623  -0.51993
  Beta virt. eigenvalues --    0.02841   0.03534   0.04824   0.05441   0.07592
  Beta virt. eigenvalues --    0.09156   0.09233   0.10717   0.13128   0.16150
  Beta virt. eigenvalues --    0.16773   0.20151   0.22681   0.24286   0.26454

 Mulliken charges and spin densities:
               1          2
     1  H    0.297401  -0.021146
     2  B   -0.132314   1.048299
     3  C    0.878179  -0.033855
     4  F   -0.399428   0.012952
     5  F   -0.420952   0.001285
     6  H   -0.222885  -0.007535
 Sum of Mulliken charges =   0.00000   1.00000

 Dipole moment (field-independent basis, Debye):
    X=              0.5221    Y=              1.4160    Z=              1.4970  Tot=              2.1257
                          Isotropic Fermi Contact Couplings
        Atom                 a.u.       MegaHertz       Gauss      10(-4) cm-1
     1  H(1)               0.00387      17.30090       6.17339       5.77096
     2  B(11)              0.28168     404.03380     144.16931     134.77117
     3  C(13)              0.03716      41.77565      14.90659      13.93486
     4  F(19)              0.03754     157.92819      56.35270      52.67917
     5  F(19)              0.00279      11.72000       4.18199       3.90937
     6  H(1)               0.00145       6.47921       2.31194       2.16123
 --------------------------------------------------------
       Center         ----  Spin Dipole Couplings  ----

 Normal termination of Gaussian 16 at Wed Apr  9 00:33:48 2025.
