 Gaussian 16, Revision C.01,

 ----------------------------------------------------------------------
 #t hf aug-cc-pvdz symm=none int=(grid=ultrafine) guess=(read,tcheck) s
 table=(opt,rrhf)
 ----------------------------------------------------------------------
 -----
 title
 -----
 Symbolic Z-matrix:
 Charge =  0 Multiplicity = 1

 SCF Done:  E(RHF) =  -368.343808392     A.U. after   12 cycles
 Normal termination of Gaussian 16 at Wed Apr  9 00:39:24 2025.
 Gaussian 16:  ES64L-G16RevC.01  3-Jul-2019

 ----------------------------------------------------------------------
 #t hf aug-cc-pvdz iop(5/13=1,5/36=2,99/5=2) pseudo=read geom=check gue
 ss=(read,tcheck) scf=(maxcycle=1)
 ----------------------------------------------------------------------
 -----
 title
 -----
 Structure from the checkpoint file:  "BDE49_nonexpt_648_mol1.chk"
 Charge =  0 Multiplicity = 1

                         Standard orientation:
 ---------------------------------------------------------------------
 Center     Atomic      Atomic             Coordinates (Angstroms)
 Number     Number       Type             X           Y           Z
 ---------------------------------------------------------------------
      1          6           0       -1.135340    0.092475   -0.245541
      2          8           0        0.057054   -0.574044    0.220099
      3          5           0        1.302994   -0.078999   -0.028587
      4          8           0        1.477419    1.077324   -0.742628
      5          8           0        2.403039   -0.751815    0.441495
      6          6           0       -2.193164   -0.981767   -0.459669
      7          1           0       -2.410046   -1.494545    0.481481
      8          1           0       -1.844050   -1.723760   -1.181094
      9          6           0       -1.556199    1.151075    0.769180
     10          1           0       -0.906519    0.580100   -1.198290
     11          1           0       -2.473407    1.651750    0.446234
     12          1           0       -0.775852    1.907052    0.878093
     13          1           0       -1.737347    0.690804    1.744581
     14          1           0       -3.119833   -0.540944   -0.836762
     15          1           0        2.409335    1.287335   -0.849460
     16          1           0        2.150876   -1.545217    0.922608
 ---------------------------------------------------------------------

 SCF Done:  E(RHF) =  -368.471001306     A.U. after    2 cycles

 The electronic state is 1-A.
 Alpha  occ. eigenvalues --  -20.57803 -20.57583 -20.56647 -11.29485 -11.22504
 Alpha  occ. eigenvalues --  -11.22421  -7.67943  -1.35545  -1.30921  -1.30598
 Alpha  occ. eigenvalues --   -1.04138  -0.93548  -0.81915  -0.77978  -0.75384
 Alpha  occ. eigenvalues --   -0.70312  -0.63753  -0.62253  -0.59373  -0.58407
 Alpha  occ. eigenvalues --   -0.58085  -0.55163  -0.54274  -0.53099  -0.52369
 Alpha  occ. eigenvalues --   -0.51459  -0.47293  -0.45643
 Alpha virt. eigenvalues --    0.03334   0.04582   0.04870   0.04970   0.06332
 Alpha virt. eigenvalues --    0.06620   0.06876   0.07149   0.07523   0.09199
 Alpha virt. eigenvalues --    0.09352   0.10243   0.11439   0.14047   0.15399

 Mulliken charges:
               1
     1  C   -0.003886
     2  O   -0.574241
     3  B    0.731035
     4  O   -0.484407
     5  O   -0.513421
     6  C    0.531079
     7  H   -0.012254
     8  H   -0.061366
     9  C    0.337133
    10  H   -0.165068
    11  H   -0.022837
    12  H   -0.109320
    13  H    0.018592
    14  H   -0.000727
    15  H    0.168094
    16  H    0.161592
 Sum of Mulliken charges =  -0.00000

 Dipole moment (field-independent basis, Debye):
    X=             -0.5541    Y=             -0.0741    Z=              0.0061  Tot=              0.5590

 Test job not archived.
 1\1\GINC-SE143\SP\RHF\Aug-CC-pVDZ\C3H9B1O3\OHZDE\09-Apr-2025\0\\#t hf
 aug-cc-pvdz iop(5/13=1,5/36=2,99/5=2) pseudo=read geom=check guess=(re
 ad,tcheck) scf=(maxcycle=1)\\title\\0,1\C,0,-1.13534,0.092475,-0.24554
 1\O,0,0.057054,-0.574044,0.220099\B,0,1.302994,-0.078999,-0.028587\O,0
 ,1.477419,1.077324,-0.742628\O,0,2.403039,-0.751815,0.441495\C,0,-2.19
 3164,-0.981767,-0.459669\H,0,-2.410046,-1.494545,0.481481\H,0,-1.84405
 ,-1.72376,-1.181094\C,0,-1.556199,1.151075,0.76918\H,0,-0.906519,0.580
 1,-1.19829\H,0,-2.473407,1.65175,0.446234\H,0,-0.775852,1.907052,0.878

 Normal termination of Gaussian 16 at Wed Apr  9 00:39:30 2025.
