 Gaussian 16, Revision C.01,

 ----------------------------------------------------------------------
 #t hf aug-cc-pvdz symm=none int=(grid=ultrafine) guess=(read,tcheck) s
 table=(opt,rrhf)
 ----------------------------------------------------------------------
 -----
 title
 -----
 Symbolic Z-matrix:
 Charge =  0 Multiplicity = 1

 SCF Done:  E(RHF) =  -1248.26458094     A.U. after   11 cycles
 Normal termination of Gaussian 16 at Tue Apr  8 23:44:14 2025.
 Gaussian 16:  ES64L-G16RevC.01  3-Jul-2019

 ----------------------------------------------------------------------
 #t hf aug-cc-pvdz iop(5/13=1,5/36=2,99/5=2) pseudo=read geom=check gue
 ss=(read,tcheck) scf=(maxcycle=1)
 ----------------------------------------------------------------------
 -----
 title
 -----
 Structure from the checkpoint file:  "BDE49_nonexpt_1756_mol1.chk"
 Charge =  0 Multiplicity = 1

                         Standard orientation:
 ---------------------------------------------------------------------
 Center     Atomic      Atomic             Coordinates (Angstroms)
 Number     Number       Type             X           Y           Z
 ---------------------------------------------------------------------
      1          6           0        0.000001    2.024866   -0.305345
      2         14           0        0.000000    0.332874    0.453812
      3          1           0       -0.000004    1.962261   -1.395823
      4          1           0        0.888610    2.577520    0.011862
      5          1           0       -0.888602    2.577525    0.011869
      6         17           0        1.686286   -0.713698   -0.149203
      7         17           0       -1.686286   -0.713697   -0.149203
      8          1           0        0.000000    0.338981    1.923713
 ---------------------------------------------------------------------

 SCF Done:  E(RHF) =  -1248.34180859     A.U. after    2 cycles

 The electronic state is 1-A.
 Alpha  occ. eigenvalues -- -103.66052-103.66052 -69.15867 -11.24595 -10.69522
 Alpha  occ. eigenvalues --  -10.69510  -8.35209  -8.35203  -8.34980  -8.34975
 Alpha  occ. eigenvalues --   -8.34975  -8.34974  -6.90269  -4.01137  -4.01041
 Alpha  occ. eigenvalues --   -4.00919  -1.15665  -1.13440  -0.96970  -0.70060
 Alpha  occ. eigenvalues --   -0.59966  -0.59891  -0.54682  -0.54411  -0.53839
 Alpha  occ. eigenvalues --   -0.48571  -0.48402  -0.47037  -0.45363
 Alpha virt. eigenvalues --    0.03322   0.05221   0.05246   0.05647   0.07671
 Alpha virt. eigenvalues --    0.07755   0.08328   0.11321   0.12937   0.13239
 Alpha virt. eigenvalues --    0.14549   0.15539   0.15611   0.16400   0.17306

 Mulliken charges:
               1
     1  C    0.225334
     2  Si   1.308232
     3  H   -0.130099
     4  H   -0.167409
     5  H   -0.167409
     6  Cl  -0.513295
     7  Cl  -0.513295
     8  H   -0.042060
 Sum of Mulliken charges =  -0.00000

 Dipole moment (field-independent basis, Debye):
    X=              0.0000    Y=              2.3755    Z=              0.5073  Tot=              2.4291

 Test job not archived.
 1\1\GINC-SE273\SP\RHF\Aug-CC-pVDZ\C1H4Cl2Si1\OHZDE\08-Apr-2025\0\\#t h
 f aug-cc-pvdz iop(5/13=1,5/36=2,99/5=2) pseudo=read geom=check guess=(
 read,tcheck) scf=(maxcycle=1)\\title\\0,1\C,0,0.,2.024866,-0.305345\Si
 ,0,0.,0.332874,0.453812\H,0,-0.000005,1.962261,-1.395823\H,0,0.888608,
 2.577521,0.011862\H,0,-0.888604,2.577524,0.011869\Cl,0,1.686286,-0.713
 697,-0.149203\Cl,0,-1.686286,-0.713698,-0.149203\H,0,0.,0.338981,1.923
 713\\Version=ES64L-G16RevC.01\State=1-A\HF=-1248.3418086\RMSD=4.400e-0
 3\Dipole=0.0000005,0.9346036,0.1996034\Quadrupole=-2.2251769,1.5780759

 Normal termination of Gaussian 16 at Tue Apr  8 23:44:17 2025.
