 Gaussian 16, Revision C.01,

 ----------------------------------------------------------------------
 #t hf aug-cc-pvdz symm=none int=(grid=ultrafine) guess=(read,tcheck) s
 table=(opt,rrhf)
 ----------------------------------------------------------------------
 -----
 title
 -----
 Symbolic Z-matrix:
 Charge =  0 Multiplicity = 1

 SCF Done:  E(RHF) =  -1409.97004325     A.U. after   15 cycles
 Normal termination of Gaussian 16 at Tue Apr  8 22:50:50 2025.
 Gaussian 16:  ES64L-G16RevC.01  3-Jul-2019

 ----------------------------------------------------------------------
 #t hf aug-cc-pvdz iop(5/13=1,5/36=2,99/5=2) pseudo=read geom=check gue
 ss=(read,tcheck) scf=(maxcycle=1)
 ----------------------------------------------------------------------
 -----
 title
 -----
 Structure from the checkpoint file:  "BDE49_expt_1797_mol1.chk"
 Charge =  0 Multiplicity = 1

                         Standard orientation:
 ---------------------------------------------------------------------
 Center     Atomic      Atomic             Coordinates (Angstroms)
 Number     Number       Type             X           Y           Z
 ---------------------------------------------------------------------
      1          8           0        0.942880   -1.007860    0.157277
      2          7           0        2.254053   -0.165486    0.040892
      3          8           0        2.287651    0.835888    0.665193
      4          8           0        3.003567   -0.744695   -0.668570
      5          8           0        0.058041   -0.344849    1.022589
      6          6           0       -1.041742    0.157044    0.314933
      7          9           0       -1.760642    0.755961    1.263498
      8         17           0       -2.008371   -1.152519   -0.421789
      9         17           0       -0.580998    1.358673   -0.928755
 ---------------------------------------------------------------------

 SCF Done:  E(RHF) =  -1410.16728350     A.U. after    2 cycles

 The electronic state is 1-A.
 Alpha  occ. eigenvalues -- -103.71182-103.70882 -26.20391 -20.76497 -20.73619
 Alpha  occ. eigenvalues --  -20.70393 -20.69959 -16.03199 -11.55886 -10.74521
 Alpha  occ. eigenvalues --  -10.74228  -8.40241  -8.39949  -8.39903  -8.39891
 Alpha  occ. eigenvalues --   -8.39600  -8.39597  -1.75867  -1.65862  -1.53127
 Alpha  occ. eigenvalues --   -1.48444  -1.30296  -1.22708  -1.18453  -0.98678
 Alpha  occ. eigenvalues --   -0.93747  -0.87317  -0.85616  -0.83829  -0.82752
 Alpha  occ. eigenvalues --   -0.81616  -0.80708  -0.73063  -0.70166  -0.67227
 Alpha  occ. eigenvalues --   -0.60605  -0.59718  -0.58500  -0.55491  -0.53751
 Alpha  occ. eigenvalues --   -0.53663  -0.52907  -0.51130  -0.49153
 Alpha virt. eigenvalues --    0.05360   0.05789   0.07700   0.08339   0.08562
 Alpha virt. eigenvalues --    0.09587   0.11392   0.11729   0.11989   0.12967
 Alpha virt. eigenvalues --    0.13584   0.14549   0.16769   0.17296   0.18010

 Mulliken charges:
               1
     1  O   -0.331033
     2  N    0.994080
     3  O   -0.344812
     4  O   -0.366859
     5  O   -0.248168
     6  C    0.496094
     7  F   -0.225626
     8  Cl   0.023872
     9  Cl   0.002453
 Sum of Mulliken charges =  -0.00000

 Dipole moment (field-independent basis, Debye):
    X=             -0.3186    Y=             -0.0840    Z=             -0.6185  Tot=              0.7008

 Test job not archived.
 1\1\GINC-SE070\SP\RHF\Aug-CC-pVDZ\C1Cl2F1N1O4\OHZDE\08-Apr-2025\0\\#t
 hf aug-cc-pvdz iop(5/13=1,5/36=2,99/5=2) pseudo=read geom=check guess=
 (read,tcheck) scf=(maxcycle=1)\\title\\0,1\O,0,0.94288,-1.00786,0.1572
 77\N,0,2.254053,-0.165486,0.040892\O,0,2.287651,0.835888,0.665193\O,0,
 3.003567,-0.744695,-0.66857\O,0,0.058041,-0.344849,1.022589\C,0,-1.041
 742,0.157044,0.314933\F,0,-1.760642,0.755961,1.263498\Cl,0,-2.008371,-
 1.152519,-0.421789\Cl,0,-0.580998,1.358673,-0.928755\\Version=ES64L-G1
 6RevC.01\State=1-A\HF=-1410.1672835\RMSD=3.356e-03\Dipole=-0.1253602,-

 Normal termination of Gaussian 16 at Tue Apr  8 22:50:55 2025.
