 Gaussian 16, Revision C.01,

 ----------------------------------------------------------------------
 #t hf aug-cc-pvdz symm=none int=(grid=ultrafine) guess=(read,tcheck) s
 table=(opt,rrhf)
 ----------------------------------------------------------------------
 -----
 title
 -----
 Symbolic Z-matrix:
 Charge =  0 Multiplicity = 1

 SCF Done:  E(RHF) =  -1127.16177221     A.U. after   13 cycles

 1\1\GINC-SE343\Stability\RHF\Aug-CC-pVDZ\F5P1Si1\OHZDE\08-Apr-2025\0\\
 #t hf aug-cc-pvdz symm=none int=(grid=ultrafine) guess=(read,tcheck) s
 table=(opt,rrhf)\\title\\0,1\Si,0,-0.897085,0.,0.000594\P,0,1.337253,0
 .,-0.619763\F,0,-1.605255,-1.282209,-0.608601\F,0,-1.130331,0.,1.56596
 6\F,0,-1.605255,1.282209,-0.608602\F,0,1.753775,1.236469,0.341625\F,0,
 1.753775,-1.236469,0.341625\\Version=ES64L-G16RevC.01\HF=-1127.1617722
 \RMSD=3.877e-09\Dipole=0.1825353,-0.0000002,-0.5340746\Quadrupole=-0.3
 008627,-0.4326712,0.7335339,0.0000008,-1.2530186,0.0000019\PG=Unknown\

 Normal termination of Gaussian 16 at Tue Apr  8 23:40:12 2025.
 Gaussian 16:  ES64L-G16RevC.01  3-Jul-2019

 ----------------------------------------------------------------------
 #t hf aug-cc-pvdz iop(5/13=1,5/36=2,99/5=2) pseudo=read geom=check gue
 ss=(read,tcheck) scf=(maxcycle=1)
 ----------------------------------------------------------------------
 -----
 title
 -----
 Structure from the checkpoint file:  "BDE49_nonexpt_1659_mol1.chk"
 Charge =  0 Multiplicity = 1

                         Standard orientation:
 ---------------------------------------------------------------------
 Center     Atomic      Atomic             Coordinates (Angstroms)
 Number     Number       Type             X           Y           Z
 ---------------------------------------------------------------------
      1         14           0        0.897085    0.000000    0.000594
      2         15           0       -1.337253    0.000000   -0.619763
      3          9           0        1.605255    1.282209   -0.608601
      4          9           0        1.130331    0.000000    1.565966
      5          9           0        1.605255   -1.282209   -0.608602
      6          9           0       -1.753775   -1.236469    0.341625
      7          9           0       -1.753775    1.236469    0.341625
 ---------------------------------------------------------------------

 SCF Done:  E(RHF) =  -1127.42575544     A.U. after    2 cycles

 The electronic state is 1-A.
 Alpha  occ. eigenvalues --  -81.42787 -69.24181 -26.16729 -26.16726 -26.16071
 Alpha  occ. eigenvalues --  -26.16070 -26.15972  -7.91532  -6.97802  -5.05604
 Alpha  occ. eigenvalues --   -5.05279  -5.04854  -4.08801  -4.08797  -4.08554
 Alpha  occ. eigenvalues --   -1.70249  -1.69766  -1.68526  -1.68467  -1.68425
 Alpha  occ. eigenvalues --   -0.92533  -0.88883  -0.82635  -0.82512  -0.81712
 Alpha  occ. eigenvalues --   -0.81134  -0.79426  -0.78173  -0.77404  -0.77343
 Alpha  occ. eigenvalues --   -0.76689  -0.75081  -0.75064  -0.73837  -0.73692
 Alpha  occ. eigenvalues --   -0.60029  -0.41840
 Alpha virt. eigenvalues --    0.04174   0.04363   0.05209   0.05632   0.07709
 Alpha virt. eigenvalues --    0.08154   0.10049   0.12218   0.12636   0.18232
 Alpha virt. eigenvalues --    0.18451   0.19215   0.19374   0.21948   0.23674

 Mulliken charges:
               1
     1  Si   2.496650
     2  P    1.016335
     3  F   -0.756487
     4  F   -0.798032
     5  F   -0.756487
     6  F   -0.600989
     7  F   -0.600989
 Sum of Mulliken charges =  -0.00000

 Dipole moment (field-independent basis, Debye):
    X=             -0.5505    Y=              0.0000    Z=             -1.7280  Tot=              1.8136

 Test job not archived.
 1\1\GINC-SE343\SP\RHF\Aug-CC-pVDZ\F5P1Si1\OHZDE\08-Apr-2025\0\\#t hf a
 ug-cc-pvdz iop(5/13=1,5/36=2,99/5=2) pseudo=read geom=check guess=(rea
 d,tcheck) scf=(maxcycle=1)\\title\\0,1\Si,0,-0.897085,0.,0.000594\P,0,
 1.337253,0.,-0.619763\F,0,-1.605255,-1.282209,-0.608601\F,0,-1.130331,
 0.,1.565966\F,0,-1.605255,1.282209,-0.608602\F,0,1.753775,1.236469,0.3
 41625\F,0,1.753775,-1.236469,0.341625\\Version=ES64L-G16RevC.01\State=
 1-A\HF=-1127.4257554\RMSD=5.300e-03\Dipole=0.2165874,-0.0000002,-0.679
 8457\Quadrupole=-0.3897311,-0.5829646,0.9726957,0.0000008,-1.6081982,0

 Normal termination of Gaussian 16 at Tue Apr  8 23:40:15 2025.
