 Gaussian 16, Revision C.01,

 ----------------------------------------------------------------------
 #t hf aug-cc-pvdz symm=none int=(grid=ultrafine) guess=(read,tcheck) s
 table=(opt,rrhf)
 ----------------------------------------------------------------------
 -----
 title
 -----
 Symbolic Z-matrix:
 Charge =  0 Multiplicity = 1

 SCF Done:  E(RHF) =  -271.213291851     A.U. after   12 cycles

 1\1\GINC-SE143\Stability\RHF\Aug-CC-pVDZ\C5H12O1\OHZDE\08-Apr-2025\0\\
 #t hf aug-cc-pvdz symm=none int=(grid=ultrafine) guess=(read,tcheck) s
 table=(opt,rrhf)\\title\\0,1\C,0,1.695574,-0.395723,0.278821\O,0,0.418
 808,-0.005103,-0.197673\C,0,-0.617254,-0.908715,0.151157\C,0,-1.939308
 ,-0.374131,-0.382444\H,0,-0.407395,-1.902962,-0.273492\C,0,2.713983,0.
 639798,-0.163023\H,0,1.957701,-1.388976,-0.118811\H,0,1.678788,-0.4781
 53,1.376964\H,0,2.732093,0.715238,-1.252559\H,0,3.714292,0.366692,0.18
 3518\H,0,2.46179,1.621732,0.243672\C,0,-2.340802,0.971144,0.227963\H,0

 Normal termination of Gaussian 16 at Tue Apr  8 22:40:10 2025.
 Gaussian 16:  ES64L-G16RevC.01  3-Jul-2019

 ----------------------------------------------------------------------
 #t hf aug-cc-pvdz iop(5/13=1,5/36=2,99/5=2) pseudo=read geom=check gue
 ss=(read,tcheck) scf=(maxcycle=1)
 ----------------------------------------------------------------------
 -----
 title
 -----
 Structure from the checkpoint file:  "BDE49_expt_1370_mol1.chk"
 Charge =  0 Multiplicity = 1

                         Standard orientation:
 ---------------------------------------------------------------------
 Center     Atomic      Atomic             Coordinates (Angstroms)
 Number     Number       Type             X           Y           Z
 ---------------------------------------------------------------------
      1          6           0        1.695574   -0.395723    0.278821
      2          8           0        0.418808   -0.005103   -0.197673
      3          6           0       -0.617254   -0.908715    0.151157
      4          6           0       -1.939308   -0.374131   -0.382444
      5          1           0       -0.407395   -1.902962   -0.273492
      6          6           0        2.713983    0.639798   -0.163023
      7          1           0        1.957701   -1.388976   -0.118811
      8          1           0        1.678788   -0.478153    1.376964
      9          1           0        2.732093    0.715238   -1.252559
     10          1           0        3.714292    0.366692    0.183518
     11          1           0        2.461790    1.621732    0.243672
     12          6           0       -2.340802    0.971144    0.227963
     13          1           0       -2.713085   -1.125100   -0.186359
     14          1           0       -1.857518   -0.281351   -1.470508
     15          1           0       -2.470530    0.888401    1.311992
     16          1           0       -3.282804    1.331004   -0.194055
     17          1           0       -1.571895    1.722209    0.039135
     18          1           0       -0.665055   -1.022147    1.247035
 ---------------------------------------------------------------------

 SCF Done:  E(RHF) =  -271.302736514     A.U. after    2 cycles

 The electronic state is 1-A.
 Alpha  occ. eigenvalues --  -20.56325 -11.28289 -11.28013 -11.22705 -11.22308
 Alpha  occ. eigenvalues --  -11.21636  -1.32795  -1.05174  -0.99797  -0.90929
 Alpha  occ. eigenvalues --   -0.83348  -0.79810  -0.67953  -0.67193  -0.61806
 Alpha  occ. eigenvalues --   -0.60400  -0.57727  -0.54837  -0.53477  -0.51715
 Alpha  occ. eigenvalues --   -0.49527  -0.47981  -0.47645  -0.46696  -0.42817
 Alpha virt. eigenvalues --    0.03621   0.04400   0.04727   0.04824   0.05998
 Alpha virt. eigenvalues --    0.06210   0.06549   0.07253   0.07927   0.08937
 Alpha virt. eigenvalues --    0.09369   0.09682   0.13075   0.13615   0.15089

 Mulliken charges:
               1
     1  C    0.480033
     2  O   -0.651668
     3  C    0.490964
     4  C    0.141351
     5  H   -0.157081
     6  C    0.294309
     7  H   -0.150209
     8  H   -0.142640
     9  H   -0.051364
    10  H   -0.054584
    11  H   -0.050047
    12  C    0.390025
    13  H   -0.060033
    14  H   -0.073383
    15  H   -0.078048
    16  H   -0.094110
    17  H   -0.056684
    18  H   -0.176832
 Sum of Mulliken charges =  -0.00000

 Dipole moment (field-independent basis, Debye):
    X=              0.2685    Y=             -1.1025    Z=              0.6593  Tot=              1.3124

 Test job not archived.
 1\1\GINC-SE143\SP\RHF\Aug-CC-pVDZ\C5H12O1\OHZDE\08-Apr-2025\0\\#t hf a
 ug-cc-pvdz iop(5/13=1,5/36=2,99/5=2) pseudo=read geom=check guess=(rea
 d,tcheck) scf=(maxcycle=1)\\title\\0,1\C,0,1.695574,-0.395723,0.278821
 \O,0,0.418808,-0.005103,-0.197673\C,0,-0.617254,-0.908715,0.151157\C,0
 ,-1.939308,-0.374131,-0.382444\H,0,-0.407395,-1.902962,-0.273492\C,0,2
 .713983,0.639798,-0.163023\H,0,1.957701,-1.388976,-0.118811\H,0,1.6787
 88,-0.478153,1.376964\H,0,2.732093,0.715238,-1.252559\H,0,3.714292,0.3
 66692,0.183518\H,0,2.46179,1.621732,0.243672\C,0,-2.340802,0.971144,0.

 Normal termination of Gaussian 16 at Tue Apr  8 22:40:16 2025.
