 Gaussian 16, Revision C.01,

 ----------------------------------------------------------------------
 #t hf aug-cc-pvdz symm=none int=(grid=ultrafine) guess=(read,tcheck) s
 table=(opt,rrhf)
 ----------------------------------------------------------------------
 -----
 title
 -----
 Symbolic Z-matrix:
 Charge =  0 Multiplicity = 1

 SCF Done:  E(RHF) =  -1255.31526504     A.U. after   17 cycles
 Normal termination of Gaussian 16 at Tue Apr  8 23:25:04 2025.
 Gaussian 16:  ES64L-G16RevC.01  3-Jul-2019

 ----------------------------------------------------------------------
 #t hf aug-cc-pvdz iop(5/13=1,5/36=2,99/5=2) pseudo=read geom=check gue
 ss=(read,tcheck) scf=(maxcycle=1)
 ----------------------------------------------------------------------
 -----
 title
 -----
 Structure from the checkpoint file:  "BDE49_nonexpt_1258_mol1.chk"
 Charge =  0 Multiplicity = 1

                         Standard orientation:
 ---------------------------------------------------------------------
 Center     Atomic      Atomic             Coordinates (Angstroms)
 Number     Number       Type             X           Y           Z
 ---------------------------------------------------------------------
      1         17           0       -3.034100   -0.000015   -0.681626
      2          8           0       -0.638099    2.488701    0.023197
      3          8           0       -0.638169   -2.488658    0.023152
      4         15           0       -1.599008    0.000029    0.833284
      5          6           0       -0.380049    1.328342    0.209565
      6          6           0        0.964185    0.700636    0.071076
      7          6           0        2.154844    1.411944   -0.082732
      8          6           0        3.340441    0.701323   -0.230636
      9          6           0        3.340434   -0.701365   -0.230622
     10          6           0        2.154830   -1.411970   -0.082697
     11          6           0        0.964180   -0.700647    0.071103
     12          6           0       -0.380053   -1.328338    0.209673
     13          1           0        2.134952    2.495012   -0.091370
     14          1           0        4.276115    1.234472   -0.354070
     15          1           0        4.276103   -1.234525   -0.354040
     16          1           0        2.134930   -2.495039   -0.091295
 ---------------------------------------------------------------------

 SCF Done:  E(RHF) =  -1255.48664261     A.U. after    2 cycles

 The electronic state is 1-A.
 Alpha  occ. eigenvalues -- -103.67607 -81.33913 -20.60353 -20.60353 -11.38272
 Alpha  occ. eigenvalues --  -11.38270 -11.29846 -11.29737 -11.29325 -11.29227
 Alpha  occ. eigenvalues --  -11.29064 -11.29064 -10.70891  -8.36601  -8.36300
 Alpha  occ. eigenvalues --   -8.36289  -7.83902  -4.97775  -4.97663  -4.97408
 Alpha  occ. eigenvalues --   -1.39334  -1.39058  -1.19923  -1.15550  -1.09186
 Alpha  occ. eigenvalues --   -1.06320  -0.94185  -0.92105  -0.84223  -0.79783
 Alpha  occ. eigenvalues --   -0.78297  -0.72250  -0.70122  -0.67787  -0.66061
 Alpha  occ. eigenvalues --   -0.65960  -0.64606  -0.62205  -0.59818  -0.58235
 Alpha  occ. eigenvalues --   -0.57377  -0.54742  -0.53568  -0.50504  -0.49844
 Alpha  occ. eigenvalues --   -0.49136  -0.41162  -0.38927  -0.38353  -0.37952
 Alpha virt. eigenvalues --    0.01824   0.02176   0.02329   0.03663   0.04606
 Alpha virt. eigenvalues --    0.06192   0.06535   0.07379   0.08296   0.09080
 Alpha virt. eigenvalues --    0.10027   0.10829   0.10947   0.11944   0.12428

 Mulliken charges:
               1
     1  Cl  -0.377878
     2  O   -0.515965
     3  O   -0.515959
     4  P    0.669243
     5  C   -0.106591
     6  C    0.551020
     7  C    0.384288
     8  C    0.489619
     9  C    0.489618
    10  C    0.384272
    11  C    0.551129
    12  C   -0.106608
    13  H   -0.509953
    14  H   -0.438145
    15  H   -0.438145
    16  H   -0.509945
 Sum of Mulliken charges =  -0.00000

 Dipole moment (field-independent basis, Debye):
    X=              5.4363    Y=             -0.0001    Z=              0.8453  Tot=              5.5016

 Test job not archived.
 1\1\GINC-SE099\SP\RHF\Aug-CC-pVDZ\C8H4Cl1O2P1\OHZDE\08-Apr-2025\0\\#t
 hf aug-cc-pvdz iop(5/13=1,5/36=2,99/5=2) pseudo=read geom=check guess=
 (read,tcheck) scf=(maxcycle=1)\\title\\0,1\Cl,0,-3.0341,-0.000015,-0.6
 81626\O,0,-0.638099,2.488701,0.023197\O,0,-0.638169,-2.488658,0.023152
 \P,0,-1.599008,0.000029,0.833284\C,0,-0.380049,1.328342,0.209565\C,0,0
 .964185,0.700636,0.071076\C,0,2.154844,1.411944,-0.082732\C,0,3.340441
 ,0.701323,-0.230636\C,0,3.340434,-0.701365,-0.230622\C,0,2.15483,-1.41
 197,-0.082697\C,0,0.96418,-0.700647,0.071103\C,0,-0.380053,-1.328338,0

 Normal termination of Gaussian 16 at Tue Apr  8 23:25:16 2025.
