 Gaussian 16, Revision C.01,

 ----------------------------------------------------------------------
 #t hf aug-cc-pvdz symm=none int=(grid=ultrafine) guess=(read,tcheck) s
 table=(opt,rrhf)
 ----------------------------------------------------------------------
 -----
 title
 -----
 Symbolic Z-matrix:
 Charge =  0 Multiplicity = 1

 SCF Done:  E(RHF) =  -347.291504829     A.U. after   12 cycles
 Normal termination of Gaussian 16 at Wed Apr  9 00:37:46 2025.
 Gaussian 16:  ES64L-G16RevC.01  3-Jul-2019

 ----------------------------------------------------------------------
 #t hf aug-cc-pvdz iop(5/13=1,5/36=2,99/5=2) pseudo=read geom=check gue
 ss=(read,tcheck) scf=(maxcycle=1)
 ----------------------------------------------------------------------
 -----
 title
 -----
 Structure from the checkpoint file:  "BDE49_nonexpt_609_mol1.chk"
 Charge =  0 Multiplicity = 1

                         Standard orientation:
 ---------------------------------------------------------------------
 Center     Atomic      Atomic             Coordinates (Angstroms)
 Number     Number       Type             X           Y           Z
 ---------------------------------------------------------------------
      1          5           0        1.329143   -0.039229    0.022931
      2          8           0        1.401343    1.334978    0.101790
      3          8           0        2.481853   -0.744620   -0.227691
      4          6           0       -1.149032   -0.209128    0.555786
      5          6           0       -2.375566   -0.568309   -0.240221
      6          6           0       -1.804338    0.824263   -0.341166
      7          1           0       -3.309727   -0.707168    0.290093
      8          1           0       -2.228122   -1.222721   -1.090559
      9          1           0       -1.291403    1.079194   -1.260382
     10          1           0       -2.347987    1.638588    0.123354
     11          1           0        3.233336   -0.154050   -0.327415
     12          1           0        0.547740    1.740482    0.275516
     13          7           0        0.115016   -0.763364    0.175148
     14          1           0       -1.311677   -0.067221    1.624038
     15          1           0        0.165061   -1.771234    0.185483
 ---------------------------------------------------------------------

 SCF Done:  E(RHF) =  -347.407097119     A.U. after    2 cycles

 The electronic state is 1-A.
 Alpha  occ. eigenvalues --  -20.57059 -20.56368 -15.60515 -11.28230 -11.24587
 Alpha  occ. eigenvalues --  -11.24352  -7.65564  -1.33206  -1.29450  -1.18484
 Alpha  occ. eigenvalues --   -1.08109  -0.83597  -0.82210  -0.76408  -0.73345
 Alpha  occ. eigenvalues --   -0.69042  -0.68050  -0.64240  -0.58438  -0.57117
 Alpha  occ. eigenvalues --   -0.56804  -0.55319  -0.52789  -0.51281  -0.46265
 Alpha  occ. eigenvalues --   -0.42716  -0.37921
 Alpha virt. eigenvalues --    0.03197   0.04121   0.04315   0.04556   0.06310
 Alpha virt. eigenvalues --    0.06918   0.07521   0.07679   0.07805   0.09162
 Alpha virt. eigenvalues --    0.10346   0.11157   0.12363   0.13483   0.14507

 Mulliken charges:
               1
     1  B    0.700033
     2  O   -0.491587
     3  O   -0.501625
     4  C    0.660748
     5  C    0.687517
     6  C    0.513465
     7  H   -0.337417
     8  H   -0.308395
     9  H   -0.366077
    10  H   -0.293777
    11  H    0.194027
    12  H    0.243206
    13  N   -0.290955
    14  H   -0.311544
    15  H   -0.097619
 Sum of Mulliken charges =  -0.00000

 Dipole moment (field-independent basis, Debye):
    X=             -1.9766    Y=              0.4532    Z=              0.4760  Tot=              2.0830

 Test job not archived.
 1\1\GINC-SE159\SP\RHF\Aug-CC-pVDZ\C3H8B1N1O2\OHZDE\09-Apr-2025\0\\#t h
 f aug-cc-pvdz iop(5/13=1,5/36=2,99/5=2) pseudo=read geom=check guess=(
 read,tcheck) scf=(maxcycle=1)\\title\\0,1\B,0,1.329143,-0.039229,0.022
 931\O,0,1.401343,1.334978,0.10179\O,0,2.481853,-0.74462,-0.227691\C,0,
 -1.149032,-0.209128,0.555786\C,0,-2.375566,-0.568309,-0.240221\C,0,-1.
 804338,0.824263,-0.341166\H,0,-3.309727,-0.707168,0.290093\H,0,-2.2281
 22,-1.222721,-1.090559\H,0,-1.291403,1.079194,-1.260382\H,0,-2.347987,
 1.638588,0.123354\H,0,3.233336,-0.15405,-0.327415\H,0,0.54774,1.740482

 Normal termination of Gaussian 16 at Wed Apr  9 00:37:51 2025.
