 Gaussian 16, Revision C.01,

 ----------------------------------------------------------------------
 #t hf aug-cc-pvdz symm=none int=(grid=ultrafine) guess=(read,tcheck) s
 table=(opt,rrhf)
 ----------------------------------------------------------------------
 -----
 title
 -----
 Symbolic Z-matrix:
 Charge =  0 Multiplicity = 1

 SCF Done:  E(RHF) =  -861.757880014     A.U. after   18 cycles
 Normal termination of Gaussian 16 at Tue Apr  8 23:32:19 2025.
 Gaussian 16:  ES64L-G16RevC.01  3-Jul-2019

 ----------------------------------------------------------------------
 #t hf aug-cc-pvdz iop(5/13=1,5/36=2,99/5=2) pseudo=read geom=check gue
 ss=(read,tcheck) scf=(maxcycle=1)
 ----------------------------------------------------------------------
 -----
 title
 -----
 Structure from the checkpoint file:  "BDE49_nonexpt_1353_mol1.chk"
 Charge =  0 Multiplicity = 1

                         Standard orientation:
 ---------------------------------------------------------------------
 Center     Atomic      Atomic             Coordinates (Angstroms)
 Number     Number       Type             X           Y           Z
 ---------------------------------------------------------------------
      1          6           0       -0.998355    2.314266   -0.572094
      2          1           0       -1.856982    2.987857   -0.573219
      3          1           0       -0.544004    2.344067   -1.568370
      4          1           0       -0.255584    2.703089    0.128685
      5          9           0        1.601151   -1.509582   -1.183054
      6          8           0        1.871591    1.579300    1.049005
      7         15           0        1.143583    0.067918   -1.027751
      8          6           0        2.864308   -0.599825    1.266250
      9          1           0        3.294580   -0.202128    2.185952
     10          1           0        3.657475   -0.917927    0.583770
     11          1           0        2.260832   -1.486058    1.480361
     12          6           0       -0.539325   -0.186443   -0.325628
     13          6           0        2.013330    0.461166    0.612637
     14          6           0       -1.417633    0.910745   -0.203140
     15          6           0       -0.963634   -1.474405    0.022127
     16          1           0       -0.286713   -2.310528   -0.100988
     17          6           0       -3.122632   -0.611540    0.638749
     18          1           0       -4.129008   -0.766553    1.011190
     19          6           0       -2.703914    0.668872    0.286468
     20          1           0       -3.390159    1.503370    0.386577
     21          6           0       -2.251637   -1.688156    0.503134
     22          1           0       -2.570316   -2.690200    0.766725
 ---------------------------------------------------------------------

 SCF Done:  E(RHF) =  -861.944653881     A.U. after    2 cycles

 The electronic state is 1-A.
 Alpha  occ. eigenvalues --  -81.33651 -26.12487 -20.58401 -11.35973 -11.26946
 Alpha  occ. eigenvalues --  -11.26266 -11.25941 -11.25718 -11.25487 -11.25105
 Alpha  occ. eigenvalues --  -11.24972 -11.23694  -7.83191  -4.97364  -4.97086
 Alpha  occ. eigenvalues --   -4.96780  -1.64501  -1.37316  -1.15763  -1.05074
 Alpha  occ. eigenvalues --   -1.02770  -1.01653  -0.94118  -0.88289  -0.83120
 Alpha  occ. eigenvalues --   -0.81001  -0.77654  -0.74033  -0.73650  -0.70655
 Alpha  occ. eigenvalues --   -0.68364  -0.65327  -0.64209  -0.63903  -0.61673
 Alpha  occ. eigenvalues --   -0.59821  -0.58489  -0.58319  -0.56153  -0.54990
 Alpha  occ. eigenvalues --   -0.53016  -0.51248  -0.50598  -0.50355  -0.42983
 Alpha  occ. eigenvalues --   -0.39183  -0.34391  -0.33003
 Alpha virt. eigenvalues --    0.03170   0.03859   0.04103   0.04983   0.05589
 Alpha virt. eigenvalues --    0.05891   0.06645   0.07144   0.07235   0.08038
 Alpha virt. eigenvalues --    0.08250   0.09028   0.09332   0.10233   0.10869

 Mulliken charges:
               1
     1  C    0.489347
     2  H   -0.247036
     3  H    0.117736
     4  H    0.100912
     5  F   -0.661882
     6  O   -0.552456
     7  P    0.765041
     8  C    0.223795
     9  H   -0.081224
    10  H    0.061845
    11  H    0.051910
    12  C    0.046117
    13  C    0.077037
    14  C   -0.541291
    15  C    0.265982
    16  H   -0.629676
    17  C    0.370911
    18  H   -0.451679
    19  C    1.110466
    20  H   -0.581690
    21  C    0.509955
    22  H   -0.444119
 Sum of Mulliken charges =   0.00000

 Dipole moment (field-independent basis, Debye):
    X=             -1.0736    Y=             -1.2315    Z=              0.4163  Tot=              1.6860

 Test job not archived.
 1\1\GINC-SE227\SP\RHF\Aug-CC-pVDZ\C9H10F1O1P1\OHZDE\08-Apr-2025\0\\#t
 hf aug-cc-pvdz iop(5/13=1,5/36=2,99/5=2) pseudo=read geom=check guess=
 (read,tcheck) scf=(maxcycle=1)\\title\\0,1\C,0,-0.998355,2.314266,-0.5
 72094\H,0,-1.856982,2.987857,-0.573219\H,0,-0.544004,2.344067,-1.56837
 \H,0,-0.255584,2.703089,0.128685\F,0,1.601151,-1.509582,-1.183054\O,0,
 1.871591,1.5793,1.049005\P,0,1.143583,0.067918,-1.027751\C,0,2.864308,
 -0.599825,1.26625\H,0,3.29458,-0.202128,2.185952\H,0,3.657475,-0.91792
 7,0.58377\H,0,2.260832,-1.486058,1.480361\C,0,-0.539325,-0.186443,-0.3

 Normal termination of Gaussian 16 at Tue Apr  8 23:32:36 2025.
