 Gaussian 16, Revision C.01,

 ----------------------------------------------------------------------
 #t hf aug-cc-pvdz symm=none int=(grid=ultrafine) guess=(read,tcheck) s
 table=(opt,rrhf)
 ----------------------------------------------------------------------
 -----
 title
 -----
 Symbolic Z-matrix:
 Charge =  0 Multiplicity = 1

 SCF Done:  E(RHF) =  -828.333617093     A.U. after   11 cycles
 Normal termination of Gaussian 16 at Tue Apr  8 23:43:55 2025.
 Gaussian 16:  ES64L-G16RevC.01  3-Jul-2019

 ----------------------------------------------------------------------
 #t hf aug-cc-pvdz iop(5/13=1,5/36=2,99/5=2) pseudo=read geom=check gue
 ss=(read,tcheck) scf=(maxcycle=1)
 ----------------------------------------------------------------------
 -----
 title
 -----
 Structure from the checkpoint file:  "BDE49_nonexpt_1745_mol1.chk"
 Charge =  0 Multiplicity = 1

                         Standard orientation:
 ---------------------------------------------------------------------
 Center     Atomic      Atomic             Coordinates (Angstroms)
 Number     Number       Type             X           Y           Z
 ---------------------------------------------------------------------
      1          6           0        0.563833   -1.060814    1.555467
      2         14           0        0.563833   -0.027735   -0.000000
      3          6           0        0.563833   -1.060814   -1.555467
      4          1           0       -0.301146   -1.728640   -1.584594
      5          1           0        1.470502   -1.673069   -1.600719
      6          1           0        0.536281   -0.428091   -2.445723
      7          1           0        0.536281   -0.428091    2.445723
      8          1           0        1.470502   -1.673069    1.600719
      9          1           0       -0.301146   -1.728640    1.584594
     10         17           0       -1.163100    1.168282    0.000000
     11          1           0        1.701772    0.916863    0.000000
 ---------------------------------------------------------------------

 SCF Done:  E(RHF) =  -828.405162516     A.U. after    2 cycles

 The electronic state is 1-A'.
 Alpha  occ. eigenvalues -- -103.63802 -69.10226 -11.22783 -11.22779 -10.67241
 Alpha  occ. eigenvalues --   -8.32928  -8.32718  -8.32715  -6.85062  -3.95929
 Alpha  occ. eigenvalues --   -3.95772  -3.95765  -1.12164  -0.96391  -0.93786
 Alpha  occ. eigenvalues --   -0.66824  -0.58872  -0.58313  -0.56594  -0.56203
 Alpha  occ. eigenvalues --   -0.50304  -0.49652  -0.48954  -0.44141  -0.43722
 Alpha virt. eigenvalues --    0.03056   0.04717   0.05075   0.05412   0.07067
 Alpha virt. eigenvalues --    0.07380   0.07455   0.08135   0.09675   0.09781
 Alpha virt. eigenvalues --    0.13439   0.14719   0.15002   0.15502   0.16849

 Mulliken charges:
               1
     1  C    0.290700
     2  Si   1.312292
     3  C    0.290700
     4  H   -0.162154
     5  H   -0.196087
     6  H   -0.261071
     7  H   -0.261071
     8  H   -0.196087
     9  H   -0.162154
    10  Cl  -0.595075
    11  H   -0.059992
 Sum of Mulliken charges =  -0.00000

 Dipole moment (field-independent basis, Debye):
    X=              1.6016    Y=             -1.9342    Z=              0.0000  Tot=              2.5112

 Test job not archived.
 1\1\GINC-SE058\SP\RHF\Aug-CC-pVDZ\C2H7Cl1Si1\OHZDE\08-Apr-2025\0\\#t h
 f aug-cc-pvdz iop(5/13=1,5/36=2,99/5=2) pseudo=read geom=check guess=(
 read,tcheck) scf=(maxcycle=1)\\title\\0,1\C,0,0.563833,-1.060814,1.555
 467\Si,0,0.563833,-0.027735,0.\C,0,0.563833,-1.060814,-1.555467\H,0,-0
 .301146,-1.72864,-1.584594\H,0,1.470502,-1.673069,-1.600719\H,0,0.5362
 81,-0.428091,-2.445723\H,0,0.536281,-0.428091,2.445723\H,0,1.470502,-1
 .673069,1.600719\H,0,-0.301146,-1.72864,1.584594\Cl,0,-1.1631,1.168282
 ,0.\H,0,1.701772,0.916863,0.\\Version=ES64L-G16RevC.01\State=1-A'\HF=-

 Normal termination of Gaussian 16 at Tue Apr  8 23:43:58 2025.
