 Gaussian 16, Revision C.01,

 ----------------------------------------------------------------------
 #t hf aug-cc-pvdz symm=none int=(grid=ultrafine) guess=(read,tcheck) s
 table=(opt,rrhf)
 ----------------------------------------------------------------------
 -----
 title
 -----
 Symbolic Z-matrix:
 Charge =  0 Multiplicity = 1

 SCF Done:  E(RHF) =  -555.511280549     A.U. after   14 cycles
 Normal termination of Gaussian 16 at Tue Apr  8 23:20:56 2025.
 Gaussian 16:  ES64L-G16RevC.01  3-Jul-2019

 ----------------------------------------------------------------------
 #t hf aug-cc-pvdz iop(5/13=1,5/36=2,99/5=2) pseudo=read geom=check gue
 ss=(read,tcheck) scf=(maxcycle=1)
 ----------------------------------------------------------------------
 -----
 title
 -----
 Structure from the checkpoint file:  "BDE49_nonexpt_1162_mol1.chk"
 Charge =  0 Multiplicity = 1

                         Standard orientation:
 ---------------------------------------------------------------------
 Center     Atomic      Atomic             Coordinates (Angstroms)
 Number     Number       Type             X           Y           Z
 ---------------------------------------------------------------------
      1          9           0       -1.363700    0.145201    1.846872
      2          8           0       -0.595996   -0.763794    1.034961
      3          6           0        0.016640    0.002359   -0.012938
      4          8           0        0.815788    0.946578    0.573718
      5          8           0       -0.891435    0.601429   -0.837501
      6          8           0        0.703556   -0.983850   -0.714641
      7          6           0        1.321338    1.969903   -0.296074
      8          1           0        2.052532    2.517140    0.296359
      9          1           0        0.520168    2.637789   -0.613344
     10          1           0        1.807362    1.534912   -1.173762
     11          6           0       -1.837428   -0.259337   -1.488135
     12          1           0       -2.487935    0.403302   -2.055679
     13          1           0       -2.423847   -0.810133   -0.750410
     14          1           0       -1.331214   -0.954334   -2.159565
     15          6           0        1.784076   -1.645347   -0.032092
     16          1           0        2.412897   -2.067337   -0.814767
     17          1           0        1.404373   -2.443132    0.608318
     18          1           0        2.355904   -0.933387    0.564147
 ---------------------------------------------------------------------

 SCF Done:  E(RHF) =  -555.696859752     A.U. after    2 cycles

 The electronic state is 1-A.
 Alpha  occ. eigenvalues --  -26.15840 -20.69814 -20.60486 -20.60167 -20.59928
 Alpha  occ. eigenvalues --  -11.48095 -11.29822 -11.29587 -11.29387  -1.66191
 Alpha  occ. eigenvalues --   -1.46304  -1.34258  -1.34114  -1.29365  -1.00391
 Alpha  occ. eigenvalues --   -0.95969  -0.94964  -0.83905  -0.78363  -0.77690
 Alpha  occ. eigenvalues --   -0.76624  -0.73689  -0.71558  -0.67240  -0.65229
 Alpha  occ. eigenvalues --   -0.64519  -0.62701  -0.61643  -0.60481  -0.60122
 Alpha  occ. eigenvalues --   -0.55916  -0.55083  -0.53004  -0.51825  -0.49294
 Alpha  occ. eigenvalues --   -0.48399  -0.48206
 Alpha virt. eigenvalues --    0.03361   0.04399   0.04530   0.05228   0.06089
 Alpha virt. eigenvalues --    0.06274   0.07029   0.07292   0.08815   0.10028
 Alpha virt. eigenvalues --    0.11552   0.13075   0.13622   0.14312   0.14790

 Mulliken charges:
               1
     1  F   -0.394098
     2  O   -0.248334
     3  C    1.486908
     4  O   -0.704824
     5  O   -0.657479
     6  O   -0.702874
     7  C    0.744903
     8  H   -0.221778
     9  H   -0.068124
    10  H   -0.042535
    11  C    0.678883
    12  H   -0.234815
    13  H   -0.015457
    14  H   -0.066923
    15  C    0.765111
    16  H   -0.196359
    17  H   -0.072471
    18  H   -0.049735
 Sum of Mulliken charges =  -0.00000

 Dipole moment (field-independent basis, Debye):
    X=              1.8252    Y=             -0.4978    Z=             -2.5484  Tot=              3.1739

 Test job not archived.
 1\1\GINC-SE402\SP\RHF\Aug-CC-pVDZ\C4H9F1O4\OHZDE\08-Apr-2025\0\\#t hf
 aug-cc-pvdz iop(5/13=1,5/36=2,99/5=2) pseudo=read geom=check guess=(re
 ad,tcheck) scf=(maxcycle=1)\\title\\0,1\F,0,-1.3637,0.145201,1.846872\
 O,0,-0.595996,-0.763794,1.034961\C,0,0.01664,0.002359,-0.012938\O,0,0.
 815788,0.946578,0.573718\O,0,-0.891435,0.601429,-0.837501\O,0,0.703556
 ,-0.98385,-0.714641\C,0,1.321339,1.969902,-0.296074\H,0,2.052533,2.517
 139,0.296359\H,0,0.520169,2.637789,-0.613344\H,0,1.807363,1.534911,-1.
 173762\C,0,-1.837428,-0.259336,-1.488135\H,0,-2.487935,0.403303,-2.055

 Normal termination of Gaussian 16 at Tue Apr  8 23:21:04 2025.
