 Gaussian 16, Revision C.01,

 ----------------------------------------------------------------------
 #t hf aug-cc-pvdz symm=none int=(grid=ultrafine) guess=(read,tcheck) s
 table=(opt,rrhf)
 ----------------------------------------------------------------------
 -----
 title
 -----
 Symbolic Z-matrix:
 Charge =  0 Multiplicity = 1

 SCF Done:  E(RHF) =  -1255.14259776     A.U. after   14 cycles

 1\1\GINC-SE402\Stability\RHF\Aug-CC-pVDZ\Cl1H1S2\OHZDE\09-Apr-2025\0\\
 #t hf aug-cc-pvdz symm=none int=(grid=ultrafine) guess=(read,tcheck) s
 table=(opt,rrhf)\\title\\0,1\Cl,0,-1.683895,-0.389492,-0.003626\S,0,1.
 64857,-0.39229,-0.088636\S,0,0.027235,0.846489,0.01572\H,0,1.813319,-0
 .645815,1.228308\\Version=ES64L-G16RevC.01\HF=-1255.1425978\RMSD=6.618
 e-09\Dipole=0.6181789,-0.0196862,0.3627258\Quadrupole=0.4211705,-0.201
 8339,-0.2193366,-0.9698523,1.4811883,-0.7052429\PG=Unknown\\@
 The archive entry for this job was punched.

 Normal termination of Gaussian 16 at Wed Apr  9 00:14:32 2025.
 Gaussian 16:  ES64L-G16RevC.01  3-Jul-2019

 ----------------------------------------------------------------------
 #t hf aug-cc-pvdz iop(5/13=1,5/36=2,99/5=2) pseudo=read geom=check gue
 ss=(read,tcheck) scf=(maxcycle=1)
 ----------------------------------------------------------------------
 -----
 title
 -----
 Structure from the checkpoint file:  "BDE49_nonexpt_2524_mol1.chk"
 Charge =  0 Multiplicity = 1

                         Standard orientation:
 ---------------------------------------------------------------------
 Center     Atomic      Atomic             Coordinates (Angstroms)
 Number     Number       Type             X           Y           Z
 ---------------------------------------------------------------------
      1         17           0       -1.683895   -0.389492   -0.003626
      2         16           0        1.648570   -0.392290   -0.088636
      3         16           0        0.027235    0.846489    0.015720
      4          1           0        1.813319   -0.645815    1.228308
 ---------------------------------------------------------------------

 SCF Done:  E(RHF) =  -1255.20461394     A.U. after    2 cycles

 The electronic state is 1-A.
 Alpha  occ. eigenvalues -- -103.68258 -93.63197 -93.59816 -10.71404  -8.92378
 Alpha  occ. eigenvalues --   -8.89461  -8.37125  -8.36777  -8.36751  -6.26373
 Alpha  occ. eigenvalues --   -6.26123  -6.25686  -6.23548  -6.23305  -6.22973
 Alpha  occ. eigenvalues --   -1.16907  -1.04626  -0.86196  -0.61318  -0.55745
 Alpha  occ. eigenvalues --   -0.53754  -0.50884  -0.45783  -0.40984  -0.38793
 Alpha virt. eigenvalues --    0.02773   0.03683   0.06100   0.10171   0.10852
 Alpha virt. eigenvalues --    0.11568   0.12723   0.13936   0.14490   0.14667
 Alpha virt. eigenvalues --    0.16103   0.17796   0.18490   0.21254   0.24624

 Mulliken charges:
               1
     1  Cl  -0.278448
     2  S   -0.054982
     3  S    0.163967
     4  H    0.169463
 Sum of Mulliken charges =  -0.00000

 Dipole moment (field-independent basis, Debye):
    X=              1.7331    Y=              0.0083    Z=              0.8849  Tot=              1.9459

 Test job not archived.
 1\1\GINC-SE402\SP\RHF\Aug-CC-pVDZ\Cl1H1S2\OHZDE\09-Apr-2025\0\\#t hf a
 ug-cc-pvdz iop(5/13=1,5/36=2,99/5=2) pseudo=read geom=check guess=(rea
 d,tcheck) scf=(maxcycle=1)\\title\\0,1\Cl,0,-1.683895,-0.389492,-0.003
 626\S,0,1.64857,-0.39229,-0.088636\S,0,0.027235,0.846489,0.01572\H,0,1
 .813319,-0.645815,1.228308\\Version=ES64L-G16RevC.01\State=1-A\HF=-125
 5.2046139\RMSD=5.866e-03\Dipole=0.6818427,0.0032817,0.3481443\Quadrupo
 le=0.3914507,-0.1496543,-0.2417965,-1.010104,1.4324991,-0.691873\PG=C0
 1 [X(Cl1H1S2)]\\@

 Normal termination of Gaussian 16 at Wed Apr  9 00:14:33 2025.
