 Gaussian 16, Revision C.01,

 ----------------------------------------------------------------------
 #t hf aug-cc-pvdz symm=none int=(grid=ultrafine) guess=(read,tcheck) s
 table=opt
 ----------------------------------------------------------------------
 -----
 title
 -----
 Symbolic Z-matrix:
 Charge =  0 Multiplicity = 2

 SCF Done:  E(UHF) =  -690.714845500     A.U. after   19 cycles
 Normal termination of Gaussian 16 at Wed Apr  9 00:29:50 2025.
 Gaussian 16:  ES64L-G16RevC.01  3-Jul-2019

 ----------------------------------------------------------------------
 #t hf aug-cc-pvdz iop(5/13=1,5/36=2,99/5=2) pseudo=read geom=check gue
 ss=(read,tcheck) scf=(maxcycle=1)
 ----------------------------------------------------------------------
 -----
 title
 -----
 Structure from the checkpoint file:  "BDE49_nonexpt_375_mol2.chk"
 Charge =  0 Multiplicity = 2

                         Standard orientation:
 ---------------------------------------------------------------------
 Center     Atomic      Atomic             Coordinates (Angstroms)
 Number     Number       Type             X           Y           Z
 ---------------------------------------------------------------------
      1          9           0        2.483686    0.020158    0.084893
      2          5           0        1.384567   -0.450515    0.597887
      3         15           0       -0.396064   -0.100119   -0.088439
      4          8           0       -0.803054   -1.141973   -1.043800
      5          8           0       -1.373550    0.026161    1.191763
      6          1           0       -1.789804   -0.818750    1.403389
      7          8           0       -0.362620    1.432912   -0.551756
      8          1           0       -1.231459    1.854881   -0.599939
 ---------------------------------------------------------------------

 SCF Done:  E(UHF) =  -690.902454281     A.U. after    2 cycles

 The electronic state is 2-A.
 Alpha  occ. eigenvalues --  -81.42511 -26.17868 -20.62989 -20.62868 -20.53789
 Alpha  occ. eigenvalues --   -7.90998  -7.74762  -5.05583  -5.05494  -5.05213
 Alpha  occ. eigenvalues --   -1.72369  -1.39420  -1.35745  -1.27056  -0.89855
 Alpha  occ. eigenvalues --   -0.86519  -0.81080  -0.78285  -0.77726  -0.70648
 Alpha  occ. eigenvalues --   -0.68325  -0.63910  -0.61005  -0.59168  -0.55331
 Alpha  occ. eigenvalues --   -0.50193  -0.49648  -0.37961
 Alpha virt. eigenvalues --    0.02839   0.03632   0.04487   0.05114   0.06841
 Alpha virt. eigenvalues --    0.07876   0.09237   0.10174   0.12023   0.12965
 Alpha virt. eigenvalues --    0.15396   0.17371   0.19317   0.20388   0.21333

  Beta  occ. eigenvalues --  -81.42392 -26.17535 -20.62912 -20.62886 -20.53728
  Beta  occ. eigenvalues --   -7.90813  -7.72852  -5.05500  -5.05397  -5.04871
  Beta  occ. eigenvalues --   -1.71448  -1.39266  -1.35645  -1.26863  -0.88531
  Beta  occ. eigenvalues --   -0.85741  -0.78757  -0.77852  -0.77149  -0.69566
  Beta  occ. eigenvalues --   -0.67987  -0.63153  -0.60770  -0.59133  -0.54158
  Beta  occ. eigenvalues --   -0.49831  -0.47750
  Beta virt. eigenvalues --    0.02542   0.03528   0.04651   0.05133   0.06544
  Beta virt. eigenvalues --    0.07340   0.09117   0.10105   0.10584   0.12795
  Beta virt. eigenvalues --    0.13978   0.15645   0.18360   0.19794   0.20870

 Mulliken charges and spin densities:
               1          2
     1  F   -0.240481  -0.037617
     2  B    0.261479   0.979619
     3  P    1.955479   0.043594
     4  O   -0.900659   0.015613
     5  O   -0.700604  -0.001566
     6  H    0.161179   0.000120
     7  O   -0.688895  -0.007060
     8  H    0.152502   0.007296
 Sum of Mulliken charges =   0.00000   1.00000

 Dipole moment (field-independent basis, Debye):
    X=             -1.1339    Y=              1.2793    Z=              2.6334  Tot=              3.1396
                          Isotropic Fermi Contact Couplings
        Atom                 a.u.       MegaHertz       Gauss      10(-4) cm-1
     1  F(19)              0.05815     244.67670      87.30673      81.61536
     2  B(11)              0.33796     484.76432     172.97596     161.69997
     3  P(31)              0.21787     394.59002     140.79953     131.62106
     4  O(17)              0.00493      -2.99141      -1.06741      -0.99783
     5  O(17)             -0.00919       5.57082       1.98781       1.85822
     6  H(1)               0.00018       0.78815       0.28123       0.26290
     7  O(17)              0.04841     -29.34874     -10.47236      -9.78969
     8  H(1)               0.00325      14.51724       5.18011       4.84243

 Normal termination of Gaussian 16 at Wed Apr  9 00:29:54 2025.
