 Gaussian 16, Revision C.01,

 ----------------------------------------------------------------------
 #t hf aug-cc-pvdz symm=none int=(grid=ultrafine) guess=(read,tcheck) s
 table=(opt,rrhf)
 ----------------------------------------------------------------------
 -----
 title
 -----
 Symbolic Z-matrix:
 Charge =  0 Multiplicity = 1

 SCF Done:  E(RHF) =  -1086.34700509     A.U. after   12 cycles

 1\1\GINC-SE457\Stability\RHF\Aug-CC-pVDZ\H4S2Si1\OHZDE\08-Apr-2025\0\\
 #t hf aug-cc-pvdz symm=none int=(grid=ultrafine) guess=(read,tcheck) s
 table=(opt,rrhf)\\title\\0,1\Si,0,1.625929,-0.40291,-0.000245\S,0,-0.0
 58887,0.965786,0.008757\S,0,-1.62733,-0.448063,-0.086147\H,0,-1.807491
 ,-0.60791,1.239542\H,0,2.824519,0.466491,0.020354\H,0,1.606782,-1.2370
 34,-1.218761\H,0,1.592661,-1.264365,1.200534\\Version=ES64L-G16RevC.01
 \HF=-1086.3470051\RMSD=9.218e-09\Dipole=0.3267587,-0.3691461,0.3412962
 \Quadrupole=1.2324665,-1.3237824,0.0913159,0.7261801,-1.5245447,-0.581

 Normal termination of Gaussian 16 at Tue Apr  8 23:56:19 2025.
 Gaussian 16:  ES64L-G16RevC.01  3-Jul-2019

 ----------------------------------------------------------------------
 #t hf aug-cc-pvdz iop(5/13=1,5/36=2,99/5=2) pseudo=read geom=check gue
 ss=(read,tcheck) scf=(maxcycle=1)
 ----------------------------------------------------------------------
 -----
 title
 -----
 Structure from the checkpoint file:  "BDE49_nonexpt_2052_mol1.chk"
 Charge =  0 Multiplicity = 1

                         Standard orientation:
 ---------------------------------------------------------------------
 Center     Atomic      Atomic             Coordinates (Angstroms)
 Number     Number       Type             X           Y           Z
 ---------------------------------------------------------------------
      1         14           0        1.625929   -0.402910   -0.000245
      2         16           0       -0.058887    0.965786    0.008757
      3         16           0       -1.627330   -0.448063   -0.086147
      4          1           0       -1.807491   -0.607910    1.239542
      5          1           0        2.824519    0.466491    0.020354
      6          1           0        1.606782   -1.237034   -1.218761
      7          1           0        1.592661   -1.264365    1.200534
 ---------------------------------------------------------------------

 SCF Done:  E(RHF) =  -1086.40932260     A.U. after    2 cycles

 The electronic state is 1-A.
 Alpha  occ. eigenvalues --  -93.57533 -93.55799 -69.10088  -8.87065  -8.85543
 Alpha  occ. eigenvalues --   -6.85142  -6.21168  -6.20948  -6.20596  -6.19622
 Alpha  occ. eigenvalues --   -6.19368  -6.19089  -3.95960  -3.95880  -3.95844
 Alpha  occ. eigenvalues --   -1.02862  -0.86948  -0.70291  -0.57314  -0.51650
 Alpha  occ. eigenvalues --   -0.50545  -0.49200  -0.45844  -0.37870  -0.37016
 Alpha virt. eigenvalues --    0.03595   0.04614   0.05011   0.06148   0.07121
 Alpha virt. eigenvalues --    0.08195   0.09113   0.09303   0.10970   0.12028
 Alpha virt. eigenvalues --    0.12984   0.14627   0.15674   0.16223   0.16731

 Mulliken charges:
               1
     1  Si   0.710753
     2  S   -0.471300
     3  S   -0.163599
     4  H    0.119789
     5  H   -0.093365
     6  H   -0.053854
     7  H   -0.048424
 Sum of Mulliken charges =  -0.00000

 Dipole moment (field-independent basis, Debye):
    X=              0.7706    Y=             -0.8918    Z=              0.8281  Tot=              1.4405

 Test job not archived.
 1\1\GINC-SE457\SP\RHF\Aug-CC-pVDZ\H4S2Si1\OHZDE\08-Apr-2025\0\\#t hf a
 ug-cc-pvdz iop(5/13=1,5/36=2,99/5=2) pseudo=read geom=check guess=(rea
 d,tcheck) scf=(maxcycle=1)\\title\\0,1\Si,0,1.625929,-0.40291,-0.00024
 5\S,0,-0.058887,0.965786,0.008757\S,0,-1.62733,-0.448063,-0.086147\H,0
 ,-1.807491,-0.60791,1.239542\H,0,2.824519,0.466491,0.020354\H,0,1.6067
 82,-1.237034,-1.218761\H,0,1.592661,-1.264365,1.200534\\Version=ES64L-
 G16RevC.01\State=1-A\HF=-1086.4093226\RMSD=7.240e-03\Dipole=0.3031874,
 -0.3508776,0.3258168\Quadrupole=1.1945691,-1.2861615,0.0915924,0.75551

 Normal termination of Gaussian 16 at Tue Apr  8 23:56:21 2025.
