 Gaussian 16, Revision C.01,

 ----------------------------------------------------------------------
 #t hf aug-cc-pvdz symm=none int=(grid=ultrafine) guess=(read,tcheck) s
 table=opt
 ----------------------------------------------------------------------
 -----
 title
 -----
 Symbolic Z-matrix:
 Charge =  0 Multiplicity = 2

 SCF Done:  E(UHF) =  -458.430808171     A.U. after   19 cycles
 Normal termination of Gaussian 16 at Wed Apr  9 00:09:32 2025.
 Gaussian 16:  ES64L-G16RevC.01  3-Jul-2019

 ----------------------------------------------------------------------
 #t hf aug-cc-pvdz iop(5/13=1,5/36=2,99/5=2) pseudo=read geom=check gue
 ss=(read,tcheck) scf=(maxcycle=1)
 ----------------------------------------------------------------------
 -----
 title
 -----
 Structure from the checkpoint file:  "BDE49_nonexpt_2369_mol2.chk"
 Charge =  0 Multiplicity = 2

                         Standard orientation:
 ---------------------------------------------------------------------
 Center     Atomic      Atomic             Coordinates (Angstroms)
 Number     Number       Type             X           Y           Z
 ---------------------------------------------------------------------
      1         14           0       -1.382420   -0.251639    0.000001
      2          6           0        0.519350    0.134270   -0.000005
      3          1           0       -1.944929    0.400087    1.210388
      4          1           0       -1.944935    0.400084   -1.210383
      5          8           0        0.823159    1.315497   -0.000004
      6          7           0        1.427382   -0.873787    0.000003
      7          1           0        1.136226   -1.837016    0.000009
      8          1           0        2.414466   -0.653294    0.000005
 ---------------------------------------------------------------------

 SCF Done:  E(UHF) =  -458.503666350     A.U. after    2 cycles

 The electronic state is 2-A.
 Alpha  occ. eigenvalues --  -69.09060 -20.54955 -15.66268 -11.36292  -6.84407
 Alpha  occ. eigenvalues --   -3.95744  -3.94845  -3.94824  -1.35365  -1.18615
 Alpha  occ. eigenvalues --   -0.83736  -0.76190  -0.70393  -0.65488  -0.58766
 Alpha  occ. eigenvalues --   -0.56994  -0.49372  -0.43331  -0.42756  -0.34466
 Alpha virt. eigenvalues --    0.02621   0.04489   0.05319   0.05508   0.06531
 Alpha virt. eigenvalues --    0.07736   0.08867   0.11737   0.12407   0.13113
 Alpha virt. eigenvalues --    0.13715   0.15138   0.16324   0.17597   0.18588

  Beta  occ. eigenvalues --  -69.08510 -20.54705 -15.66288 -11.36167  -6.83580
  Beta  occ. eigenvalues --   -3.94491  -3.94448  -3.93594  -1.34809  -1.18536
  Beta  occ. eigenvalues --   -0.82907  -0.75186  -0.69005  -0.63851  -0.58566
  Beta  occ. eigenvalues --   -0.55534  -0.48367  -0.42710  -0.40759
  Beta virt. eigenvalues --    0.01398   0.03412   0.04940   0.05512   0.06198
  Beta virt. eigenvalues --    0.06779   0.08693   0.09159   0.12066   0.12675
  Beta virt. eigenvalues --    0.13458   0.14325   0.16843   0.17097   0.18401

 Mulliken charges and spin densities:
               1          2
     1  Si   0.413002   0.890390
     2  C    0.325075   0.021651
     3  H   -0.058736   0.032736
     4  H   -0.058734   0.032735
     5  O   -0.524534   0.032317
     6  N   -0.070189  -0.006328
     7  H   -0.010889   0.001560
     8  H   -0.014996  -0.005062
 Sum of Mulliken charges =  -0.00000   1.00000

 Dipole moment (field-independent basis, Debye):
    X=              0.0402    Y=             -4.2378    Z=              0.0000  Tot=              4.2380
                          Isotropic Fermi Contact Couplings
        Atom                 a.u.       MegaHertz       Gauss      10(-4) cm-1
     1  Si(29)             0.51563    -458.25451    -163.51660    -152.85725
     2  C(13)              0.03084      34.66586      12.36964      11.56329
     3  H(1)               0.00620      27.71318       9.88875       9.24412
     4  H(1)               0.00620      27.71256       9.88853       9.24391
     5  O(17)              0.03519     -21.33037      -7.61121      -7.11504
     6  N(14)             -0.01115      -3.60415      -1.28605      -1.20222
     7  H(1)              -0.00011      -0.47025      -0.16780      -0.15686
     8  H(1)              -0.00059      -2.63329      -0.93962      -0.87837

 1\1\GINC-SE340\SP\UHF\Aug-CC-pVDZ\C1H4N1O1Si1(2)\OHZDE\09-Apr-2025\0\\
 #t hf aug-cc-pvdz iop(5/13=1,5/36=2,99/5=2) pseudo=read geom=check gue
 ss=(read,tcheck) scf=(maxcycle=1)\\title\\0,2\Si,0,-1.38242,-0.251639,
 0.000001\C,0,0.51935,0.13427,-0.000005\H,0,-1.944929,0.400087,1.210388
 \H,0,-1.944935,0.400084,-1.210383\O,0,0.823159,1.315497,-0.000004\N,0,
 1.427382,-0.873787,0.000003\H,0,1.136226,-1.837016,0.000009\H,0,2.4144
 66,-0.653294,0.000005\\Version=ES64L-G16RevC.01\State=2-A\HF=-458.5036
 664\S2=0.754122\S2-1=0.\S2A=0.750007\RMSD=4.360e-03\Dipole=0.0158226,-

 Normal termination of Gaussian 16 at Wed Apr  9 00:09:35 2025.
