 Gaussian 16, Revision C.01,

 ----------------------------------------------------------------------
 #t hf aug-cc-pvdz symm=none int=(grid=ultrafine) guess=(read,tcheck) s
 table=opt
 ----------------------------------------------------------------------
 -----
 title
 -----
 Symbolic Z-matrix:
 Charge =  0 Multiplicity = 2

 SCF Done:  E(UHF) =  -1307.52155482     A.U. after   14 cycles
 Normal termination of Gaussian 16 at Tue Apr  8 23:47:15 2025.
 Gaussian 16:  ES64L-G16RevC.01  3-Jul-2019

 ----------------------------------------------------------------------
 #t hf aug-cc-pvdz iop(5/13=1,5/36=2,99/5=2) pseudo=read geom=check gue
 ss=(read,tcheck) scf=(maxcycle=1)
 ----------------------------------------------------------------------
 -----
 title
 -----
 Structure from the checkpoint file:  "BDE49_nonexpt_1823_mol2.chk"
 Charge =  0 Multiplicity = 2

                         Standard orientation:
 ---------------------------------------------------------------------
 Center     Atomic      Atomic             Coordinates (Angstroms)
 Number     Number       Type             X           Y           Z
 ---------------------------------------------------------------------
      1         14           0        0.000006    0.391836    0.462110
      2         17           0        1.699479   -0.637070   -0.109860
      3          9           0       -0.000108    1.797334   -0.303825
      4         17           0       -1.699427   -0.637149   -0.109852
 ---------------------------------------------------------------------

 SCF Done:  E(UHF) =  -1307.62728723     A.U. after    2 cycles

 The electronic state is 2-A.
 Alpha  occ. eigenvalues -- -103.68626-103.68626 -69.23023 -26.14977 -10.72086
 Alpha  occ. eigenvalues --  -10.72074  -8.37948  -8.37944  -8.37508  -8.37507
 Alpha  occ. eigenvalues --   -8.37474  -8.37472  -6.96915  -4.07875  -4.07351
 Alpha  occ. eigenvalues --   -4.07290  -1.68003  -1.18413  -1.16399  -0.84287
 Alpha  occ. eigenvalues --   -0.76350  -0.75953  -0.67362  -0.58533  -0.54433
 Alpha  occ. eigenvalues --   -0.52386  -0.50866  -0.49427  -0.39908
 Alpha virt. eigenvalues --    0.05366   0.05419   0.05725   0.06146   0.11826
 Alpha virt. eigenvalues --    0.12474   0.13206   0.13880   0.15022   0.15130
 Alpha virt. eigenvalues --    0.15950   0.18123   0.18930   0.22828   0.24435

  Beta  occ. eigenvalues -- -103.68475-103.68474 -69.22378 -26.14621 -10.71920
  Beta  occ. eigenvalues --  -10.71908  -8.37513  -8.37509  -8.37391  -8.37389
  Beta  occ. eigenvalues --   -8.37262  -8.37261  -6.95785  -4.06930  -4.06882
  Beta  occ. eigenvalues --   -4.06004  -1.66905  -1.17127  -1.15152  -0.82405
  Beta  occ. eigenvalues --   -0.75694  -0.74697  -0.64219  -0.56412  -0.52600
  Beta  occ. eigenvalues --   -0.51912  -0.50133  -0.49153
  Beta virt. eigenvalues --   -0.00472   0.05691   0.05715   0.06227   0.08005
  Beta virt. eigenvalues --    0.12460   0.12561   0.14448   0.15052   0.15994
  Beta virt. eigenvalues --    0.16806   0.17361   0.18244   0.19389   0.23233

 Mulliken charges and spin densities:
               1          2
     1  Si   1.484991   0.921833
     2  Cl  -0.411716   0.063045
     3  F   -0.661553  -0.047921
     4  Cl  -0.411722   0.063043
 Sum of Mulliken charges =   0.00000   1.00000

 Dipole moment (field-independent basis, Debye):
    X=              0.0002    Y=             -0.2334    Z=              1.3757  Tot=              1.3954
                          Isotropic Fermi Contact Couplings
        Atom                 a.u.       MegaHertz       Gauss      10(-4) cm-1
     1  Si(29)             1.18308   -1051.43984    -375.17988    -350.72258
     2  Cl(35)             0.08819      38.66899      13.79806      12.89859
     3  F(19)              0.06846     288.04402     102.78127      96.08114
     4  Cl(35)             0.08819      38.66587      13.79694      12.89755
 --------------------------------------------------------
       Center         ----  Spin Dipole Couplings  ----
                      3XX-RR        3YY-RR        3ZZ-RR
 --------------------------------------------------------

 Normal termination of Gaussian 16 at Tue Apr  8 23:47:17 2025.
