 Gaussian 16, Revision C.01,

 ----------------------------------------------------------------------
 #t hf aug-cc-pvdz symm=none int=(grid=ultrafine) guess=(read,tcheck) s
 table=(opt,rrhf)
 ----------------------------------------------------------------------
 -----
 title
 -----
 Symbolic Z-matrix:
 Charge =  0 Multiplicity = 1

 SCF Done:  E(RHF) =  -635.099901455     A.U. after   13 cycles
 Normal termination of Gaussian 16 at Wed Apr  9 00:04:33 2025.
 Gaussian 16:  ES64L-G16RevC.01  3-Jul-2019

 ----------------------------------------------------------------------
 #t hf aug-cc-pvdz iop(5/13=1,5/36=2,99/5=2) pseudo=read geom=check gue
 ss=(read,tcheck) scf=(maxcycle=1)
 ----------------------------------------------------------------------
 -----
 title
 -----
 Structure from the checkpoint file:  "BDE49_nonexpt_2214_mol1.chk"
 Charge =  0 Multiplicity = 1

                         Standard orientation:
 ---------------------------------------------------------------------
 Center     Atomic      Atomic             Coordinates (Angstroms)
 Number     Number       Type             X           Y           Z
 ---------------------------------------------------------------------
      1          8           0        1.208276    0.435311   -0.653910
      2          6           0        1.886102   -0.390535    0.176441
      3         14           0       -0.043803    1.445733   -0.088481
      4          8           0        1.620593   -0.491304    1.349056
      5          6           0        2.981382   -1.139777   -0.535934
      6          6           0       -1.529358    0.478711    0.510027
      7          1           0        2.559136   -1.709772   -1.366530
      8          1           0        3.486758   -1.805607    0.160222
      9          1           0        3.693682   -0.428773   -0.960989
     10          6           0       -2.168744   -0.460797   -0.530064
     11          1           0       -2.269340    1.217441    0.849193
     12          1           0       -1.230295   -0.084471    1.400451
     13          6           0       -3.396585   -1.202685    0.008191
     14          1           0       -1.426127   -1.191741   -0.868340
     15          1           0       -2.453455    0.113526   -1.419236
     16          1           0       -3.136117   -1.813674    0.877629
     17          1           0       -3.826004   -1.864253   -0.749565
     18          1           0       -4.176011   -0.500076    0.318884
     19          1           0       -0.367715    2.229660   -1.298646
     20          1           0        0.491001    2.335936    0.962530
 ---------------------------------------------------------------------

 SCF Done:  E(RHF) =  -635.241700317     A.U. after    2 cycles

 The electronic state is 1-A.
 Alpha  occ. eigenvalues --  -69.09424 -20.59892 -20.56439 -11.40227 -11.25437
 Alpha  occ. eigenvalues --  -11.23915 -11.22542 -11.22136  -6.84251  -3.95154
 Alpha  occ. eigenvalues --   -3.94993  -3.94966  -1.40822  -1.31174  -1.04963
 Alpha  occ. eigenvalues --   -1.01663  -0.92664  -0.82914  -0.80756  -0.71207
 Alpha  occ. eigenvalues --   -0.69280  -0.66338  -0.64193  -0.63163  -0.58479
 Alpha  occ. eigenvalues --   -0.57858  -0.57014  -0.55302  -0.54144  -0.53318
 Alpha  occ. eigenvalues --   -0.50070  -0.49031  -0.47991  -0.47017  -0.46377
 Alpha  occ. eigenvalues --   -0.42788
 Alpha virt. eigenvalues --    0.03150   0.04150   0.04383   0.04833   0.05763
 Alpha virt. eigenvalues --    0.05898   0.06400   0.07094   0.07168   0.07949
 Alpha virt. eigenvalues --    0.08476   0.09135   0.10197   0.10970   0.11600

 Mulliken charges:
               1
     1  O   -0.843014
     2  C    0.403219
     3  Si   0.573427
     4  O   -0.446748
     5  C    0.300223
     6  C    0.197786
     7  H    0.024108
     8  H   -0.025846
     9  H    0.030768
    10  C    0.027489
    11  H   -0.202973
    12  H   -0.146890
    13  C    0.419446
    14  H   -0.170910
    15  H   -0.156474
    16  H   -0.057741
    17  H   -0.069634
    18  H   -0.071891
    19  H    0.151525
    20  H    0.064127
 Sum of Mulliken charges =  -0.00000

 Dipole moment (field-independent basis, Debye):
    X=             -0.0911    Y=             -0.3104    Z=             -1.8865  Tot=              1.9140

 Test job not archived.
 1\1\GINC-SE095\SP\RHF\Aug-CC-pVDZ\C5H12O2Si1\OHZDE\09-Apr-2025\0\\#t h
 f aug-cc-pvdz iop(5/13=1,5/36=2,99/5=2) pseudo=read geom=check guess=(
 read,tcheck) scf=(maxcycle=1)\\title\\0,1\O,0,1.208276,0.435311,-0.653
 91\C,0,1.886102,-0.390535,0.176441\Si,0,-0.043803,1.445733,-0.088481\O
 ,0,1.620593,-0.491304,1.349056\C,0,2.981382,-1.139777,-0.535934\C,0,-1
 .529358,0.478711,0.510027\H,0,2.559136,-1.709772,-1.36653\H,0,3.486758
 ,-1.805607,0.160222\H,0,3.693682,-0.428773,-0.960989\C,0,-2.168744,-0.
 460797,-0.530064\H,0,-2.26934,1.217441,0.849193\H,0,-1.230295,-0.08447

 Normal termination of Gaussian 16 at Wed Apr  9 00:04:43 2025.
