 Gaussian 16, Revision C.01,

 ----------------------------------------------------------------------
 #t hf aug-cc-pvdz symm=none int=(grid=ultrafine) guess=(read,tcheck) s
 table=opt
 ----------------------------------------------------------------------
 -----
 title
 -----
 Symbolic Z-matrix:
 Charge =  0 Multiplicity = 2

 SCF Done:  E(UHF) =  -622.650837152     A.U. after   15 cycles
 Normal termination of Gaussian 16 at Tue Apr  8 23:44:12 2025.
 Gaussian 16:  ES64L-G16RevC.01  3-Jul-2019

 ----------------------------------------------------------------------
 #t hf aug-cc-pvdz iop(5/13=1,5/36=2,99/5=2) pseudo=read geom=check gue
 ss=(read,tcheck) scf=(maxcycle=1)
 ----------------------------------------------------------------------
 -----
 title
 -----
 Structure from the checkpoint file:  "BDE49_nonexpt_174_mol2.chk"
 Charge =  0 Multiplicity = 2

                         Standard orientation:
 ---------------------------------------------------------------------
 Center     Atomic      Atomic             Coordinates (Angstroms)
 Number     Number       Type             X           Y           Z
 ---------------------------------------------------------------------
      1         17           0       -1.505167   -0.166215   -0.000011
      2          5           0       -0.167254    0.920437    0.000001
      3          6           0        1.347010    0.570566    0.000011
      4          9           0        1.632427   -0.804864    0.000010
      5          1           0        1.825096    1.021923    0.879702
      6          1           0        1.825109    1.021927   -0.879671
 ---------------------------------------------------------------------

 SCF Done:  E(UHF) =  -622.723588160     A.U. after    2 cycles

 The electronic state is 2-A.
 Alpha  occ. eigenvalues -- -103.68127 -26.11166 -11.32650 -10.71628  -8.37359
 Alpha  occ. eigenvalues --   -8.37105  -8.37045  -7.70732  -1.64125  -1.17951
 Alpha  occ. eigenvalues --   -0.98976  -0.75597  -0.74670  -0.73956  -0.66017
 Alpha  occ. eigenvalues --   -0.57063  -0.55509  -0.51909  -0.50877  -0.36573
 Alpha virt. eigenvalues --    0.03305   0.04225   0.05313   0.05653   0.06280
 Alpha virt. eigenvalues --    0.08939   0.09483   0.11549   0.14442   0.15266
 Alpha virt. eigenvalues --    0.15934   0.16778   0.18510   0.19140   0.20485

  Beta  occ. eigenvalues -- -103.68057 -26.10937 -11.32497 -10.71548  -8.37257
  Beta  occ. eigenvalues --   -8.37072  -8.36844  -7.68743  -1.63396  -1.17162
  Beta  occ. eigenvalues --   -0.98061  -0.74720  -0.74474  -0.72114  -0.63824
  Beta  occ. eigenvalues --   -0.56857  -0.53689  -0.50985  -0.49163
  Beta virt. eigenvalues --    0.02544   0.04590   0.05028   0.05525   0.07083
  Beta virt. eigenvalues --    0.07437   0.10573   0.10696   0.13122   0.14605
  Beta virt. eigenvalues --    0.16012   0.16657   0.16999   0.18704   0.19470

 Mulliken charges and spin densities:
               1          2
     1  Cl  -0.215442   0.005673
     2  B    0.270458   1.012069
     3  C    0.610999  -0.009313
     4  F   -0.455664   0.024791
     5  H   -0.105175  -0.016610
     6  H   -0.105175  -0.016610
 Sum of Mulliken charges =  -0.00000   1.00000

 Dipole moment (field-independent basis, Debye):
    X=              0.5529    Y=              2.2057    Z=              0.0000  Tot=              2.2739
                          Isotropic Fermi Contact Couplings
        Atom                 a.u.       MegaHertz       Gauss      10(-4) cm-1
     1  Cl(35)             0.06479      28.40923      10.13712       9.47630
     2  B(11)              0.33106     474.86762     169.44457     158.39879
     3  C(13)              0.07359      82.73134      29.52060      27.59621
     4  F(19)              0.03672     154.51783      55.13580      51.54160
     5  H(1)              -0.00137      -6.11479      -2.18191      -2.03967
     6  H(1)              -0.00137      -6.11479      -2.18191      -2.03967
 --------------------------------------------------------
       Center         ----  Spin Dipole Couplings  ----

 1\1\GINC-SE038\SP\UHF\Aug-CC-pVDZ\C1H2B1Cl1F1(2)\OHZDE\08-Apr-2025\0\\
 #t hf aug-cc-pvdz iop(5/13=1,5/36=2,99/5=2) pseudo=read geom=check gue
 ss=(read,tcheck) scf=(maxcycle=1)\\title\\0,2\Cl,0,-1.505167,-0.166215
 ,-0.000011\B,0,-0.167254,0.920437,0.000001\C,0,1.34701,0.570566,0.0000
 11\F,0,1.632427,-0.804864,0.00001\H,0,1.825096,1.021923,0.879702\H,0,1
 .825109,1.021927,-0.879671\\Version=ES64L-G16RevC.01\State=2-A\HF=-622
 .7235882\S2=0.755018\S2-1=0.\S2A=0.750018\RMSD=3.572e-03\Dipole=0.2175
 454,0.867776,0.0000035\Quadrupole=-0.6522589,-0.9899821,1.642241,3.399

 Normal termination of Gaussian 16 at Tue Apr  8 23:44:14 2025.
