 Gaussian 16, Revision C.01,

 ----------------------------------------------------------------------
 #t hf aug-cc-pvdz symm=none int=(grid=ultrafine) guess=(read,tcheck) s
 table=(opt,rrhf)
 ----------------------------------------------------------------------
 -----
 title
 -----
 Symbolic Z-matrix:
 Charge =  0 Multiplicity = 1

 SCF Done:  E(RHF) =  -740.059459056     A.U. after   15 cycles
 Normal termination of Gaussian 16 at Wed Apr  9 00:19:38 2025.
 Gaussian 16:  ES64L-G16RevC.01  3-Jul-2019

 ----------------------------------------------------------------------
 #t hf aug-cc-pvdz iop(5/13=1,5/36=2,99/5=2) pseudo=read geom=check gue
 ss=(read,tcheck) scf=(maxcycle=1)
 ----------------------------------------------------------------------
 -----
 title
 -----
 Structure from the checkpoint file:  "BDE49_nonexpt_2632_mol1.chk"
 Charge =  0 Multiplicity = 1

                         Standard orientation:
 ---------------------------------------------------------------------
 Center     Atomic      Atomic             Coordinates (Angstroms)
 Number     Number       Type             X           Y           Z
 ---------------------------------------------------------------------
      1          9           0        1.797617   -0.182730    1.084867
      2         16           0        1.431180    0.172227   -0.499880
      3          6           0       -0.119354   -0.666923   -0.593120
      4          7           0       -1.337652    0.067270    0.019110
      5          1           0       -0.090768   -1.642145   -0.111674
      6          1           0       -0.358950   -0.781086   -1.653434
      7          8           0       -2.258340   -0.669738    0.325348
      8          8           0       -1.310163    1.275090    0.102694
 ---------------------------------------------------------------------

 SCF Done:  E(RHF) =  -740.193615516     A.U. after    2 cycles

 The electronic state is 1-A.
 Alpha  occ. eigenvalues --  -93.66141 -26.15833 -20.64211 -20.63780 -15.93492
 Alpha  occ. eigenvalues --  -11.37748  -8.95025  -6.29204  -6.28860  -6.28396
 Alpha  occ. eigenvalues --   -1.67001  -1.57244  -1.39275  -1.13766  -0.98543
 Alpha  occ. eigenvalues --   -0.87140  -0.79321  -0.77535  -0.76634  -0.75887
 Alpha  occ. eigenvalues --   -0.74459  -0.71749  -0.64023  -0.56922  -0.53179
 Alpha  occ. eigenvalues --   -0.51746  -0.49350  -0.41958
 Alpha virt. eigenvalues --    0.02506   0.03931   0.05356   0.06428   0.07112
 Alpha virt. eigenvalues --    0.09317   0.11546   0.12016   0.13723   0.14190
 Alpha virt. eigenvalues --    0.15582   0.15970   0.16618   0.19270   0.20734

 Mulliken charges:
               1
     1  F   -0.618577
     2  S    0.985204
     3  C    0.356964
     4  N    0.417295
     5  H   -0.077555
     6  H    0.011716
     7  O   -0.546243
     8  O   -0.528806
 Sum of Mulliken charges =  -0.00000

 Dipole moment (field-independent basis, Debye):
    X=              1.8242    Y=             -1.8178    Z=             -3.3329  Tot=              4.2120

 Test job not archived.
 1\1\GINC-SE365\SP\RHF\Aug-CC-pVDZ\C1H2F1N1O2S1\OHZDE\09-Apr-2025\0\\#t
  hf aug-cc-pvdz iop(5/13=1,5/36=2,99/5=2) pseudo=read geom=check guess
 =(read,tcheck) scf=(maxcycle=1)\\title\\0,1\F,0,1.797617,0.18273,-1.08
 4867\S,0,1.43118,-0.172227,0.49988\C,0,-0.119354,0.666923,0.59312\N,0,
 -1.337652,-0.06727,-0.01911\H,0,-0.090768,1.642145,0.111674\H,0,-0.358
 95,0.781086,1.653434\O,0,-2.25834,0.669738,-0.325348\O,0,-1.310163,-1.
 27509,-0.102694\\Version=ES64L-G16RevC.01\State=1-A\HF=-740.1936155\RM
 SD=4.352e-03\Dipole=0.717696,0.715181,1.3112793\Quadrupole=-4.5792426,

 Normal termination of Gaussian 16 at Wed Apr  9 00:19:40 2025.
