 Gaussian 16, Revision C.01,

 ----------------------------------------------------------------------
 #t hf aug-cc-pvdz symm=none int=(grid=ultrafine) guess=(read,tcheck) s
 table=(opt,rrhf)
 ----------------------------------------------------------------------
 -----
 title
 -----
 Symbolic Z-matrix:
 Charge =  0 Multiplicity = 1

 SCF Done:  E(RHF) =  -299.982631796     A.U. after   13 cycles
 Normal termination of Gaussian 16 at Wed Apr  9 00:30:42 2025.
 Gaussian 16:  ES64L-G16RevC.01  3-Jul-2019

 ----------------------------------------------------------------------
 #t hf aug-cc-pvdz iop(5/13=1,5/36=2,99/5=2) pseudo=read geom=check gue
 ss=(read,tcheck) scf=(maxcycle=1)
 ----------------------------------------------------------------------
 -----
 title
 -----
 Structure from the checkpoint file:  "BDE49_nonexpt_386_mol1.chk"
 Charge =  0 Multiplicity = 1

                         Standard orientation:
 ---------------------------------------------------------------------
 Center     Atomic      Atomic             Coordinates (Angstroms)
 Number     Number       Type             X           Y           Z
 ---------------------------------------------------------------------
      1          9           0       -1.155367    1.130226   -0.000002
      2          9           0       -1.155370   -1.130225    0.000003
      3          5           0       -0.468322    0.000000   -0.000004
      4          6           0        1.049072   -0.000002   -0.000002
      5          6           0        2.254224   -0.000003    0.000003
      6          1           0        3.318457    0.000011    0.000007
 ---------------------------------------------------------------------

 SCF Done:  E(RHF) =  -300.099412070     A.U. after    2 cycles

 The electronic state is 1-A.
 Alpha  occ. eigenvalues --  -26.14892 -26.14884 -11.28704 -11.25572  -7.77024
 Alpha  occ. eigenvalues --   -1.70250  -1.68023  -1.05209  -0.89347  -0.83244
 Alpha  occ. eigenvalues --   -0.82727  -0.77904  -0.75534  -0.73080  -0.72569
 Alpha  occ. eigenvalues --   -0.65601  -0.44124  -0.43768
 Alpha virt. eigenvalues --    0.02983   0.05279   0.05300   0.05673   0.06661
 Alpha virt. eigenvalues --    0.06669   0.10087   0.13500   0.13509   0.15420
 Alpha virt. eigenvalues --    0.15868   0.18028   0.18763   0.19991   0.22908

 Mulliken charges:
               1
     1  F   -0.447175
     2  F   -0.447177
     3  B    0.924017
     4  C   -0.597989
     5  C    0.980749
     6  H   -0.412425
 Sum of Mulliken charges =   0.00000

 Dipole moment (field-independent basis, Debye):
    X=              2.4827    Y=              0.0000    Z=             -0.0000  Tot=              2.4827

 Test job not archived.
 1\1\GINC-SE096\SP\RHF\Aug-CC-pVDZ\C2H1B1F2\OHZDE\09-Apr-2025\0\\#t hf
 aug-cc-pvdz iop(5/13=1,5/36=2,99/5=2) pseudo=read geom=check guess=(re
 ad,tcheck) scf=(maxcycle=1)\\title\\0,1\F,0,1.155367,-1.130226,-0.0000
 02\F,0,1.15537,1.130225,0.000003\B,0,0.468322,0.,-0.000004\C,0,-1.0490
 72,0.000002,-0.000002\C,0,-2.254224,0.000003,0.000003\H,0,-3.318457,-0
 .000011,0.000007\\Version=ES64L-G16RevC.01\State=1-A\HF=-300.0994121\R
 MSD=1.207e-02\Dipole=-0.9767804,-0.0000073,-0.000005\Quadrupole=3.6762
 795,-3.652114,-0.0241655,0.0000362,-0.0000333,-0.000008\PG=C01 [X(C2H1

 Normal termination of Gaussian 16 at Wed Apr  9 00:30:44 2025.
