 Gaussian 16, Revision C.01,

 ----------------------------------------------------------------------
 #t hf aug-cc-pvdz symm=none int=(grid=ultrafine) guess=(read,tcheck) s
 table=(opt,rrhf)
 ----------------------------------------------------------------------
 -----
 title
 -----
 Symbolic Z-matrix:
 Charge =  0 Multiplicity = 1

 SCF Done:  E(RHF) =  -1331.64977756     A.U. after   15 cycles
 Normal termination of Gaussian 16 at Tue Apr  8 23:26:02 2025.
 Gaussian 16:  ES64L-G16RevC.01  3-Jul-2019

 ----------------------------------------------------------------------
 #t hf aug-cc-pvdz iop(5/13=1,5/36=2,99/5=2) pseudo=read geom=check gue
 ss=(read,tcheck) scf=(maxcycle=1)
 ----------------------------------------------------------------------
 -----
 title
 -----
 Structure from the checkpoint file:  "BDE49_nonexpt_1247_mol1.chk"
 Charge =  0 Multiplicity = 1

                         Standard orientation:
 ---------------------------------------------------------------------
 Center     Atomic      Atomic             Coordinates (Angstroms)
 Number     Number       Type             X           Y           Z
 ---------------------------------------------------------------------
      1         17           0        2.851882   -0.421813   -0.501455
      2         15           0        1.073415   -1.561153   -0.473642
      3          6           0        0.549375   -1.386395    1.283346
      4          6           0       -0.148677   -0.386794    0.399235
      5          6           0        0.228381    1.064279    0.564631
      6          8           0        0.693316    1.526598    1.575239
      7          8           0        0.006372    1.759260   -0.557941
      8          6           0        0.307524    3.165906   -0.488072
      9          6           0       -1.552702   -0.759284    0.032331
     10          8           0       -1.894280   -1.909161   -0.133673
     11          8           0       -2.375430    0.291036   -0.056777
     12          6           0       -3.741608   -0.012230   -0.407513
     13          1           0        1.266717   -0.965585    1.977594
     14          1           0       -0.052163   -2.206247    1.659408
     15          1           0        1.360604    3.315764   -0.247973
     16          1           0       -0.307967    3.648003    0.272831
     17          1           0        0.076937    3.559301   -1.475105
     18          1           0       -4.189385   -0.666008    0.341578
     19          1           0       -4.249815    0.948322   -0.435691
     20          1           0       -3.781740   -0.500197   -1.381819
 ---------------------------------------------------------------------

 SCF Done:  E(RHF) =  -1331.85705272     A.U. after    2 cycles

 The electronic state is 1-A.
 Alpha  occ. eigenvalues -- -103.66288 -81.33869 -20.63743 -20.62638 -20.57821
 Alpha  occ. eigenvalues --  -20.57500 -11.42241 -11.41430 -11.31192 -11.30611
 Alpha  occ. eigenvalues --  -11.30349 -11.28195 -10.69604  -8.35304  -8.35035
 Alpha  occ. eigenvalues --   -8.35017  -7.83602  -4.97487  -4.97214  -4.97088
 Alpha  occ. eigenvalues --   -1.44372  -1.43166  -1.34564  -1.33861  -1.15571
 Alpha  occ. eigenvalues --   -1.12031  -1.00888  -0.99187  -0.89910  -0.82918
 Alpha  occ. eigenvalues --   -0.79018  -0.76994  -0.76339  -0.71305  -0.70229
 Alpha  occ. eigenvalues --   -0.69700  -0.68619  -0.65992  -0.63914  -0.60593
 Alpha  occ. eigenvalues --   -0.59098  -0.57845  -0.56889  -0.55920  -0.54640
 Alpha  occ. eigenvalues --   -0.52264  -0.50772  -0.50263  -0.49850  -0.48637
 Alpha  occ. eigenvalues --   -0.48572  -0.47589  -0.39830  -0.39053
 Alpha virt. eigenvalues --    0.03074   0.04128   0.04509   0.05108   0.05783
 Alpha virt. eigenvalues --    0.06271   0.06551   0.06723   0.07417   0.07989
 Alpha virt. eigenvalues --    0.08814   0.09293   0.11488   0.11728   0.12096

 Mulliken charges:
               1
     1  Cl  -0.491969
     2  P    0.680794
     3  C    0.875904
     4  C    0.196123
     5  C    0.415315
     6  O   -0.470957
     7  O   -0.553817
     8  C    0.787288
     9  C    0.202468
    10  O   -0.485913
    11  O   -0.497445
    12  C    0.781933
    13  H   -0.314930
    14  H   -0.327380
    15  H   -0.078374
    16  H   -0.064140
    17  H   -0.251031
    18  H   -0.092914
    19  H   -0.256180
    20  H   -0.054776
 Sum of Mulliken charges =  -0.00000

 Dipole moment (field-independent basis, Debye):
    X=             -2.4765    Y=              1.1591    Z=             -0.8244  Tot=              2.8559

 Test job not archived.
 1\1\GINC-SE082\SP\RHF\Aug-CC-pVDZ\C6H8Cl1O4P1\OHZDE\08-Apr-2025\0\\#t
 hf aug-cc-pvdz iop(5/13=1,5/36=2,99/5=2) pseudo=read geom=check guess=
 (read,tcheck) scf=(maxcycle=1)\\title\\0,1\Cl,0,2.851882,-0.421814,-0.
 501455\P,0,1.073415,-1.561153,-0.473642\C,0,0.549375,-1.386395,1.28334
 6\C,0,-0.148677,-0.386794,0.399235\C,0,0.228381,1.064279,0.564631\O,0,
 0.693316,1.526598,1.575239\O,0,0.006372,1.75926,-0.557941\C,0,0.307525
 ,3.165906,-0.488072\C,0,-1.552702,-0.759284,0.032331\O,0,-1.89428,-1.9
 09161,-0.133673\O,0,-2.37543,0.291036,-0.056777\C,0,-3.741608,-0.01222

 Normal termination of Gaussian 16 at Tue Apr  8 23:26:17 2025.
