 Gaussian 16, Revision C.01,

 ----------------------------------------------------------------------
 #t hf aug-cc-pvdz symm=none int=(grid=ultrafine) guess=(read,tcheck) s
 table=(opt,rrhf)
 ----------------------------------------------------------------------
 -----
 title
 -----
 Symbolic Z-matrix:
 Charge =  0 Multiplicity = 1

 SCF Done:  E(RHF) =  -750.991433942     A.U. after   15 cycles
 Normal termination of Gaussian 16 at Wed Apr  9 00:47:00 2025.
 Gaussian 16:  ES64L-G16RevC.01  3-Jul-2019

 ----------------------------------------------------------------------
 #t hf aug-cc-pvdz iop(5/13=1,5/36=2,99/5=2) pseudo=read geom=check gue
 ss=(read,tcheck) scf=(maxcycle=1)
 ----------------------------------------------------------------------
 -----
 title
 -----
 Structure from the checkpoint file:  "BDE49_nonexpt_830_mol1.chk"
 Charge =  0 Multiplicity = 1

                         Standard orientation:
 ---------------------------------------------------------------------
 Center     Atomic      Atomic             Coordinates (Angstroms)
 Number     Number       Type             X           Y           Z
 ---------------------------------------------------------------------
      1          6           0       -1.925309    1.216375    0.204469
      2          6           0       -0.605930    0.823251    0.386056
      3          6           0       -2.910066    0.278767   -0.143761
      4          6           0       -2.522901   -1.059595   -0.308814
      5          6           0       -1.199691   -1.439405   -0.122410
      6          6           0       -0.203884   -0.515033    0.233289
      7          1           0       -0.939013   -2.484286   -0.260608
      8          1           0       -2.201234    2.259843    0.325284
      9          1           0        0.129645    1.577896    0.644553
     10          5           0        2.912130    0.325665   -0.150027
     11          8           0        2.726756    1.627002    0.239777
     12          8           0        3.944998   -0.083975   -0.945164
     13          7           0       -4.223382    0.678085   -0.383897
     14          1           0       -4.504663    1.535741    0.067644
     15          1           0       -4.919912   -0.046723   -0.293921
     16          1           0       -3.265703   -1.800361   -0.589607
     17          1           0        3.374382    2.260217   -0.093617
     18          1           0        4.556940    0.609172   -1.222370
     19         14           0        1.572203   -1.057433    0.514648
     20          1           0        1.822602   -1.287990    1.966415
     21          1           0        1.771794   -2.364734   -0.161304
 ---------------------------------------------------------------------

 SCF Done:  E(RHF) =  -751.157457726     A.U. after    2 cycles

 The electronic state is 1-A.
 Alpha  occ. eigenvalues --  -69.03490 -20.59381 -20.59254 -15.63141 -11.28934
 Alpha  occ. eigenvalues --  -11.24332 -11.24150 -11.22907 -11.22901 -11.21245
 Alpha  occ. eigenvalues --   -7.66272  -6.78960  -3.89713  -3.89681  -3.89641
 Alpha  occ. eigenvalues --   -1.35371  -1.31547  -1.19597  -1.10784  -1.00226
 Alpha  occ. eigenvalues --   -0.97254  -0.82948  -0.81145  -0.79506  -0.76116
 Alpha  occ. eigenvalues --   -0.71003  -0.68679  -0.67687  -0.65863  -0.61605
 Alpha  occ. eigenvalues --   -0.59825  -0.59408  -0.58134  -0.57536  -0.55919
 Alpha  occ. eigenvalues --   -0.53310  -0.53051  -0.48440  -0.46608  -0.44268
 Alpha  occ. eigenvalues --   -0.43888  -0.40781  -0.33626  -0.29052
 Alpha virt. eigenvalues --    0.02286   0.03305   0.04110   0.04885   0.05547
 Alpha virt. eigenvalues --    0.05822   0.06816   0.06947   0.07403   0.08082
 Alpha virt. eigenvalues --    0.08661   0.09287   0.09648   0.09883   0.10687

 Mulliken charges:
               1
     1  C    0.826196
     2  C    0.636890
     3  C    0.105005
     4  C    0.969689
     5  C    0.685702
     6  C   -0.396887
     7  H   -0.647026
     8  H   -0.590950
     9  H   -0.597434
    10  B    0.955758
    11  O   -0.561409
    12  O   -0.472723
    13  N   -0.292257
    14  H   -0.041282
    15  H   -0.036422
    16  H   -0.596824
    17  H    0.154439
    18  H    0.168248
    19  Si  -0.491873
    20  H    0.138029
    21  H    0.085131
 Sum of Mulliken charges =   0.00000

 Dipole moment (field-independent basis, Debye):
    X=              0.0736    Y=              2.6659    Z=             -0.3813  Tot=              2.6940

 Test job not archived.
 1\1\GINC-SE070\SP\RHF\Aug-CC-pVDZ\C6H10B1N1O2Si1\OHZDE\09-Apr-2025\0\\
 #t hf aug-cc-pvdz iop(5/13=1,5/36=2,99/5=2) pseudo=read geom=check gue
 ss=(read,tcheck) scf=(maxcycle=1)\\title\\0,1\C,0,-1.925309,1.216375,0
 .204469\C,0,-0.60593,0.823251,0.386056\C,0,-2.910066,0.278767,-0.14376
 1\C,0,-2.522901,-1.059595,-0.308814\C,0,-1.199691,-1.439405,-0.12241\C
 ,0,-0.203884,-0.515033,0.233289\H,0,-0.939013,-2.484286,-0.260608\H,0,
 -2.201234,2.259843,0.325284\H,0,0.129645,1.577896,0.644553\B,0,2.91213
 ,0.325665,-0.150027\O,0,2.726756,1.627002,0.239777\O,0,3.944998,-0.083

 Normal termination of Gaussian 16 at Wed Apr  9 00:47:14 2025.
