 Gaussian 16, Revision C.01,

 ----------------------------------------------------------------------
 #t hf aug-cc-pvdz symm=none int=(grid=ultrafine) guess=(read,tcheck) s
 table=(opt,rrhf)
 ----------------------------------------------------------------------
 -----
 title
 -----
 Symbolic Z-matrix:
 Charge =  0 Multiplicity = 1

 SCF Done:  E(RHF) =  -743.089376929     A.U. after   16 cycles
 Normal termination of Gaussian 16 at Wed Apr  9 00:21:57 2025.
 Gaussian 16:  ES64L-G16RevC.01  3-Jul-2019

 ----------------------------------------------------------------------
 #t hf aug-cc-pvdz iop(5/13=1,5/36=2,99/5=2) pseudo=read geom=check gue
 ss=(read,tcheck) scf=(maxcycle=1)
 ----------------------------------------------------------------------
 -----
 title
 -----
 Structure from the checkpoint file:  "BDE49_nonexpt_2691_mol1.chk"
 Charge =  0 Multiplicity = 1

                         Standard orientation:
 ---------------------------------------------------------------------
 Center     Atomic      Atomic             Coordinates (Angstroms)
 Number     Number       Type             X           Y           Z
 ---------------------------------------------------------------------
      1          9           0       -2.470964    0.367092    0.950855
      2         16           0       -1.873360   -0.229556   -0.509278
      3          6           0       -0.142929   -0.073752   -0.216365
      4          6           0        0.499900    1.170121   -0.252261
      5          6           0        0.631624   -1.216895    0.027179
      6          7           0        1.952553   -1.184998    0.207619
      7          6           0        1.869535    1.212808   -0.036237
      8          6           0        2.547068    0.011402    0.180193
      9          1           0       -0.072371    2.070196   -0.441660
     10          1           0        2.410520    2.151346   -0.046766
     11          1           0        0.153688   -2.190706    0.070082
     12          1           0        3.621537    0.011113    0.340698
 ---------------------------------------------------------------------

 SCF Done:  E(RHF) =  -743.217409127     A.U. after    2 cycles

 The electronic state is 1-A.
 Alpha  occ. eigenvalues --  -93.62798 -26.12174 -15.65237 -11.31658 -11.31563
 Alpha  occ. eigenvalues --  -11.29876 -11.29680 -11.27313  -8.91615  -6.25809
 Alpha  occ. eigenvalues --   -6.25501  -6.25051  -1.62991  -1.25711  -1.11547
 Alpha  occ. eigenvalues --   -1.06866  -0.96730  -0.88480  -0.85571  -0.74780
 Alpha  occ. eigenvalues --   -0.72605  -0.72444  -0.69823  -0.69304  -0.64457
 Alpha  occ. eigenvalues --   -0.60287  -0.57956  -0.56629  -0.51030  -0.43739
 Alpha  occ. eigenvalues --   -0.41618  -0.39204  -0.37159
 Alpha virt. eigenvalues --    0.02834   0.03621   0.04246   0.04534   0.06051
 Alpha virt. eigenvalues --    0.07450   0.07917   0.08525   0.10176   0.10530
 Alpha virt. eigenvalues --    0.11854   0.12082   0.13009   0.14076   0.14717

 Mulliken charges:
               1
     1  F   -0.613302
     2  S    0.648686
     3  C    0.203837
     4  C   -0.015274
     5  C    0.654785
     6  N   -0.503693
     7  C    0.595581
     8  C    0.510654
     9  H   -0.415211
    10  H   -0.378203
    11  H   -0.358828
    12  H   -0.329033
 Sum of Mulliken charges =  -0.00000

 Dipole moment (field-independent basis, Debye):
    X=              2.3207    Y=              1.4312    Z=             -1.5614  Tot=              3.1419

 Test job not archived.
 1\1\GINC-SE074\SP\RHF\Aug-CC-pVDZ\C5H4F1N1S1\OHZDE\09-Apr-2025\0\\#t h
 f aug-cc-pvdz iop(5/13=1,5/36=2,99/5=2) pseudo=read geom=check guess=(
 read,tcheck) scf=(maxcycle=1)\\title\\0,1\F,0,-2.470964,0.367092,0.950
 855\S,0,-1.87336,-0.229556,-0.509278\C,0,-0.142929,-0.073752,-0.216365
 \C,0,0.4999,1.170121,-0.252261\C,0,0.631624,-1.216895,0.027179\N,0,1.9
 52553,-1.184998,0.207619\C,0,1.869535,1.212808,-0.036237\C,0,2.547068,
 0.011402,0.180193\H,0,-0.072371,2.070196,-0.44166\H,0,2.41052,2.151346
 ,-0.046766\H,0,0.153688,-2.190706,0.070082\H,0,3.621537,0.011113,0.340

 Normal termination of Gaussian 16 at Wed Apr  9 00:22:02 2025.
