 Gaussian 16, Revision C.01,

 ----------------------------------------------------------------------
 #t hf aug-cc-pvdz symm=none int=(grid=ultrafine) guess=(read,tcheck) s
 table=(opt,rrhf)
 ----------------------------------------------------------------------
 -----
 title
 -----
 Symbolic Z-matrix:
 Charge =  0 Multiplicity = 1

 SCF Done:  E(RHF) =  -479.919181550     A.U. after   14 cycles
 Normal termination of Gaussian 16 at Tue Apr  8 23:49:25 2025.
 Gaussian 16:  ES64L-G16RevC.01  3-Jul-2019

 ----------------------------------------------------------------------
 #t hf aug-cc-pvdz iop(5/13=1,5/36=2,99/5=2) pseudo=read geom=check gue
 ss=(read,tcheck) scf=(maxcycle=1)
 ----------------------------------------------------------------------
 -----
 title
 -----
 Structure from the checkpoint file:  "BDE49_nonexpt_1885_mol1.chk"
 Charge =  0 Multiplicity = 1

                         Standard orientation:
 ---------------------------------------------------------------------
 Center     Atomic      Atomic             Coordinates (Angstroms)
 Number     Number       Type             X           Y           Z
 ---------------------------------------------------------------------
      1          6           0       -0.080073    0.614050    0.025053
      2         14           0        1.681708   -0.101032    0.002557
      3          8           0       -0.963713   -0.488319   -0.041373
      4          1           0        2.615147    1.046486    0.089185
      5          1           0        1.926489   -0.845494   -1.251028
      6          8           0       -2.327950    0.043014   -0.082401
      7          1           0       -2.697222   -0.393581    0.697502
      8          1           0        1.892049   -0.994581    1.162705
      9          1           0       -0.222731    1.281094   -0.834889
     10          1           0       -0.243894    1.198671    0.940603
 ---------------------------------------------------------------------

 SCF Done:  E(RHF) =  -480.004432239     A.U. after    2 cycles

 The electronic state is 1-A.
 Alpha  occ. eigenvalues --  -69.06965 -20.64568 -20.63941 -11.28640  -6.82316
 Alpha  occ. eigenvalues --   -3.93106  -3.93086  -3.93074  -1.42284  -1.21169
 Alpha  occ. eigenvalues --   -0.91336  -0.74240  -0.70879  -0.67135  -0.65276
 Alpha  occ. eigenvalues --   -0.59593  -0.52426  -0.48792  -0.48626  -0.46928
 Alpha  occ. eigenvalues --   -0.45547
 Alpha virt. eigenvalues --    0.03328   0.04412   0.05247   0.05321   0.07143
 Alpha virt. eigenvalues --    0.07910   0.08499   0.09165   0.09753   0.12648
 Alpha virt. eigenvalues --    0.15447   0.15636   0.16096   0.16755   0.17328

 Mulliken charges:
               1
     1  C    0.496244
     2  Si   0.536678
     3  O   -0.423772
     4  H   -0.045983
     5  H   -0.050720
     6  O   -0.256431
     7  H    0.209639
     8  H   -0.063334
     9  H   -0.198310
    10  H   -0.204011
 Sum of Mulliken charges =  -0.00000

 Dipole moment (field-independent basis, Debye):
    X=              0.3456    Y=              0.6720    Z=              1.4447  Tot=              1.6304

 Test job not archived.
 1\1\GINC-SE435\SP\RHF\Aug-CC-pVDZ\C1H6O2Si1\OHZDE\08-Apr-2025\0\\#t hf
  aug-cc-pvdz iop(5/13=1,5/36=2,99/5=2) pseudo=read geom=check guess=(r
 ead,tcheck) scf=(maxcycle=1)\\title\\0,1\C,0,-0.080073,0.61405,0.02505
 3\Si,0,1.681708,-0.101032,0.002557\O,0,-0.963713,-0.488319,-0.041373\H
 ,0,2.615147,1.046486,0.089185\H,0,1.926489,-0.845494,-1.251028\O,0,-2.
 32795,0.043014,-0.082401\H,0,-2.697222,-0.393581,0.697502\H,0,1.892049
 ,-0.994581,1.162705\H,0,-0.222731,1.281094,-0.834889\H,0,-0.243894,1.1
 98671,0.940603\\Version=ES64L-G16RevC.01\State=1-A\HF=-480.0044322\RMS

 Normal termination of Gaussian 16 at Tue Apr  8 23:49:28 2025.
