 Gaussian 16, Revision C.01,

 ----------------------------------------------------------------------
 #t hf aug-cc-pvdz symm=none int=(grid=ultrafine) guess=(read,tcheck) s
 table=(opt,rrhf)
 ----------------------------------------------------------------------
 -----
 title
 -----
 Symbolic Z-matrix:
 Charge =  0 Multiplicity = 1

 SCF Done:  E(RHF) =  -647.931462196     A.U. after   16 cycles
 Normal termination of Gaussian 16 at Tue Apr  8 22:47:55 2025.
 Gaussian 16:  ES64L-G16RevC.01  3-Jul-2019

 ----------------------------------------------------------------------
 #t hf aug-cc-pvdz iop(5/13=1,5/36=2,99/5=2) pseudo=read geom=check gue
 ss=(read,tcheck) scf=(maxcycle=1)
 ----------------------------------------------------------------------
 -----
 title
 -----
 Structure from the checkpoint file:  "BDE49_expt_1456_mol1.chk"
 Charge =  0 Multiplicity = 1

                         Standard orientation:
 ---------------------------------------------------------------------
 Center     Atomic      Atomic             Coordinates (Angstroms)
 Number     Number       Type             X           Y           Z
 ---------------------------------------------------------------------
      1          8           0        0.429048    0.409954    0.122333
      2          6           0       -0.432525   -0.612546   -0.172886
      3          6           0        1.812472    0.226502    0.071932
      4          8           0       -0.079113   -1.717566   -0.491304
      5          6           0       -1.851050   -0.175208   -0.051593
      6          6           0        2.451042   -0.839849    0.698300
      7          6           0        2.537874    1.222588   -0.572945
      8          6           0        3.928107    1.150885   -0.594497
      9          6           0        4.584034    0.088210    0.023075
     10          6           0        3.842221   -0.900948    0.665883
     11          1           0        4.346573   -1.730366    1.148327
     12          1           0        1.873783   -1.610851    1.187901
     13          1           0        4.496028    1.926225   -1.095739
     14          1           0        5.666080    0.030993    0.004363
     15          1           0        2.006253    2.039326   -1.045702
     16          6           0       -2.212319    1.114897    0.353039
     17          6           0       -2.844660   -1.111928   -0.357943
     18          6           0       -4.185997   -0.761985   -0.262057
     19          6           0       -4.543424    0.524267    0.142025
     20          6           0       -3.556622    1.459868    0.449358
     21          1           0       -1.441257    1.835325    0.590085
     22          1           0       -3.835119    2.459034    0.764061
     23          1           0       -2.543734   -2.104760   -0.668104
     24          1           0       -4.952897   -1.489680   -0.501072
     25          1           0       -5.590122    0.797126    0.217503
 ---------------------------------------------------------------------

 SCF Done:  E(RHF) =  -648.124359147     A.U. after    2 cycles

 The electronic state is 1-A.
 Alpha  occ. eigenvalues --  -20.63096 -20.56741 -11.40834 -11.31739 -11.26710
 Alpha  occ. eigenvalues --  -11.26608 -11.26551 -11.26283 -11.25748 -11.25676
 Alpha  occ. eigenvalues --  -11.25237 -11.25145 -11.24936 -11.24809 -11.24597
 Alpha  occ. eigenvalues --   -1.43030  -1.34112  -1.16344  -1.14779  -1.05276
 Alpha  occ. eigenvalues --   -1.02705  -1.01978  -1.01256  -0.90854  -0.85543
 Alpha  occ. eigenvalues --   -0.84567  -0.83197  -0.78489  -0.74733  -0.72006
 Alpha  occ. eigenvalues --   -0.69439  -0.68411  -0.67814  -0.64894  -0.64111
 Alpha  occ. eigenvalues --   -0.62783  -0.61548  -0.60913  -0.59916  -0.58757
 Alpha  occ. eigenvalues --   -0.53938  -0.53536  -0.52857  -0.51370  -0.51253
 Alpha  occ. eigenvalues --   -0.50641  -0.48927  -0.47374  -0.36057  -0.35421
 Alpha  occ. eigenvalues --   -0.34642  -0.33632
 Alpha virt. eigenvalues --    0.03016   0.03532   0.03942   0.04447   0.04613
 Alpha virt. eigenvalues --    0.05797   0.06063   0.06508   0.06682   0.07004
 Alpha virt. eigenvalues --    0.08538   0.09807   0.10001   0.10237   0.10761

 Mulliken charges:
               1
     1  O   -0.579473
     2  C   -0.710157
     3  C    0.362041
     4  O   -0.393574
     5  C    1.581577
     6  C    0.573553
     7  C    0.457171
     8  C    0.603655
     9  C    0.640790
    10  C    0.599355
    11  H   -0.445358
    12  H   -0.606356
    13  H   -0.431525
    14  H   -0.451237
    15  H   -0.556105
    16  C    0.391647
    17  C   -0.049079
    18  C    0.559857
    19  C    0.526363
    20  C    0.448437
    21  H   -0.598569
    22  H   -0.455907
    23  H   -0.608581
    24  H   -0.424753
    25  H   -0.433772
 Sum of Mulliken charges =   0.00000

 Dipole moment (field-independent basis, Debye):
    X=             -1.2496    Y=              1.8754    Z=              0.6069  Tot=              2.3339

 Test job not archived.
 1\1\GINC-SE457\SP\RHF\Aug-CC-pVDZ\C13H10O2\OHZDE\08-Apr-2025\0\\#t hf
 aug-cc-pvdz iop(5/13=1,5/36=2,99/5=2) pseudo=read geom=check guess=(re
 ad,tcheck) scf=(maxcycle=1)\\title\\0,1\O,0,-0.429048,-0.409954,0.1223
 33\C,0,0.432525,0.612546,-0.172886\C,0,-1.812472,-0.226502,0.071932\O,
 0,0.079113,1.717566,-0.491304\C,0,1.85105,0.175208,-0.051593\C,0,-2.45
 1042,0.839849,0.6983\C,0,-2.537874,-1.222588,-0.572945\C,0,-3.928107,-
 1.150885,-0.594497\C,0,-4.584034,-0.08821,0.023075\C,0,-3.842221,0.900
 948,0.665883\H,0,-4.346573,1.730366,1.148327\H,0,-1.873783,1.610851,1.

 Normal termination of Gaussian 16 at Tue Apr  8 22:48:16 2025.
