 Gaussian 16, Revision C.01,

 ----------------------------------------------------------------------
 #t hf aug-cc-pvdz symm=none int=(grid=ultrafine) guess=(read,tcheck) s
 table=(opt,rrhf)
 ----------------------------------------------------------------------
 -----
 title
 -----
 Symbolic Z-matrix:
 Charge =  0 Multiplicity = 1

 SCF Done:  E(RHF) =  -789.212813428     A.U. after   12 cycles
 Normal termination of Gaussian 16 at Tue Apr  8 23:55:18 2025.
 Gaussian 16:  ES64L-G16RevC.01  3-Jul-2019

 ----------------------------------------------------------------------
 #t hf aug-cc-pvdz iop(5/13=1,5/36=2,99/5=2) pseudo=read geom=check gue
 ss=(read,tcheck) scf=(maxcycle=1)
 ----------------------------------------------------------------------
 -----
 title
 -----
 Structure from the checkpoint file:  "BDE49_nonexpt_2024_mol1.chk"
 Charge =  0 Multiplicity = 1

                         Standard orientation:
 ---------------------------------------------------------------------
 Center     Atomic      Atomic             Coordinates (Angstroms)
 Number     Number       Type             X           Y           Z
 ---------------------------------------------------------------------
      1         14           0       -1.512094   -0.192233   -0.000000
      2          6           0        0.073050    0.841675   -0.000000
      3         17           0        1.541632   -0.233783   -0.000000
      4          1           0        0.149179    1.473907    0.884542
      5          1           0        0.149179    1.473907   -0.884541
      6          1           0       -1.554769   -1.036409    1.212117
      7          1           0       -1.554769   -1.036409   -1.212117
      8          1           0       -2.665555    0.740530   -0.000000
 ---------------------------------------------------------------------

 SCF Done:  E(RHF) =  -789.268227691     A.U. after    2 cycles

 The electronic state is 1-A.
 Alpha  occ. eigenvalues -- -103.65505 -69.07783 -11.29692 -10.68731  -8.34449
 Alpha  occ. eigenvalues --   -8.34161  -8.34153  -6.83085  -3.93871  -3.93857
 Alpha  occ. eigenvalues --   -3.93841  -1.15594  -0.92232  -0.70959  -0.62738
 Alpha  occ. eigenvalues --   -0.57291  -0.52244  -0.48890  -0.48840  -0.45119
 Alpha  occ. eigenvalues --   -0.42818
 Alpha virt. eigenvalues --    0.03264   0.04568   0.04899   0.06391   0.07527
 Alpha virt. eigenvalues --    0.08229   0.08684   0.09442   0.09447   0.14500
 Alpha virt. eigenvalues --    0.15495   0.15659   0.16620   0.16883   0.17622

 Mulliken charges:
               1
     1  Si   0.699084
     2  C   -0.172406
     3  Cl  -0.219572
     4  H   -0.058872
     5  H   -0.058874
     6  H   -0.057540
     7  H   -0.057540
     8  H   -0.074280
 Sum of Mulliken charges =  -0.00000

 Dipole moment (field-independent basis, Debye):
    X=             -1.6063    Y=              1.3911    Z=              0.0000  Tot=              2.1249

 Test job not archived.
 1\1\GINC-SE080\SP\RHF\Aug-CC-pVDZ\C1H5Cl1Si1\OHZDE\08-Apr-2025\0\\#t h
 f aug-cc-pvdz iop(5/13=1,5/36=2,99/5=2) pseudo=read geom=check guess=(
 read,tcheck) scf=(maxcycle=1)\\title\\0,1\Si,0,1.512094,-0.192233,0.\C
 ,0,-0.07305,0.841675,0.\Cl,0,-1.541632,-0.233783,0.\H,0,-0.149179,1.47
 3907,-0.884542\H,0,-0.149179,1.473907,0.884541\H,0,1.554769,-1.036409,
 -1.212117\H,0,1.554769,-1.036409,1.212117\H,0,2.665555,0.74053,0.\\Ver
 sion=ES64L-G16RevC.01\State=1-A\HF=-789.2682277\RMSD=4.564e-03\Dipole=
 0.6319764,0.5472866,0.\Quadrupole=-1.7367122,1.3095601,0.4271521,-0.23

 Normal termination of Gaussian 16 at Tue Apr  8 23:55:21 2025.
