 Gaussian 16, Revision C.01,

 ----------------------------------------------------------------------
 #t hf aug-cc-pvdz symm=none int=(grid=ultrafine) guess=(read,tcheck) s
 table=(opt,rrhf)
 ----------------------------------------------------------------------
 -----
 title
 -----
 Symbolic Z-matrix:
 Charge =  0 Multiplicity = 1

 SCF Done:  E(RHF) =  -611.081514582     A.U. after   15 cycles
 Normal termination of Gaussian 16 at Tue Apr  8 23:27:50 2025.
 Gaussian 16:  ES64L-G16RevC.01  3-Jul-2019

 ----------------------------------------------------------------------
 #t hf aug-cc-pvdz iop(5/13=1,5/36=2,99/5=2) pseudo=read geom=check gue
 ss=(read,tcheck) scf=(maxcycle=1)
 ----------------------------------------------------------------------
 -----
 title
 -----
 Structure from the checkpoint file:  "BDE49_nonexpt_1337_mol1.chk"
 Charge =  0 Multiplicity = 1

                         Standard orientation:
 ---------------------------------------------------------------------
 Center     Atomic      Atomic             Coordinates (Angstroms)
 Number     Number       Type             X           Y           Z
 ---------------------------------------------------------------------
      1          6           0       -2.621115    0.232957    1.063006
      2         15           0       -1.915560   -0.253191   -0.595448
      3          1           0       -2.438494   -0.575626    1.773790
      4          1           0       -3.702578    0.355272    0.961794
      5          1           0       -2.188911    1.154209    1.457157
      6          6           0       -0.106729   -0.070362   -0.273104
      7          6           0        0.546387    1.169756   -0.236192
      8          6           0        0.649955   -1.229947   -0.060293
      9          6           0        2.016655   -1.153763    0.201314
     10          6           0        2.651814    0.085071    0.235836
     11          6           0        1.914344    1.246825    0.011774
     12          1           0        3.716781    0.145937    0.430110
     13          1           0        2.405217    2.213758    0.030718
     14          1           0       -0.017200    2.080940   -0.406020
     15          1           0        0.166076   -2.200168   -0.107745
     16          1           0        2.585669   -2.061803    0.367533
     17          1           0       -2.101015    1.002125   -1.229659
 ---------------------------------------------------------------------

 SCF Done:  E(RHF) =  -611.184445217     A.U. after    2 cycles

 The electronic state is 1-A.
 Alpha  occ. eigenvalues --  -81.25381 -11.25173 -11.25084 -11.25068 -11.24982
 Alpha  occ. eigenvalues --  -11.24876 -11.24808 -11.23608  -7.75664  -4.89758
 Alpha  occ. eigenvalues --   -4.89614  -4.89366  -1.14543  -1.01823  -1.01381
 Alpha  occ. eigenvalues --   -0.95613  -0.83448  -0.83159  -0.74780  -0.69100
 Alpha  occ. eigenvalues --   -0.63738  -0.63168  -0.59564  -0.58175  -0.57304
 Alpha  occ. eigenvalues --   -0.54824  -0.51634  -0.50130  -0.47724  -0.46064
 Alpha  occ. eigenvalues --   -0.35722  -0.34420  -0.32582
 Alpha virt. eigenvalues --    0.03326   0.04012   0.04250   0.05283   0.05626
 Alpha virt. eigenvalues --    0.06110   0.07094   0.07796   0.08663   0.09428
 Alpha virt. eigenvalues --    0.09731   0.09971   0.10615   0.12010   0.13043

 Mulliken charges:
               1
     1  C    0.191153
     2  P    0.088168
     3  H   -0.116246
     4  H   -0.201472
     5  H   -0.152019
     6  C   -0.046680
     7  C    0.587964
     8  C    0.294640
     9  C    0.546464
    10  C    0.531949
    11  C    0.548140
    12  H   -0.432344
    13  H   -0.441643
    14  H   -0.592155
    15  H   -0.508271
    16  H   -0.442288
    17  H    0.144640
 Sum of Mulliken charges =   0.00000

 Dipole moment (field-independent basis, Debye):
    X=              0.6051    Y=              0.7550    Z=              0.9328  Tot=              1.3440

 Test job not archived.
 1\1\GINC-SE339\SP\RHF\Aug-CC-pVDZ\C7H9P1\OHZDE\08-Apr-2025\0\\#t hf au
 g-cc-pvdz iop(5/13=1,5/36=2,99/5=2) pseudo=read geom=check guess=(read
 ,tcheck) scf=(maxcycle=1)\\title\\0,1\C,0,-2.621115,0.232957,1.063006\
 P,0,-1.91556,-0.253191,-0.595448\H,0,-2.438494,-0.575626,1.77379\H,0,-
 3.702578,0.355272,0.961794\H,0,-2.188911,1.154209,1.457157\C,0,-0.1067
 29,-0.070362,-0.273104\C,0,0.546387,1.169756,-0.236192\C,0,0.649955,-1
 .229947,-0.060293\C,0,2.016655,-1.153763,0.201314\C,0,2.651814,0.08507
 1,0.235836\C,0,1.914344,1.246825,0.011774\H,0,3.716781,0.145937,0.4301

 Normal termination of Gaussian 16 at Tue Apr  8 23:27:58 2025.
