 Gaussian 16, Revision C.01,

 ----------------------------------------------------------------------
 #t hf aug-cc-pvdz symm=none int=(grid=ultrafine) guess=(read,tcheck) s
 table=(opt,rrhf)
 ----------------------------------------------------------------------
 -----
 title
 -----
 Symbolic Z-matrix:
 Charge =  0 Multiplicity = 1

 SCF Done:  E(RHF) =  -1292.60056110     A.U. after   14 cycles
 Normal termination of Gaussian 16 at Wed Apr  9 00:20:35 2025.
 Gaussian 16:  ES64L-G16RevC.01  3-Jul-2019

 ----------------------------------------------------------------------
 #t hf aug-cc-pvdz iop(5/13=1,5/36=2,99/5=2) pseudo=read geom=check gue
 ss=(read,tcheck) scf=(maxcycle=1)
 ----------------------------------------------------------------------
 -----
 title
 -----
 Structure from the checkpoint file:  "BDE49_nonexpt_2662_mol1.chk"
 Charge =  0 Multiplicity = 1

                         Standard orientation:
 ---------------------------------------------------------------------
 Center     Atomic      Atomic             Coordinates (Angstroms)
 Number     Number       Type             X           Y           Z
 ---------------------------------------------------------------------
      1          9           0       -1.991907    0.949894    0.449455
      2         16           0       -1.317426   -0.253926   -0.515740
      3         16           0        0.357992   -0.804428    0.426457
      4         16           0        1.966244    0.438699   -0.210674
      5          1           0        1.818219    1.365438    0.754225
 ---------------------------------------------------------------------

 SCF Done:  E(RHF) =  -1292.70154334     A.U. after    2 cycles

 The electronic state is 1-A.
 Alpha  occ. eigenvalues --  -93.65920 -93.62220 -93.58998 -26.13604  -8.94681
 Alpha  occ. eigenvalues --   -8.91673  -8.88609  -6.28770  -6.28428  -6.27982
 Alpha  occ. eigenvalues --   -6.25712  -6.25408  -6.25109  -6.22677  -6.22478
 Alpha  occ. eigenvalues --   -6.22101  -1.64462  -1.09709  -0.98531  -0.85631
 Alpha  occ. eigenvalues --   -0.73886  -0.73507  -0.69308  -0.59196  -0.51996
 Alpha  occ. eigenvalues --   -0.51666  -0.43010  -0.39938  -0.39348
 Alpha virt. eigenvalues --    0.03687   0.04555   0.05507   0.06859   0.10041
 Alpha virt. eigenvalues --    0.10388   0.11800   0.12368   0.12946   0.13411
 Alpha virt. eigenvalues --    0.14543   0.15627   0.17112   0.17943   0.20303

 Mulliken charges:
               1
     1  F   -0.585867
     2  S    0.574318
     3  S   -0.064648
     4  S   -0.095925
     5  H    0.172122
 Sum of Mulliken charges =  -0.00000

 Dipole moment (field-independent basis, Debye):
    X=              1.5483    Y=             -0.5066    Z=             -0.3313  Tot=              1.6625

 Test job not archived.
 1\1\GINC-SE363\SP\RHF\Aug-CC-pVDZ\F1H1S3\OHZDE\09-Apr-2025\0\\#t hf au
 g-cc-pvdz iop(5/13=1,5/36=2,99/5=2) pseudo=read geom=check guess=(read
 ,tcheck) scf=(maxcycle=1)\\title\\0,1\F,0,-1.991907,0.949894,0.449455\
 S,0,-1.317426,-0.253926,-0.51574\S,0,0.357992,-0.804428,0.426457\S,0,1
 .966244,0.438699,-0.210674\H,0,1.818219,1.365438,0.754225\\Version=ES6
 4L-G16RevC.01\State=1-A\HF=-1292.7015433\RMSD=5.884e-03\Dipole=0.60916
 14,-0.1993206,-0.130348\Quadrupole=-1.0115595,0.6418551,0.3697044,3.20
 94562,2.2066551,0.8384477\PG=C01 [X(F1H1S3)]\\@

 Normal termination of Gaussian 16 at Wed Apr  9 00:20:37 2025.
