 Gaussian 16, Revision C.01,

 ----------------------------------------------------------------------
 #t hf aug-cc-pvdz symm=none int=(grid=ultrafine) guess=(read,tcheck) s
 table=(opt,rrhf)
 ----------------------------------------------------------------------
 -----
 title
 -----
 Symbolic Z-matrix:
 Charge =  0 Multiplicity = 1

 SCF Done:  E(RHF) =  -296.547985688     A.U. after   13 cycles
 Normal termination of Gaussian 16 at Wed Apr  9 00:25:34 2025.
 Gaussian 16:  ES64L-G16RevC.01  3-Jul-2019

 ----------------------------------------------------------------------
 #t hf aug-cc-pvdz iop(5/13=1,5/36=2,99/5=2) pseudo=read geom=check gue
 ss=(read,tcheck) scf=(maxcycle=1)
 ----------------------------------------------------------------------
 -----
 title
 -----
 Structure from the checkpoint file:  "BDE49_nonexpt_288_mol1.chk"
 Charge =  0 Multiplicity = 1

                         Standard orientation:
 ---------------------------------------------------------------------
 Center     Atomic      Atomic             Coordinates (Angstroms)
 Number     Number       Type             X           Y           Z
 ---------------------------------------------------------------------
      1          6           0        0.865196   -0.017389    0.004418
      2          5           0       -1.783349    0.369653   -0.144082
      3          8           0       -2.954140   -0.304512    0.014927
      4          6           0        1.941456   -1.011478   -0.470716
      5          1           0        2.006259   -1.027231   -1.563207
      6          1           0        1.713868   -2.028024   -0.135273
      7          6           0        0.806830   -0.037923    1.544087
      8          1           0        0.521283   -1.027766    1.913780
      9          1           0        0.078205    0.685380    1.924981
     10          1           0        1.779295    0.213914    1.978839
     11          1           0        2.928194   -0.741849   -0.080138
     12          6           0        1.246735    1.394806   -0.477564
     13          1           0        2.227458    1.684165   -0.086845
     14          1           0        0.523183    2.144919   -0.149867
     15          1           0        1.299401    1.434748   -1.570333
     16          6           0       -0.511580   -0.444664   -0.574534
     17          1           0       -0.683384   -1.508800   -0.368228
     18          1           0       -0.460682   -0.369758   -1.673884
     19          1           0       -3.692840    0.268873    0.238900
     20          1           0       -1.782205    1.559149    0.018129
 ---------------------------------------------------------------------

 SCF Done:  E(RHF) =  -296.645839187     A.U. after    2 cycles

 The electronic state is 1-A.
 Alpha  occ. eigenvalues --  -20.58578 -11.24186 -11.21906 -11.21638 -11.21578
 Alpha  occ. eigenvalues --  -11.19909  -7.62710  -1.32727  -1.08740  -0.92455
 Alpha  occ. eigenvalues --   -0.92387  -0.92119  -0.77055  -0.71940  -0.65961
 Alpha  occ. eigenvalues --   -0.61277  -0.60828  -0.60475  -0.56376  -0.55648
 Alpha  occ. eigenvalues --   -0.54396  -0.52247  -0.51055  -0.50466  -0.47892
 Alpha  occ. eigenvalues --   -0.45278  -0.44974  -0.42506
 Alpha virt. eigenvalues --    0.02805   0.04209   0.04598   0.04783   0.06129
 Alpha virt. eigenvalues --    0.06302   0.06395   0.06900   0.07180   0.08552
 Alpha virt. eigenvalues --    0.09076   0.09224   0.09402   0.09829   0.11320

 Mulliken charges:
               1
     1  C   -4.670310
     2  B    0.342357
     3  O   -0.551289
     4  C    1.387054
     5  H   -0.004164
     6  H   -0.030097
     7  C    1.241253
     8  H   -0.001186
     9  H   -0.071810
    10  H   -0.040761
    11  H   -0.040369
    12  C    1.281137
    13  H   -0.011840
    14  H   -0.075148
    15  H   -0.033313
    16  C    1.215202
    17  H   -0.232484
    18  H   -0.146720
    19  H    0.176420
    20  H    0.266067
 Sum of Mulliken charges =   0.00000

 Dipole moment (field-independent basis, Debye):
    X=             -0.4798    Y=              1.0744    Z=              0.1912  Tot=              1.1921

 Test job not archived.
 1\1\GINC-SE363\SP\RHF\Aug-CC-pVDZ\C5H13B1O1\OHZDE\09-Apr-2025\0\\#t hf
  aug-cc-pvdz iop(5/13=1,5/36=2,99/5=2) pseudo=read geom=check guess=(r
 ead,tcheck) scf=(maxcycle=1)\\title\\0,1\C,0,0.865196,-0.017389,0.0044
 18\B,0,-1.783349,0.369653,-0.144082\O,0,-2.95414,-0.304512,0.014927\C,
 0,1.941456,-1.011478,-0.470716\H,0,2.006259,-1.027231,-1.563207\H,0,1.
 713868,-2.028024,-0.135273\C,0,0.80683,-0.037923,1.544087\H,0,0.521283
 ,-1.027766,1.91378\H,0,0.078205,0.68538,1.924981\H,0,1.779295,0.213914
 ,1.978839\H,0,2.928194,-0.741849,-0.080138\C,0,1.246735,1.394806,-0.47

 Normal termination of Gaussian 16 at Wed Apr  9 00:25:43 2025.
