 Gaussian 16, Revision C.01,

 ----------------------------------------------------------------------
 #t hf aug-cc-pvdz symm=none int=(grid=ultrafine) guess=(read,tcheck) s
 table=(opt,rrhf)
 ----------------------------------------------------------------------
 -----
 title
 -----
 Symbolic Z-matrix:
 Charge =  0 Multiplicity = 1

 SCF Done:  E(RHF) =  -1013.76419337     A.U. after   13 cycles
 Normal termination of Gaussian 16 at Wed Apr  9 00:16:01 2025.
 Gaussian 16:  ES64L-G16RevC.01  3-Jul-2019

 ----------------------------------------------------------------------
 #t hf aug-cc-pvdz iop(5/13=1,5/36=2,99/5=2) pseudo=read geom=check gue
 ss=(read,tcheck) scf=(maxcycle=1)
 ----------------------------------------------------------------------
 -----
 title
 -----
 Structure from the checkpoint file:  "BDE49_nonexpt_2544_mol1.chk"
 Charge =  0 Multiplicity = 1

                         Standard orientation:
 ---------------------------------------------------------------------
 Center     Atomic      Atomic             Coordinates (Angstroms)
 Number     Number       Type             X           Y           Z
 ---------------------------------------------------------------------
      1         17           0       -2.124126    0.264560   -0.000045
      2         16           0       -0.484808   -1.021376    0.000023
      3          6           0        0.972169    0.139950    0.000014
      4          6           0        2.153993   -0.848018    0.000012
      5          1           0        2.150590   -1.484432    0.888467
      6          1           0        3.087791   -0.278061    0.000006
      7          1           0        2.150582   -1.484439   -0.888437
      8          6           0        0.981483    1.000385   -1.266466
      9          1           0        1.873084    1.636354   -1.272310
     10          1           0        0.105751    1.650613   -1.309570
     11          1           0        0.992781    0.380598   -2.165113
     12          6           0        0.981494    1.000394    1.266489
     13          1           0        0.992800    0.380612    2.165139
     14          1           0        0.105762    1.650622    1.309595
     15          1           0        1.873095    1.636363    1.272320
 ---------------------------------------------------------------------

 SCF Done:  E(RHF) =  -1013.85264117     A.U. after    2 cycles

 The electronic state is 1-A.
 Alpha  occ. eigenvalues -- -103.66865 -93.58195 -11.30168 -11.25022 -11.23929
 Alpha  occ. eigenvalues --  -11.23919 -10.70013  -8.87532  -8.35743  -8.35421
 Alpha  occ. eigenvalues --   -8.35387  -6.21656  -6.21334  -6.20978  -1.16137
 Alpha  occ. eigenvalues --   -1.10508  -0.95362  -0.94759  -0.90654  -0.74569
 Alpha  occ. eigenvalues --   -0.63782  -0.62669  -0.62331  -0.57028  -0.56373
 Alpha  occ. eigenvalues --   -0.53602  -0.52008  -0.50584  -0.49858  -0.49200
 Alpha  occ. eigenvalues --   -0.48812  -0.42374  -0.35723
 Alpha virt. eigenvalues --    0.03233   0.04402   0.04747   0.05538   0.06485
 Alpha virt. eigenvalues --    0.06835   0.07003   0.07697   0.08119   0.09220
 Alpha virt. eigenvalues --    0.09337   0.12203   0.13403   0.13923   0.14385

 Mulliken charges:
               1
     1  Cl  -0.377653
     2  S    0.349606
     3  C   -2.296552
     4  C    1.003158
     5  H   -0.062492
     6  H    0.006930
     7  H   -0.062495
     8  C    0.822874
     9  H   -0.001197
    10  H   -0.053591
    11  H   -0.048333
    12  C    0.822863
    13  H   -0.048336
    14  H   -0.053585
    15  H   -0.001196
 Sum of Mulliken charges =  -0.00000

 Dipole moment (field-independent basis, Debye):
    X=              3.0006    Y=              0.5796    Z=              0.0000  Tot=              3.0561

 Test job not archived.
 1\1\GINC-SE253\SP\RHF\Aug-CC-pVDZ\C4H9Cl1S1\OHZDE\09-Apr-2025\0\\#t hf
  aug-cc-pvdz iop(5/13=1,5/36=2,99/5=2) pseudo=read geom=check guess=(r
 ead,tcheck) scf=(maxcycle=1)\\title\\0,1\Cl,0,2.124126,0.26456,0.00004
 5\S,0,0.484808,-1.021376,-0.000023\C,0,-0.972169,0.13995,-0.000014\C,0
 ,-2.153993,-0.848018,-0.000012\H,0,-2.15059,-1.484432,-0.888467\H,0,-3
 .087791,-0.278061,-0.000006\H,0,-2.150582,-1.484439,0.888437\C,0,-0.98
 1483,1.000385,1.266466\H,0,-1.873084,1.636354,1.27231\H,0,-0.105751,1.
 650613,1.30957\H,0,-0.992781,0.380598,2.165113\C,0,-0.981494,1.000394,

 Normal termination of Gaussian 16 at Wed Apr  9 00:16:07 2025.
