 Gaussian 16, Revision C.01,

 ----------------------------------------------------------------------
 #t hf aug-cc-pvdz symm=none int=(grid=ultrafine) guess=(read,tcheck) s
 table=(opt,rrhf)
 ----------------------------------------------------------------------
 -----
 title
 -----
 Symbolic Z-matrix:
 Charge =  0 Multiplicity = 1

 SCF Done:  E(RHF) =  -1454.78264227     A.U. after   14 cycles
 Normal termination of Gaussian 16 at Tue Apr  8 23:46:45 2025.
 Gaussian 16:  ES64L-G16RevC.01  3-Jul-2019

 ----------------------------------------------------------------------
 #t hf aug-cc-pvdz iop(5/13=1,5/36=2,99/5=2) pseudo=read geom=check gue
 ss=(read,tcheck) scf=(maxcycle=1)
 ----------------------------------------------------------------------
 -----
 title
 -----
 Structure from the checkpoint file:  "BDE49_nonexpt_1792_mol1.chk"
 Charge =  0 Multiplicity = 1

                         Standard orientation:
 ---------------------------------------------------------------------
 Center     Atomic      Atomic             Coordinates (Angstroms)
 Number     Number       Type             X           Y           Z
 ---------------------------------------------------------------------
      1          6           0        2.946277   -0.723188    0.644435
      2          6           0        1.582982   -0.834475    0.911393
      3          7           0        3.455231    0.120350   -0.256643
      4          6           0        2.594562    0.892135   -0.927732
      5          6           0        1.215729    0.859729   -0.735413
      6          6           0        0.681467   -0.026626    0.207037
      7          1           0        3.661530   -1.339518    1.181980
      8          1           0        1.242722   -1.540745    1.661545
      9          1           0        3.029556    1.572858   -1.654070
     10          1           0        0.578009    1.521874   -1.309628
     11         14           0       -1.143914   -0.188725    0.539674
     12         17           0       -1.995363   -1.559784   -0.757029
     13         17           0       -2.087307    1.632718    0.278019
     14          1           0       -1.404331   -0.660101    1.906080
 ---------------------------------------------------------------------

 SCF Done:  E(RHF) =  -1454.91465222     A.U. after    2 cycles

 The electronic state is 1-A.
 Alpha  occ. eigenvalues -- -103.67182-103.66841 -69.17220 -15.64997 -11.30086
 Alpha  occ. eigenvalues --  -11.29981 -11.27806 -11.27524 -11.27247 -10.70634
 Alpha  occ. eigenvalues --  -10.70282  -8.36327  -8.36096  -8.36094  -8.35976
 Alpha  occ. eigenvalues --   -8.35744  -8.35741  -6.91643  -4.02471  -4.02389
 Alpha  occ. eigenvalues --   -4.02288  -1.24704  -1.16697  -1.14346  -1.09126
 Alpha  occ. eigenvalues --   -1.04474  -0.87408  -0.87077  -0.75223  -0.68903
 Alpha  occ. eigenvalues --   -0.68440  -0.66671  -0.61793  -0.57615  -0.56795
 Alpha  occ. eigenvalues --   -0.55671  -0.55261  -0.53720  -0.49774  -0.49624
 Alpha  occ. eigenvalues --   -0.47934  -0.47367  -0.42434  -0.40172  -0.36490
 Alpha virt. eigenvalues --    0.03044   0.03703   0.04607   0.05372   0.05457
 Alpha virt. eigenvalues --    0.05886   0.06407   0.08385   0.08438   0.09087
 Alpha virt. eigenvalues --    0.09520   0.10251   0.11243   0.12405   0.13035

 Mulliken charges:
               1
     1  C    0.403294
     2  C    1.052914
     3  N   -0.388086
     4  C    0.390926
     5  C    1.179522
     6  C   -1.073144
     7  H   -0.324516
     8  H   -0.576504
     9  H   -0.324381
    10  H   -0.545615
    11  Si   1.208182
    12  Cl  -0.536581
    13  Cl  -0.501176
    14  H    0.035166
 Sum of Mulliken charges =  -0.00000

 Dipole moment (field-independent basis, Debye):
    X=              0.2127    Y=             -0.2554    Z=              1.1491  Tot=              1.1962

 Test job not archived.
 1\1\GINC-SE126\SP\RHF\Aug-CC-pVDZ\C5H5Cl2N1Si1\OHZDE\08-Apr-2025\0\\#t
  hf aug-cc-pvdz iop(5/13=1,5/36=2,99/5=2) pseudo=read geom=check guess
 =(read,tcheck) scf=(maxcycle=1)\\title\\0,1\C,0,2.946277,-0.723188,0.6
 44435\C,0,1.582982,-0.834475,0.911393\N,0,3.455231,0.12035,-0.256643\C
 ,0,2.594562,0.892135,-0.927732\C,0,1.215729,0.859729,-0.735413\C,0,0.6
 81467,-0.026626,0.207037\H,0,3.66153,-1.339518,1.18198\H,0,1.242722,-1
 .540745,1.661545\H,0,3.029556,1.572858,-1.65407\H,0,0.578009,1.521874,
 -1.309628\Si,0,-1.143914,-0.188725,0.539674\Cl,0,-1.995363,-1.559784,-

 Normal termination of Gaussian 16 at Tue Apr  8 23:46:52 2025.
