 Gaussian 16, Revision C.01,

 ----------------------------------------------------------------------
 #t hf aug-cc-pvdz symm=none int=(grid=ultrafine) guess=(read,tcheck) s
 table=(opt,rrhf)
 ----------------------------------------------------------------------
 -----
 title
 -----
 Symbolic Z-matrix:
 Charge =  0 Multiplicity = 1

 SCF Done:  E(RHF) =  -886.573532743     A.U. after   14 cycles
 Normal termination of Gaussian 16 at Wed Apr  9 00:19:35 2025.
 Gaussian 16:  ES64L-G16RevC.01  3-Jul-2019

 ----------------------------------------------------------------------
 #t hf aug-cc-pvdz iop(5/13=1,5/36=2,99/5=2) pseudo=read geom=check gue
 ss=(read,tcheck) scf=(maxcycle=1)
 ----------------------------------------------------------------------
 -----
 title
 -----
 Structure from the checkpoint file:  "BDE49_nonexpt_2626_mol1.chk"
 Charge =  0 Multiplicity = 1

                         Standard orientation:
 ---------------------------------------------------------------------
 Center     Atomic      Atomic             Coordinates (Angstroms)
 Number     Number       Type             X           Y           Z
 ---------------------------------------------------------------------
      1          9           0       -1.685642    0.919296    0.257201
      2         16           0       -1.065919   -0.536798   -0.314417
      3         14           0        0.948240   -0.310181    0.383941
      4          9           0        1.836518    0.676706   -0.517902
      5          1           0        0.928304    0.241605    1.745737
      6          1           0        1.493166   -1.674328    0.256068
 ---------------------------------------------------------------------

 SCF Done:  E(RHF) =  -886.698203101     A.U. after    2 cycles

 The electronic state is 1-A.
 Alpha  occ. eigenvalues --  -93.62591 -69.16397 -26.14083 -26.12977  -8.91690
 Alpha  occ. eigenvalues --   -6.90887  -6.25876  -6.25426  -6.25130  -4.01786
 Alpha  occ. eigenvalues --   -4.01694  -4.01588  -1.65651  -1.64796  -0.98219
 Alpha  occ. eigenvalues --   -0.82385  -0.75188  -0.74458  -0.74326  -0.73669
 Alpha  occ. eigenvalues --   -0.70964  -0.63168  -0.52686  -0.47460  -0.41347
 Alpha virt. eigenvalues --    0.03516   0.04146   0.05191   0.05424   0.06563
 Alpha virt. eigenvalues --    0.08948   0.10049   0.12858   0.13575   0.14620
 Alpha virt. eigenvalues --    0.14980   0.15941   0.20172   0.22644   0.22882

 Mulliken charges:
               1
     1  F   -0.610965
     2  S    0.207808
     3  Si   1.309507
     4  F   -0.762009
     5  H   -0.050303
     6  H   -0.094037
 Sum of Mulliken charges =   0.00000

 Dipole moment (field-independent basis, Debye):
    X=              1.1209    Y=             -2.3968    Z=              0.8121  Tot=              2.7678

 Test job not archived.
 1\1\GINC-SE150\SP\RHF\Aug-CC-pVDZ\F2H2S1Si1\OHZDE\09-Apr-2025\0\\#t hf
  aug-cc-pvdz iop(5/13=1,5/36=2,99/5=2) pseudo=read geom=check guess=(r
 ead,tcheck) scf=(maxcycle=1)\\title\\0,1\F,0,-1.685642,0.919296,0.2572
 01\S,0,-1.065919,-0.536798,-0.314417\Si,0,0.94824,-0.310181,0.383941\F
 ,0,1.836518,0.676706,-0.517902\H,0,0.928304,0.241605,1.745737\H,0,1.49
 3166,-1.674328,0.256068\\Version=ES64L-G16RevC.01\State=1-A\HF=-886.69
 82031\RMSD=5.868e-03\Dipole=0.440998,-0.9429752,0.3195086\Quadrupole=-
 1.6953021,0.6711231,1.024179,-0.4703133,2.1785582,0.5547599\PG=C01 [X(

 Normal termination of Gaussian 16 at Wed Apr  9 00:19:38 2025.
