 Gaussian 16, Revision C.01,

 ----------------------------------------------------------------------
 #t hf aug-cc-pvdz symm=none int=(grid=ultrafine) guess=(read,tcheck) s
 table=(opt,rrhf)
 ----------------------------------------------------------------------
 -----
 title
 -----
 Symbolic Z-matrix:
 Charge =  0 Multiplicity = 1

 SCF Done:  E(RHF) =  -984.485378833     A.U. after   11 cycles
 Normal termination of Gaussian 16 at Tue Apr  8 23:44:37 2025.
 Gaussian 16:  ES64L-G16RevC.01  3-Jul-2019

 ----------------------------------------------------------------------
 #t hf aug-cc-pvdz iop(5/13=1,5/36=2,99/5=2) pseudo=read geom=check gue
 ss=(read,tcheck) scf=(maxcycle=1)
 ----------------------------------------------------------------------
 -----
 title
 -----
 Structure from the checkpoint file:  "BDE49_nonexpt_1742_mol1.chk"
 Charge =  0 Multiplicity = 1

                         Standard orientation:
 ---------------------------------------------------------------------
 Center     Atomic      Atomic             Coordinates (Angstroms)
 Number     Number       Type             X           Y           Z
 ---------------------------------------------------------------------
      1         14           0        1.893820   -0.379826    0.401130
      2          6           0        0.186907   -0.844299   -0.218916
      3          6           0       -0.973448    0.021690    0.303541
      4          1           0        0.025723   -1.894516    0.063814
      5          1           0        0.205657   -0.828204   -1.315914
      6          6           0        3.229369   -1.508688   -0.256716
      7          1           0        3.055121   -2.536507    0.077884
      8          1           0        4.213629   -1.197316    0.101175
      9          1           0        3.247155   -1.503215   -1.349686
     10         17           0        2.332401    1.582597   -0.214596
     11          6           0       -2.345729   -0.423654   -0.217870
     12          1           0       -0.803245    1.066682    0.021962
     13          1           0       -0.982404    0.000539    1.400207
     14          6           0       -3.504871    0.436460    0.298214
     15          1           0       -2.517979   -1.470851    0.063412
     16          1           0       -2.338368   -0.401147   -1.315312
     17          6           0       -4.871391   -0.012513   -0.227240
     18          1           0       -3.330616    1.481884    0.016797
     19          1           0       -3.510022    0.414310    1.394736
     20          1           0       -4.909308    0.032785   -1.320138
     21          1           0       -5.675221    0.620144    0.158773
     22          1           0       -5.089775   -1.043633    0.067979
     23          1           0        1.920328   -0.341518    1.880537
 ---------------------------------------------------------------------

 SCF Done:  E(RHF) =  -984.603988986     A.U. after    2 cycles

 The electronic state is 1-A.
 Alpha  occ. eigenvalues -- -103.63675 -69.09793 -11.23620 -11.22882 -11.22828
 Alpha  occ. eigenvalues --  -11.22789 -11.22665 -11.22322 -10.67096  -8.32785
 Alpha  occ. eigenvalues --   -8.32580  -8.32575  -6.84670  -3.95525  -3.95372
 Alpha  occ. eigenvalues --   -3.95358  -1.12020  -1.07369  -1.01274  -0.95188
 Alpha  occ. eigenvalues --   -0.91824  -0.82630  -0.79155  -0.66893  -0.65435
 Alpha  occ. eigenvalues --   -0.60633  -0.59160  -0.57666  -0.57549  -0.56257
 Alpha  occ. eigenvalues --   -0.53954  -0.52029  -0.50456  -0.50210  -0.49054
 Alpha  occ. eigenvalues --   -0.48488  -0.46825  -0.46763  -0.46418  -0.43843
 Alpha  occ. eigenvalues --   -0.41616
 Alpha virt. eigenvalues --    0.03134   0.03870   0.04438   0.04642   0.05471
 Alpha virt. eigenvalues --    0.05824   0.05889   0.06881   0.07333   0.07619
 Alpha virt. eigenvalues --    0.08143   0.08756   0.08949   0.09866   0.10603

 Mulliken charges:
               1
     1  Si   1.164715
     2  C    0.131671
     3  C    0.182208
     4  H   -0.209990
     5  H   -0.178301
     6  C    0.324580
     7  H   -0.184220
     8  H   -0.251456
     9  H   -0.170631
    10  Cl  -0.633629
    11  C    0.123698
    12  H   -0.209565
    13  H   -0.242403
    14  C    0.351594
    15  H   -0.188157
    16  H   -0.171925
    17  C    0.613457
    18  H   -0.149353
    19  H   -0.146669
    20  H   -0.086991
    21  H   -0.061289
    22  H   -0.084449
    23  H    0.077105
 Sum of Mulliken charges =  -0.00000

 Dipole moment (field-independent basis, Debye):
    X=             -0.7503    Y=             -2.3246    Z=              0.0696  Tot=              2.4437

 Test job not archived.
 1\1\GINC-SE069\SP\RHF\Aug-CC-pVDZ\C6H15Cl1Si1\OHZDE\08-Apr-2025\0\\#t
 hf aug-cc-pvdz iop(5/13=1,5/36=2,99/5=2) pseudo=read geom=check guess=
 (read,tcheck) scf=(maxcycle=1)\\title\\0,1\Si,0,1.89382,-0.379826,0.40
 113\C,0,0.186907,-0.844299,-0.218916\C,0,-0.973448,0.02169,0.303541\H,
 0,0.025723,-1.894516,0.063814\H,0,0.205657,-0.828204,-1.315914\C,0,3.2
 29369,-1.508688,-0.256716\H,0,3.055121,-2.536507,0.077884\H,0,4.213629
 ,-1.197316,0.101175\H,0,3.247155,-1.503215,-1.349686\Cl,0,2.332401,1.5
 82597,-0.214596\C,0,-2.345729,-0.423654,-0.21787\H,0,-0.803245,1.06668

 Normal termination of Gaussian 16 at Tue Apr  8 23:44:50 2025.
