 Gaussian 16, Revision C.01,

 ----------------------------------------------------------------------
 #t hf aug-cc-pvdz symm=none int=(grid=ultrafine) guess=(read,tcheck) s
 table=(opt,rrhf)
 ----------------------------------------------------------------------
 -----
 title
 -----
 Symbolic Z-matrix:
 Charge =  0 Multiplicity = 1

 SCF Done:  E(RHF) =  -480.790165359     A.U. after   15 cycles
 Normal termination of Gaussian 16 at Wed Apr  9 00:39:55 2025.
 Gaussian 16:  ES64L-G16RevC.01  3-Jul-2019

 ----------------------------------------------------------------------
 #t hf aug-cc-pvdz iop(5/13=1,5/36=2,99/5=2) pseudo=read geom=check gue
 ss=(read,tcheck) scf=(maxcycle=1)
 ----------------------------------------------------------------------
 -----
 title
 -----
 Structure from the checkpoint file:  "BDE49_nonexpt_669_mol1.chk"
 Charge =  0 Multiplicity = 1

                         Standard orientation:
 ---------------------------------------------------------------------
 Center     Atomic      Atomic             Coordinates (Angstroms)
 Number     Number       Type             X           Y           Z
 ---------------------------------------------------------------------
      1          6           0       -2.993333    0.296052    0.061475
      2          6           0       -2.553212   -1.008792    0.275961
      3          6           0       -1.200367   -1.318738    0.177505
      4          6           0       -2.066820    1.286997   -0.254660
      5          6           0       -0.709720    0.989055   -0.358065
      6          6           0       -0.280029   -0.319022   -0.135245
      7          1           0       -4.046982    0.537493    0.138553
      8          1           0       -3.263554   -1.790482    0.520815
      9          1           0       -0.839593   -2.327727    0.337066
     10          1           0       -2.398370    2.305209   -0.425274
     11          1           0        0.010085    1.760573   -0.593229
     12          8           0        1.035981   -0.708728   -0.265625
     13          5           0        2.167929    0.006437    0.046614
     14          8           0        3.382288   -0.572706   -0.202159
     15          1           0        3.291957   -1.449863   -0.585735
     16          8           0        2.111352    1.253950    0.592808
     17          1           0        2.990729    1.599166    0.772712
 ---------------------------------------------------------------------

 SCF Done:  E(RHF) =  -480.946734554     A.U. after    2 cycles

 The electronic state is 1-A.
 Alpha  occ. eigenvalues --  -20.59607 -20.58854 -20.58738 -11.31443 -11.24835
 Alpha  occ. eigenvalues --  -11.24800 -11.24106 -11.24045 -11.23937  -7.69953
 Alpha  occ. eigenvalues --   -1.37831  -1.33611  -1.31867  -1.13926  -1.01386
 Alpha  occ. eigenvalues --   -1.00598  -0.85700  -0.83610  -0.78732  -0.76246
 Alpha  occ. eigenvalues --   -0.74852  -0.68449  -0.66238  -0.63912  -0.62098
 Alpha  occ. eigenvalues --   -0.60219  -0.59680  -0.58734  -0.58150  -0.55151
 Alpha  occ. eigenvalues --   -0.53359  -0.51998  -0.49504  -0.48799  -0.34267
 Alpha  occ. eigenvalues --   -0.32651
 Alpha virt. eigenvalues --    0.03092   0.04018   0.04197   0.05210   0.05698
 Alpha virt. eigenvalues --    0.05851   0.07132   0.07660   0.07971   0.09001
 Alpha virt. eigenvalues --    0.09827   0.11039   0.11633   0.13050   0.13896

 Mulliken charges:
               1
     1  C    0.463503
     2  C    0.679550
     3  C    0.239843
     4  C    0.558720
     5  C    0.515515
     6  C    0.557323
     7  H   -0.446419
     8  H   -0.426218
     9  H   -0.519140
    10  H   -0.442360
    11  H   -0.609007
    12  O   -0.657767
    13  B    0.701254
    14  O   -0.469748
    15  H    0.175585
    16  O   -0.514074
    17  H    0.193442
 Sum of Mulliken charges =  -0.00000

 Dipole moment (field-independent basis, Debye):
    X=              0.3379    Y=             -0.2502    Z=             -0.1265  Tot=              0.4390

 Test job not archived.
 1\1\GINC-SE459\SP\RHF\Aug-CC-pVDZ\C6H7B1O3\OHZDE\09-Apr-2025\0\\#t hf
 aug-cc-pvdz iop(5/13=1,5/36=2,99/5=2) pseudo=read geom=check guess=(re
 ad,tcheck) scf=(maxcycle=1)\\title\\0,1\C,0,-2.993333,0.296052,0.06147
 5\C,0,-2.553212,-1.008792,0.275961\C,0,-1.200367,-1.318738,0.177505\C,
 0,-2.06682,1.286997,-0.25466\C,0,-0.70972,0.989055,-0.358065\C,0,-0.28
 0029,-0.319022,-0.135245\H,0,-4.046982,0.537493,0.138553\H,0,-3.263554
 ,-1.790482,0.520815\H,0,-0.839593,-2.327727,0.337066\H,0,-2.39837,2.30
 5209,-0.425274\H,0,0.010085,1.760573,-0.593229\O,0,1.035981,-0.708728,

 Normal termination of Gaussian 16 at Wed Apr  9 00:40:03 2025.
