 Gaussian 16, Revision C.01,

 ----------------------------------------------------------------------
 #t hf aug-cc-pvdz symm=none int=(grid=ultrafine) guess=(read,tcheck) s
 table=opt
 ----------------------------------------------------------------------
 -----
 title
 -----
 Symbolic Z-matrix:
 Charge =  0 Multiplicity = 2

 SCF Done:  E(UHF) =  -204.026346646     A.U. after   18 cycles
 Normal termination of Gaussian 16 at Tue Apr  8 23:34:17 2025.
 Gaussian 16:  ES64L-G16RevC.01  3-Jul-2019

 ----------------------------------------------------------------------
 #t hf aug-cc-pvdz iop(5/13=1,5/36=2,99/5=2) pseudo=read geom=check gue
 ss=(read,tcheck) scf=(maxcycle=1)
 ----------------------------------------------------------------------
 -----
 title
 -----
 Structure from the checkpoint file:  "BDE49_nonexpt_148_mol2.chk"
 Charge =  0 Multiplicity = 2

                         Standard orientation:
 ---------------------------------------------------------------------
 Center     Atomic      Atomic             Coordinates (Angstroms)
 Number     Number       Type             X           Y           Z
 ---------------------------------------------------------------------
      1          5           0        0.552036    1.730146   -0.000017
      2          5           0        0.472421    0.119591   -0.000118
      3          8           0       -0.646978   -0.668879   -0.000135
      4          6           0        1.874418   -0.633560   -0.000277
      5          1           0        2.754143    0.016360   -0.000728
      6          1           0        1.939840   -1.281940   -0.881966
      7          1           0        1.940357   -1.281368    0.881796
      8          6           0       -1.948581   -0.095132    0.000409
      9          1           0       -2.675268   -0.908441   -0.003291
     10          1           0       -2.106825    0.523031   -0.890572
     11          1           0       -2.108744    0.516633    0.895422
     12          1           0        0.755016    2.890227    0.000305
 ---------------------------------------------------------------------

 SCF Done:  E(UHF) =  -204.095069624     A.U. after    2 cycles

 The electronic state is 2-A.
 Alpha  occ. eigenvalues --  -20.56971 -11.29108 -11.19891  -7.63484  -7.61357
 Alpha  occ. eigenvalues --   -1.32229  -0.95257  -0.91755  -0.73498  -0.67772
 Alpha  occ. eigenvalues --   -0.64448  -0.63354  -0.57181  -0.54533  -0.52808
 Alpha  occ. eigenvalues --   -0.50832  -0.48070  -0.43220  -0.30589
 Alpha virt. eigenvalues --    0.02962   0.03758   0.04397   0.05698   0.05819
 Alpha virt. eigenvalues --    0.06553   0.07109   0.07620   0.07668   0.07901
 Alpha virt. eigenvalues --    0.09963   0.10781   0.11085   0.11450   0.12509

  Beta  occ. eigenvalues --  -20.56807 -11.29118 -11.19936  -7.62240  -7.61393
  Beta  occ. eigenvalues --   -1.31832  -0.95187  -0.91695  -0.71823  -0.64990
  Beta  occ. eigenvalues --   -0.63683  -0.62194  -0.56669  -0.54129  -0.52693
  Beta  occ. eigenvalues --   -0.50804  -0.47108  -0.42291
  Beta virt. eigenvalues --    0.03067   0.04130   0.04141   0.04412   0.05980
  Beta virt. eigenvalues --    0.06605   0.06826   0.07150   0.08038   0.08286
  Beta virt. eigenvalues --    0.09273   0.10012   0.11241   0.11623   0.12128

 Mulliken charges and spin densities:
               1          2
     1  B   -0.786345   0.867793
     2  B    1.083589   0.141943
     3  O   -0.689558   0.027416
     4  C    0.386720  -0.021261
     5  H   -0.386531  -0.004204
     6  H   -0.179274   0.010405
     7  H   -0.179007   0.010426
     8  C    0.851672   0.000207
     9  H   -0.264512  -0.001161
    10  H   -0.117194  -0.004203
    11  H   -0.116173  -0.004166
    12  H    0.396612  -0.023195
 Sum of Mulliken charges =   0.00000   1.00000

 Dipole moment (field-independent basis, Debye):
    X=             -0.8895    Y=              1.4232    Z=              0.0009  Tot=              1.6784
                          Isotropic Fermi Contact Couplings
        Atom                 a.u.       MegaHertz       Gauss      10(-4) cm-1
     1  B(11)              0.07959     114.16703      40.73763      38.08202
     2  B(11)             -0.02198     -31.53322     -11.25184     -10.51835
     3  O(17)              0.01808     -10.96075      -3.91107      -3.65611
     4  C(13)             -0.00952     -10.69930      -3.81778      -3.56890
     5  H(1)              -0.00010      -0.44149      -0.15753      -0.14726
     6  H(1)               0.00290      12.97143       4.62853       4.32680
     7  H(1)               0.00290      12.97953       4.63142       4.32951
     8  C(13)             -0.00218      -2.44837      -0.87364      -0.81669

 Normal termination of Gaussian 16 at Tue Apr  8 23:34:22 2025.
