 Gaussian 16, Revision C.01,

 ----------------------------------------------------------------------
 #t hf aug-cc-pvdz symm=none int=(grid=ultrafine) guess=(read,tcheck) s
 table=opt
 ----------------------------------------------------------------------
 -----
 title
 -----
 Symbolic Z-matrix:
 Charge =  0 Multiplicity = 2

 SCF Done:  E(UHF) =  -1070.97534174     A.U. after   16 cycles
 Normal termination of Gaussian 16 at Tue Apr  8 23:59:33 2025.
 Gaussian 16:  ES64L-G16RevC.01  3-Jul-2019

 ----------------------------------------------------------------------
 #t hf aug-cc-pvdz iop(5/13=1,5/36=2,99/5=2) pseudo=read geom=check gue
 ss=(read,tcheck) scf=(maxcycle=1)
 ----------------------------------------------------------------------
 -----
 title
 -----
 Structure from the checkpoint file:  "BDE49_nonexpt_213_mol2.chk"
 Charge =  0 Multiplicity = 2

                         Standard orientation:
 ---------------------------------------------------------------------
 Center     Atomic      Atomic             Coordinates (Angstroms)
 Number     Number       Type             X           Y           Z
 ---------------------------------------------------------------------
      1         17           0       -2.381406    0.113082   -0.000002
      2          5           0       -0.841606    0.852499   -0.000004
      3         16           0        0.759588   -0.154296    0.000001
      4          8           0        0.813705   -0.866198   -1.269169
      5          6           0        2.082545    1.055811   -0.000006
      6          8           0        0.813705   -0.866183    1.269180
      7          1           0        2.006438    1.662905   -0.901294
      8          1           0        3.011092    0.482230   -0.000002
      9          1           0        2.006438    1.662915    0.901275
 ---------------------------------------------------------------------

 SCF Done:  E(UHF) =  -1071.13103285     A.U. after    2 cycles

 The electronic state is 2-A.
 Alpha  occ. eigenvalues -- -103.71244 -93.78300 -20.56868 -20.56867 -11.29727
 Alpha  occ. eigenvalues --  -10.74714  -9.05250  -8.40453  -8.40191  -8.40105
 Alpha  occ. eigenvalues --   -7.76306  -6.39841  -6.39649  -6.39565  -1.42454
 Alpha  occ. eigenvalues --   -1.31362  -1.21065  -1.04890  -0.88672  -0.74982
 Alpha  occ. eigenvalues --   -0.68669  -0.67515  -0.67149  -0.62121  -0.61366
 Alpha  occ. eigenvalues --   -0.55641  -0.55000  -0.52741  -0.52619  -0.50151
 Alpha  occ. eigenvalues --   -0.47949  -0.38979
 Alpha virt. eigenvalues --    0.01036   0.02834   0.04452   0.05390   0.05430
 Alpha virt. eigenvalues --    0.06855   0.06917   0.08421   0.12311   0.13302
 Alpha virt. eigenvalues --    0.13931   0.14307   0.15293   0.15718   0.15969

  Beta  occ. eigenvalues -- -103.71178 -93.78227 -20.56735 -20.56734 -11.29752
  Beta  occ. eigenvalues --  -10.74640  -9.05148  -8.40353  -8.40159  -8.39916
  Beta  occ. eigenvalues --   -7.74243  -6.39823  -6.39551  -6.39362  -1.42028
  Beta  occ. eigenvalues --   -1.30938  -1.20332  -1.04804  -0.87155  -0.73728
  Beta  occ. eigenvalues --   -0.68236  -0.67229  -0.65411  -0.61805  -0.60849
  Beta  occ. eigenvalues --   -0.54807  -0.53237  -0.52247  -0.51271  -0.50135
  Beta  occ. eigenvalues --   -0.45351
  Beta virt. eigenvalues --    0.01126   0.03581   0.03737   0.05183   0.05603
  Beta virt. eigenvalues --    0.06049   0.06885   0.07059   0.09098   0.12414
  Beta virt. eigenvalues --    0.13719   0.14064   0.15099   0.15717   0.16063

 Mulliken charges and spin densities:
               1          2
     1  Cl  -0.179644   0.011864
     2  B    0.325388   0.982872
     3  S    2.089464  -0.041185
     4  O   -1.071522   0.027327
     5  C   -0.063664  -0.003333
     6  O   -1.071522   0.027327
     7  H   -0.023900  -0.001115
     8  H    0.019300  -0.002643
     9  H   -0.023900  -0.001115
 Sum of Mulliken charges =  -0.00000   1.00000

 Dipole moment (field-independent basis, Debye):
    X=              0.3358    Y=              4.7560    Z=             -0.0000  Tot=              4.7679
                          Isotropic Fermi Contact Couplings
        Atom                 a.u.       MegaHertz       Gauss      10(-4) cm-1
     1  Cl(35)             0.05206      22.82579       8.14481       7.61386
     2  B(11)              0.37460     537.31980     191.72907     179.23059
     3  S(33)              0.13912      47.78298      17.05016      15.93869
     4  O(17)              0.01070      -6.48915      -2.31549      -2.16455
     5  C(13)             -0.00559      -6.28283      -2.24187      -2.09573
     6  O(17)              0.01070      -6.48909      -2.31547      -2.16453
     7  H(1)               0.00025       1.10413       0.39398       0.36830
     8  H(1)              -0.00015      -0.66870      -0.23861      -0.22306

 Normal termination of Gaussian 16 at Tue Apr  8 23:59:36 2025.
