 Gaussian 16, Revision C.01,

 ----------------------------------------------------------------------
 #t hf aug-cc-pvdz symm=none int=(grid=ultrafine) guess=(read,tcheck) s
 table=(opt,rrhf)
 ----------------------------------------------------------------------
 -----
 title
 -----
 Symbolic Z-matrix:
 Charge =  0 Multiplicity = 1

 SCF Done:  E(RHF) =  -1875.85020952     A.U. after   10 cycles
 Normal termination of Gaussian 16 at Tue Apr  8 22:46:29 2025.
 Gaussian 16:  ES64L-G16RevC.01  3-Jul-2019

 ----------------------------------------------------------------------
 #t hf aug-cc-pvdz iop(5/13=1,5/36=2,99/5=2) pseudo=read geom=check gue
 ss=(read,tcheck) scf=(maxcycle=1)
 ----------------------------------------------------------------------
 -----
 title
 -----
 Structure from the checkpoint file:  "BDE49_expt_1617_mol1.chk"
 Charge =  0 Multiplicity = 1

                         Standard orientation:
 ---------------------------------------------------------------------
 Center     Atomic      Atomic             Coordinates (Angstroms)
 Number     Number       Type             X           Y           Z
 ---------------------------------------------------------------------
      1          6           0        0.000023    0.000023   -0.000005
      2         17           0       -0.082523   -1.200595   -1.319633
      3         17           0       -1.018680    1.408046   -0.411616
      4         17           0        1.691259    0.531646    0.216254
      5         17           0       -0.590065   -0.739105    1.514997
 ---------------------------------------------------------------------

 SCF Done:  E(RHF) =  -1875.93686942     A.U. after    2 cycles

 The electronic state is 1-A.
 Alpha  occ. eigenvalues -- -103.70565-103.70565-103.70564-103.70563 -11.51022
 Alpha  occ. eigenvalues --  -10.73895 -10.73895 -10.73895 -10.73843  -8.39603
 Alpha  occ. eigenvalues --   -8.39603  -8.39603  -8.39587  -8.39242  -8.39241
 Alpha  occ. eigenvalues --   -8.39241  -8.39238  -8.39238  -8.39238  -8.39238
 Alpha  occ. eigenvalues --   -8.39238  -1.30084  -1.17493  -1.17492  -1.17492
 Alpha  occ. eigenvalues --   -0.86072  -0.67041  -0.67040  -0.67040  -0.54507
 Alpha  occ. eigenvalues --   -0.54507  -0.50271  -0.50270  -0.50270  -0.47760
 Alpha  occ. eigenvalues --   -0.47759  -0.47759
 Alpha virt. eigenvalues --    0.04717   0.07644   0.08190   0.08190   0.08190
 Alpha virt. eigenvalues --    0.11921   0.11922   0.11922   0.15387   0.15387
 Alpha virt. eigenvalues --    0.18628   0.18628   0.18628   0.18956   0.18957

 Mulliken charges:
               1
     1  C   -1.065571
     2  Cl   0.266392
     3  Cl   0.266393
     4  Cl   0.266398
     5  Cl   0.266387
 Sum of Mulliken charges =   0.00000

 Dipole moment (field-independent basis, Debye):
    X=              0.0001    Y=              0.0001    Z=             -0.0000  Tot=              0.0001

 Test job not archived.
 1\1\GINC-SE125\SP\RHF\Aug-CC-pVDZ\C1Cl4\OHZDE\08-Apr-2025\0\\#t hf aug
 -cc-pvdz iop(5/13=1,5/36=2,99/5=2) pseudo=read geom=check guess=(read,
 tcheck) scf=(maxcycle=1)\\title\\0,1\C,0,-0.000023,0.000023,0.000005\C
 l,0,0.082527,-1.190712,1.328557\Cl,0,1.01574,1.412725,0.40275\Cl,0,-1.
 691808,0.527233,-0.222672\Cl,0,0.593548,-0.749254,-1.508638\\Version=E
 S64L-G16RevC.01\State=1-A\HF=-1875.9368694\RMSD=2.909e-03\Dipole=-0.00
 00366,0.0000331,0.0000125\Quadrupole=0.000231,-0.000019,-0.0002121,-0.
 000011,0.000066,-0.0000228\PG=C01 [X(C1Cl4)]\\@

 Normal termination of Gaussian 16 at Tue Apr  8 22:46:32 2025.
