 Gaussian 16, Revision C.01,

 ----------------------------------------------------------------------
 #t hf aug-cc-pvdz symm=none int=(grid=ultrafine) guess=(read,tcheck) s
 table=(opt,rrhf)
 ----------------------------------------------------------------------
 -----
 title
 -----
 Symbolic Z-matrix:
 Charge =  0 Multiplicity = 1

 SCF Done:  E(RHF) =  -744.691105572     A.U. after   15 cycles
 Normal termination of Gaussian 16 at Tue Apr  8 22:50:10 2025.
 Gaussian 16:  ES64L-G16RevC.01  3-Jul-2019

 ----------------------------------------------------------------------
 #t hf aug-cc-pvdz iop(5/13=1,5/36=2,99/5=2) pseudo=read geom=check gue
 ss=(read,tcheck) scf=(maxcycle=1)
 ----------------------------------------------------------------------
 -----
 title
 -----
 Structure from the checkpoint file:  "BDE49_expt_1734_mol1.chk"
 Charge =  0 Multiplicity = 1

                         Standard orientation:
 ---------------------------------------------------------------------
 Center     Atomic      Atomic             Coordinates (Angstroms)
 Number     Number       Type             X           Y           Z
 ---------------------------------------------------------------------
      1          6           0        1.917283    1.246096   -0.059623
      2          6           0        0.588128    1.145580    0.331083
      3          6           0        2.619706    0.079405   -0.349503
      4          6           0        1.954838   -1.138011   -0.231168
      5          7           0        0.677258   -1.247399    0.142574
      6          6           0        0.006206   -0.122916    0.416077
      7          1           0        2.397129    2.215226   -0.135422
      8          1           0        0.004235    2.029852    0.558434
      9          6           0       -1.424115   -0.298064    0.839052
     10         17           0       -2.584275    0.115048   -0.514632
     11          1           0       -1.698685    0.357980    1.662690
     12          1           0       -1.609964   -1.337445    1.091876
     13          1           0        3.657753    0.108638   -0.658060
     14          1           0        2.469127   -2.070807   -0.444312
 ---------------------------------------------------------------------

 SCF Done:  E(RHF) =  -744.791685272     A.U. after    2 cycles

 The electronic state is 1-A.
 Alpha  occ. eigenvalues -- -103.64914 -15.64104 -11.31166 -11.30519 -11.29444
 Alpha  occ. eigenvalues --  -11.27797 -11.26144 -11.26052 -10.68152  -8.33868
 Alpha  occ. eigenvalues --   -8.33580  -8.33571  -1.24699  -1.15606  -1.08740
 Alpha  occ. eigenvalues --   -1.05062  -0.94124  -0.87051  -0.83406  -0.71988
 Alpha  occ. eigenvalues --   -0.69160  -0.66008  -0.61656  -0.61000  -0.58096
 Alpha  occ. eigenvalues --   -0.57755  -0.53791  -0.52755  -0.45254  -0.44702
 Alpha  occ. eigenvalues --   -0.42371  -0.39332  -0.35416
 Alpha virt. eigenvalues --    0.02894   0.03732   0.04182   0.05614   0.05984
 Alpha virt. eigenvalues --    0.07152   0.07871   0.08822   0.09148   0.10901
 Alpha virt. eigenvalues --    0.11465   0.11987   0.12857   0.13759   0.14047

 Mulliken charges:
               1
     1  C   -0.332324
     2  C    0.786947
     3  C    0.831482
     4  C    0.477494
     5  N   -0.442305
     6  C    0.187339
     7  H   -0.398716
     8  H   -0.474992
     9  C    0.347968
    10  Cl  -0.131723
    11  H   -0.020170
    12  H   -0.068325
    13  H   -0.402067
    14  H   -0.360608
 Sum of Mulliken charges =  -0.00000

 Dipole moment (field-independent basis, Debye):
    X=              2.7192    Y=              1.4488    Z=              1.3394  Tot=              3.3596

 Test job not archived.
 1\1\GINC-SE092\SP\RHF\Aug-CC-pVDZ\C6H6Cl1N1\OHZDE\08-Apr-2025\0\\#t hf
  aug-cc-pvdz iop(5/13=1,5/36=2,99/5=2) pseudo=read geom=check guess=(r
 ead,tcheck) scf=(maxcycle=1)\\title\\0,1\C,0,1.917283,1.246096,-0.0596
 23\C,0,0.588128,1.14558,0.331083\C,0,2.619706,0.079405,-0.349503\C,0,1
 .954838,-1.138011,-0.231168\N,0,0.677258,-1.247399,0.142574\C,0,0.0062
 06,-0.122916,0.416077\H,0,2.397129,2.215226,-0.135422\H,0,0.004235,2.0
 29852,0.558434\C,0,-1.424115,-0.298064,0.839052\Cl,0,-2.584275,0.11504
 8,-0.514632\H,0,-1.698685,0.35798,1.66269\H,0,-1.609964,-1.337445,1.09

 Normal termination of Gaussian 16 at Tue Apr  8 22:50:16 2025.
