 Gaussian 16, Revision C.01,

 ----------------------------------------------------------------------
 #t hf aug-cc-pvdz symm=none int=(grid=ultrafine) guess=(read,tcheck) s
 table=(opt,rrhf)
 ----------------------------------------------------------------------
 -----
 title
 -----
 Symbolic Z-matrix:
 Charge =  0 Multiplicity = 1

 SCF Done:  E(RHF) =  -1115.38380531     A.U. after   13 cycles
 Normal termination of Gaussian 16 at Wed Apr  9 00:19:00 2025.
 Gaussian 16:  ES64L-G16RevC.01  3-Jul-2019

 ----------------------------------------------------------------------
 #t hf aug-cc-pvdz iop(5/13=1,5/36=2,99/5=2) pseudo=read geom=check gue
 ss=(read,tcheck) scf=(maxcycle=1)
 ----------------------------------------------------------------------
 -----
 title
 -----
 Structure from the checkpoint file:  "BDE49_nonexpt_259_mol1.chk"
 Charge =  0 Multiplicity = 1

                         Standard orientation:
 ---------------------------------------------------------------------
 Center     Atomic      Atomic             Coordinates (Angstroms)
 Number     Number       Type             X           Y           Z
 ---------------------------------------------------------------------
      1         17           0       -1.722188   -1.537526    0.000043
      2         17           0       -1.722187    1.537526   -0.000136
      3          7           0        0.546668    0.000000    0.000064
      4          6           0        2.593435   -0.000017    1.286240
      5          6           0        1.799907   -0.000000    0.000041
      6          6           0        2.593387    0.000016   -1.286188
      7          5           0       -0.807017    0.000000    0.000089
      8          1           0        1.933861   -0.000027    2.151898
      9          1           0        3.243715    0.879573    1.324327
     10          1           0        3.243715   -0.879608    1.324305
     11          1           0        1.933780    0.000027   -2.151821
     12          1           0        3.243665   -0.879573   -1.324300
     13          1           0        3.243665    0.879608   -1.324278
 ---------------------------------------------------------------------

 SCF Done:  E(RHF) =  -1115.48099007     A.U. after    2 cycles

 The electronic state is 1-A.
 Alpha  occ. eigenvalues -- -103.64512-103.64511 -15.63443 -11.35261 -11.26282
 Alpha  occ. eigenvalues --  -11.26277 -10.67977 -10.67941  -8.33662  -8.33654
 Alpha  occ. eigenvalues --   -8.33429  -8.33428  -8.33415  -8.33415  -7.72343
 Alpha  occ. eigenvalues --   -1.22409  -1.15133  -1.11924  -1.03240  -0.97733
 Alpha  occ. eigenvalues --   -0.84896  -0.69293  -0.64514  -0.63830  -0.62272
 Alpha  occ. eigenvalues --   -0.58302  -0.57501  -0.57451  -0.55142  -0.51125
 Alpha  occ. eigenvalues --   -0.47679  -0.46081  -0.45828  -0.43490  -0.39289
 Alpha virt. eigenvalues --    0.02537   0.03919   0.04210   0.05263   0.06823
 Alpha virt. eigenvalues --    0.07125   0.07248   0.07468   0.08176   0.09219
 Alpha virt. eigenvalues --    0.10515   0.12640   0.12879   0.13441   0.13983

 Mulliken charges:
               1
     1  Cl  -0.381373
     2  Cl  -0.381373
     3  N   -0.058859
     4  C    0.436100
     5  C   -0.227665
     6  C    0.436097
     7  B    0.346392
     8  H   -0.163121
     9  H    0.039231
    10  H    0.039230
    11  H   -0.163121
    12  H    0.039229
    13  H    0.039233
 Sum of Mulliken charges =  -0.00000

 Dipole moment (field-independent basis, Debye):
    X=              5.4377    Y=              0.0000    Z=              0.0002  Tot=              5.4377

 Test job not archived.
 1\1\GINC-SE044\SP\RHF\Aug-CC-pVDZ\C3H6B1Cl2N1\OHZDE\09-Apr-2025\0\\#t
 hf aug-cc-pvdz iop(5/13=1,5/36=2,99/5=2) pseudo=read geom=check guess=
 (read,tcheck) scf=(maxcycle=1)\\title\\0,1\Cl,0,-1.722188,1.537526,-0.
 000043\Cl,0,-1.722187,-1.537526,0.000136\N,0,0.546668,0.,-0.000064\C,0
 ,2.593435,0.000017,-1.28624\C,0,1.799907,0.,-0.000041\C,0,2.593387,-0.
 000016,1.286188\B,0,-0.807017,0.,-0.000089\H,0,1.933861,0.000027,-2.15
 1898\H,0,3.243715,-0.879573,-1.324327\H,0,3.243715,0.879608,-1.324305\
 H,0,1.93378,-0.000027,2.151821\H,0,3.243665,0.879573,1.3243\H,0,3.2436

 Normal termination of Gaussian 16 at Wed Apr  9 00:19:05 2025.
