 Gaussian 16, Revision C.01,

 ----------------------------------------------------------------------
 #t hf aug-cc-pvdz symm=none int=(grid=ultrafine) guess=(read,tcheck) s
 table=(opt,rrhf)
 ----------------------------------------------------------------------
 -----
 title
 -----
 Symbolic Z-matrix:
 Charge =  0 Multiplicity = 1

 SCF Done:  E(RHF) =  -572.249804648     A.U. after   17 cycles
 Normal termination of Gaussian 16 at Tue Apr  8 23:17:48 2025.
 Gaussian 16:  ES64L-G16RevC.01  3-Jul-2019

 ----------------------------------------------------------------------
 #t hf aug-cc-pvdz iop(5/13=1,5/36=2,99/5=2) pseudo=read geom=check gue
 ss=(read,tcheck) scf=(maxcycle=1)
 ----------------------------------------------------------------------
 -----
 title
 -----
 Structure from the checkpoint file:  "BDE49_nonexpt_1099_mol1.chk"
 Charge =  0 Multiplicity = 1

                         Standard orientation:
 ---------------------------------------------------------------------
 Center     Atomic      Atomic             Coordinates (Angstroms)
 Number     Number       Type             X           Y           Z
 ---------------------------------------------------------------------
      1          9           0       -1.571834   -0.323685   -0.016932
      2         16           0        0.994156   -0.126133   -0.095289
      3          8           0       -0.371274    0.675046    0.059544
      4          1           0        1.210197   -0.469064    1.200668
 ---------------------------------------------------------------------

 SCF Done:  E(RHF) =  -572.337443213     A.U. after    2 cycles

 The electronic state is 1-A.
 Alpha  occ. eigenvalues --  -93.64260 -26.15071 -20.75005  -8.93483  -6.27788
 Alpha  occ. eigenvalues --   -6.27294  -6.26986  -1.62986  -1.37811  -0.96749
 Alpha  occ. eigenvalues --   -0.76096  -0.74223  -0.72026  -0.66162  -0.63473
 Alpha  occ. eigenvalues --   -0.51544  -0.42797
 Alpha virt. eigenvalues --    0.01670   0.03404   0.06833   0.09979   0.10948
 Alpha virt. eigenvalues --    0.15832   0.17021   0.19323   0.20614   0.22825
 Alpha virt. eigenvalues --    0.23399   0.25552   0.30414   0.33577   0.34260

 Mulliken charges:
               1
     1  F   -0.340970
     2  S    0.595358
     3  O   -0.348884
     4  H    0.094496
 Sum of Mulliken charges =  -0.00000

 Dipole moment (field-independent basis, Debye):
    X=              3.3298    Y=             -0.3023    Z=              0.8475  Tot=              3.4492

 Test job not archived.
 1\1\GINC-SE339\SP\RHF\Aug-CC-pVDZ\F1H1O1S1\OHZDE\08-Apr-2025\0\\#t hf
 aug-cc-pvdz iop(5/13=1,5/36=2,99/5=2) pseudo=read geom=check guess=(re
 ad,tcheck) scf=(maxcycle=1)\\title\\0,1\F,0,-1.571834,-0.323685,-0.016
 932\S,0,0.994156,-0.126133,-0.095289\O,0,-0.371274,0.675046,0.059544\H
 ,0,1.210197,-0.469064,1.200668\\Version=ES64L-G16RevC.01\State=1-A\HF=
 -572.3374432\RMSD=5.997e-03\Dipole=1.3100556,-0.118916,0.3334143\Quadr
 upole=-0.6525057,-0.5008822,1.1533879,-1.2232077,0.9630943,-0.6639911\
 PG=C01 [X(F1H1O1S1)]\\@

 Normal termination of Gaussian 16 at Tue Apr  8 23:17:49 2025.
