 Gaussian 16, Revision C.01,

 ----------------------------------------------------------------------
 #t hf aug-cc-pvdz symm=none int=(grid=ultrafine) guess=(read,tcheck) s
 table=(opt,rrhf)
 ----------------------------------------------------------------------
 -----
 title
 -----
 Symbolic Z-matrix:
 Charge =  0 Multiplicity = 1

 SCF Done:  E(RHF) =  -2255.09139668     A.U. after   11 cycles
 Normal termination of Gaussian 16 at Wed Apr  9 00:07:39 2025.
 Gaussian 16:  ES64L-G16RevC.01  3-Jul-2019

 ----------------------------------------------------------------------
 #t hf aug-cc-pvdz iop(5/13=1,5/36=2,99/5=2) pseudo=read geom=check gue
 ss=(read,tcheck) scf=(maxcycle=1)
 ----------------------------------------------------------------------
 -----
 title
 -----
 Structure from the checkpoint file:  "BDE49_nonexpt_2325_mol1.chk"
 Charge =  0 Multiplicity = 1

                         Standard orientation:
 ---------------------------------------------------------------------
 Center     Atomic      Atomic             Coordinates (Angstroms)
 Number     Number       Type             X           Y           Z
 ---------------------------------------------------------------------
      1         14           0        1.618905   -0.000021   -0.000100
      2         14           0       -0.720238   -0.000003   -0.000035
      3         17           0       -1.402130   -0.481888    1.875426
      4         17           0       -1.402479   -1.383178   -1.354987
      5          9           0        2.182963    0.368646   -1.434106
      6          9           0        2.182742    1.057585    1.036239
      7         17           0       -1.402329    1.865101   -0.520284
      8          9           0        2.182808   -1.426258    0.397787
 ---------------------------------------------------------------------

 SCF Done:  E(RHF) =  -2255.33162525     A.U. after    2 cycles

 The electronic state is 1-A.
 Alpha  occ. eigenvalues -- -103.69588-103.69588-103.69588 -69.23880 -69.23037
 Alpha  occ. eigenvalues --  -26.15806 -26.15804 -26.15804 -10.73045 -10.73030
 Alpha  occ. eigenvalues --  -10.73030  -8.38734  -8.38726  -8.38725  -8.38483
 Alpha  occ. eigenvalues --   -8.38483  -8.38481  -8.38478  -8.38478  -8.38474
 Alpha  occ. eigenvalues --   -6.97490  -6.96982  -4.08507  -4.08507  -4.08243
 Alpha  occ. eigenvalues --   -4.07818  -4.07818  -4.07623  -1.70052  -1.68265
 Alpha  occ. eigenvalues --   -1.68265  -1.20316  -1.17023  -1.17022  -0.89211
 Alpha  occ. eigenvalues --   -0.82330  -0.82329  -0.80035  -0.77226  -0.77226
 Alpha  occ. eigenvalues --   -0.74951  -0.74951  -0.73510  -0.73044  -0.60588
 Alpha  occ. eigenvalues --   -0.60588  -0.58863  -0.53379  -0.53379  -0.50891
 Alpha  occ. eigenvalues --   -0.50890  -0.49438  -0.47166
 Alpha virt. eigenvalues --    0.04675   0.04828   0.05250   0.05250   0.07857
 Alpha virt. eigenvalues --    0.07863   0.07863   0.09131   0.09138   0.09138
 Alpha virt. eigenvalues --    0.12489   0.12490   0.14006   0.16190   0.16191

 Mulliken charges:
               1
     1  Si   2.635437
     2  Si   0.987946
     3  Cl  -0.445990
     4  Cl  -0.445994
     5  F   -0.761826
     6  F   -0.761786
     7  Cl  -0.445991
     8  F   -0.761798
 Sum of Mulliken charges =  -0.00000

 Dipole moment (field-independent basis, Debye):
    X=             -1.0186    Y=             -0.0001    Z=             -0.0006  Tot=              1.0186

 Test job not archived.
 1\1\GINC-SE070\SP\RHF\Aug-CC-pVDZ\Cl3F3Si2\OHZDE\09-Apr-2025\0\\#t hf
 aug-cc-pvdz iop(5/13=1,5/36=2,99/5=2) pseudo=read geom=check guess=(re
 ad,tcheck) scf=(maxcycle=1)\\title\\0,1\Si,0,-1.618905,-0.000026,0.000
 099\Si,0,0.720238,-0.000005,0.000035\Cl,0,1.40213,-0.392952,-1.896056\
 Cl,0,1.402479,-1.44551,1.288283\F,0,-2.182963,0.300638,1.449889\F,0,-2
 .182742,1.105254,-0.985236\Cl,0,1.402329,1.838503,0.60762\F,0,-2.18280
 8,-1.405922,-0.464573\\Version=ES64L-G16RevC.01\State=1-A\HF=-2255.331
 6252\RMSD=4.115e-03\Dipole=0.400759,-0.0000508,0.000233\Quadrupole=-1.

 Normal termination of Gaussian 16 at Wed Apr  9 00:07:43 2025.
