 Gaussian 16, Revision C.01,

 ----------------------------------------------------------------------
 #t hf aug-cc-pvdz symm=none int=(grid=ultrafine) guess=(read,tcheck) s
 table=opt
 ----------------------------------------------------------------------
 -----
 title
 -----
 Symbolic Z-matrix:
 Charge =  0 Multiplicity = 2

 SCF Done:  E(UHF) =  -256.679765461     A.U. after   18 cycles
 Normal termination of Gaussian 16 at Wed Apr  9 00:32:52 2025.
 Gaussian 16:  ES64L-G16RevC.01  3-Jul-2019

 ----------------------------------------------------------------------
 #t hf aug-cc-pvdz iop(5/13=1,5/36=2,99/5=2) pseudo=read geom=check gue
 ss=(read,tcheck) scf=(maxcycle=1)
 ----------------------------------------------------------------------
 -----
 title
 -----
 Structure from the checkpoint file:  "BDE49_nonexpt_444_mol2.chk"
 Charge =  0 Multiplicity = 2

                         Standard orientation:
 ---------------------------------------------------------------------
 Center     Atomic      Atomic             Coordinates (Angstroms)
 Number     Number       Type             X           Y           Z
 ---------------------------------------------------------------------
      1          5           0        1.290084    0.040823   -0.000055
      2          9           0        2.561485   -0.245714    0.000078
      3          7           0        0.073946    0.327937   -0.000007
      4          6           0       -1.241204    0.593525   -0.000045
      5          6           0       -2.247805   -0.509807   -0.000030
      6          1           0       -2.138150   -1.157301    0.880748
      7          1           0       -2.137553   -1.157823   -0.880337
      8          1           0       -3.263379   -0.108994   -0.000475
      9          1           0       -1.548264    1.633563    0.000135
 ---------------------------------------------------------------------

 SCF Done:  E(UHF) =  -256.773392771     A.U. after    2 cycles

 The electronic state is 2-A.
 Alpha  occ. eigenvalues --  -26.17581 -15.61524 -11.27467 -11.23053  -7.70339
 Alpha  occ. eigenvalues --   -1.71493  -1.15794  -0.99115  -0.87268  -0.85230
 Alpha  occ. eigenvalues --   -0.79130  -0.78531  -0.68303  -0.59498  -0.59494
 Alpha  occ. eigenvalues --   -0.53441  -0.48651  -0.40410  -0.28567
 Alpha virt. eigenvalues --    0.03361   0.04379   0.04643   0.05052   0.06657
 Alpha virt. eigenvalues --    0.07074   0.07721   0.08925   0.13152   0.13574
 Alpha virt. eigenvalues --    0.14755   0.15730   0.16273   0.17257   0.17532

  Beta  occ. eigenvalues --  -26.17463 -15.62437 -11.25047 -11.23397  -7.69796
  Beta  occ. eigenvalues --   -1.71213  -1.14970  -0.97709  -0.86838  -0.82439
  Beta  occ. eigenvalues --   -0.78256  -0.77788  -0.66711  -0.58672  -0.55765
  Beta  occ. eigenvalues --   -0.53177  -0.46348  -0.41295
  Beta virt. eigenvalues --    0.03452   0.04416   0.04683   0.05022   0.06673
  Beta virt. eigenvalues --    0.07085   0.07739   0.09052   0.10121   0.13222
  Beta virt. eigenvalues --    0.14804   0.16011   0.16555   0.16913   0.17466

 Mulliken charges and spin densities:
               1          2
     1  B   -0.030973   0.331942
     2  F   -0.224337   0.013194
     3  N    0.038167  -0.315660
     4  C    0.373225   1.246809
     5  C    0.278777  -0.229096
     6  H   -0.024125   0.032681
     7  H   -0.024213   0.032639
     8  H   -0.093037   0.006982
     9  H   -0.293482  -0.119491
 Sum of Mulliken charges =  -0.00000   1.00000

 Dipole moment (field-independent basis, Debye):
    X=             -0.6145    Y=             -0.0063    Z=             -0.0001  Tot=              0.6146
                          Isotropic Fermi Contact Couplings
        Atom                 a.u.       MegaHertz       Gauss      10(-4) cm-1
     1  B(11)              0.03181      45.62721      16.28092      15.21960
     2  F(19)              0.01206      50.74147      18.10582      16.92553
     3  N(14)             -0.15855     -51.22826     -18.27952     -17.08791
     4  C(13)              0.20901     234.96310      83.84068      78.37525
     5  C(13)             -0.06333     -71.19257     -25.40328     -23.74728
     6  H(1)               0.01838      82.16388      29.31812      27.40692
     7  H(1)               0.01836      82.07407      29.28607      27.37696
     8  H(1)               0.00189       8.42864       3.00755       2.81149

 Normal termination of Gaussian 16 at Wed Apr  9 00:32:55 2025.
