 Gaussian 16, Revision C.01,

 ----------------------------------------------------------------------
 #t hf aug-cc-pvdz symm=none int=(grid=ultrafine) guess=(read,tcheck) s
 table=(opt,rrhf)
 ----------------------------------------------------------------------
 -----
 title
 -----
 Symbolic Z-matrix:
 Charge =  0 Multiplicity = 1

 SCF Done:  E(RHF) =  -1204.57598005     A.U. after   14 cycles
 Normal termination of Gaussian 16 at Tue Apr  8 23:48:55 2025.
 Gaussian 16:  ES64L-G16RevC.01  3-Jul-2019

 ----------------------------------------------------------------------
 #t hf aug-cc-pvdz iop(5/13=1,5/36=2,99/5=2) pseudo=read geom=check gue
 ss=(read,tcheck) scf=(maxcycle=1)
 ----------------------------------------------------------------------
 -----
 title
 -----
 Structure from the checkpoint file:  "BDE49_nonexpt_1819_mol1.chk"
 Charge =  0 Multiplicity = 1

                         Standard orientation:
 ---------------------------------------------------------------------
 Center     Atomic      Atomic             Coordinates (Angstroms)
 Number     Number       Type             X           Y           Z
 ---------------------------------------------------------------------
      1          6           0        3.723631    0.127022    0.349000
      2          6           0        2.849771    1.204128    0.478235
      3          6           0        1.520991    1.093422    0.073906
      4          6           0        3.261328   -1.071966   -0.190981
      5          6           0        1.935601   -1.197643   -0.595738
      6          6           0        1.071686   -0.114027   -0.457789
      7          1           0        4.756196    0.221353    0.663876
      8          1           0        3.200872    2.142155    0.893278
      9          1           0        0.837147    1.928638    0.159467
     10          1           0        3.933538   -1.915806   -0.297855
     11          1           0        1.558000   -2.120740   -1.017874
     12          8           0       -0.226033   -0.268324   -0.905385
     13         14           0       -1.670127    0.162994   -0.305243
     14          8           0       -2.841178   -0.287968   -1.332322
     15         17           0       -1.958942   -0.791267    1.518164
     16          1           0       -3.018578   -1.223455   -1.456732
     17          8           0       -1.715609    1.771857   -0.100936
     18          1           0       -2.498883    2.167337    0.289806
 ---------------------------------------------------------------------

 SCF Done:  E(RHF) =  -1204.78901212     A.U. after    2 cycles

 The electronic state is 1-A.
 Alpha  occ. eigenvalues -- -103.65549 -69.19373 -20.59864 -20.59660 -20.59519
 Alpha  occ. eigenvalues --  -11.32128 -11.25237 -11.25221 -11.24521 -11.24464
 Alpha  occ. eigenvalues --  -11.24307 -10.69020  -8.34709  -8.34499  -8.34497
 Alpha  occ. eigenvalues --   -6.93035  -4.04085  -4.04061  -4.04021  -1.36592
 Alpha  occ. eigenvalues --   -1.33598  -1.32263  -1.14415  -1.13830  -1.01798
 Alpha  occ. eigenvalues --   -1.00880  -0.85686  -0.84140  -0.79469  -0.74924
 Alpha  occ. eigenvalues --   -0.74377  -0.68663  -0.66531  -0.66044  -0.62188
 Alpha  occ. eigenvalues --   -0.62017  -0.60876  -0.59798  -0.57414  -0.56922
 Alpha  occ. eigenvalues --   -0.55885  -0.53506  -0.52490  -0.49874  -0.49535
 Alpha  occ. eigenvalues --   -0.48044  -0.48008  -0.34680  -0.33128
 Alpha virt. eigenvalues --    0.03020   0.03874   0.04071   0.05067   0.05566
 Alpha virt. eigenvalues --    0.06389   0.06964   0.07632   0.08548   0.09664
 Alpha virt. eigenvalues --    0.10086   0.10329   0.11274   0.12199   0.13069

 Mulliken charges:
               1
     1  C    0.495586
     2  C    0.633940
     3  C    0.420287
     4  C    0.765629
     5  C    0.142431
     6  C    0.507352
     7  H   -0.452867
     8  H   -0.446064
     9  H   -0.579473
    10  H   -0.426644
    11  H   -0.543990
    12  O   -1.228120
    13  Si   2.518105
    14  O   -0.759528
    15  Cl  -0.541014
    16  H    0.121199
    17  O   -0.770487
    18  H    0.143658
 Sum of Mulliken charges =  -0.00000

 Dipole moment (field-independent basis, Debye):
    X=             -0.3243    Y=             -0.2481    Z=              0.2091  Tot=              0.4588

 Test job not archived.
 1\1\GINC-SE363\SP\RHF\Aug-CC-pVDZ\C6H7Cl1O3Si1\OHZDE\08-Apr-2025\0\\#t
  hf aug-cc-pvdz iop(5/13=1,5/36=2,99/5=2) pseudo=read geom=check guess
 =(read,tcheck) scf=(maxcycle=1)\\title\\0,1\C,0,3.723631,0.127022,0.34
 9\C,0,2.849771,1.204128,0.478235\C,0,1.520991,1.093422,0.073906\C,0,3.
 261328,-1.071966,-0.190981\C,0,1.935601,-1.197643,-0.595738\C,0,1.0716
 86,-0.114027,-0.457789\H,0,4.756196,0.221353,0.663876\H,0,3.200872,2.1
 42155,0.893278\H,0,0.837147,1.928638,0.159467\H,0,3.933538,-1.915806,-
 0.297855\H,0,1.558,-2.12074,-1.017874\O,0,-0.226033,-0.268324,-0.90538

 Normal termination of Gaussian 16 at Tue Apr  8 23:49:07 2025.
