 Gaussian 16, Revision C.01,

 ----------------------------------------------------------------------
 #t hf aug-cc-pvdz symm=none int=(grid=ultrafine) guess=(read,tcheck) s
 table=(opt,rrhf)
 ----------------------------------------------------------------------
 -----
 title
 -----
 Symbolic Z-matrix:
 Charge =  0 Multiplicity = 1

 SCF Done:  E(RHF) =  -951.512366039     A.U. after   17 cycles
 Normal termination of Gaussian 16 at Wed Apr  9 00:46:17 2025.
 Gaussian 16:  ES64L-G16RevC.01  3-Jul-2019

 ----------------------------------------------------------------------
 #t hf aug-cc-pvdz iop(5/13=1,5/36=2,99/5=2) pseudo=read geom=check gue
 ss=(read,tcheck) scf=(maxcycle=1)
 ----------------------------------------------------------------------
 -----
 title
 -----
 Structure from the checkpoint file:  "BDE49_nonexpt_799_mol1.chk"
 Charge =  0 Multiplicity = 1

                         Standard orientation:
 ---------------------------------------------------------------------
 Center     Atomic      Atomic             Coordinates (Angstroms)
 Number     Number       Type             X           Y           Z
 ---------------------------------------------------------------------
      1         14           0        0.006094   -0.129988   -0.298751
      2          5           0       -2.007798   -0.400831   -0.430797
      3          7           0        0.663042   -1.104236    1.157563
      4          7           0        0.258190    1.627436    0.345646
      5          6           0        1.122192   -0.350314   -1.770066
      6          8           0        1.350207    1.958351    0.774170
      7          8           0        0.218303   -0.789533    2.257357
      8          8           0       -2.419517   -1.653981   -0.739620
      9          8           0        1.439512   -2.030180    0.948686
     10          8           0       -2.863334    0.621946   -0.237800
     11          8           0       -0.707478    2.400109    0.245479
     12          6           0        2.623344   -0.065515   -1.579216
     13          1           0        0.703175    0.270510   -2.572596
     14          1           0        0.963565   -1.388744   -2.087207
     15          1           0        2.802003    0.966860   -1.275557
     16          1           0        3.158699   -0.241917   -2.515116
     17          1           0        3.048823   -0.719933   -0.817623
     18          1           0       -2.404479    1.453454   -0.027788
     19          1           0       -3.381497   -1.737372   -0.780559
 ---------------------------------------------------------------------

 SCF Done:  E(RHF) =  -951.746979588     A.U. after    2 cycles

 The electronic state is 1-A.
 Alpha  occ. eigenvalues --  -69.17468 -20.65153 -20.64275 -20.63767 -20.63613
 Alpha  occ. eigenvalues --  -20.62306 -20.61389 -15.91074 -15.90307 -11.27827
 Alpha  occ. eigenvalues --  -11.25724  -7.71198  -6.92439  -4.03242  -4.03148
 Alpha  occ. eigenvalues --   -4.02933  -1.55999  -1.55013  -1.38487  -1.37937
 Alpha  occ. eigenvalues --   -1.37475  -1.34717  -1.05944  -0.98334  -0.93739
 Alpha  occ. eigenvalues --   -0.88530  -0.82872  -0.82414  -0.79462  -0.78519
 Alpha  occ. eigenvalues --   -0.75714  -0.74720  -0.73432  -0.72298  -0.67755
 Alpha  occ. eigenvalues --   -0.64595  -0.63227  -0.62672  -0.62617  -0.58466
 Alpha  occ. eigenvalues --   -0.55659  -0.55436  -0.54809  -0.53837  -0.53510
 Alpha  occ. eigenvalues --   -0.49789  -0.49585  -0.48470  -0.48221  -0.46664
 Alpha virt. eigenvalues --    0.01976   0.03201   0.03479   0.04084   0.04580
 Alpha virt. eigenvalues --    0.05043   0.06222   0.06307   0.06369   0.07628
 Alpha virt. eigenvalues --    0.07864   0.08277   0.08679   0.09207   0.09732

 Mulliken charges:
               1
     1  Si   1.787328
     2  B    0.798718
     3  N    0.304626
     4  N    0.031402
     5  C    0.062483
     6  O   -0.491342
     7  O   -0.575874
     8  O   -0.456501
     9  O   -0.558746
    10  O   -0.540062
    11  O   -0.585238
    12  C    0.337332
    13  H   -0.260469
    14  H   -0.106133
    15  H   -0.082999
    16  H   -0.057196
    17  H   -0.119176
    18  H    0.285970
    19  H    0.225878
 Sum of Mulliken charges =  -0.00000

 Dipole moment (field-independent basis, Debye):
    X=             -1.6447    Y=             -0.9203    Z=             -5.3005  Tot=              5.6255

 Test job not archived.
 1\1\GINC-SE419\SP\RHF\Aug-CC-pVDZ\C2H7B1N2O6Si1\OHZDE\09-Apr-2025\0\\#
 t hf aug-cc-pvdz iop(5/13=1,5/36=2,99/5=2) pseudo=read geom=check gues
 s=(read,tcheck) scf=(maxcycle=1)\\title\\0,1\Si,0,0.006094,-0.129988,-
 0.298751\B,0,-2.007798,-0.400831,-0.430797\N,0,0.663042,-1.104236,1.15
 7563\N,0,0.25819,1.627436,0.345646\C,0,1.122192,-0.350314,-1.770066\O,
 0,1.350207,1.958351,0.77417\O,0,0.218303,-0.789533,2.257357\O,0,-2.419
 517,-1.653981,-0.73962\O,0,1.439511,-2.03018,0.948686\O,0,-2.863334,0.
 621946,-0.2378\O,0,-0.707478,2.400109,0.245479\C,0,2.623344,-0.065516,

 Normal termination of Gaussian 16 at Wed Apr  9 00:46:31 2025.
