 Gaussian 16, Revision C.01,

 ----------------------------------------------------------------------
 #t hf aug-cc-pvdz symm=none int=(grid=ultrafine) guess=(read,tcheck) s
 table=(opt,rrhf)
 ----------------------------------------------------------------------
 -----
 title
 -----
 Symbolic Z-matrix:
 Charge =  0 Multiplicity = 1

 SCF Done:  E(RHF) =  -1128.56432311     A.U. after   14 cycles
 Normal termination of Gaussian 16 at Wed Apr  9 00:12:40 2025.
 Gaussian 16:  ES64L-G16RevC.01  3-Jul-2019

 ----------------------------------------------------------------------
 #t hf aug-cc-pvdz iop(5/13=1,5/36=2,99/5=2) pseudo=read geom=check gue
 ss=(read,tcheck) scf=(maxcycle=1)
 ----------------------------------------------------------------------
 -----
 title
 -----
 Structure from the checkpoint file:  "BDE49_nonexpt_2460_mol1.chk"
 Charge =  0 Multiplicity = 1

                         Standard orientation:
 ---------------------------------------------------------------------
 Center     Atomic      Atomic             Coordinates (Angstroms)
 Number     Number       Type             X           Y           Z
 ---------------------------------------------------------------------
      1         14           0        2.128774   -0.539638    0.228051
      2         14           0        0.546355    1.119036   -0.318139
      3          1           0        1.718473   -1.214703    1.476209
      4          1           0        3.441583    0.120353    0.430188
      5          1           0        2.243803   -1.510650   -0.880296
      6         16           0       -1.501306    0.188758   -0.020204
      7          1           0        0.637632    1.625311   -1.708335
      8          1           0        0.537299    2.264458    0.620886
      9          8           0       -1.505718   -0.241027    1.402329
     10          8           0       -1.018189   -1.110341   -1.038794
     11          1           0       -1.818446   -1.605532   -1.262437
 ---------------------------------------------------------------------

 SCF Done:  E(RHF) =  -1128.69479388     A.U. after    2 cycles

 The electronic state is 1-A.
 Alpha  occ. eigenvalues --  -93.69560 -69.10101 -69.07548 -20.62358 -20.54559
 Alpha  occ. eigenvalues --   -8.97513  -6.85399  -6.82936  -6.31785  -6.31519
 Alpha  occ. eigenvalues --   -6.31214  -3.96170  -3.96081  -3.96037  -3.93693
 Alpha  occ. eigenvalues --   -3.93688  -3.93678  -1.36913  -1.29979  -0.91228
 Alpha  occ. eigenvalues --   -0.75102  -0.71903  -0.68423  -0.63164  -0.61853
 Alpha  occ. eigenvalues --   -0.58324  -0.52736  -0.51440  -0.49317  -0.48724
 Alpha  occ. eigenvalues --   -0.46786  -0.42978  -0.37511
 Alpha virt. eigenvalues --    0.03318   0.03887   0.04208   0.06019   0.06486
 Alpha virt. eigenvalues --    0.07037   0.07650   0.08051   0.08690   0.09366
 Alpha virt. eigenvalues --    0.09767   0.09973   0.10638   0.11653   0.12154

 Mulliken charges:
               1
     1  Si  -0.186552
     2  Si   0.312068
     3  H    0.107552
     4  H    0.021918
     5  H    0.093075
     6  S    0.980329
     7  H    0.030249
     8  H    0.028189
     9  O   -0.957865
    10  O   -0.612991
    11  H    0.184029
 Sum of Mulliken charges =  -0.00000

 Dipole moment (field-independent basis, Debye):
    X=              0.8622    Y=              0.9877    Z=             -3.0156  Tot=              3.2883

 Test job not archived.
 1\1\GINC-SE334\SP\RHF\Aug-CC-pVDZ\H6O2S1Si2\OHZDE\09-Apr-2025\0\\#t hf
  aug-cc-pvdz iop(5/13=1,5/36=2,99/5=2) pseudo=read geom=check guess=(r
 ead,tcheck) scf=(maxcycle=1)\\title\\0,1\Si,0,-2.128774,-0.539638,-0.2
 28051\Si,0,-0.546355,1.119036,0.318139\H,0,-1.718473,-1.214703,-1.4762
 09\H,0,-3.441583,0.120354,-0.430188\H,0,-2.243803,-1.51065,0.880296\S,
 0,1.501306,0.188758,0.020204\H,0,-0.637632,1.625311,1.708335\H,0,-0.53
 7298,2.264458,-0.620886\O,0,1.505718,-0.241027,-1.402329\O,0,1.018189,
 -1.110341,1.038794\H,0,1.818446,-1.605533,1.262437\\Version=ES64L-G16R

 Normal termination of Gaussian 16 at Wed Apr  9 00:12:44 2025.
