 Gaussian 16, Revision C.01,

 ----------------------------------------------------------------------
 #t hf aug-cc-pvdz symm=none int=(grid=ultrafine) guess=(read,tcheck) s
 table=(opt,rrhf)
 ----------------------------------------------------------------------
 -----
 title
 -----
 Symbolic Z-matrix:
 Charge =  0 Multiplicity = 1

 SCF Done:  E(RHF) =  -1368.41329119     A.U. after   17 cycles
 Normal termination of Gaussian 16 at Wed Apr  9 00:30:55 2025.
 Gaussian 16:  ES64L-G16RevC.01  3-Jul-2019

 ----------------------------------------------------------------------
 #t hf aug-cc-pvdz iop(5/13=1,5/36=2,99/5=2) pseudo=read geom=check gue
 ss=(read,tcheck) scf=(maxcycle=1)
 ----------------------------------------------------------------------
 -----
 title
 -----
 Structure from the checkpoint file:  "BDE49_nonexpt_2725_mol1.chk"
 Charge =  0 Multiplicity = 1

                         Standard orientation:
 ---------------------------------------------------------------------
 Center     Atomic      Atomic             Coordinates (Angstroms)
 Number     Number       Type             X           Y           Z
 ---------------------------------------------------------------------
      1          6           0        0.853991    0.039005   -0.442206
      2          8           0        0.152256    0.917789   -0.860145
      3         16           0        0.177375   -1.635271   -0.040611
      4         16           0       -1.756735   -1.446134   -0.734607
      5          6           0       -2.561680   -0.477462    0.604130
      6          8           0       -1.982271   -0.087804    1.573408
      7          6           0        2.308865    0.195900   -0.155080
      8          6           0        2.824893    1.498945   -0.152773
      9          6           0        4.172184    1.715197    0.104967
     10          6           0        5.017427    0.634053    0.355768
     11          6           0        4.511873   -0.664519    0.346606
     12          6           0        3.162216   -0.885621    0.092312
     13          1           0        2.783544   -1.900398    0.072298
     14          1           0        2.152771    2.323648   -0.353098
     15          1           0        4.565260    2.725246    0.110483
     16          1           0        6.069450    0.803379    0.555614
     17          1           0        5.169027   -1.505645    0.533456
     18          6           0       -4.031025   -0.228248    0.306952
     19          6           0       -4.406122    1.252380    0.492769
     20          1           0       -4.591937   -0.851519    1.012788
     21          1           0       -4.282232   -0.573355   -0.700889
     22          6           0       -3.773125    2.172612   -0.554871
     23          1           0       -4.098249    1.558031    1.496184
     24          1           0       -5.496765    1.335543    0.454549
     25          1           0       -2.681745    2.115848   -0.532091
     26          1           0       -4.057253    3.213012   -0.378424
     27          1           0       -4.098969    1.905365   -1.564914
 ---------------------------------------------------------------------

 SCF Done:  E(RHF) =  -1368.62461759     A.U. after    2 cycles

 The electronic state is 1-A.
 Alpha  occ. eigenvalues --  -93.57601 -93.57571 -20.58359 -20.58213 -11.38886
 Alpha  occ. eigenvalues --  -11.38146 -11.27443 -11.27322 -11.27036 -11.26757
 Alpha  occ. eigenvalues --  -11.26270 -11.26211 -11.26127 -11.24358 -11.22429
 Alpha  occ. eigenvalues --   -8.87254  -8.87209  -6.21446  -6.21321  -6.21119
 Alpha  occ. eigenvalues --   -6.21044  -6.20788  -6.20754  -1.38371  -1.38086
 Alpha  occ. eigenvalues --   -1.16772  -1.08244  -1.06410  -1.04162  -1.03195
 Alpha  occ. eigenvalues --   -0.97444  -0.92361  -0.87207  -0.84896  -0.82403
 Alpha  occ. eigenvalues --   -0.77371  -0.74006  -0.72192  -0.67876  -0.67369
 Alpha  occ. eigenvalues --   -0.66908  -0.64765  -0.63692  -0.63007  -0.61357
 Alpha  occ. eigenvalues --   -0.60624  -0.60080  -0.58795  -0.56458  -0.55396
 Alpha  occ. eigenvalues --   -0.54012  -0.51892  -0.51822  -0.50649  -0.49139
 Alpha  occ. eigenvalues --   -0.48902  -0.47096  -0.43798  -0.43181  -0.38761
 Alpha  occ. eigenvalues --   -0.37647  -0.35933  -0.35808
 Alpha virt. eigenvalues --    0.03037   0.03549   0.04014   0.04660   0.04996
 Alpha virt. eigenvalues --    0.05178   0.05332   0.06235   0.06601   0.07333
 Alpha virt. eigenvalues --    0.07638   0.07814   0.08959   0.09498   0.09736

 Mulliken charges:
               1
     1  C   -0.675269
     2  O   -0.414809
     3  S    0.026619
     4  S    0.049802
     5  C    0.165533
     6  O   -0.503283
     7  C    1.310330
     8  C    0.027195
     9  C    0.663374
    10  C    0.509116
    11  C    0.553162
    12  C    0.363106
    13  H   -0.491709
    14  H   -0.595425
    15  H   -0.428298
    16  H   -0.430288
    17  H   -0.457797
    18  C    0.186092
    19  C    0.310645
    20  H    0.062549
    21  H   -0.100740
    22  C    0.430700
    23  H   -0.102689
    24  H   -0.086840
    25  H   -0.210995
    26  H   -0.077576
    27  H   -0.082507
 Sum of Mulliken charges =  -0.00000

 Dipole moment (field-independent basis, Debye):
    X=              1.1443    Y=             -0.4382    Z=             -0.4274  Tot=              1.2977

 Test job not archived.
 1\1\GINC-SE143\SP\RHF\Aug-CC-pVDZ\C11H12O2S2\OHZDE\09-Apr-2025\0\\#t h
 f aug-cc-pvdz iop(5/13=1,5/36=2,99/5=2) pseudo=read geom=check guess=(
 read,tcheck) scf=(maxcycle=1)\\title\\0,1\C,0,0.853991,0.039005,-0.442
 206\O,0,0.152256,0.917789,-0.860145\S,0,0.177375,-1.635271,-0.040611\S
 ,0,-1.756735,-1.446134,-0.734607\C,0,-2.56168,-0.477462,0.60413\O,0,-1
 .982271,-0.087804,1.573408\C,0,2.308865,0.1959,-0.15508\C,0,2.824893,1
 .498945,-0.152773\C,0,4.172184,1.715197,0.104967\C,0,5.017427,0.634053
 ,0.355768\C,0,4.511873,-0.664519,0.346606\C,0,3.162216,-0.885621,0.092

 Normal termination of Gaussian 16 at Wed Apr  9 00:31:24 2025.
