 Gaussian 16, Revision C.01,

 ----------------------------------------------------------------------
 #t hf aug-cc-pvdz symm=none int=(grid=ultrafine) guess=(read,tcheck) s
 table=(opt,rrhf)
 ----------------------------------------------------------------------
 -----
 title
 -----
 Symbolic Z-matrix:
 Charge =  0 Multiplicity = 1

 SCF Done:  E(RHF) =  -432.402463231     A.U. after   13 cycles
 Normal termination of Gaussian 16 at Wed Apr  9 00:44:38 2025.
 Gaussian 16:  ES64L-G16RevC.01  3-Jul-2019

 ----------------------------------------------------------------------
 #t hf aug-cc-pvdz iop(5/13=1,5/36=2,99/5=2) pseudo=read geom=check gue
 ss=(read,tcheck) scf=(maxcycle=1)
 ----------------------------------------------------------------------
 -----
 title
 -----
 Structure from the checkpoint file:  "BDE49_nonexpt_809_mol1.chk"
 Charge =  0 Multiplicity = 1

                         Standard orientation:
 ---------------------------------------------------------------------
 Center     Atomic      Atomic             Coordinates (Angstroms)
 Number     Number       Type             X           Y           Z
 ---------------------------------------------------------------------
      1          5           0       -2.538942    0.707761   -0.068650
      2          6           0        0.665698    0.129392   -0.525092
      3          6           0        1.988755   -0.478309   -0.090482
      4          6           0        1.604515    0.884529    0.405037
      5          1           0        1.325149    0.986343    1.448202
      6          1           0        2.128702    1.743661    0.002917
      7          1           0        2.776535   -0.550385   -0.831423
      8          1           0        1.968972   -1.301768    0.614871
      9         14           0       -0.964368   -0.538561    0.097655
     10          1           0        0.650671    0.500402   -1.546977
     11          1           0       -0.764120   -0.985698    1.503631
     12          1           0       -1.361820   -1.748050   -0.686099
     13          1           0       -3.522597    0.533093    0.583507
     14          1           0       -2.559440    1.609775   -0.849328
 ---------------------------------------------------------------------

 SCF Done:  E(RHF) =  -432.469655887     A.U. after    2 cycles

 The electronic state is 1-A.
 Alpha  occ. eigenvalues --  -69.04311 -11.24161 -11.24038 -11.22763  -7.62193
 Alpha  occ. eigenvalues --   -6.79781  -3.90567  -3.90554  -3.90500  -1.12268
 Alpha  occ. eigenvalues --   -0.82197  -0.81922  -0.72015  -0.67187  -0.63896
 Alpha  occ. eigenvalues --   -0.59353  -0.51922  -0.50058  -0.48080  -0.45620
 Alpha  occ. eigenvalues --   -0.44128  -0.41046  -0.38936
 Alpha virt. eigenvalues --    0.03178   0.03576   0.04354   0.04460   0.05412
 Alpha virt. eigenvalues --    0.05916   0.06135   0.06944   0.08190   0.08490
 Alpha virt. eigenvalues --    0.08931   0.09473   0.10205   0.11109   0.11807

 Mulliken charges:
               1
     1  B   -0.561186
     2  C    0.262986
     3  C    0.672168
     4  C    0.643638
     5  H   -0.369108
     6  H   -0.308199
     7  H   -0.297953
     8  H   -0.349003
     9  Si  -0.038502
    10  H   -0.420505
    11  H    0.066617
    12  H    0.016632
    13  H    0.347288
    14  H    0.335127
 Sum of Mulliken charges =  -0.00000

 Dipole moment (field-independent basis, Debye):
    X=              0.5209    Y=              0.6247    Z=             -0.2544  Tot=              0.8523

 Test job not archived.
 1\1\GINC-SE048\SP\RHF\Aug-CC-pVDZ\C3H9B1Si1\OHZDE\09-Apr-2025\0\\#t hf
  aug-cc-pvdz iop(5/13=1,5/36=2,99/5=2) pseudo=read geom=check guess=(r
 ead,tcheck) scf=(maxcycle=1)\\title\\0,1\B,0,-2.538942,0.707761,-0.068
 65\C,0,0.665698,0.129392,-0.525092\C,0,1.988755,-0.478309,-0.090482\C,
 0,1.604515,0.884529,0.405037\H,0,1.325149,0.986343,1.448202\H,0,2.1287
 02,1.743661,0.002917\H,0,2.776535,-0.550385,-0.831423\H,0,1.968972,-1.
 301768,0.614871\Si,0,-0.964368,-0.538561,0.097655\H,0,0.650671,0.50040
 2,-1.546977\H,0,-0.76412,-0.985698,1.503631\H,0,-1.36182,-1.74805,-0.6

 Normal termination of Gaussian 16 at Wed Apr  9 00:44:42 2025.
