 Gaussian 16, Revision C.01,

 ----------------------------------------------------------------------
 #t hf aug-cc-pvdz symm=none int=(grid=ultrafine) guess=(read,tcheck) s
 table=(opt,rrhf)
 ----------------------------------------------------------------------
 -----
 title
 -----
 Symbolic Z-matrix:
 Charge =  0 Multiplicity = 1

 SCF Done:  E(RHF) =  -613.307452940     A.U. after   12 cycles
 Normal termination of Gaussian 16 at Wed Apr  9 00:01:03 2025.
 Gaussian 16:  ES64L-G16RevC.01  3-Jul-2019

 ----------------------------------------------------------------------
 #t hf aug-cc-pvdz iop(5/13=1,5/36=2,99/5=2) pseudo=read geom=check gue
 ss=(read,tcheck) scf=(maxcycle=1)
 ----------------------------------------------------------------------
 -----
 title
 -----
 Structure from the checkpoint file:  "BDE49_nonexpt_2153_mol1.chk"
 Charge =  0 Multiplicity = 1

                         Standard orientation:
 ---------------------------------------------------------------------
 Center     Atomic      Atomic             Coordinates (Angstroms)
 Number     Number       Type             X           Y           Z
 ---------------------------------------------------------------------
      1          6           0        2.662473    0.623171   -0.138574
      2          6           0        2.010383   -0.695958    0.290295
      3          1           0        2.899447    0.610492   -1.207852
      4          1           0        3.596230    0.795776    0.404073
      5          1           0        2.000875    1.472086    0.047481
      6          6           0        0.705317   -1.022502   -0.464901
      7          1           0        1.810743   -0.667403    1.367679
      8          1           0        2.726586   -1.511324    0.137285
      9         14           0       -0.801097   -0.003545   -0.029872
     10          1           0        0.421696   -2.066813   -0.277297
     11          1           0        0.870759   -0.965735   -1.548257
     12          8           0       -1.930873   -0.523872   -1.121582
     13          7           0       -1.314439   -0.176563    1.590903
     14          1           0       -1.247537   -1.042797    2.100771
     15          1           0       -1.359636    0.629221    2.194900
     16          1           0       -2.843926   -0.306168   -0.915565
     17          8           0       -0.593288    1.636846   -0.142879
     18          1           0       -0.534553    2.006178   -1.026559
 ---------------------------------------------------------------------

 SCF Done:  E(RHF) =  -613.457848321     A.U. after    2 cycles

 The electronic state is 1-A.
 Alpha  occ. eigenvalues --  -69.10576 -20.56139 -20.55793 -15.59313 -11.22936
 Alpha  occ. eigenvalues --  -11.21632 -11.20951  -6.84907  -3.95925  -3.95882
 Alpha  occ. eigenvalues --   -3.95715  -1.30333  -1.28126  -1.09554  -1.03836
 Alpha  occ. eigenvalues --   -0.91793  -0.80196  -0.74800  -0.71379  -0.65281
 Alpha  occ. eigenvalues --   -0.62140  -0.61767  -0.60401  -0.58469  -0.55795
 Alpha  occ. eigenvalues --   -0.54534  -0.53627  -0.51172  -0.50640  -0.47578
 Alpha  occ. eigenvalues --   -0.47359  -0.43369  -0.39677
 Alpha virt. eigenvalues --    0.02987   0.04339   0.04493   0.04830   0.06151
 Alpha virt. eigenvalues --    0.06556   0.06712   0.07308   0.07540   0.09002
 Alpha virt. eigenvalues --    0.09433   0.09872   0.10375   0.11707   0.12807

 Mulliken charges:
               1
     1  C    0.377466
     2  C    0.173472
     3  H   -0.087847
     4  H   -0.073377
     5  H   -0.131987
     6  C    0.216264
     7  H   -0.146302
     8  H   -0.097798
     9  Si   2.348574
    10  H   -0.222831
    11  H   -0.266675
    12  O   -0.793382
    13  N   -0.554582
    14  H   -0.071202
    15  H   -0.043095
    16  H    0.082853
    17  O   -0.815882
    18  H    0.106331
 Sum of Mulliken charges =   0.00000

 Dipole moment (field-independent basis, Debye):
    X=             -0.2326    Y=             -0.0512    Z=              0.5856  Tot=              0.6322

 Test job not archived.
 1\1\GINC-SE334\SP\RHF\Aug-CC-pVDZ\C3H11N1O2Si1\OHZDE\09-Apr-2025\0\\#t
  hf aug-cc-pvdz iop(5/13=1,5/36=2,99/5=2) pseudo=read geom=check guess
 =(read,tcheck) scf=(maxcycle=1)\\title\\0,1\C,0,2.662473,0.623171,-0.1
 38574\C,0,2.010383,-0.695958,0.290295\H,0,2.899447,0.610492,-1.207852\
 H,0,3.59623,0.795776,0.404073\H,0,2.000875,1.472086,0.047481\C,0,0.705
 317,-1.022502,-0.464901\H,0,1.810743,-0.667403,1.367679\H,0,2.726586,-
 1.511324,0.137285\Si,0,-0.801097,-0.003545,-0.029872\H,0,0.421696,-2.0
 66813,-0.277297\H,0,0.870759,-0.965735,-1.548257\O,0,-1.930873,-0.5238

 Normal termination of Gaussian 16 at Wed Apr  9 00:01:10 2025.
