 Gaussian 16, Revision C.01,

 ----------------------------------------------------------------------
 #t hf aug-cc-pvdz symm=none int=(grid=ultrafine) guess=(read,tcheck) s
 table=(opt,rrhf)
 ----------------------------------------------------------------------
 -----
 title
 -----
 Symbolic Z-matrix:
 Charge =  0 Multiplicity = 1

 SCF Done:  E(RHF) =  -541.187462580     A.U. after   14 cycles
 Normal termination of Gaussian 16 at Tue Apr  8 23:02:42 2025.
 Gaussian 16:  ES64L-G16RevC.01  3-Jul-2019

 ----------------------------------------------------------------------
 #t hf aug-cc-pvdz iop(5/13=1,5/36=2,99/5=2) pseudo=read geom=check gue
 ss=(read,tcheck) scf=(maxcycle=1)
 ----------------------------------------------------------------------
 -----
 title
 -----
 Structure from the checkpoint file:  "BDE49_expt_1860_mol1.chk"
 Charge =  0 Multiplicity = 1

                         Standard orientation:
 ---------------------------------------------------------------------
 Center     Atomic      Atomic             Coordinates (Angstroms)
 Number     Number       Type             X           Y           Z
 ---------------------------------------------------------------------
      1          8           0       -0.097898    0.535877    0.585984
      2          8           0       -0.813321   -0.277012   -0.408529
      3          6           0       -2.185287   -0.412703    0.027040
      4          6           0       -2.240480   -1.117898    1.386841
      5          1           0       -3.278535   -1.287108    1.686034
      6          1           0       -1.753003   -0.514740    2.153206
      7          1           0       -1.732996   -2.083896    1.332776
      8          6           0       -2.874891    0.954706    0.070718
      9          1           0       -3.929890    0.840046    0.334220
     10          1           0       -2.813833    1.443085   -0.904721
     11          1           0       -2.401604    1.598995    0.811907
     12          6           0       -2.777354   -1.295871   -1.076120
     13          1           0       -2.704991   -0.801553   -2.047363
     14          1           0       -3.830874   -1.494822   -0.865590
     15          1           0       -2.247431   -2.249107   -1.130697
     16          6           0        1.068346    1.102173   -0.054716
     17          6           0        0.650608    2.050939   -1.183696
     18          1           0        0.128063    1.505269   -1.969699
     19          1           0        1.529926    2.531513   -1.621286
     20          1           0       -0.012824    2.829738   -0.800108
     21          6           0        1.708110    1.884951    1.097967
     22          1           0        1.040664    2.682020    1.432435
     23          1           0        2.645074    2.336360    0.762454
     24          1           0        1.919008    1.235859    1.948640
     25          6           0        1.988961   -0.011828   -0.596712
     26          6           0        2.398756   -1.091035    0.410885
     27          1           0        2.883891    0.467166   -1.012851
     28          1           0        1.474865   -0.489607   -1.435785
     29          6           0        3.204459   -2.219262   -0.241017
     30          1           0        1.497237   -1.500614    0.874226
     31          1           0        2.991665   -0.649193    1.218811
     32          1           0        2.625286   -2.714674   -1.026449
     33          1           0        3.488291   -2.979898    0.491616
     34          1           0        4.124390   -1.840783   -0.698559
 ---------------------------------------------------------------------

 SCF Done:  E(RHF) =  -541.357089003     A.U. after    2 cycles

 The electronic state is 1-A.
 Alpha  occ. eigenvalues --  -20.61655 -20.61603 -11.29703 -11.29478 -11.22528
 Alpha  occ. eigenvalues --  -11.22369 -11.22004 -11.21945 -11.21883 -11.21828
 Alpha  occ. eigenvalues --  -11.21822 -11.21698  -1.39915  -1.21803  -1.06678
 Alpha  occ. eigenvalues --   -1.04032  -1.00966  -0.93637  -0.93268  -0.93089
 Alpha  occ. eigenvalues --   -0.91724  -0.80940  -0.76808  -0.75421  -0.67031
 Alpha  occ. eigenvalues --   -0.66362  -0.65834  -0.62410  -0.61960  -0.59758
 Alpha  occ. eigenvalues --   -0.59069  -0.56987  -0.56671  -0.55365  -0.54541
 Alpha  occ. eigenvalues --   -0.53893  -0.52738  -0.52557  -0.51958  -0.51651
 Alpha  occ. eigenvalues --   -0.51317  -0.50799  -0.49611  -0.48258  -0.46980
 Alpha  occ. eigenvalues --   -0.46322  -0.44900  -0.44191  -0.41757
 Alpha virt. eigenvalues --    0.03422   0.04137   0.04188   0.04465   0.05251
 Alpha virt. eigenvalues --    0.05414   0.05573   0.05982   0.06180   0.07502
 Alpha virt. eigenvalues --    0.07615   0.07839   0.08135   0.08260   0.08804

 Mulliken charges:
               1
     1  O   -0.156508
     2  O   -0.053988
     3  C   -2.960311
     4  C    1.100351
     5  H   -0.042539
     6  H   -0.018054
     7  H   -0.005948
     8  C    0.996263
     9  H   -0.033390
    10  H   -0.007900
    11  H    0.014869
    12  C    1.042260
    13  H   -0.053039
    14  H    0.059181
    15  H   -0.061974
    16  C   -2.817696
    17  C    1.174453
    18  H    0.032036
    19  H    0.007793
    20  H    0.018607
    21  C    1.069369
    22  H   -0.033974
    23  H    0.076823
    24  H   -0.088506
    25  C    0.679474
    26  C    0.419614
    27  H   -0.152025
    28  H   -0.129464
    29  C    0.502624
    30  H   -0.196106
    31  H   -0.179444
    32  H   -0.079608
    33  H   -0.054257
    34  H   -0.068988
 Sum of Mulliken charges =  -0.00000

 Dipole moment (field-independent basis, Debye):
    X=             -0.3737    Y=              0.4834    Z=             -0.1548  Tot=              0.6303

 Test job not archived.
 1\1\GINC-SE220\SP\RHF\Aug-CC-pVDZ\C10H22O2\OHZDE\08-Apr-2025\0\\#t hf
 aug-cc-pvdz iop(5/13=1,5/36=2,99/5=2) pseudo=read geom=check guess=(re
 ad,tcheck) scf=(maxcycle=1)\\title\\0,1\O,0,-0.097898,0.535877,0.58598
 4\O,0,-0.813321,-0.277012,-0.408529\C,0,-2.185287,-0.412703,0.02704\C,
 0,-2.24048,-1.117898,1.386841\H,0,-3.278535,-1.287108,1.686034\H,0,-1.
 753003,-0.51474,2.153206\H,0,-1.732996,-2.083896,1.332776\C,0,-2.87489
 1,0.954706,0.070718\H,0,-3.92989,0.840046,0.33422\H,0,-2.813833,1.4430
 85,-0.904721\H,0,-2.401604,1.598995,0.811907\C,0,-2.777354,-1.295871,-

 Normal termination of Gaussian 16 at Tue Apr  8 23:03:20 2025.
