 Gaussian 16, Revision C.01,

 ----------------------------------------------------------------------
 #t hf aug-cc-pvdz symm=none int=(grid=ultrafine) guess=(read,tcheck) s
 table=(opt,rrhf)
 ----------------------------------------------------------------------
 -----
 title
 -----
 Symbolic Z-matrix:
 Charge =  0 Multiplicity = 1

 SCF Done:  E(RHF) =  -890.612797830     A.U. after   11 cycles
 Normal termination of Gaussian 16 at Tue Apr  8 22:58:57 2025.
 Gaussian 16:  ES64L-G16RevC.01  3-Jul-2019

 ----------------------------------------------------------------------
 #t hf aug-cc-pvdz iop(5/13=1,5/36=2,99/5=2) pseudo=read geom=check gue
 ss=(read,tcheck) scf=(maxcycle=1)
 ----------------------------------------------------------------------
 -----
 title
 -----
 Structure from the checkpoint file:  "BDE49_expt_1911_mol1.chk"
 Charge =  0 Multiplicity = 1

                         Standard orientation:
 ---------------------------------------------------------------------
 Center     Atomic      Atomic             Coordinates (Angstroms)
 Number     Number       Type             X           Y           Z
 ---------------------------------------------------------------------
      1         14           0        1.628996   -0.000000    0.029175
      2          8           0        0.000000   -0.000001    0.255255
      3          6           0        2.448321   -0.000205    1.715971
      4          6           0        2.123602    1.537239   -0.929202
      5          6           0        2.123559   -1.537034   -0.929555
      6         14           0       -1.628996    0.000000    0.029175
      7          1           0        1.828204   -2.446816   -0.398405
      8          1           0        3.207685   -1.575418   -1.077831
      9          1           0        1.653220   -1.559738   -1.917328
     10          1           0        2.160048    0.883336    2.293191
     11          1           0        3.539477   -0.000206    1.626905
     12          1           0        1.828284    2.446908   -0.397836
     13          1           0        1.653251    1.560190   -1.916964
     14          1           0        2.160031   -0.883874    2.292987
     15          1           0        3.207727    1.575620   -1.077481
     16          6           0       -2.448321    0.000173    1.715971
     17          1           0       -2.160047   -0.883378    2.293176
     18          1           0       -3.539476    0.000175    1.626905
     19          1           0       -2.160031    0.883833    2.293003
     20          6           0       -2.123600   -1.537222   -0.929229
     21          1           0       -1.828282   -2.446901   -0.397880
     22          1           0       -1.653250   -1.560155   -1.916991
     23          1           0       -3.207726   -1.575602   -1.077509
     24          6           0       -2.123561    1.537050   -0.929527
     25          1           0       -1.828206    2.446824   -0.398360
     26          1           0       -3.207687    1.575436   -1.077802
     27          1           0       -1.653222    1.559773   -1.917299
 ---------------------------------------------------------------------

 SCF Done:  E(RHF) =  -890.787158340     A.U. after    2 cycles

 The electronic state is 1-A.
 Alpha  occ. eigenvalues --  -69.07079 -69.07079 -20.53387 -11.20387 -11.20387
 Alpha  occ. eigenvalues --  -11.20383 -11.20383 -11.20260 -11.20260  -6.81800
 Alpha  occ. eigenvalues --   -6.81784  -3.92770  -3.92705  -3.92548  -3.92546
 Alpha  occ. eigenvalues --   -3.92537  -3.92536  -1.26400  -0.95741  -0.94998
 Alpha  occ. eigenvalues --   -0.91649  -0.91524  -0.91478  -0.91468  -0.73762
 Alpha  occ. eigenvalues --   -0.59189  -0.58391  -0.58264  -0.57452  -0.55864
 Alpha  occ. eigenvalues --   -0.55846  -0.55579  -0.55329  -0.55071  -0.53772
 Alpha  occ. eigenvalues --   -0.53700  -0.52888  -0.52720  -0.51852  -0.51819
 Alpha  occ. eigenvalues --   -0.51809  -0.43068  -0.43064  -0.40938  -0.40905
 Alpha virt. eigenvalues --    0.03015   0.03675   0.04440   0.04453   0.05746
 Alpha virt. eigenvalues --    0.05819   0.05886   0.06577   0.06623   0.07995
 Alpha virt. eigenvalues --    0.08017   0.08105   0.08168   0.08194   0.08857

 Mulliken charges:
               1
     1  Si   1.537066
     2  O   -1.097800
     3  C    0.600294
     4  C    0.595993
     5  C    0.595989
     6  Si   1.537067
     7  H   -0.315944
     8  H   -0.301497
     9  H   -0.311259
    10  H   -0.306066
    11  H   -0.310924
    12  H   -0.315968
    13  H   -0.311215
    14  H   -0.306068
    15  H   -0.301501
    16  C    0.600292
    17  H   -0.306064
    18  H   -0.310927
    19  H   -0.306064
    20  C    0.595993
    21  H   -0.315969
    22  H   -0.311219
    23  H   -0.301498
    24  C    0.595986
    25  H   -0.315938
    26  H   -0.301498
    27  H   -0.311261
 Sum of Mulliken charges =  -0.00000

 Dipole moment (field-independent basis, Debye):
    X=             -0.0000    Y=              0.0000    Z=             -0.2616  Tot=              0.2616

 Test job not archived.
 1\1\GINC-SE118\SP\RHF\Aug-CC-pVDZ\C6H18O1Si2\OHZDE\08-Apr-2025\0\\#t h
 f aug-cc-pvdz iop(5/13=1,5/36=2,99/5=2) pseudo=read geom=check guess=(
 read,tcheck) scf=(maxcycle=1)\\title\\0,1\Si,0,1.628996,0.,0.029175\O,
 0,0.,-0.000001,0.255255\C,0,2.448321,-0.000205,1.715971\C,0,2.123602,1
 .537239,-0.929202\C,0,2.123559,-1.537034,-0.929555\Si,0,-1.628996,0.,0
 .029175\H,0,1.828204,-2.446816,-0.398405\H,0,3.207685,-1.575418,-1.077
 831\H,0,1.65322,-1.559738,-1.917328\H,0,2.160048,0.883336,2.293191\H,0
 ,3.539477,-0.000206,1.626905\H,0,1.828284,2.446908,-0.397836\H,0,1.653

 Normal termination of Gaussian 16 at Tue Apr  8 22:59:17 2025.
