 Gaussian 16, Revision C.01,

 ----------------------------------------------------------------------
 #t hf aug-cc-pvdz symm=none int=(grid=ultrafine) guess=(read,tcheck) s
 table=opt
 ----------------------------------------------------------------------
 -----
 title
 -----
 Symbolic Z-matrix:
 Charge =  0 Multiplicity = 2

 SCF Done:  E(UHF) =  -739.423902751     A.U. after   19 cycles
 Normal termination of Gaussian 16 at Wed Apr  9 00:15:03 2025.
 Gaussian 16:  ES64L-G16RevC.01  3-Jul-2019

 ----------------------------------------------------------------------
 #t hf aug-cc-pvdz iop(5/13=1,5/36=2,99/5=2) pseudo=read geom=check gue
 ss=(read,tcheck) scf=(maxcycle=1)
 ----------------------------------------------------------------------
 -----
 title
 -----
 Structure from the checkpoint file:  "BDE49_nonexpt_2535_mol2.chk"
 Charge =  0 Multiplicity = 2

                         Standard orientation:
 ---------------------------------------------------------------------
 Center     Atomic      Atomic             Coordinates (Angstroms)
 Number     Number       Type             X           Y           Z
 ---------------------------------------------------------------------
      1         16           0       -1.061294   -0.000000    0.020763
      2         15           0        0.937876   -0.000001   -0.107554
      3          1           0        1.456289   -1.082499    0.640560
      4          1           0        1.456276    1.082512    0.640551
 ---------------------------------------------------------------------

 SCF Done:  E(UHF) =  -739.465755120     A.U. after    2 cycles

 The electronic state is 2-A.
 Alpha  occ. eigenvalues --  -93.55696 -81.30618  -8.85568  -7.80935  -6.20638
 Alpha  occ. eigenvalues --   -6.19238  -6.18838  -4.94924  -4.94750  -4.94637
 Alpha  occ. eigenvalues --   -0.98608  -0.77851  -0.56966  -0.52630  -0.46838
 Alpha  occ. eigenvalues --   -0.39222  -0.35781
 Alpha virt. eigenvalues --    0.03549   0.06028   0.06522   0.10148   0.11214
 Alpha virt. eigenvalues --    0.11602   0.13877   0.14166   0.15885   0.18033
 Alpha virt. eigenvalues --    0.19523   0.20670   0.24974   0.26860   0.27880

  Beta  occ. eigenvalues --  -93.54920 -81.30472  -8.84706  -7.80731  -6.18830
  Beta  occ. eigenvalues --   -6.18344  -6.17212  -4.94785  -4.94709  -4.94103
  Beta  occ. eigenvalues --   -0.93323  -0.73977  -0.56172  -0.49685  -0.37255
  Beta  occ. eigenvalues --   -0.36846
  Beta virt. eigenvalues --   -0.00136   0.03602   0.06219   0.06537   0.10368
  Beta virt. eigenvalues --    0.11438   0.11702   0.14258   0.15589   0.16307
  Beta virt. eigenvalues --    0.18836   0.19856   0.21393   0.25731   0.28281

 Mulliken charges and spin densities:
               1          2
     1  S   -0.269019   0.884209
     2  P   -0.131262   0.054106
     3  H    0.200141   0.030842
     4  H    0.200139   0.030843
 Sum of Mulliken charges =  -0.00000   1.00000

 Dipole moment (field-independent basis, Debye):
    X=              1.6060    Y=             -0.0000    Z=              0.6972  Tot=              1.7508
                          Isotropic Fermi Contact Couplings
        Atom                 a.u.       MegaHertz       Gauss      10(-4) cm-1
     1  S(33)              0.17003      58.39956      20.83841      19.48000
     2  P(31)              0.20969     379.76903     135.51103     126.67731
     3  H(1)               0.01359      60.75307      21.67821      20.26504
     4  H(1)               0.01359      60.75296      21.67817      20.26501
 --------------------------------------------------------
       Center         ----  Spin Dipole Couplings  ----
                      3XX-RR        3YY-RR        3ZZ-RR
 --------------------------------------------------------

 Normal termination of Gaussian 16 at Wed Apr  9 00:15:04 2025.
