 Gaussian 16, Revision C.01,

 ----------------------------------------------------------------------
 #t hf aug-cc-pvdz symm=none int=(grid=ultrafine) guess=(read,tcheck) s
 table=(opt,rrhf)
 ----------------------------------------------------------------------
 -----
 title
 -----
 Symbolic Z-matrix:
 Charge =  0 Multiplicity = 1

 SCF Done:  E(RHF) =  -1613.81847166     A.U. after   14 cycles
 Normal termination of Gaussian 16 at Tue Apr  8 23:29:11 2025.
 Gaussian 16:  ES64L-G16RevC.01  3-Jul-2019

 ----------------------------------------------------------------------
 #t hf aug-cc-pvdz iop(5/13=1,5/36=2,99/5=2) pseudo=read geom=check gue
 ss=(read,tcheck) scf=(maxcycle=1)
 ----------------------------------------------------------------------
 -----
 title
 -----
 Structure from the checkpoint file:  "BDE49_nonexpt_1362_mol1.chk"
 Charge =  0 Multiplicity = 1

                         Standard orientation:
 ---------------------------------------------------------------------
 Center     Atomic      Atomic             Coordinates (Angstroms)
 Number     Number       Type             X           Y           Z
 ---------------------------------------------------------------------
      1          9           0       -0.102870    2.143349    0.183458
      2         15           0       -0.016757    0.918847   -0.875943
      3         16           0        1.717254   -0.122506    0.173823
      4         16           0       -1.720348   -0.329287   -0.115623
      5          8           0        2.817688    0.801783   -0.032019
      6          8           0        1.365740   -0.560179    1.514743
      7          8           0       -2.918758    0.279885   -0.660664
      8          8           0       -1.342047   -1.686667   -0.487326
      9          6           0        1.968916   -1.579036   -0.843435
     10          1           0        2.819251   -2.100819   -0.400376
     11          1           0        2.203054   -1.260031   -1.858542
     12          1           0        1.066307   -2.187451   -0.801577
     13          6           0       -1.775030   -0.175109    1.670588
     14          1           0       -1.912034    0.877977    1.911874
     15          1           0       -0.849862   -0.568617    2.085339
     16          1           0       -2.644321   -0.758919    1.979325
 ---------------------------------------------------------------------

 SCF Done:  E(RHF) =  -1614.13847620     A.U. after    2 cycles

 The electronic state is 1-A.
 Alpha  occ. eigenvalues --  -93.80725 -93.80586 -81.41962 -26.18523 -20.59195
 Alpha  occ. eigenvalues --  -20.59122 -20.58821 -20.58737 -11.30853 -11.30306
 Alpha  occ. eigenvalues --   -9.07566  -9.07456  -7.91271  -6.42164  -6.42053
 Alpha  occ. eigenvalues --   -6.41919  -6.41847  -6.41807  -6.41738  -5.05179
 Alpha  occ. eigenvalues --   -5.04873  -5.04630  -1.70607  -1.44513  -1.44191
 Alpha  occ. eigenvalues --   -1.33356  -1.33249  -1.06263  -1.05800  -0.94232
 Alpha  occ. eigenvalues --   -0.86465  -0.84865  -0.79563  -0.79282  -0.75739
 Alpha  occ. eigenvalues --   -0.71463  -0.70208  -0.69977  -0.68866  -0.68802
 Alpha  occ. eigenvalues --   -0.63461  -0.63073  -0.62466  -0.62297  -0.57905
 Alpha  occ. eigenvalues --   -0.55685  -0.54601  -0.53224  -0.52424  -0.52349
 Alpha  occ. eigenvalues --   -0.51894  -0.43833  -0.41657
 Alpha virt. eigenvalues --    0.02842   0.03202   0.04117   0.04479   0.05294
 Alpha virt. eigenvalues --    0.05898   0.06607   0.07070   0.07703   0.09729
 Alpha virt. eigenvalues --    0.10128   0.11292   0.11909   0.11963   0.13081

 Mulliken charges:
               1
     1  F   -0.666138
     2  P    0.972045
     3  S    2.239571
     4  S    2.208304
     5  O   -1.112154
     6  O   -1.185297
     7  O   -1.108828
     8  O   -1.186188
     9  C   -0.049699
    10  H    0.029391
    11  H   -0.033768
    12  H   -0.029004
    13  C   -0.028508
    14  H   -0.013209
    15  H   -0.076310
    16  H    0.039792
 Sum of Mulliken charges =  -0.00000

 Dipole moment (field-independent basis, Debye):
    X=              0.4408    Y=             -1.3877    Z=             -0.6468  Tot=              1.5933

 Test job not archived.
 1\1\GINC-SE364\SP\RHF\Aug-CC-pVDZ\C2H6F1O4P1S2\OHZDE\08-Apr-2025\0\\#t
  hf aug-cc-pvdz iop(5/13=1,5/36=2,99/5=2) pseudo=read geom=check guess
 =(read,tcheck) scf=(maxcycle=1)\\title\\0,1\F,0,-0.10287,2.143349,0.18
 3458\P,0,-0.016757,0.918847,-0.875943\S,0,1.717254,-0.122506,0.173823\
 S,0,-1.720348,-0.329287,-0.115623\O,0,2.817688,0.801782,-0.032019\O,0,
 1.36574,-0.560179,1.514743\O,0,-2.918758,0.279885,-0.660664\O,0,-1.342
 047,-1.686667,-0.487326\C,0,1.968916,-1.579036,-0.843435\H,0,2.819251,
 -2.10082,-0.400376\H,0,2.203054,-1.260031,-1.858542\H,0,1.066307,-2.18

 Normal termination of Gaussian 16 at Tue Apr  8 23:29:20 2025.
