 Gaussian 16, Revision C.01,

 ----------------------------------------------------------------------
 #t hf aug-cc-pvdz symm=none int=(grid=ultrafine) guess=(read,tcheck) s
 table=(opt,rrhf)
 ----------------------------------------------------------------------
 -----
 title
 -----
 Symbolic Z-matrix:
 Charge =  0 Multiplicity = 1

 SCF Done:  E(RHF) =  -549.206419963     A.U. after   13 cycles
 Normal termination of Gaussian 16 at Wed Apr  9 00:42:57 2025.
 Gaussian 16:  ES64L-G16RevC.01  3-Jul-2019

 ----------------------------------------------------------------------
 #t hf aug-cc-pvdz iop(5/13=1,5/36=2,99/5=2) pseudo=read geom=check gue
 ss=(read,tcheck) scf=(maxcycle=1)
 ----------------------------------------------------------------------
 -----
 title
 -----
 Structure from the checkpoint file:  "BDE49_nonexpt_733_mol1.chk"
 Charge =  0 Multiplicity = 1

                         Standard orientation:
 ---------------------------------------------------------------------
 Center     Atomic      Atomic             Coordinates (Angstroms)
 Number     Number       Type             X           Y           Z
 ---------------------------------------------------------------------
      1          6           0        1.841979    1.587617    0.017381
      2          5           0        1.638941    0.025068    0.006259
      3          1           0        1.694645    1.941420    1.048111
      4          1           0        1.152660    2.155995   -0.609031
      5          1           0        2.866337    1.866120   -0.253105
      6          6           0        2.845520   -0.922572    0.364736
      7          1           0        3.630272   -0.808852   -0.395773
      8          1           0        2.609324   -1.985631    0.444594
      9          1           0        3.306840   -0.602560    1.307910
     10         15           0       -0.000001   -0.751731   -0.510852
     11          5           0       -1.638900    0.025068    0.006401
     12          6           0       -2.845525   -0.922573    0.364722
     13          1           0       -3.630219   -0.808799   -0.395839
     14          1           0       -3.306910   -0.602606    1.307878
     15          1           0       -2.609352   -1.985640    0.444537
     16          6           0       -1.841989    1.587610    0.017359
     17          1           0       -1.694682    1.941514    1.048058
     18          1           0       -2.866351    1.866057   -0.253170
     19          1           0       -1.152677    2.155950   -0.609096
     20          1           0        0.000014   -2.088181   -0.070785
 ---------------------------------------------------------------------

 SCF Done:  E(RHF) =  -549.290713325     A.U. after    2 cycles

 The electronic state is 1-A.
 Alpha  occ. eigenvalues --  -81.21272 -11.20692 -11.20692 -11.20640 -11.20640
 Alpha  occ. eigenvalues --   -7.72357  -7.61715  -7.61711  -4.86510  -4.86458
 Alpha  occ. eigenvalues --   -4.86164  -0.96923  -0.96059  -0.92061  -0.91757
 Alpha  occ. eigenvalues --   -0.78103  -0.62585  -0.60357  -0.57661  -0.57601
 Alpha  occ. eigenvalues --   -0.56398  -0.55943  -0.53769  -0.53530  -0.53225
 Alpha  occ. eigenvalues --   -0.53067  -0.48138  -0.46391  -0.44504  -0.40026
 Alpha  occ. eigenvalues --   -0.31663
 Alpha virt. eigenvalues --    0.03020   0.03991   0.04787   0.04943   0.06102
 Alpha virt. eigenvalues --    0.06126   0.06172   0.07310   0.07446   0.07795
 Alpha virt. eigenvalues --    0.07988   0.08218   0.09014   0.09073   0.09821

 Mulliken charges:
               1
     1  C    0.541540
     2  B    0.587361
     3  H   -0.093324
     4  H   -0.395951
     5  H   -0.265589
     6  C    0.501646
     7  H   -0.099986
     8  H   -0.399776
     9  H   -0.192186
    10  P   -0.419893
    11  B    0.587370
    12  C    0.501650
    13  H   -0.099991
    14  H   -0.192195
    15  H   -0.399783
    16  C    0.541475
    17  H   -0.093279
    18  H   -0.265562
    19  H   -0.395942
    20  H    0.052415
 Sum of Mulliken charges =  -0.00000

 Dipole moment (field-independent basis, Debye):
    X=              0.0001    Y=              0.4416    Z=              0.7733  Tot=              0.8905

 Test job not archived.
 1\1\GINC-SE222\SP\RHF\Aug-CC-pVDZ\C4H13B2P1\OHZDE\09-Apr-2025\0\\#t hf
  aug-cc-pvdz iop(5/13=1,5/36=2,99/5=2) pseudo=read geom=check guess=(r
 ead,tcheck) scf=(maxcycle=1)\\title\\0,1\C,0,1.841979,1.587617,0.01738
 1\B,0,1.638941,0.025068,0.006259\H,0,1.694645,1.94142,1.048111\H,0,1.1
 5266,2.155995,-0.609031\H,0,2.866337,1.86612,-0.253105\C,0,2.84552,-0.
 922572,0.364736\H,0,3.630272,-0.808852,-0.395773\H,0,2.609324,-1.98563
 1,0.444594\H,0,3.30684,-0.60256,1.30791\P,0,-0.000001,-0.751731,-0.510
 852\B,0,-1.6389,0.025068,0.006401\C,0,-2.845525,-0.922573,0.364722\H,0

 Normal termination of Gaussian 16 at Wed Apr  9 00:43:06 2025.
