 Gaussian 16, Revision C.01,

 ----------------------------------------------------------------------
 #t hf aug-cc-pvdz symm=none int=(grid=ultrafine) guess=(read,tcheck) s
 table=(opt,rrhf)
 ----------------------------------------------------------------------
 -----
 title
 -----
 Symbolic Z-matrix:
 Charge =  0 Multiplicity = 1

 SCF Done:  E(RHF) =  -1428.90024362     A.U. after   16 cycles
 Normal termination of Gaussian 16 at Tue Apr  8 23:54:18 2025.
 Gaussian 16:  ES64L-G16RevC.01  3-Jul-2019

 ----------------------------------------------------------------------
 #t hf aug-cc-pvdz iop(5/13=1,5/36=2,99/5=2) pseudo=read geom=check gue
 ss=(read,tcheck) scf=(maxcycle=1)
 ----------------------------------------------------------------------
 -----
 title
 -----
 Structure from the checkpoint file:  "BDE49_nonexpt_1946_mol1.chk"
 Charge =  0 Multiplicity = 1

                         Standard orientation:
 ---------------------------------------------------------------------
 Center     Atomic      Atomic             Coordinates (Angstroms)
 Number     Number       Type             X           Y           Z
 ---------------------------------------------------------------------
      1          6           0       -1.001383   -0.458308   -1.462719
      2         14           0        0.436088   -1.493011   -0.760283
      3          6           0        1.751185   -0.354767    0.014516
      4          1           0        1.068212   -2.207456   -1.894182
      5          1           0       -0.037582   -2.443364    0.259408
      6         16           0        2.438833   -0.637675    1.476412
      7          8           0        2.036001    0.657244   -0.806894
      8          6           0        3.001547    1.654374   -0.411343
      9          1           0        3.033622    2.357974   -1.239524
     10          1           0        3.975493    1.190614   -0.248852
     11          1           0        2.673772    2.144352    0.506171
     12          6           0       -1.836680    0.182102   -0.400254
     13         16           0       -1.637331    1.718000    0.157243
     14          8           0       -2.741674   -0.688786    0.055827
     15          6           0       -3.626660   -0.302003    1.121420
     16          1           0       -4.252530   -1.174465    1.296009
     17          1           0       -4.227611    0.557118    0.820529
     18          1           0       -3.054607   -0.046044    2.014094
     19          1           0       -1.619451   -1.140362   -2.055788
     20          1           0       -0.571269    0.302543   -2.113546
 ---------------------------------------------------------------------

 SCF Done:  E(RHF) =  -1429.06844842     A.U. after    2 cycles

 The electronic state is 1-A.
 Alpha  occ. eigenvalues --  -93.50949 -93.50092 -69.09319 -20.64077 -20.63942
 Alpha  occ. eigenvalues --  -11.39596 -11.37077 -11.30717 -11.30459 -11.25635
 Alpha  occ. eigenvalues --   -8.80886  -8.80057  -6.84554  -6.15058  -6.14665
 Alpha  occ. eigenvalues --   -6.14493  -6.14280  -6.13829  -6.13684  -3.95346
 Alpha  occ. eigenvalues --   -3.95308  -3.95292  -1.41246  -1.40527  -1.08114
 Alpha  occ. eigenvalues --   -1.03541  -0.97079  -0.96789  -0.95051  -0.79040
 Alpha  occ. eigenvalues --   -0.77768  -0.73918  -0.69535  -0.68707  -0.68056
 Alpha  occ. eigenvalues --   -0.66447  -0.64437  -0.60356  -0.58178  -0.57079
 Alpha  occ. eigenvalues --   -0.55363  -0.54523  -0.53314  -0.50275  -0.49416
 Alpha  occ. eigenvalues --   -0.47987  -0.47032  -0.37650  -0.36696  -0.34328
 Alpha  occ. eigenvalues --   -0.33904
 Alpha virt. eigenvalues --    0.02998   0.03927   0.04324   0.05003   0.05776
 Alpha virt. eigenvalues --    0.05872   0.06055   0.06462   0.06722   0.07167
 Alpha virt. eigenvalues --    0.07879   0.07980   0.08856   0.09364   0.09729

 Mulliken charges:
               1
     1  C    0.176864
     2  Si   0.356910
     3  C   -0.104284
     4  H    0.079839
     5  H    0.159590
     6  S   -0.061608
     7  O   -0.508565
     8  C    0.851889
     9  H   -0.254031
    10  H   -0.102823
    11  H   -0.085982
    12  C    0.047856
    13  S   -0.062905
    14  O   -0.639962
    15  C    0.827858
    16  H   -0.247545
    17  H   -0.075690
    18  H   -0.071451
    19  H   -0.175377
    20  H   -0.110581
 Sum of Mulliken charges =  -0.00000

 Dipole moment (field-independent basis, Debye):
    X=             -1.0354    Y=             -0.5475    Z=             -1.7060  Tot=              2.0694

 Test job not archived.
 1\1\GINC-SE424\SP\RHF\Aug-CC-pVDZ\C5H10O2S2Si1\OHZDE\08-Apr-2025\0\\#t
  hf aug-cc-pvdz iop(5/13=1,5/36=2,99/5=2) pseudo=read geom=check guess
 =(read,tcheck) scf=(maxcycle=1)\\title\\0,1\C,0,1.001383,0.458308,-1.4
 62719\Si,0,-0.436088,1.493011,-0.760283\C,0,-1.751185,0.354767,0.01451
 6\H,0,-1.068212,2.207456,-1.894182\H,0,0.037582,2.443364,0.259408\S,0,
 -2.438833,0.637675,1.476412\O,0,-2.036001,-0.657244,-0.806894\C,0,-3.0
 01547,-1.654374,-0.411343\H,0,-3.033622,-2.357974,-1.239524\H,0,-3.975
 493,-1.190615,-0.248852\H,0,-2.673772,-2.144352,0.506171\C,0,1.83668,-

 Normal termination of Gaussian 16 at Tue Apr  8 23:54:30 2025.
