 Gaussian 16, Revision C.01,

 ----------------------------------------------------------------------
 #t hf aug-cc-pvdz symm=none int=(grid=ultrafine) guess=(read,tcheck) s
 table=(opt,rrhf)
 ----------------------------------------------------------------------
 -----
 title
 -----
 Symbolic Z-matrix:
 Charge =  0 Multiplicity = 1

 SCF Done:  E(RHF) =  -488.255339659     A.U. after   13 cycles
 Normal termination of Gaussian 16 at Tue Apr  8 23:14:51 2025.
 Gaussian 16:  ES64L-G16RevC.01  3-Jul-2019

 ----------------------------------------------------------------------
 #t hf aug-cc-pvdz iop(5/13=1,5/36=2,99/5=2) pseudo=read geom=check gue
 ss=(read,tcheck) scf=(maxcycle=1)
 ----------------------------------------------------------------------
 -----
 title
 -----
 Structure from the checkpoint file:  "BDE49_nonexpt_101_mol1.chk"
 Charge =  0 Multiplicity = 1

                         Standard orientation:
 ---------------------------------------------------------------------
 Center     Atomic      Atomic             Coordinates (Angstroms)
 Number     Number       Type             X           Y           Z
 ---------------------------------------------------------------------
      1          5           0        2.094742    0.610923   -0.000001
      2          5           0        1.075668   -0.687660   -0.000316
      3         16           0       -0.699469   -0.678450    0.000014
      4          6           0       -1.201751    1.090062    0.000088
      5          1           0       -2.291082    1.117367    0.000276
      6          1           0       -0.832741    1.590522   -0.894458
      7          1           0       -0.832434    1.590543    0.894495
      8          1           0        2.497587    1.101136   -1.013952
      9          1           0        2.496943    1.101187    1.014182
     10          1           0        1.511695   -1.802239    0.000287
 ---------------------------------------------------------------------

 SCF Done:  E(RHF) =  -488.305071227     A.U. after    2 cycles

 The electronic state is 1-A.
 Alpha  occ. eigenvalues --  -93.53349 -11.27333  -8.83274  -7.61467  -7.61066
 Alpha  occ. eigenvalues --   -6.17407  -6.17166  -6.16986  -1.03008  -0.87653
 Alpha  occ. eigenvalues --   -0.71770  -0.62189  -0.60045  -0.59573  -0.50048
 Alpha  occ. eigenvalues --   -0.49667  -0.47112  -0.40456  -0.37411
 Alpha virt. eigenvalues --    0.03083   0.04042   0.04532   0.05246   0.05473
 Alpha virt. eigenvalues --    0.06848   0.06966   0.07085   0.07306   0.08652
 Alpha virt. eigenvalues --    0.10424   0.10725   0.12493   0.13457   0.13947

 Mulliken charges:
               1
     1  B   -0.513999
     2  B    0.081454
     3  S   -0.036874
     4  C    0.081993
     5  H   -0.131770
     6  H   -0.102741
     7  H   -0.102675
     8  H    0.257519
     9  H    0.257569
    10  H    0.209525
 Sum of Mulliken charges =  -0.00000

 Dipole moment (field-independent basis, Debye):
    X=             -0.1798    Y=              1.5261    Z=             -0.0004  Tot=              1.5366

 Test job not archived.
 1\1\GINC-SE106\SP\RHF\Aug-CC-pVDZ\C1H6B2S1\OHZDE\08-Apr-2025\0\\#t hf
 aug-cc-pvdz iop(5/13=1,5/36=2,99/5=2) pseudo=read geom=check guess=(re
 ad,tcheck) scf=(maxcycle=1)\\title\\0,1\B,0,2.094742,0.610923,-0.00000
 1\B,0,1.075668,-0.68766,-0.000316\S,0,-0.699469,-0.67845,0.000014\C,0,
 -1.201751,1.090062,0.000088\H,0,-2.291082,1.117368,0.000276\H,0,-0.832
 74,1.590522,-0.894458\H,0,-0.832433,1.590543,0.894495\H,0,2.497587,1.1
 01136,-1.013952\H,0,2.496943,1.101187,1.014182\H,0,1.511695,-1.802239,
 0.000287\\Version=ES64L-G16RevC.01\State=1-A\HF=-488.3050712\RMSD=5.37

 Normal termination of Gaussian 16 at Tue Apr  8 23:14:54 2025.
