 Gaussian 16, Revision C.01,

 ----------------------------------------------------------------------
 #t hf aug-cc-pvdz symm=none int=(grid=ultrafine) guess=(read,tcheck) s
 table=(opt,rrhf)
 ----------------------------------------------------------------------
 -----
 title
 -----
 Symbolic Z-matrix:
 Charge =  0 Multiplicity = 1

 SCF Done:  E(RHF) =  -548.131027059     A.U. after   16 cycles
 Normal termination of Gaussian 16 at Tue Apr  8 22:42:25 2025.
 Gaussian 16:  ES64L-G16RevC.01  3-Jul-2019

 ----------------------------------------------------------------------
 #t hf aug-cc-pvdz iop(5/13=1,5/36=2,99/5=2) pseudo=read geom=check gue
 ss=(read,tcheck) scf=(maxcycle=1)
 ----------------------------------------------------------------------
 -----
 title
 -----
 Structure from the checkpoint file:  "BDE49_expt_1423_mol1.chk"
 Charge =  0 Multiplicity = 1

                         Standard orientation:
 ---------------------------------------------------------------------
 Center     Atomic      Atomic             Coordinates (Angstroms)
 Number     Number       Type             X           Y           Z
 ---------------------------------------------------------------------
      1          6           0       -1.131001    0.009721    0.000005
      2          6           0       -0.571848    1.288731    0.000002
      3          6           0        0.802913    1.422280    0.000000
      4          6           0       -0.333193   -1.126841    0.000006
      5          6           0        1.050487   -0.994319    0.000004
      6          6           0        1.626097    0.283629    0.000001
      7          1           0       -0.801819   -2.101038    0.000008
      8          1           0        1.665188   -1.883375    0.000005
      9          8           0        2.956875    0.525435   -0.000001
     10          6           0        3.859883   -0.577442    0.000000
     11          1           0        4.856303   -0.140525   -0.000002
     12          1           0        3.733480   -1.194763   -0.895126
     13          1           0        3.733482   -1.194759    0.895128
     14          7           0       -2.592828   -0.137576    0.000007
     15          8           0       -3.267847    0.885368   -0.000013
     16          8           0       -3.052389   -1.274020   -0.000009
     17          1           0       -1.223216    2.151353    0.000001
     18          1           0        1.273241    2.397318   -0.000002
 ---------------------------------------------------------------------

 SCF Done:  E(RHF) =  -548.297564953     A.U. after    2 cycles

 The electronic state is 1-A.
 Alpha  occ. eigenvalues --  -20.62907 -20.61190 -20.61135 -15.91587 -11.35110
 Alpha  occ. eigenvalues --  -11.31922 -11.30929 -11.28997 -11.28662 -11.27051
 Alpha  occ. eigenvalues --  -11.26577  -1.54340  -1.40061  -1.35861  -1.18573
 Alpha  occ. eigenvalues --   -1.08182  -1.05136  -0.99392  -0.92583  -0.87236
 Alpha  occ. eigenvalues --   -0.82402  -0.78553  -0.74863  -0.73831  -0.72171
 Alpha  occ. eigenvalues --   -0.70091  -0.69123  -0.65970  -0.63192  -0.61750
 Alpha  occ. eigenvalues --   -0.60866  -0.56027  -0.55820  -0.52101  -0.50877
 Alpha  occ. eigenvalues --   -0.50877  -0.50832  -0.47081  -0.37724  -0.35488
 Alpha virt. eigenvalues --    0.02426   0.03602   0.04037   0.04188   0.04924
 Alpha virt. eigenvalues --    0.05714   0.06097   0.08191   0.08664   0.08693
 Alpha virt. eigenvalues --    0.11291   0.12009   0.12226   0.12992   0.13359

 Mulliken charges:
               1
     1  C    1.182946
     2  C    0.473469
     3  C    0.722016
     4  C    0.129904
     5  C    0.495261
     6  C    0.528232
     7  H   -0.457794
     8  H   -0.724179
     9  O   -0.679042
    10  C    0.849018
    11  H   -0.300716
    12  H   -0.083957
    13  H   -0.083959
    14  N    0.109803
    15  O   -0.575996
    16  O   -0.572655
    17  H   -0.456062
    18  H   -0.556288
 Sum of Mulliken charges =  -0.00000

 Dipole moment (field-independent basis, Debye):
    X=              6.4156    Y=             -0.8702    Z=              0.0001  Tot=              6.4743

 Test job not archived.
 1\1\GINC-SE048\SP\RHF\Aug-CC-pVDZ\C7H7N1O3\OHZDE\08-Apr-2025\0\\#t hf
 aug-cc-pvdz iop(5/13=1,5/36=2,99/5=2) pseudo=read geom=check guess=(re
 ad,tcheck) scf=(maxcycle=1)\\title\\0,1\C,0,-1.131001,0.009721,0.00000
 5\C,0,-0.571848,1.288731,0.000002\C,0,0.802913,1.42228,0.\C,0,-0.33319
 3,-1.126841,0.000006\C,0,1.050487,-0.994319,0.000004\C,0,1.626097,0.28
 3629,0.000001\H,0,-0.801819,-2.101038,0.000008\H,0,1.665188,-1.883375,
 0.000005\O,0,2.956875,0.525435,-0.000001\C,0,3.859883,-0.577442,0.\H,0
 ,4.856303,-0.140525,-0.000002\H,0,3.73348,-1.194763,-0.895126\H,0,3.73

 Normal termination of Gaussian 16 at Tue Apr  8 22:42:35 2025.
