 Gaussian 16, Revision C.01,

 ----------------------------------------------------------------------
 #t hf aug-cc-pvdz symm=none int=(grid=ultrafine) guess=(read,tcheck) s
 table=(opt,rrhf)
 ----------------------------------------------------------------------
 -----
 title
 -----
 Symbolic Z-matrix:
 Charge =  0 Multiplicity = 1

 SCF Done:  E(RHF) =  -2672.38130553     A.U. after   14 cycles
 Normal termination of Gaussian 16 at Wed Apr  9 00:47:20 2025.
 Gaussian 16:  ES64L-G16RevC.01  3-Jul-2019

 ----------------------------------------------------------------------
 #t hf aug-cc-pvdz iop(5/13=1,5/36=2,99/5=2) pseudo=read geom=check gue
 ss=(read,tcheck) scf=(maxcycle=1)
 ----------------------------------------------------------------------
 -----
 title
 -----
 Structure from the checkpoint file:  "BDE49_nonexpt_874_mol1.chk"
 Charge =  0 Multiplicity = 1

                         Standard orientation:
 ---------------------------------------------------------------------
 Center     Atomic      Atomic             Coordinates (Angstroms)
 Number     Number       Type             X           Y           Z
 ---------------------------------------------------------------------
      1         16           0       -0.951168   -0.999487    0.806490
      2          5           0       -2.214309    0.101444    0.041215
      3         16           0       -3.778875   -0.713273   -0.400134
      4         16           0       -2.088069    1.867328   -0.281290
      5         16           0        0.710278    0.183431    1.258023
      6          6           0        1.751948    0.015490   -0.248233
      7          9           0        1.121630    0.493115   -1.339972
      8         17           0        2.254079   -1.661199   -0.607928
      9         17           0        3.185249    1.043749    0.081032
     10          1           0       -0.830210    2.008990    0.181603
     11          1           0       -3.447812   -1.958516   -0.010731
 ---------------------------------------------------------------------

 SCF Done:  E(RHF) =  -2672.54726042     A.U. after    2 cycles

 The electronic state is 1-A.
 Alpha  occ. eigenvalues -- -103.70684-103.70133 -93.61473 -93.58970 -93.55890
 Alpha  occ. eigenvalues --  -93.55496 -26.18722 -11.51521 -10.73993 -10.73452
 Alpha  occ. eigenvalues --   -8.91005  -8.88719  -8.85833  -8.85491  -8.39709
 Alpha  occ. eigenvalues --   -8.39373  -8.39363  -8.39172  -8.38826  -8.38824
 Alpha  occ. eigenvalues --   -7.71721  -6.25083  -6.24836  -6.24510  -6.22867
 Alpha  occ. eigenvalues --   -6.22531  -6.22314  -6.20008  -6.19766  -6.19664
 Alpha  occ. eigenvalues --   -6.19505  -6.19445  -6.19178  -1.73381  -1.24900
 Alpha  occ. eigenvalues --   -1.17556  -1.08294  -1.01716  -0.96823  -0.96154
 Alpha  occ. eigenvalues --   -0.89221  -0.81291  -0.80622  -0.74492  -0.66566
 Alpha  occ. eigenvalues --   -0.62804  -0.60682  -0.58474  -0.54436  -0.53629
 Alpha  occ. eigenvalues --   -0.52268  -0.50975  -0.50197  -0.48630  -0.46788
 Alpha  occ. eigenvalues --   -0.45946  -0.45700  -0.40573  -0.39529  -0.38225
 Alpha virt. eigenvalues --    0.03947   0.04763   0.05779   0.06103   0.06688
 Alpha virt. eigenvalues --    0.07195   0.08024   0.08326   0.09055   0.09269
 Alpha virt. eigenvalues --    0.09382   0.10121   0.10613   0.11390   0.12704

 Mulliken charges:
               1
     1  S   -0.205932
     2  B    0.785489
     3  S   -0.276479
     4  S   -0.171017
     5  S    0.122713
     6  C    0.018285
     7  F   -0.363285
     8  Cl   0.004399
     9  Cl   0.028483
    10  H    0.052820
    11  H    0.004525
 Sum of Mulliken charges =  -0.00000

 Dipole moment (field-independent basis, Debye):
    X=              0.3599    Y=             -0.6407    Z=              1.1169  Tot=              1.3370

 Test job not archived.
 1\1\GINC-SE339\SP\RHF\Aug-CC-pVDZ\C1H2B1Cl2F1S4\OHZDE\09-Apr-2025\0\\#
 t hf aug-cc-pvdz iop(5/13=1,5/36=2,99/5=2) pseudo=read geom=check gues
 s=(read,tcheck) scf=(maxcycle=1)\\title\\0,1\S,0,-0.951168,-0.999487,0
 .80649\B,0,-2.214309,0.101444,0.041215\S,0,-3.778875,-0.713273,-0.4001
 34\S,0,-2.088069,1.867328,-0.28129\S,0,0.710278,0.183431,1.258023\C,0,
 1.751948,0.01549,-0.248233\F,0,1.12163,0.493115,-1.339972\Cl,0,2.25407
 9,-1.661199,-0.607928\Cl,0,3.185249,1.043749,0.081032\H,0,-0.83021,2.0
 0899,0.181603\H,0,-3.447812,-1.958516,-0.010731\\Version=ES64L-G16RevC

 Normal termination of Gaussian 16 at Wed Apr  9 00:47:28 2025.
