 Gaussian 16, Revision C.01,

 ----------------------------------------------------------------------
 #t hf aug-cc-pvdz symm=none int=(grid=ultrafine) guess=(read,tcheck) s
 table=(opt,rrhf)
 ----------------------------------------------------------------------
 -----
 title
 -----
 Symbolic Z-matrix:
 Charge =  0 Multiplicity = 1

 SCF Done:  E(RHF) =  -208.828531335     A.U. after   13 cycles
 Normal termination of Gaussian 16 at Tue Apr  8 22:36:25 2025.
 Gaussian 16:  ES64L-G16RevC.01  3-Jul-2019

 ----------------------------------------------------------------------
 #t hf aug-cc-pvdz iop(5/13=1,5/36=2,99/5=2) pseudo=read geom=check gue
 ss=(read,tcheck) scf=(maxcycle=1)
 ----------------------------------------------------------------------
 -----
 title
 -----
 Structure from the checkpoint file:  "BDE49_expt_1167_mol1.chk"
 Charge =  0 Multiplicity = 1

                         Standard orientation:
 ---------------------------------------------------------------------
 Center     Atomic      Atomic             Coordinates (Angstroms)
 Number     Number       Type             X           Y           Z
 ---------------------------------------------------------------------
      1          6           0        1.293365    0.369258   -0.000004
      2          6           0       -0.072198    1.021252    0.000003
      3          6           0       -1.190742    0.081834    0.000004
      4          1           0       -0.172753    1.675016   -0.874774
      5          1           0       -0.172747    1.675011    0.874784
      6          7           0       -2.066070   -0.667467    0.000006
      7          6           0        1.536332   -0.935019   -0.000007
      8          1           0        2.117289    1.077813   -0.000006
      9          1           0        0.737550   -1.669100   -0.000006
     10          1           0        2.552606   -1.310419   -0.000012
 ---------------------------------------------------------------------

 SCF Done:  E(RHF) =  -208.892394464     A.U. after    2 cycles

 The electronic state is 1-A.
 Alpha  occ. eigenvalues --  -15.64125 -11.30426 -11.29156 -11.27427 -11.25487
 Alpha  occ. eigenvalues --   -1.19843  -1.10109  -0.99340  -0.80895  -0.70143
 Alpha  occ. eigenvalues --   -0.66257  -0.64289  -0.59768  -0.55013  -0.52983
 Alpha  occ. eigenvalues --   -0.46474  -0.46449  -0.39210
 Alpha virt. eigenvalues --    0.02663   0.04157   0.04927   0.05235   0.06907
 Alpha virt. eigenvalues --    0.08940   0.09881   0.11009   0.13017   0.13059
 Alpha virt. eigenvalues --    0.13982   0.14525   0.15062   0.15518   0.16854

 Mulliken charges:
               1
     1  C    0.464310
     2  C    0.186596
     3  C   -0.190091
     4  H    0.110625
     5  H    0.110625
     6  N   -0.200071
     7  C    0.460347
     8  H   -0.395157
     9  H   -0.259816
    10  H   -0.287369
 Sum of Mulliken charges =  -0.00000

 Dipole moment (field-independent basis, Debye):
    X=              3.1815    Y=              2.4824    Z=             -0.0000  Tot=              4.0354

 Test job not archived.
 1\1\GINC-SE044\SP\RHF\Aug-CC-pVDZ\C4H5N1\OHZDE\08-Apr-2025\0\\#t hf au
 g-cc-pvdz iop(5/13=1,5/36=2,99/5=2) pseudo=read geom=check guess=(read
 ,tcheck) scf=(maxcycle=1)\\title\\0,1\C,0,1.293365,0.369258,-0.000004\
 C,0,-0.072198,1.021252,0.000003\C,0,-1.190742,0.081834,0.000004\H,0,-0
 .172753,1.675016,-0.874774\H,0,-0.172747,1.675011,0.874784\N,0,-2.0660
 7,-0.667467,0.000006\C,0,1.536332,-0.935019,-0.000007\H,0,2.117289,1.0
 77813,-0.000006\H,0,0.73755,-1.6691,-0.000006\H,0,2.552606,-1.310419,-
 0.000012\\Version=ES64L-G16RevC.01\State=1-A\HF=-208.8923945\RMSD=5.17

 Normal termination of Gaussian 16 at Tue Apr  8 22:36:28 2025.
