 Gaussian 16, Revision C.01,

 ----------------------------------------------------------------------
 #t hf aug-cc-pvdz symm=none int=(grid=ultrafine) guess=(read,tcheck) s
 table=(opt,rrhf)
 ----------------------------------------------------------------------
 -----
 title
 -----
 Symbolic Z-matrix:
 Charge =  0 Multiplicity = 1

 SCF Done:  E(RHF) =  -840.764278748     A.U. after   15 cycles
 Normal termination of Gaussian 16 at Tue Apr  8 23:18:42 2025.
 Gaussian 16:  ES64L-G16RevC.01  3-Jul-2019

 ----------------------------------------------------------------------
 #t hf aug-cc-pvdz iop(5/13=1,5/36=2,99/5=2) pseudo=read geom=check gue
 ss=(read,tcheck) scf=(maxcycle=1)
 ----------------------------------------------------------------------
 -----
 title
 -----
 Structure from the checkpoint file:  "BDE49_nonexpt_1073_mol1.chk"
 Charge =  0 Multiplicity = 1

                         Standard orientation:
 ---------------------------------------------------------------------
 Center     Atomic      Atomic             Coordinates (Angstroms)
 Number     Number       Type             X           Y           Z
 ---------------------------------------------------------------------
      1         17           0       -2.157297   -0.594532   -0.268877
      2          8           0       -0.490183   -0.438523   -0.726046
      3          6           0        0.392746    0.051669    0.344376
      4          8           0        0.072772    1.332900    0.711263
      5          8           0        1.616634    0.060756   -0.320840
      6          6           0        0.149481    2.333061   -0.316401
      7          1           0       -0.291739    3.228115    0.118450
      8          1           0       -0.420047    2.028556   -1.196408
      9          1           0        1.187051    2.524046   -0.594490
     10          6           0        2.202208   -1.193091   -0.683719
     11          1           0        3.050145   -0.947199   -1.321246
     12          1           0        1.497603   -1.814441   -1.238765
     13          1           0        2.563827   -1.732393    0.197199
     14          6           0        0.340251   -0.818406    1.588884
     15          1           0       -0.606166   -0.666335    2.104020
     16          1           0        1.152250   -0.520331    2.253337
     17          1           0        0.439221   -1.873434    1.334963
 ---------------------------------------------------------------------

 SCF Done:  E(RHF) =  -840.906604218     A.U. after    2 cycles

 The electronic state is 1-A.
 Alpha  occ. eigenvalues -- -103.70718 -20.64469 -20.59384 -20.58934 -11.42326
 Alpha  occ. eigenvalues --  -11.29594 -11.28287 -11.24046 -10.73393  -8.39156
 Alpha  occ. eigenvalues --   -8.38758  -8.38734  -1.42775  -1.33088  -1.32582
 Alpha  occ. eigenvalues --   -1.10180  -1.02830  -0.96024  -0.93068  -0.80499
 Alpha  occ. eigenvalues --   -0.73169  -0.72736  -0.69945  -0.65286  -0.63839
 Alpha  occ. eigenvalues --   -0.60745  -0.59855  -0.58296  -0.57302  -0.55806
 Alpha  occ. eigenvalues --   -0.54473  -0.52300  -0.50582  -0.48802  -0.47036
 Alpha  occ. eigenvalues --   -0.45721  -0.45080
 Alpha virt. eigenvalues --    0.03498   0.04587   0.04674   0.05384   0.05916
 Alpha virt. eigenvalues --    0.06460   0.06720   0.07104   0.07804   0.09430
 Alpha virt. eigenvalues --    0.10406   0.12809   0.13007   0.14062   0.14460

 Mulliken charges:
               1
     1  Cl   0.197664
     2  O   -0.754688
     3  C    0.633443
     4  O   -0.675807
     5  O   -0.687793
     6  C    0.671166
     7  H   -0.248833
     8  H   -0.032997
     9  H   -0.072755
    10  C    0.830630
    11  H   -0.252148
    12  H   -0.049956
    13  H   -0.144843
    14  C    0.645512
    15  H   -0.107350
    16  H    0.045885
    17  H    0.002871
 Sum of Mulliken charges =  -0.00000

 Dipole moment (field-independent basis, Debye):
    X=              1.2592    Y=             -0.8386    Z=              0.3420  Tot=              1.5511

 Test job not archived.
 1\1\GINC-SE094\SP\RHF\Aug-CC-pVDZ\C4H9Cl1O3\OHZDE\08-Apr-2025\0\\#t hf
  aug-cc-pvdz iop(5/13=1,5/36=2,99/5=2) pseudo=read geom=check guess=(r
 ead,tcheck) scf=(maxcycle=1)\\title\\0,1\Cl,0,-2.157297,-0.594532,-0.2
 68877\O,0,-0.490183,-0.438523,-0.726046\C,0,0.392746,0.051669,0.344376
 \O,0,0.072772,1.3329,0.711263\O,0,1.616634,0.060756,-0.32084\C,0,0.149
 481,2.333061,-0.316401\H,0,-0.29174,3.228115,0.11845\H,0,-0.420047,2.0
 28556,-1.196408\H,0,1.18705,2.524046,-0.59449\C,0,2.202208,-1.193091,-
 0.683719\H,0,3.050145,-0.947198,-1.321246\H,0,1.497603,-1.814441,-1.23

 Normal termination of Gaussian 16 at Tue Apr  8 23:18:50 2025.
