 Gaussian 16, Revision C.01,

 ----------------------------------------------------------------------
 #t hf aug-cc-pvdz symm=none int=(grid=ultrafine) guess=(read,tcheck) s
 table=(opt,rrhf)
 ----------------------------------------------------------------------
 -----
 title
 -----
 Symbolic Z-matrix:
 Charge =  0 Multiplicity = 1

 SCF Done:  E(RHF) =  -663.782271266     A.U. after   16 cycles
 Normal termination of Gaussian 16 at Tue Apr  8 23:31:45 2025.
 Gaussian 16:  ES64L-G16RevC.01  3-Jul-2019

 ----------------------------------------------------------------------
 #t hf aug-cc-pvdz iop(5/13=1,5/36=2,99/5=2) pseudo=read geom=check gue
 ss=(read,tcheck) scf=(maxcycle=1)
 ----------------------------------------------------------------------
 -----
 title
 -----
 Structure from the checkpoint file:  "BDE49_nonexpt_1422_mol1.chk"
 Charge =  0 Multiplicity = 1

                         Standard orientation:
 ---------------------------------------------------------------------
 Center     Atomic      Atomic             Coordinates (Angstroms)
 Number     Number       Type             X           Y           Z
 ---------------------------------------------------------------------
      1          6           0        0.186711    2.076333    0.004671
      2          6           0       -1.033450    1.402703   -0.017580
      3          6           0       -1.084686    0.002946   -0.012517
      4          6           0        1.378657    1.364560    0.011973
      5          6           0        1.343833   -0.037297    0.001295
      6          6           0        0.115655   -0.711750   -0.006783
      7          1           0        0.206130    3.159757    0.006202
      8          1           0       -1.956519    1.971804   -0.044358
      9         15           0       -2.750731   -0.806792   -0.048629
     10          1           0        2.332226    1.877365    0.020254
     11          6           0        2.565265   -0.784123    0.002298
     12          7           0        3.550344   -1.387284    0.003259
     13          1           0        0.111867   -1.794610   -0.006888
     14          1           0       -2.797836   -1.197394    1.316191
     15          1           0       -2.319218   -2.084293   -0.484928
 ---------------------------------------------------------------------

 SCF Done:  E(RHF) =  -663.895353632     A.U. after    2 cycles

 The electronic state is 1-A.
 Alpha  occ. eigenvalues --  -81.27737 -15.64597 -11.30508 -11.29489 -11.28831
 Alpha  occ. eigenvalues --  -11.28698 -11.28271 -11.28124 -11.27577  -7.78081
 Alpha  occ. eigenvalues --   -4.92153  -4.91997  -4.91797  -1.20625  -1.17476
 Alpha  occ. eigenvalues --   -1.06240  -1.04890  -0.89503  -0.87588  -0.81238
 Alpha  occ. eigenvalues --   -0.73655  -0.70643  -0.67726  -0.63732  -0.59305
 Alpha  occ. eigenvalues --   -0.56831  -0.56121  -0.54016  -0.53171  -0.50473
 Alpha  occ. eigenvalues --   -0.48420  -0.47019  -0.39223  -0.36792  -0.35605
 Alpha virt. eigenvalues --    0.02658   0.03585   0.04487   0.05542   0.05688
 Alpha virt. eigenvalues --    0.05965   0.06094   0.07742   0.08148   0.09335
 Alpha virt. eigenvalues --    0.09953   0.10511   0.10873   0.11642   0.12962

 Mulliken charges:
               1
     1  C    0.543985
     2  C    0.420939
     3  C   -0.177787
     4  C    0.189420
     5  C    1.961232
     6  C    0.255944
     7  H   -0.415417
     8  H   -0.528862
     9  P   -0.122564
    10  H   -0.526771
    11  C   -1.110525
    12  N   -0.133908
    13  H   -0.600210
    14  H    0.151426
    15  H    0.093098
 Sum of Mulliken charges =  -0.00000

 Dipole moment (field-independent basis, Debye):
    X=             -3.2230    Y=              2.3851    Z=              0.2781  Tot=              4.0191

 Test job not archived.
 1\1\GINC-SE015\SP\RHF\Aug-CC-pVDZ\C7H6N1P1\OHZDE\08-Apr-2025\0\\#t hf
 aug-cc-pvdz iop(5/13=1,5/36=2,99/5=2) pseudo=read geom=check guess=(re
 ad,tcheck) scf=(maxcycle=1)\\title\\0,1\C,0,0.186711,2.076333,0.004671
 \C,0,-1.03345,1.402703,-0.01758\C,0,-1.084686,0.002946,-0.012517\C,0,1
 .378657,1.36456,0.011973\C,0,1.343833,-0.037297,0.001295\C,0,0.115655,
 -0.71175,-0.006783\H,0,0.20613,3.159757,0.006202\H,0,-1.956519,1.97180
 4,-0.044358\P,0,-2.750731,-0.806792,-0.048629\H,0,2.332226,1.877365,0.
 020254\C,0,2.565265,-0.784123,0.002298\N,0,3.550344,-1.387284,0.003259

 Normal termination of Gaussian 16 at Tue Apr  8 23:31:52 2025.
