 Gaussian 16, Revision C.01,

 ----------------------------------------------------------------------
 #t hf aug-cc-pvdz symm=none int=(grid=ultrafine) guess=(read,tcheck) s
 table=opt
 ----------------------------------------------------------------------
 -----
 title
 -----
 Symbolic Z-matrix:
 Charge =  0 Multiplicity = 2

 SCF Done:  E(UHF) =  -808.016321229     A.U. after   16 cycles
 Normal termination of Gaussian 16 at Tue Apr  8 23:25:27 2025.
 Gaussian 16:  ES64L-G16RevC.01  3-Jul-2019

 ----------------------------------------------------------------------
 #t hf aug-cc-pvdz iop(5/13=1,5/36=2,99/5=2) pseudo=read geom=check gue
 ss=(read,tcheck) scf=(maxcycle=1)
 ----------------------------------------------------------------------
 -----
 title
 -----
 Structure from the checkpoint file:  "BDE49_expt_823_mol2.chk"
 Charge =  0 Multiplicity = 2

                         Standard orientation:
 ---------------------------------------------------------------------
 Center     Atomic      Atomic             Coordinates (Angstroms)
 Number     Number       Type             X           Y           Z
 ---------------------------------------------------------------------
      1         15           0        0.000002   -1.403658   -0.000556
      2          6           0        1.435967   -0.208821    0.184604
      3          6           0        2.612577   -0.892303    0.910074
      4          6           0       -1.435962   -0.208669   -0.184752
      5          6           0       -1.897312    0.353369    1.179864
      6          6           0        3.822428    0.044372    1.053721
      7          1           0        2.911189   -1.785615    0.345784
      8          1           0        2.290950   -1.244583    1.895137
      9          6           0        4.268315    0.609141   -0.301560
     10          1           0        4.649683   -0.488466    1.534041
     11          1           0        3.557557    0.874461    1.721519
     12          6           0        3.104804    1.294769   -1.029929
     13          1           0        4.651279   -0.209089   -0.925120
     14          1           0        5.097255    1.311348   -0.166052
     15          6           0        1.897285    0.354354   -1.179554
     16          1           0        3.426413    1.643404   -2.017026
     17          1           0        2.799966    2.186738   -0.467502
     18          1           0        1.074499    0.881061   -1.672856
     19          1           0        2.169586   -0.481659   -1.836114
     20          1           0        1.091303    0.632096    0.801789
     21          6           0       -3.104828    1.293906    1.030993
     22          1           0       -1.074538    0.879666    1.673624
     23          1           0       -2.169628   -0.483191    1.835721
     24          6           0       -2.612553   -0.891548   -0.910818
     25          1           0       -1.091285    0.632762   -0.801229
     26          6           0       -3.822402    0.045244   -1.053715
     27          1           0       -2.911179   -1.785330   -0.347279
     28          1           0       -2.290902   -1.243008   -1.896166
     29          6           0       -4.268321    0.608884    0.302025
     30          1           0       -4.649645   -0.487194   -1.534499
     31          1           0       -3.557514    0.875890   -1.720815
     32          1           0       -5.097259    1.311203    0.167082
     33          1           0       -4.651300   -0.209866    0.924893
     34          1           0       -2.799978    2.186344    0.469316
     35          1           0       -3.426462    1.641718    2.018372
 ---------------------------------------------------------------------

 SCF Done:  E(UHF) =  -808.171717376     A.U. after    2 cycles

 The electronic state is 2-A.
 Alpha  occ. eigenvalues --  -81.23951 -11.23661 -11.23659 -11.23165 -11.23163
 Alpha  occ. eigenvalues --  -11.22825 -11.22825 -11.22751 -11.22751 -11.22622
 Alpha  occ. eigenvalues --  -11.22622 -11.22553 -11.22553  -7.74374  -4.89264
 Alpha  occ. eigenvalues --   -4.88165  -4.87796  -1.10759  -1.10140  -1.00811
 Alpha  occ. eigenvalues --   -0.99715  -0.99646  -0.99062  -0.85124  -0.83421
 Alpha  occ. eigenvalues --   -0.83216  -0.81883  -0.76001  -0.75234  -0.70800
 Alpha  occ. eigenvalues --   -0.64227  -0.64177  -0.60869  -0.60750  -0.60076
 Alpha  occ. eigenvalues --   -0.60027  -0.59855  -0.56836  -0.53368  -0.52994
 Alpha  occ. eigenvalues --   -0.52837  -0.52588  -0.50091  -0.49467  -0.49039
 Alpha  occ. eigenvalues --   -0.48641  -0.48488  -0.46380  -0.45694  -0.44843
 Alpha  occ. eigenvalues --   -0.43662  -0.43513  -0.39128  -0.35143  -0.31371
 Alpha virt. eigenvalues --    0.03083   0.03720   0.03938   0.04256   0.04925
 Alpha virt. eigenvalues --    0.05073   0.05107   0.06139   0.06429   0.06625
 Alpha virt. eigenvalues --    0.07099   0.07187   0.07400   0.07790   0.08610

  Beta  occ. eigenvalues --  -81.23253 -11.23802 -11.23800 -11.23061 -11.23059
  Beta  occ. eigenvalues --  -11.22804 -11.22804 -11.22733 -11.22733 -11.22623
  Beta  occ. eigenvalues --  -11.22623 -11.22554 -11.22553  -7.73535  -4.87664
  Beta  occ. eigenvalues --   -4.87437  -4.86095  -1.10597  -1.10075  -1.00418
  Beta  occ. eigenvalues --   -0.99630  -0.99561  -0.98999  -0.84245  -0.83234
  Beta  occ. eigenvalues --   -0.83058  -0.81888  -0.75765  -0.75171  -0.67607
  Beta  occ. eigenvalues --   -0.64179  -0.63334  -0.60708  -0.60692  -0.60021
  Beta  occ. eigenvalues --   -0.59991  -0.59623  -0.55888  -0.52992  -0.52921
  Beta  occ. eigenvalues --   -0.52411  -0.52400  -0.49966  -0.49160  -0.48910
  Beta  occ. eigenvalues --   -0.48591  -0.48428  -0.45972  -0.45640  -0.44585
  Beta  occ. eigenvalues --   -0.43425  -0.43363  -0.38845  -0.33268
  Beta virt. eigenvalues --    0.03088   0.03703   0.03871   0.04268   0.04941
  Beta virt. eigenvalues --    0.05054   0.05079   0.05608   0.06452   0.06603
  Beta virt. eigenvalues --    0.06698   0.07224   0.07407   0.07787   0.08480

 Mulliken charges and spin densities:
               1          2
     1  P    0.204526   1.349260
     2  C   -0.443374  -0.274604
     3  C    0.522706   0.073305
     4  C   -0.443363  -0.274605
     5  C    0.399474   0.050236
     6  C    0.434813  -0.003900
     7  H   -0.118104  -0.003499
     8  H   -0.228399  -0.010526
     9  C    0.307377  -0.000112
    10  H   -0.097224  -0.000075
    11  H   -0.108531   0.000423
    12  C    0.298218   0.019965
    13  H   -0.102874   0.001178
    14  H   -0.110368  -0.000406
    15  C    0.399469   0.050236
    16  H   -0.122235  -0.000052
    17  H   -0.097556   0.001023
    18  H   -0.213363  -0.013636
    19  H   -0.102347  -0.017862
    20  H   -0.320477   0.003915
    21  C    0.298218   0.019964
    22  H   -0.213359  -0.013637
    23  H   -0.102349  -0.017862
    24  C    0.522708   0.073304
    25  H   -0.320477   0.003915
    26  C    0.434801  -0.003901
    27  H   -0.118104  -0.003499
    28  H   -0.228398  -0.010527
    29  C    0.307373  -0.000112
    30  H   -0.097224  -0.000074
    31  H   -0.108527   0.000424
    32  H   -0.110368  -0.000406
    33  H   -0.102873   0.001178
    34  H   -0.097553   0.001023
    35  H   -0.122234  -0.000052
 Sum of Mulliken charges =  -0.00000   1.00000

 Dipole moment (field-independent basis, Debye):
    X=              0.0000    Y=              1.6039    Z=              0.0006  Tot=              1.6039
                          Isotropic Fermi Contact Couplings
        Atom                 a.u.       MegaHertz       Gauss      10(-4) cm-1
     1  P(31)              0.23669     428.66131     152.95702     142.98602
     2  C(13)             -0.02743     -30.83582     -11.00299     -10.28572
     3  C(13)              0.00475       5.33896       1.90507       1.78088
     4  C(13)             -0.02743     -30.83583     -11.00299     -10.28573
     5  C(13)              0.02745      30.85965      11.01149      10.29367
     6  C(13)             -0.00024      -0.26486      -0.09451      -0.08835
     7  H(1)              -0.00037      -1.66604      -0.59448      -0.55573
     8  H(1)              -0.00027      -1.18632      -0.42331      -0.39571

 Normal termination of Gaussian 16 at Tue Apr  8 23:26:18 2025.
