 Gaussian 16, Revision C.01,

 ----------------------------------------------------------------------
 #t hf aug-cc-pvdz symm=none int=(grid=ultrafine) guess=(read,tcheck) s
 table=(opt,rrhf)
 ----------------------------------------------------------------------
 -----
 title
 -----
 Symbolic Z-matrix:
 Charge =  0 Multiplicity = 1

 SCF Done:  E(RHF) =  -515.336530886     A.U. after   16 cycles
 Normal termination of Gaussian 16 at Tue Apr  8 22:41:11 2025.
 Gaussian 16:  ES64L-G16RevC.01  3-Jul-2019

 ----------------------------------------------------------------------
 #t hf aug-cc-pvdz iop(5/13=1,5/36=2,99/5=2) pseudo=read geom=check gue
 ss=(read,tcheck) scf=(maxcycle=1)
 ----------------------------------------------------------------------
 -----
 title
 -----
 Structure from the checkpoint file:  "BDE49_expt_1179_mol1.chk"
 Charge =  0 Multiplicity = 1

                         Standard orientation:
 ---------------------------------------------------------------------
 Center     Atomic      Atomic             Coordinates (Angstroms)
 Number     Number       Type             X           Y           Z
 ---------------------------------------------------------------------
      1          6           0       -1.891579   -1.262549   -0.223068
      2          6           0       -1.284891   -0.295600    0.585829
      3          6           0       -3.040471   -0.930137   -0.930528
      4          6           0       -3.551088    0.359375   -0.812670
      5          6           0       -2.879685    1.255247    0.013720
      6          7           0       -1.776803    0.945541    0.701489
      7          1           0       -4.445135    0.664701   -1.342846
      8          1           0       -3.245237    2.271411    0.135657
      9          1           0       -1.464850   -2.256471   -0.293618
     10          1           0       -3.529751   -1.664149   -1.561299
     11          6           0       -0.017114   -0.598757    1.360823
     12          6           0        1.247563   -0.235441    0.597685
     13          1           0       -0.057444   -0.031441    2.294118
     14          1           0        0.011038   -1.660573    1.618387
     15          6           0        2.141346   -1.223912    0.179123
     16          6           0        1.537846    1.101193    0.299049
     17          6           0        3.300686   -0.890384   -0.520485
     18          6           0        3.580396    0.441479   -0.811729
     19          6           0        2.693849    1.436145   -0.399246
     20          1           0        1.933036   -2.264724    0.406845
     21          1           0        3.983983   -1.671766   -0.834834
     22          1           0        0.843868    1.873479    0.611159
     23          1           0        4.481781    0.704194   -1.354045
     24          1           0        2.905188    2.476589   -0.620974
 ---------------------------------------------------------------------

 SCF Done:  E(RHF) =  -515.484593545     A.U. after    2 cycles

 The electronic state is 1-A.
 Alpha  occ. eigenvalues --  -15.62672 -11.29238 -11.28558 -11.26871 -11.25011
 Alpha  occ. eigenvalues --  -11.24824 -11.24793 -11.24521 -11.24197 -11.24073
 Alpha  occ. eigenvalues --  -11.23964 -11.23870 -11.23474  -1.23269  -1.14267
 Alpha  occ. eigenvalues --   -1.07693  -1.06482  -1.01292  -1.00466  -0.93666
 Alpha  occ. eigenvalues --   -0.85904  -0.83666  -0.82464  -0.79433  -0.70974
 Alpha  occ. eigenvalues --   -0.69449  -0.67570  -0.64546  -0.63514  -0.63083
 Alpha  occ. eigenvalues --   -0.59411  -0.58736  -0.58407  -0.57264  -0.54299
 Alpha  occ. eigenvalues --   -0.53369  -0.52173  -0.49085  -0.48975  -0.48765
 Alpha  occ. eigenvalues --   -0.41156  -0.38327  -0.34553  -0.33601  -0.32491
 Alpha virt. eigenvalues --    0.03033   0.03564   0.03828   0.04433   0.04988
 Alpha virt. eigenvalues --    0.05548   0.06135   0.06332   0.07822   0.07900
 Alpha virt. eigenvalues --    0.08745   0.09184   0.09672   0.10390   0.10968

 Mulliken charges:
               1
     1  C    1.038634
     2  C   -0.078638
     3  C   -0.336228
     4  C    0.874017
     5  C    0.542262
     6  N   -0.504692
     7  H   -0.415097
     8  H   -0.423798
     9  H   -0.549224
    10  H   -0.430329
    11  C    0.512765
    12  C    0.367947
    13  H    0.003237
    14  H   -0.178018
    15  C    0.558238
    16  C    0.296935
    17  C    0.327067
    18  C    0.667249
    19  C    0.309553
    20  H   -0.580785
    21  H   -0.455505
    22  H   -0.643809
    23  H   -0.445672
    24  H   -0.456109
 Sum of Mulliken charges =   0.00000

 Dipole moment (field-independent basis, Debye):
    X=             -1.0186    Y=             -1.2803    Z=             -1.0234  Tot=              1.9298

 Test job not archived.
 1\1\GINC-SE331\SP\RHF\Aug-CC-pVDZ\C12H11N1\OHZDE\08-Apr-2025\0\\#t hf
 aug-cc-pvdz iop(5/13=1,5/36=2,99/5=2) pseudo=read geom=check guess=(re
 ad,tcheck) scf=(maxcycle=1)\\title\\0,1\C,0,-1.891579,-1.262549,-0.223
 068\C,0,-1.284891,-0.2956,0.585829\C,0,-3.040471,-0.930137,-0.930528\C
 ,0,-3.551088,0.359375,-0.81267\C,0,-2.879685,1.255247,0.01372\N,0,-1.7
 76803,0.945541,0.701489\H,0,-4.445135,0.664701,-1.342846\H,0,-3.245237
 ,2.271411,0.135657\H,0,-1.46485,-2.256471,-0.293618\H,0,-3.529751,-1.6
 64149,-1.561299\C,0,-0.017114,-0.598757,1.360823\C,0,1.247563,-0.23544

 Normal termination of Gaussian 16 at Tue Apr  8 22:41:30 2025.
