 Gaussian 16, Revision C.01,

 ----------------------------------------------------------------------
 #t hf aug-cc-pvdz symm=none int=(grid=ultrafine) guess=(read,tcheck) s
 table=(opt,rrhf)
 ----------------------------------------------------------------------
 -----
 title
 -----
 Symbolic Z-matrix:
 Charge =  0 Multiplicity = 1

 SCF Done:  E(RHF) =  -1064.44518349     A.U. after   14 cycles
 Normal termination of Gaussian 16 at Wed Apr  9 00:16:42 2025.
 Gaussian 16:  ES64L-G16RevC.01  3-Jul-2019

 ----------------------------------------------------------------------
 #t hf aug-cc-pvdz iop(5/13=1,5/36=2,99/5=2) pseudo=read geom=check gue
 ss=(read,tcheck) scf=(maxcycle=1)
 ----------------------------------------------------------------------
 -----
 title
 -----
 Structure from the checkpoint file:  "BDE49_nonexpt_2565_mol1.chk"
 Charge =  0 Multiplicity = 1

                         Standard orientation:
 ---------------------------------------------------------------------
 Center     Atomic      Atomic             Coordinates (Angstroms)
 Number     Number       Type             X           Y           Z
 ---------------------------------------------------------------------
      1         17           0        2.011695   -0.834410   -0.000066
      2         16           0        0.963353    0.981168    0.000038
      3          6           0       -0.801658    0.556907    0.000030
      4          8           0       -1.511016    1.539386   -0.000005
      5          7           0       -1.163262   -0.734719    0.000032
      6          6           0       -2.562557   -1.145772    0.000012
      7          1           0       -0.436516   -1.434297    0.000054
      8          1           0       -2.791141   -1.735288   -0.891112
      9          1           0       -3.177360   -0.247764   -0.000035
     10          1           0       -2.791187   -1.735225    0.891167
 ---------------------------------------------------------------------

 SCF Done:  E(RHF) =  -1064.55098192     A.U. after    2 cycles

 The electronic state is 1-A.
 Alpha  occ. eigenvalues -- -103.69763 -93.61848 -20.57116 -15.68230 -11.42215
 Alpha  occ. eigenvalues --  -11.29404 -10.72901  -8.91226  -8.38626  -8.38308
 Alpha  occ. eigenvalues --   -8.38256  -6.25289  -6.25003  -6.24572  -1.38738
 Alpha  occ. eigenvalues --   -1.23499  -1.18051  -1.00614  -0.93917  -0.81738
 Alpha  occ. eigenvalues --   -0.71700  -0.68270  -0.65713  -0.61617  -0.58866
 Alpha  occ. eigenvalues --   -0.57637  -0.53453  -0.52903  -0.50871  -0.44538
 Alpha  occ. eigenvalues --   -0.42721  -0.39162
 Alpha virt. eigenvalues --    0.02904   0.03539   0.04979   0.05684   0.06578
 Alpha virt. eigenvalues --    0.08534   0.10905   0.11827   0.12046   0.12529
 Alpha virt. eigenvalues --    0.13248   0.13587   0.15107   0.15506   0.15839

 Mulliken charges:
               1
     1  Cl  -0.343847
     2  S    0.568354
     3  C    0.040747
     4  O   -0.450771
     5  N   -0.203726
     6  C    0.773611
     7  H   -0.041136
     8  H   -0.090550
     9  H   -0.162139
    10  H   -0.090543
 Sum of Mulliken charges =  -0.00000

 Dipole moment (field-independent basis, Debye):
    X=             -0.6483    Y=             -3.5137    Z=              0.0001  Tot=              3.5730

 Test job not archived.
 1\1\GINC-SE103\SP\RHF\Aug-CC-pVDZ\C2H4Cl1N1O1S1\OHZDE\09-Apr-2025\0\\#
 t hf aug-cc-pvdz iop(5/13=1,5/36=2,99/5=2) pseudo=read geom=check gues
 s=(read,tcheck) scf=(maxcycle=1)\\title\\0,1\Cl,0,2.011695,-0.83441,-0
 .000066\S,0,0.963353,0.981168,0.000038\C,0,-0.801658,0.556907,0.00003\
 O,0,-1.511016,1.539386,-0.000005\N,0,-1.163262,-0.734719,0.000032\C,0,
 -2.562557,-1.145772,0.000012\H,0,-0.436516,-1.434297,0.000054\H,0,-2.7
 91141,-1.735288,-0.891112\H,0,-3.17736,-0.247764,-0.000035\H,0,-2.7911
 87,-1.735225,0.891167\\Version=ES64L-G16RevC.01\State=1-A\HF=-1064.550

 Normal termination of Gaussian 16 at Wed Apr  9 00:16:46 2025.
