 Gaussian 16, Revision C.01,

 ----------------------------------------------------------------------
 #t hf aug-cc-pvdz symm=none int=(grid=ultrafine) guess=(read,tcheck) s
 table=(opt,rrhf)
 ----------------------------------------------------------------------
 -----
 title
 -----
 Symbolic Z-matrix:
 Charge =  0 Multiplicity = 1

 SCF Done:  E(RHF) =  -909.751545554     A.U. after   12 cycles
 Normal termination of Gaussian 16 at Tue Apr  8 22:44:43 2025.
 Gaussian 16:  ES64L-G16RevC.01  3-Jul-2019

 ----------------------------------------------------------------------
 #t hf aug-cc-pvdz iop(5/13=1,5/36=2,99/5=2) pseudo=read geom=check gue
 ss=(read,tcheck) scf=(maxcycle=1)
 ----------------------------------------------------------------------
 -----
 title
 -----
 Structure from the checkpoint file:  "BDE49_expt_1321_mol1.chk"
 Charge =  0 Multiplicity = 1

                         Standard orientation:
 ---------------------------------------------------------------------
 Center     Atomic      Atomic             Coordinates (Angstroms)
 Number     Number       Type             X           Y           Z
 ---------------------------------------------------------------------
      1          6           0        0.046991   -2.125867   -0.053191
      2          7           0        0.003433   -0.646287   -0.108041
      3          1           0       -0.590687   -2.577503   -0.817544
      4          1           0       -0.262276   -2.522945    0.922129
      5          1           0        1.060236   -2.493367   -0.237447
      6         14           0        1.576896    0.116523   -0.011345
      7         14           0       -1.578218    0.107735   -0.007472
      8          6           0       -2.893801   -1.180092   -0.413458
      9          1           0       -2.776952   -1.583378   -1.423786
     10          1           0       -3.880689   -0.708919   -0.361584
     11          1           0       -2.896757   -2.019807    0.286769
     12          6           0       -1.776258    1.517731   -1.241030
     13          1           0       -1.499470    1.200528   -2.250769
     14          1           0       -1.182366    2.397806   -0.987724
     15          1           0       -2.825762    1.830348   -1.267456
     16          6           0       -1.930991    0.764715    1.726144
     17          1           0       -2.933911    1.201082    1.784335
     18          1           0       -1.874853   -0.037296    2.468962
     19          1           0       -1.218106    1.539386    2.023574
     20          6           0        2.627151   -0.365939   -1.501806
     21          1           0        2.771506   -1.447330   -1.581152
     22          1           0        3.620743    0.089978   -1.436706
     23          1           0        2.162308   -0.024824   -2.431645
     24          6           0        1.447395    1.993379    0.024597
     25          1           0        1.094080    2.405765   -0.922953
     26          1           0        2.448179    2.400306    0.204386
     27          1           0        0.800428    2.364483    0.823640
     28          6           0        2.475578   -0.435452    1.553846
     29          1           0        3.480528   -0.002711    1.597890
     30          1           0        1.935003   -0.115530    2.450037
     31          1           0        2.586904   -1.522537    1.606165
 ---------------------------------------------------------------------

 SCF Done:  E(RHF) =  -909.919728088     A.U. after    2 cycles

 The electronic state is 1-A.
 Alpha  occ. eigenvalues --  -69.05481 -69.05468 -15.57426 -11.26075 -11.20587
 Alpha  occ. eigenvalues --  -11.20328 -11.20144 -11.20127 -11.20109 -11.20082
 Alpha  occ. eigenvalues --   -6.80437  -6.80433  -3.91282  -3.91262  -3.91206
 Alpha  occ. eigenvalues --   -3.91197  -3.91149  -3.91144  -1.10980  -0.95563
 Alpha  occ. eigenvalues --   -0.95363  -0.91601  -0.91368  -0.91138  -0.90974
 Alpha  occ. eigenvalues --   -0.87526  -0.67436  -0.60744  -0.59533  -0.58730
 Alpha  occ. eigenvalues --   -0.58342  -0.56694  -0.55889  -0.55803  -0.55411
 Alpha  occ. eigenvalues --   -0.54099  -0.53727  -0.53448  -0.53318  -0.52990
 Alpha  occ. eigenvalues --   -0.52446  -0.52058  -0.51353  -0.45137  -0.44606
 Alpha  occ. eigenvalues --   -0.42658  -0.42398  -0.42024  -0.34611
 Alpha virt. eigenvalues --    0.02863   0.03577   0.04005   0.04150   0.05839
 Alpha virt. eigenvalues --    0.05844   0.06116   0.06397   0.06566   0.07609
 Alpha virt. eigenvalues --    0.07708   0.07772   0.08000   0.08085   0.08437

 Mulliken charges:
               1
     1  C    0.863021
     2  N   -0.376753
     3  H   -0.213151
     4  H   -0.089612
     5  H   -0.387361
     6  Si   0.742111
     7  Si   1.088009
     8  C    0.648224
     9  H   -0.355444
    10  H   -0.473681
    11  H   -0.320904
    12  C    0.721602
    13  H   -0.287813
    14  H   -0.395545
    15  H   -0.265107
    16  C    0.706147
    17  H   -0.256341
    18  H   -0.297772
    19  H   -0.331711
    20  C    0.692107
    21  H   -0.321183
    22  H   -0.338094
    23  H   -0.282735
    24  C    0.791004
    25  H   -0.323714
    26  H   -0.435431
    27  H   -0.384364
    28  C    0.766978
    29  H   -0.286070
    30  H   -0.285307
    31  H   -0.311110
 Sum of Mulliken charges =  -0.00000

 Dipole moment (field-independent basis, Debye):
    X=              0.0065    Y=             -0.3493    Z=              0.0159  Tot=              0.3498

 Test job not archived.
 1\1\GINC-SE212\SP\RHF\Aug-CC-pVDZ\C7H21N1Si2\OHZDE\08-Apr-2025\0\\#t h
 f aug-cc-pvdz iop(5/13=1,5/36=2,99/5=2) pseudo=read geom=check guess=(
 read,tcheck) scf=(maxcycle=1)\\title\\0,1\C,0,0.046991,-2.125867,-0.05
 3191\N,0,0.003433,-0.646287,-0.108041\H,0,-0.590687,-2.577503,-0.81754
 4\H,0,-0.262276,-2.522945,0.922129\H,0,1.060236,-2.493367,-0.237447\Si
 ,0,1.576896,0.116523,-0.011345\Si,0,-1.578218,0.107735,-0.007472\C,0,-
 2.893801,-1.180092,-0.413458\H,0,-2.776952,-1.583378,-1.423786\H,0,-3.
 880689,-0.708919,-0.361584\H,0,-2.896757,-2.019807,0.286769\C,0,-1.776

 Normal termination of Gaussian 16 at Tue Apr  8 22:45:13 2025.
