 Gaussian 16, Revision C.01,

 ----------------------------------------------------------------------
 #t hf aug-cc-pvdz symm=none int=(grid=ultrafine) guess=(read,tcheck) s
 table=(opt,rrhf)
 ----------------------------------------------------------------------
 -----
 title
 -----
 Symbolic Z-matrix:
 Charge =  0 Multiplicity = 1

 SCF Done:  E(RHF) =  -801.522745710     A.U. after   13 cycles
 Normal termination of Gaussian 16 at Tue Apr  8 23:56:20 2025.
 Gaussian 16:  ES64L-G16RevC.01  3-Jul-2019

 ----------------------------------------------------------------------
 #t hf aug-cc-pvdz iop(5/13=1,5/36=2,99/5=2) pseudo=read geom=check gue
 ss=(read,tcheck) scf=(maxcycle=1)
 ----------------------------------------------------------------------
 -----
 title
 -----
 Structure from the checkpoint file:  "BDE49_nonexpt_2054_mol1.chk"
 Charge =  0 Multiplicity = 1

                         Standard orientation:
 ---------------------------------------------------------------------
 Center     Atomic      Atomic             Coordinates (Angstroms)
 Number     Number       Type             X           Y           Z
 ---------------------------------------------------------------------
      1         14           0       -1.625464   -0.407738   -0.000010
      2          6           0        0.084034    0.490945   -0.000087
      3          8           0        0.125552    1.692808    0.000042
      4         16           0        1.643817   -0.455814    0.000014
      5          1           0        1.084233   -1.676926    0.000083
      6          1           0       -2.339519    0.033826   -1.214679
      7          1           0       -2.339414    0.033818    1.214724
      8          1           0       -1.458492   -1.877494   -0.000022
 ---------------------------------------------------------------------

 SCF Done:  E(RHF) =  -801.600369362     A.U. after    2 cycles

 The electronic state is 1-A.
 Alpha  occ. eigenvalues --  -93.56533 -69.09944 -20.59628 -11.38020  -8.86382
 Alpha  occ. eigenvalues --   -6.85267  -6.20482  -6.20297  -6.19959  -3.96067
 Alpha  occ. eigenvalues --   -3.96019  -3.96003  -1.38699  -1.01116  -0.81230
 Alpha  occ. eigenvalues --   -0.72994  -0.65501  -0.61566  -0.58848  -0.54216
 Alpha  occ. eigenvalues --   -0.50628  -0.50174  -0.40085  -0.39615
 Alpha virt. eigenvalues --    0.02992   0.04815   0.05313   0.05660   0.06728
 Alpha virt. eigenvalues --    0.06956   0.08031   0.09447   0.10197   0.11564
 Alpha virt. eigenvalues --    0.13020   0.14179   0.14804   0.15821   0.15828

 Mulliken charges:
               1
     1  Si   0.409669
     2  C   -0.158487
     3  O   -0.453394
     4  S    0.246970
     5  H    0.059984
     6  H   -0.012858
     7  H   -0.012873
     8  H   -0.079011
 Sum of Mulliken charges =   0.00000

 Dipole moment (field-independent basis, Debye):
    X=             -1.4782    Y=             -3.2903    Z=             -0.0001  Tot=              3.6071

 Test job not archived.
 1\1\GINC-SE070\SP\RHF\Aug-CC-pVDZ\C1H4O1S1Si1\OHZDE\08-Apr-2025\0\\#t
 hf aug-cc-pvdz iop(5/13=1,5/36=2,99/5=2) pseudo=read geom=check guess=
 (read,tcheck) scf=(maxcycle=1)\\title\\0,1\Si,0,-1.625464,-0.407738,-0
 .00001\C,0,0.084034,0.490945,-0.000087\O,0,0.125552,1.692808,0.000042\
 S,0,1.643817,-0.455814,0.000014\H,0,1.084233,-1.676926,0.000083\H,0,-2
 .339519,0.033827,-1.214679\H,0,-2.339414,0.033819,1.214724\H,0,-1.4584
 92,-1.877494,-0.000022\\Version=ES64L-G16RevC.01\State=1-A\HF=-801.600
 3694\RMSD=5.812e-03\Dipole=-0.5815759,-1.2945113,-0.0000415\Quadrupole

 Normal termination of Gaussian 16 at Tue Apr  8 23:56:23 2025.
