 Gaussian 16, Revision C.01,

 ----------------------------------------------------------------------
 #t hf aug-cc-pvdz symm=none int=(grid=ultrafine) guess=(read,tcheck) s
 table=(opt,rrhf)
 ----------------------------------------------------------------------
 -----
 title
 -----
 Symbolic Z-matrix:
 Charge =  0 Multiplicity = 1

 SCF Done:  E(RHF) =  -611.077903702     A.U. after   15 cycles
 Normal termination of Gaussian 16 at Tue Apr  8 23:32:01 2025.
 Gaussian 16:  ES64L-G16RevC.01  3-Jul-2019

 ----------------------------------------------------------------------
 #t hf aug-cc-pvdz iop(5/13=1,5/36=2,99/5=2) pseudo=read geom=check gue
 ss=(read,tcheck) scf=(maxcycle=1)
 ----------------------------------------------------------------------
 -----
 title
 -----
 Structure from the checkpoint file:  "BDE49_nonexpt_1425_mol1.chk"
 Charge =  0 Multiplicity = 1

                         Standard orientation:
 ---------------------------------------------------------------------
 Center     Atomic      Atomic             Coordinates (Angstroms)
 Number     Number       Type             X           Y           Z
 ---------------------------------------------------------------------
      1          6           0       -1.865732   -1.313296    0.004632
      2          6           0       -0.482962   -1.471769    0.013891
      3          6           0        0.372385   -0.363274    0.013690
      4          6           0       -2.411525   -0.033606   -0.000964
      5          6           0       -1.568696    1.074304   -0.002276
      6          6           0       -0.178019    0.935298   -0.002451
      7          1           0       -2.509752   -2.185504    0.007459
      8          1           0       -0.064117   -2.472093    0.026658
      9         15           0        2.201309   -0.593191   -0.112676
     10          1           0       -1.995737    2.072099   -0.007323
     11          1           0       -3.486992    0.103638   -0.005216
     12          6           0        0.704037    2.159975    0.000999
     13          1           0        0.116599    3.067614   -0.147422
     14          1           0        1.458965    2.114623   -0.791030
     15          1           0        1.241237    2.264216    0.950238
     16          1           0        2.232441   -1.934577    0.341316
     17          1           0        2.570804   -0.057942    1.150330
 ---------------------------------------------------------------------

 SCF Done:  E(RHF) =  -611.178323043     A.U. after    2 cycles

 The electronic state is 1-A.
 Alpha  occ. eigenvalues --  -81.25912 -11.25776 -11.25340 -11.24927 -11.24699
 Alpha  occ. eigenvalues --  -11.24408 -11.24339 -11.23871  -7.76283  -4.90367
 Alpha  occ. eigenvalues --   -4.90296  -4.89961  -1.14822  -1.04389  -1.01449
 Alpha  occ. eigenvalues --   -0.93578  -0.84612  -0.81394  -0.76354  -0.68343
 Alpha  occ. eigenvalues --   -0.65033  -0.62562  -0.58574  -0.58093  -0.55970
 Alpha  occ. eigenvalues --   -0.54223  -0.51393  -0.50084  -0.49246  -0.47061
 Alpha  occ. eigenvalues --   -0.38434  -0.33608  -0.31549
 Alpha virt. eigenvalues --    0.03359   0.03994   0.04156   0.05521   0.05789
 Alpha virt. eigenvalues --    0.06346   0.07480   0.07938   0.08531   0.09365
 Alpha virt. eigenvalues --    0.10034   0.10731   0.11114   0.12266   0.12793

 Mulliken charges:
               1
     1  C    0.473910
     2  C    0.514358
     3  C   -0.461905
     4  C    0.307481
     5  C    0.953972
     6  C   -0.249338
     7  H   -0.441030
     8  H   -0.569774
     9  P   -0.207146
    10  H   -0.577623
    11  H   -0.443661
    12  C    0.495727
    13  H   -0.227420
    14  H    0.100575
    15  H    0.054933
    16  H    0.105986
    17  H    0.170953
 Sum of Mulliken charges =  -0.00000

 Dipole moment (field-independent basis, Debye):
    X=             -0.6474    Y=              0.2740    Z=              0.5343  Tot=              0.8830

 Test job not archived.
 1\1\GINC-SE059\SP\RHF\Aug-CC-pVDZ\C7H9P1\OHZDE\08-Apr-2025\0\\#t hf au
 g-cc-pvdz iop(5/13=1,5/36=2,99/5=2) pseudo=read geom=check guess=(read
 ,tcheck) scf=(maxcycle=1)\\title\\0,1\C,0,-1.865732,-1.313296,0.004632
 \C,0,-0.482962,-1.471769,0.013891\C,0,0.372385,-0.363274,0.01369\C,0,-
 2.411525,-0.033606,-0.000964\C,0,-1.568696,1.074304,-0.002276\C,0,-0.1
 78019,0.935298,-0.002451\H,0,-2.509751,-2.185504,0.007459\H,0,-0.06411
 6,-2.472093,0.026658\P,0,2.201309,-0.593191,-0.112676\H,0,-1.995737,2.
 072099,-0.007323\H,0,-3.486992,0.103637,-0.005216\C,0,0.704037,2.15997

 Normal termination of Gaussian 16 at Tue Apr  8 23:32:09 2025.
