 Gaussian 16, Revision C.01,

 ----------------------------------------------------------------------
 #t hf aug-cc-pvdz symm=none int=(grid=ultrafine) guess=(read,tcheck) s
 table=(opt,rrhf)
 ----------------------------------------------------------------------
 -----
 title
 -----
 Symbolic Z-matrix:
 Charge =  0 Multiplicity = 1

 SCF Done:  E(RHF) =  -1003.76111771     A.U. after   13 cycles
 Normal termination of Gaussian 16 at Tue Apr  8 23:42:20 2025.
 Gaussian 16:  ES64L-G16RevC.01  3-Jul-2019

 ----------------------------------------------------------------------
 #t hf aug-cc-pvdz iop(5/13=1,5/36=2,99/5=2) pseudo=read geom=check gue
 ss=(read,tcheck) scf=(maxcycle=1)
 ----------------------------------------------------------------------
 -----
 title
 -----
 Structure from the checkpoint file:  "BDE49_nonexpt_1712_mol1.chk"
 Charge =  0 Multiplicity = 1

                         Standard orientation:
 ---------------------------------------------------------------------
 Center     Atomic      Atomic             Coordinates (Angstroms)
 Number     Number       Type             X           Y           Z
 ---------------------------------------------------------------------
      1          6           0        2.210128    0.653799    0.079198
      2         16           0        1.198793   -0.876118   -0.026979
      3          1           0        2.082385    1.251258   -0.820825
      4          1           0        3.245071    0.321778    0.160601
      5          1           0        1.938255    1.227273    0.963353
      6         15           0       -0.726918   -0.078882   -0.034415
      7          8           0       -0.864209    0.932534    1.221185
      8          8           0       -1.750338   -1.125243   -0.076396
      9          1           0       -1.195727    0.467210    1.999753
     10          8           0       -0.658814    0.995356   -1.219718
     11          1           0       -1.420777    1.589638   -1.230755
 ---------------------------------------------------------------------

 SCF Done:  E(RHF) =  -1003.93368831     A.U. after    2 cycles

 The electronic state is 1-A.
 Alpha  occ. eigenvalues --  -93.55540 -81.44022 -20.62758 -20.62735 -20.53358
 Alpha  occ. eigenvalues --  -11.28613  -8.85436  -7.92186  -6.19548  -6.19336
 Alpha  occ. eigenvalues --   -6.19014  -5.06813  -5.06680  -5.06370  -1.39225
 Alpha  occ. eigenvalues --   -1.35543  -1.26888  -1.04776  -0.90129  -0.83073
 Alpha  occ. eigenvalues --   -0.77753  -0.68782  -0.67073  -0.63309  -0.61239
 Alpha  occ. eigenvalues --   -0.60932  -0.59087  -0.58544  -0.54338  -0.49805
 Alpha  occ. eigenvalues --   -0.48109  -0.45483  -0.38406
 Alpha virt. eigenvalues --    0.02733   0.04191   0.04647   0.06046   0.06656
 Alpha virt. eigenvalues --    0.08649   0.10023   0.11322   0.11924   0.13299
 Alpha virt. eigenvalues --    0.13670   0.14594   0.14866   0.16305   0.16547

 Mulliken charges:
               1
     1  C    0.074884
     2  S   -0.108944
     3  H   -0.046797
     4  H   -0.089989
     5  H   -0.068871
     6  P    2.154702
     7  O   -0.710511
     8  O   -0.870086
     9  H    0.179155
    10  O   -0.678240
    11  H    0.164695
 Sum of Mulliken charges =  -0.00000

 Dipole moment (field-independent basis, Debye):
    X=              1.9775    Y=              3.6371    Z=              1.3776  Tot=              4.3631

 Test job not archived.
 1\1\GINC-SE461\SP\RHF\Aug-CC-pVDZ\C1H5O3P1S1\OHZDE\08-Apr-2025\0\\#t h
 f aug-cc-pvdz iop(5/13=1,5/36=2,99/5=2) pseudo=read geom=check guess=(
 read,tcheck) scf=(maxcycle=1)\\title\\0,1\C,0,2.210128,0.653799,0.0791
 98\S,0,1.198793,-0.876118,-0.026979\H,0,2.082385,1.251258,-0.820825\H,
 0,3.245071,0.321778,0.160601\H,0,1.938255,1.227273,0.963353\P,0,-0.726
 918,-0.078882,-0.034415\O,0,-0.864209,0.932534,1.221185\O,0,-1.750338,
 -1.125243,-0.076396\H,0,-1.195727,0.46721,1.999753\O,0,-0.658814,0.995
 356,-1.219718\H,0,-1.420777,1.589638,-1.230755\\Version=ES64L-G16RevC.

 Normal termination of Gaussian 16 at Tue Apr  8 23:42:24 2025.
