 Gaussian 16, Revision C.01,

 ----------------------------------------------------------------------
 #t hf aug-cc-pvdz symm=none int=(grid=ultrafine) guess=(read,tcheck) s
 table=(opt,rrhf)
 ----------------------------------------------------------------------
 -----
 title
 -----
 Symbolic Z-matrix:
 Charge =  0 Multiplicity = 1

 SCF Done:  E(RHF) =  -270.065135213     A.U. after   14 cycles

 1\1\GINC-SE222\Stability\RHF\Aug-CC-pVDZ\C5H10O1\OHZDE\08-Apr-2025\0\\
 #t hf aug-cc-pvdz symm=none int=(grid=ultrafine) guess=(read,tcheck) s
 table=(opt,rrhf)\\title\\0,1\C,0,0.627113,0.230386,0.403169\C,0,-0.753
 187,-0.24844,-0.062549\O,0,-0.877436,-1.180212,-0.825079\C,0,-1.956331
 ,0.510198,0.467487\H,0,-1.800465,1.591696,0.428426\H,0,-2.106119,0.247
 456,1.520746\H,0,-2.847119,0.236735,-0.096814\C,0,1.105605,1.346328,-0
 .550141\H,0,1.226446,0.954053,-1.563438\H,0,2.070921,1.737531,-0.21900
 2\H,0,0.403342,2.183308,-0.591442\C,0,1.629539,-0.925253,0.459482\H,0,

 Normal termination of Gaussian 16 at Tue Apr  8 23:00:07 2025.
 Gaussian 16:  ES64L-G16RevC.01  3-Jul-2019

 ----------------------------------------------------------------------
 #t hf aug-cc-pvdz iop(5/13=1,5/36=2,99/5=2) pseudo=read geom=check gue
 ss=(read,tcheck) scf=(maxcycle=1)
 ----------------------------------------------------------------------
 -----
 title
 -----
 Structure from the checkpoint file:  "BDE49_expt_222_mol1.chk"
 Charge =  0 Multiplicity = 1

                         Standard orientation:
 ---------------------------------------------------------------------
 Center     Atomic      Atomic             Coordinates (Angstroms)
 Number     Number       Type             X           Y           Z
 ---------------------------------------------------------------------
      1          6           0        0.627113    0.230386    0.403169
      2          6           0       -0.753187   -0.248440   -0.062549
      3          8           0       -0.877436   -1.180212   -0.825079
      4          6           0       -1.956331    0.510198    0.467487
      5          1           0       -1.800465    1.591696    0.428426
      6          1           0       -2.106119    0.247456    1.520746
      7          1           0       -2.847119    0.236736   -0.096814
      8          6           0        1.105605    1.346328   -0.550141
      9          1           0        1.226446    0.954053   -1.563438
     10          1           0        2.070921    1.737531   -0.219002
     11          1           0        0.403343    2.183308   -0.591442
     12          6           0        1.629539   -0.925253    0.459482
     13          1           0        0.511799    0.668201    1.402294
     14          1           0        1.704492   -1.409260   -0.515842
     15          1           0        1.320446   -1.684963    1.181925
     16          1           0        2.619305   -0.562378    0.749085
 ---------------------------------------------------------------------

 SCF Done:  E(RHF) =  -270.151371430     A.U. after    2 cycles

 The electronic state is 1-A.
 Alpha  occ. eigenvalues --  -20.55825 -11.33837 -11.25247 -11.24470 -11.23969
 Alpha  occ. eigenvalues --  -11.22624  -1.35066  -1.07782  -0.99838  -0.93478
 Alpha  occ. eigenvalues --   -0.84980  -0.72917  -0.67258  -0.63958  -0.61931
 Alpha  occ. eigenvalues --   -0.60166  -0.57499  -0.55626  -0.54762  -0.52529
 Alpha  occ. eigenvalues --   -0.51056  -0.48850  -0.48206  -0.41392
 Alpha virt. eigenvalues --    0.03126   0.04181   0.04516   0.05126   0.06485
 Alpha virt. eigenvalues --    0.06542   0.07155   0.07565   0.08251   0.09215
 Alpha virt. eigenvalues --    0.11268   0.13248   0.13695   0.13849   0.14682

 Mulliken charges:
               1
     1  C   -0.903613
     2  C    0.075521
     3  O   -0.540206
     4  C    0.363404
     5  H   -0.015144
     6  H    0.085020
     7  H   -0.070054
     8  C    0.682910
     9  H    0.013980
    10  H   -0.073214
    11  H   -0.128634
    12  C    0.716112
    13  H   -0.127120
    14  H    0.017732
    15  H   -0.059709
    16  H   -0.036985
 Sum of Mulliken charges =  -0.00000

 Dipole moment (field-independent basis, Debye):
    X=              0.4919    Y=              2.6653    Z=              2.0841  Tot=              3.4190

 Test job not archived.
 1\1\GINC-SE222\SP\RHF\Aug-CC-pVDZ\C5H10O1\OHZDE\08-Apr-2025\0\\#t hf a
 ug-cc-pvdz iop(5/13=1,5/36=2,99/5=2) pseudo=read geom=check guess=(rea
 d,tcheck) scf=(maxcycle=1)\\title\\0,1\C,0,0.627113,0.230386,0.403169\
 C,0,-0.753187,-0.24844,-0.062549\O,0,-0.877436,-1.180212,-0.825079\C,0
 ,-1.956331,0.510198,0.467487\H,0,-1.800465,1.591696,0.428426\H,0,-2.10
 6119,0.247456,1.520746\H,0,-2.847119,0.236735,-0.096814\C,0,1.105605,1
 .346328,-0.550141\H,0,1.226446,0.954053,-1.563438\H,0,2.070921,1.73753
 1,-0.219002\H,0,0.403342,2.183308,-0.591442\C,0,1.629539,-0.925253,0.4

 Normal termination of Gaussian 16 at Tue Apr  8 23:00:12 2025.
