 Gaussian 16, Revision C.01,

 ----------------------------------------------------------------------
 #t hf aug-cc-pvdz symm=none int=(grid=ultrafine) guess=(read,tcheck) s
 table=(opt,rrhf)
 ----------------------------------------------------------------------
 -----
 title
 -----
 Symbolic Z-matrix:
 Charge =  0 Multiplicity = 1

 SCF Done:  E(RHF) =  -951.209096015     A.U. after   13 cycles
 Normal termination of Gaussian 16 at Tue Apr  8 23:03:00 2025.
 Gaussian 16:  ES64L-G16RevC.01  3-Jul-2019

 ----------------------------------------------------------------------
 #t hf aug-cc-pvdz iop(5/13=1,5/36=2,99/5=2) pseudo=read geom=check gue
 ss=(read,tcheck) scf=(maxcycle=1)
 ----------------------------------------------------------------------
 -----
 title
 -----
 Structure from the checkpoint file:  "BDE49_expt_380_mol1.chk"
 Charge =  0 Multiplicity = 1

                         Standard orientation:
 ---------------------------------------------------------------------
 Center     Atomic      Atomic             Coordinates (Angstroms)
 Number     Number       Type             X           Y           Z
 ---------------------------------------------------------------------
      1          6           0        0.065303   -1.114982    0.863143
      2         16           0        1.437161   -0.798573   -0.302023
      3          6           0        1.276721    1.007708   -0.155709
      4         16           0       -0.498091    1.448801    0.081712
      5          1           0        1.637388    1.456421   -1.080629
      6          1           0        1.857714    1.381465    0.687000
      7          6           0       -1.137434   -0.252798    0.462856
      8          6           0       -1.951715   -0.827989   -0.695487
      9          1           0       -1.318623   -0.996585   -1.568333
     10          1           0       -2.752792   -0.145263   -0.984433
     11          1           0       -2.407177   -1.780423   -0.401199
     12          1           0        0.391934   -0.884281    1.878936
     13          1           0       -0.172160   -2.179715    0.804874
     14          1           0       -1.778659   -0.126895    1.339943
 ---------------------------------------------------------------------

 SCF Done:  E(RHF) =  -951.296486978     A.U. after    2 cycles

 The electronic state is 1-A.
 Alpha  occ. eigenvalues --  -93.53745 -93.53043 -11.29809 -11.28675 -11.28133
 Alpha  occ. eigenvalues --  -11.23467  -8.83478  -8.82770  -6.17602  -6.17438
 Alpha  occ. eigenvalues --   -6.17079  -6.16905  -6.16708  -6.16370  -1.12262
 Alpha  occ. eigenvalues --   -1.02244  -0.97364  -0.91119  -0.79588  -0.76773
 Alpha  occ. eigenvalues --   -0.65255  -0.63186  -0.60594  -0.58704  -0.54224
 Alpha  occ. eigenvalues --   -0.52078  -0.50563  -0.48547  -0.46077  -0.41409
 Alpha  occ. eigenvalues --   -0.34780  -0.34260
 Alpha virt. eigenvalues --    0.03381   0.04604   0.04761   0.05218   0.06462
 Alpha virt. eigenvalues --    0.06641   0.07482   0.07998   0.08894   0.10157
 Alpha virt. eigenvalues --    0.11903   0.13111   0.13779   0.14576   0.14868

 Mulliken charges:
               1
     1  C    0.149956
     2  S    0.454728
     3  C   -0.401161
     4  S    0.419390
     5  H   -0.033550
     6  H   -0.073898
     7  C   -0.390088
     8  C    0.358488
     9  H   -0.022362
    10  H   -0.090503
    11  H   -0.038783
    12  H   -0.115776
    13  H   -0.090622
    14  H   -0.125820
 Sum of Mulliken charges =  -0.00000

 Dipole moment (field-independent basis, Debye):
    X=             -0.5535    Y=             -0.8765    Z=              0.9482  Tot=              1.4049

 Test job not archived.
 1\1\GINC-SE366\SP\RHF\Aug-CC-pVDZ\C4H8S2\OHZDE\08-Apr-2025\0\\#t hf au
 g-cc-pvdz iop(5/13=1,5/36=2,99/5=2) pseudo=read geom=check guess=(read
 ,tcheck) scf=(maxcycle=1)\\title\\0,1\C,0,0.065303,-1.114982,0.863143\
 S,0,1.437161,-0.798573,-0.302023\C,0,1.276721,1.007708,-0.155709\S,0,-
 0.498091,1.448801,0.081712\H,0,1.637388,1.456421,-1.080629\H,0,1.85771
 4,1.381465,0.687\C,0,-1.137434,-0.252798,0.462856\C,0,-1.951715,-0.827
 989,-0.695487\H,0,-1.318623,-0.996585,-1.568333\H,0,-2.752792,-0.14526
 3,-0.984433\H,0,-2.407177,-1.780423,-0.401199\H,0,0.391934,-0.884281,1

 Normal termination of Gaussian 16 at Tue Apr  8 23:03:05 2025.
