 Gaussian 16, Revision C.01,

 ----------------------------------------------------------------------
 #t hf aug-cc-pvdz symm=none int=(grid=ultrafine) guess=(read,tcheck) s
 table=opt
 ----------------------------------------------------------------------
 -----
 title
 -----
 Symbolic Z-matrix:
 Charge =  0 Multiplicity = 2

 SCF Done:  E(UHF) =  -587.429722399     A.U. after   13 cycles
 Normal termination of Gaussian 16 at Tue Apr  8 22:44:27 2025.
 Gaussian 16:  ES64L-G16RevC.01  3-Jul-2019

 ----------------------------------------------------------------------
 #t hf aug-cc-pvdz iop(5/13=1,5/36=2,99/5=2) pseudo=read geom=check gue
 ss=(read,tcheck) scf=(maxcycle=1)
 ----------------------------------------------------------------------
 -----
 title
 -----
 Structure from the checkpoint file:  "BDE49_expt_1540_mol2.chk"
 Charge =  0 Multiplicity = 2

                         Standard orientation:
 ---------------------------------------------------------------------
 Center     Atomic      Atomic             Coordinates (Angstroms)
 Number     Number       Type             X           Y           Z
 ---------------------------------------------------------------------
      1         14           0       -0.000009   -0.000057    0.378584
      2          9           0       -1.328940   -0.662749   -0.196301
      3          9           0        1.238524   -0.819354   -0.196303
      4          9           0        0.090431    1.482191   -0.196305
 ---------------------------------------------------------------------

 SCF Done:  E(UHF) =  -587.587677819     A.U. after    2 cycles

 The electronic state is 2-A.
 Alpha  occ. eigenvalues --  -69.24031 -26.15251 -26.15249 -26.15248  -6.97726
 Alpha  occ. eigenvalues --   -4.08755  -4.08273  -4.08273  -1.69672  -1.67917
 Alpha  occ. eigenvalues --   -1.67915  -0.88910  -0.82120  -0.82119  -0.78978
 Alpha  occ. eigenvalues --   -0.76804  -0.76803  -0.74241  -0.74239  -0.72814
 Alpha  occ. eigenvalues --   -0.44211
 Alpha virt. eigenvalues --    0.05426   0.05427   0.05699   0.07079   0.15888
 Alpha virt. eigenvalues --    0.15890   0.20039   0.20040   0.23066   0.25615
 Alpha virt. eigenvalues --    0.25628   0.25629   0.30022   0.31576   0.32706

  Beta  occ. eigenvalues --  -69.23349 -26.14845 -26.14843 -26.14842  -6.96508
  Beta  occ. eigenvalues --   -4.07818  -4.07818  -4.06875  -1.68380  -1.66619
  Beta  occ. eigenvalues --   -1.66618  -0.86905  -0.80501  -0.80499  -0.76823
  Beta  occ. eigenvalues --   -0.75495  -0.75495  -0.73633  -0.73632  -0.72538
  Beta virt. eigenvalues --   -0.00483   0.05828   0.05828   0.06277   0.10190
  Beta virt. eigenvalues --    0.18796   0.18797   0.21711   0.21713   0.24286
  Beta virt. eigenvalues --    0.25722   0.25722   0.26217   0.31006   0.32138

 Mulliken charges and spin densities:
               1          2
     1  Si   2.152773   1.097343
     2  F   -0.717583  -0.032457
     3  F   -0.717585  -0.032454
     4  F   -0.717605  -0.032432
 Sum of Mulliken charges =  -0.00000   1.00000

 Dipole moment (field-independent basis, Debye):
    X=             -0.0001    Y=             -0.0006    Z=              1.8296  Tot=              1.8296
                          Isotropic Fermi Contact Couplings
        Atom                 a.u.       MegaHertz       Gauss      10(-4) cm-1
     1  Si(29)             1.33059   -1182.53543    -421.95805    -394.45136
     2  F(19)              0.08984     378.01475     134.88506     126.09215
     3  F(19)              0.08984     378.00444     134.88139     126.08871
     4  F(19)              0.08982     377.92927     134.85456     126.06363
 --------------------------------------------------------
       Center         ----  Spin Dipole Couplings  ----
                      3XX-RR        3YY-RR        3ZZ-RR
 --------------------------------------------------------

 Normal termination of Gaussian 16 at Tue Apr  8 22:44:28 2025.
