 Gaussian 16, Revision C.01,

 ----------------------------------------------------------------------
 #t hf aug-cc-pvdz symm=none int=(grid=ultrafine) guess=(read,tcheck) s
 table=opt
 ----------------------------------------------------------------------
 -----
 title
 -----
 Symbolic Z-matrix:
 Charge =  0 Multiplicity = 2

 SCF Done:  E(UHF) =  -522.274000129     A.U. after   16 cycles
 Normal termination of Gaussian 16 at Wed Apr  9 00:27:56 2025.
 Gaussian 16:  ES64L-G16RevC.01  3-Jul-2019

 ----------------------------------------------------------------------
 #t hf aug-cc-pvdz iop(5/13=1,5/36=2,99/5=2) pseudo=read geom=check gue
 ss=(read,tcheck) scf=(maxcycle=1)
 ----------------------------------------------------------------------
 -----
 title
 -----
 Structure from the checkpoint file:  "BDE49_nonexpt_348_mol2.chk"
 Charge =  0 Multiplicity = 2

                         Standard orientation:
 ---------------------------------------------------------------------
 Center     Atomic      Atomic             Coordinates (Angstroms)
 Number     Number       Type             X           Y           Z
 ---------------------------------------------------------------------
      1          9           0        1.681392    0.185192   -0.000003
      2         16           0       -1.086094   -0.004980   -0.000006
      3          5           0        0.614822   -0.582404    0.000020
      4          1           0       -0.829142    1.324968    0.000015
 ---------------------------------------------------------------------

 SCF Done:  E(UHF) =  -522.343869823     A.U. after    2 cycles

 The electronic state is 2-A.
 Alpha  occ. eigenvalues --  -93.56021 -26.15739  -8.86030  -7.74110  -6.20187
 Alpha  occ. eigenvalues --   -6.19939  -6.19614  -1.70144  -0.99823  -0.86187
 Alpha  occ. eigenvalues --   -0.78355  -0.76187  -0.63317  -0.50045  -0.41297
 Alpha  occ. eigenvalues --   -0.37657
 Alpha virt. eigenvalues --    0.04182   0.05327   0.05777   0.06178   0.08876
 Alpha virt. eigenvalues --    0.09811   0.10908   0.13989   0.14852   0.17844
 Alpha virt. eigenvalues --    0.22098   0.24591   0.24925   0.25403   0.28901

  Beta  occ. eigenvalues --  -93.55952 -26.15417  -8.85916  -7.72022  -6.20087
  Beta  occ. eigenvalues --   -6.19770  -6.19636  -1.69201  -0.98524  -0.85047
  Beta  occ. eigenvalues --   -0.76123  -0.75636  -0.59992  -0.49258  -0.41203
  Beta virt. eigenvalues --    0.02803   0.05228   0.05805   0.05935   0.08659
  Beta virt. eigenvalues --    0.10692   0.12314   0.12420   0.14364   0.15924
  Beta virt. eigenvalues --    0.18836   0.22337   0.25190   0.25202   0.26909

 Mulliken charges and spin densities:
               1          2
     1  F   -0.260047  -0.060691
     2  S   -0.136173  -0.028719
     3  B    0.356013   1.057640
     4  H    0.040207   0.031770
 Sum of Mulliken charges =  -0.00000   1.00000

 Dipole moment (field-independent basis, Debye):
    X=             -0.6289    Y=              0.6035    Z=              0.0000  Tot=              0.8716
                          Isotropic Fermi Contact Couplings
        Atom                 a.u.       MegaHertz       Gauss      10(-4) cm-1
     1  F(19)              0.07035     295.99812     105.61949      98.73434
     2  S(33)              0.19563      67.19378      23.97641      22.41343
     3  B(11)              0.39950     573.02280     204.46878     191.13983
     4  H(1)               0.01129      50.45741      18.00446      16.83078
 --------------------------------------------------------
       Center         ----  Spin Dipole Couplings  ----
                      3XX-RR        3YY-RR        3ZZ-RR
 --------------------------------------------------------

 Normal termination of Gaussian 16 at Wed Apr  9 00:27:58 2025.
