 Gaussian 16, Revision C.01,

 ----------------------------------------------------------------------
 #t hf aug-cc-pvdz symm=none int=(grid=ultrafine) guess=(read,tcheck) s
 table=(opt,rrhf)
 ----------------------------------------------------------------------
 -----
 title
 -----
 Symbolic Z-matrix:
 Charge =  0 Multiplicity = 1

 SCF Done:  E(RHF) =  -823.859046540     A.U. after   11 cycles
 Normal termination of Gaussian 16 at Tue Apr  8 22:43:57 2025.
 Gaussian 16:  ES64L-G16RevC.01  3-Jul-2019

 ----------------------------------------------------------------------
 #t hf aug-cc-pvdz iop(5/13=1,5/36=2,99/5=2) pseudo=read geom=check gue
 ss=(read,tcheck) scf=(maxcycle=1)
 ----------------------------------------------------------------------
 -----
 title
 -----
 Structure from the checkpoint file:  "BDE49_expt_1526_mol1.chk"
 Charge =  0 Multiplicity = 1

                         Standard orientation:
 ---------------------------------------------------------------------
 Center     Atomic      Atomic             Coordinates (Angstroms)
 Number     Number       Type             X           Y           Z
 ---------------------------------------------------------------------
      1          6           0       -1.204347    0.695324    0.000000
      2          6           0        0.000000    1.390630    0.000000
      3          6           0        1.204347    0.695324    0.000000
      4          6           0       -1.204347   -0.695325    0.000000
      5          6           0        0.000000   -1.390630    0.000000
      6          6           0        1.204347   -0.695324    0.000000
      7          9           0       -2.359353    1.362211    0.000000
      8          9           0        0.000000    2.724327    0.000000
      9          9           0        2.359352    1.362212    0.000000
     10          9           0        2.359352   -1.362212    0.000000
     11          9           0       -2.359353   -1.362211    0.000000
     12          9           0        0.000000   -2.724327    0.000000
 ---------------------------------------------------------------------

 SCF Done:  E(RHF) =  -824.142881421     A.U. after    2 cycles

 The electronic state is 1-A'.
 Alpha  occ. eigenvalues --  -26.18944 -26.18936 -26.18936 -26.18932 -26.18932
 Alpha  occ. eigenvalues --  -26.18932 -11.40504 -11.40457 -11.40456 -11.40336
 Alpha  occ. eigenvalues --  -11.40336 -11.40282  -1.73920  -1.73413  -1.73413
 Alpha  occ. eigenvalues --   -1.72489  -1.72489  -1.72052  -1.23706  -1.10616
 Alpha  occ. eigenvalues --   -1.10616  -0.97641  -0.97641  -0.89802  -0.88999
 Alpha  occ. eigenvalues --   -0.88748  -0.83243  -0.83243  -0.82830  -0.82346
 Alpha  occ. eigenvalues --   -0.82345  -0.81012  -0.81012  -0.79134  -0.79134
 Alpha  occ. eigenvalues --   -0.78495  -0.77251  -0.77251  -0.76569  -0.67965
 Alpha  occ. eigenvalues --   -0.67964  -0.64025  -0.56648  -0.40474  -0.40473
 Alpha virt. eigenvalues --    0.04692   0.06824   0.06824   0.08163   0.08163
 Alpha virt. eigenvalues --    0.09034   0.09034   0.09366   0.10869   0.12410
 Alpha virt. eigenvalues --    0.12410   0.13033   0.14599   0.15154   0.15154

 Mulliken charges:
               1
     1  C    0.230687
     2  C    0.230606
     3  C    0.230688
     4  C    0.230681
     5  C    0.230613
     6  C    0.230682
     7  F   -0.230649
     8  F   -0.230682
     9  F   -0.230648
    10  F   -0.230647
    11  F   -0.230647
    12  F   -0.230684
 Sum of Mulliken charges =  -0.00000

 Dipole moment (field-independent basis, Debye):
    X=              0.0000    Y=             -0.0000    Z=              0.0000  Tot=              0.0000

 Test job not archived.
 1\1\GINC-SE340\SP\RHF\Aug-CC-pVDZ\C6F6\OHZDE\08-Apr-2025\0\\#t hf aug-
 cc-pvdz iop(5/13=1,5/36=2,99/5=2) pseudo=read geom=check guess=(read,t
 check) scf=(maxcycle=1)\\title\\0,1\C,0,-1.204347,-0.695324,0.\C,0,0.,
 -1.39063,0.\C,0,1.204347,-0.695324,0.\C,0,-1.204347,0.695325,0.\C,0,0.
 ,1.39063,0.\C,0,1.204347,0.695324,0.\F,0,-2.359353,-1.362211,0.\F,0,0.
 ,-2.724327,0.\F,0,2.359352,-1.362212,0.\F,0,2.359352,1.362212,0.\F,0,-
 2.359353,1.362211,0.\F,0,0.,2.724327,0.\\Version=ES64L-G16RevC.01\Stat
 e=1-A'\HF=-824.1428814\RMSD=4.154e-02\Dipole=0.0000011,0.0000009,0.\Qu

 Normal termination of Gaussian 16 at Tue Apr  8 22:44:07 2025.
