 Gaussian 16, Revision C.01,

 ----------------------------------------------------------------------
 #t hf aug-cc-pvdz symm=none int=(grid=ultrafine) guess=(read,tcheck) s
 table=(opt,rrhf)
 ----------------------------------------------------------------------
 -----
 title
 -----
 Symbolic Z-matrix:
 Charge =  0 Multiplicity = 1

 SCF Done:  E(RHF) =  -517.249682519     A.U. after   15 cycles
 Normal termination of Gaussian 16 at Tue Apr  8 23:59:51 2025.
 Gaussian 16:  ES64L-G16RevC.01  3-Jul-2019

 ----------------------------------------------------------------------
 #t hf aug-cc-pvdz iop(5/13=1,5/36=2,99/5=2) pseudo=read geom=check gue
 ss=(read,tcheck) scf=(maxcycle=1)
 ----------------------------------------------------------------------
 -----
 title
 -----
 Structure from the checkpoint file:  "BDE49_nonexpt_2121_mol1.chk"
 Charge =  0 Multiplicity = 1

                         Standard orientation:
 ---------------------------------------------------------------------
 Center     Atomic      Atomic             Coordinates (Angstroms)
 Number     Number       Type             X           Y           Z
 ---------------------------------------------------------------------
      1         14           0        1.767827   -0.501105    0.196740
      2          7           0        0.020208   -0.877899    0.010728
      3          7           0       -0.712051    0.063461   -0.340990
      4          6           0       -2.137327   -0.303721   -0.467120
      5          6           0       -2.971600    0.569607    0.470027
      6          1           0       -2.263603   -1.372310   -0.263537
      7          1           0       -2.408386   -0.094905   -1.508220
      8          1           0       -2.730141    0.354802    1.514001
      9          1           0       -4.036876    0.379905    0.320110
     10          1           0       -2.778924    1.628695    0.284617
     11          6           0        2.237144    1.272639   -0.162440
     12          1           0        1.981241    1.544260   -1.189240
     13          1           0        3.313696    1.411919   -0.025622
     14          1           0        1.712158    1.958809    0.506250
     15          1           0        2.451284   -1.445593   -0.717364
     16          1           0        2.083565   -0.880199    1.593685
 ---------------------------------------------------------------------

 SCF Done:  E(RHF) =  -517.346520211     A.U. after    2 cycles

 The electronic state is 1-A.
 Alpha  occ. eigenvalues --  -69.07491 -15.69512 -15.65742 -11.26242 -11.23359
 Alpha  occ. eigenvalues --  -11.22012  -6.82634  -3.93483  -3.93382  -3.93373
 Alpha  occ. eigenvalues --   -1.29521  -1.04581  -0.94472  -0.90075  -0.78623
 Alpha  occ. eigenvalues --   -0.69444  -0.64124  -0.60426  -0.59034  -0.56893
 Alpha  occ. eigenvalues --   -0.55894  -0.54221  -0.53370  -0.49337  -0.48850
 Alpha  occ. eigenvalues --   -0.45797  -0.44320  -0.34559
 Alpha virt. eigenvalues --    0.03399   0.03904   0.04395   0.04442   0.06158
 Alpha virt. eigenvalues --    0.06811   0.07118   0.07684   0.08215   0.08578
 Alpha virt. eigenvalues --    0.09159   0.09676   0.10830   0.12072   0.13515

 Mulliken charges:
               1
     1  Si   0.877020
     2  N   -0.713503
     3  N   -0.332100
     4  C    0.633335
     5  C    0.251294
     6  H   -0.119758
     7  H   -0.163871
     8  H   -0.081684
     9  H   -0.047046
    10  H   -0.041502
    11  C    0.263914
    12  H   -0.153195
    13  H   -0.223382
    14  H   -0.158626
    15  H    0.010466
    16  H   -0.001362
 Sum of Mulliken charges =  -0.00000

 Dipole moment (field-independent basis, Debye):
    X=             -0.3835    Y=              0.9190    Z=             -0.1921  Tot=              1.0142

 Test job not archived.
 1\1\GINC-SE250\SP\RHF\Aug-CC-pVDZ\C3H10N2Si1\OHZDE\08-Apr-2025\0\\#t h
 f aug-cc-pvdz iop(5/13=1,5/36=2,99/5=2) pseudo=read geom=check guess=(
 read,tcheck) scf=(maxcycle=1)\\title\\0,1\Si,0,1.767827,-0.501105,0.19
 674\N,0,0.020208,-0.877899,0.010728\N,0,-0.712051,0.063461,-0.34099\C,
 0,-2.137327,-0.303721,-0.46712\C,0,-2.9716,0.569607,0.470027\H,0,-2.26
 3603,-1.37231,-0.263537\H,0,-2.408386,-0.094905,-1.50822\H,0,-2.730141
 ,0.354802,1.514001\H,0,-4.036876,0.379905,0.32011\H,0,-2.778924,1.6286
 95,0.284617\C,0,2.237144,1.272639,-0.16244\H,0,1.981241,1.54426,-1.189

 Normal termination of Gaussian 16 at Tue Apr  8 23:59:56 2025.
