 Gaussian 16, Revision C.01,

 ----------------------------------------------------------------------
 #t hf aug-cc-pvdz symm=none int=(grid=ultrafine) guess=(read,tcheck) s
 table=opt
 ----------------------------------------------------------------------
 -----
 title
 -----
 Symbolic Z-matrix:
 Charge =  0 Multiplicity = 2

 SCF Done:  E(UHF) =  -158.922072635     A.U. after   16 cycles
 Normal termination of Gaussian 16 at Wed Apr  9 00:33:52 2025.
 Gaussian 16:  ES64L-G16RevC.01  3-Jul-2019

 ----------------------------------------------------------------------
 #t hf aug-cc-pvdz iop(5/13=1,5/36=2,99/5=2) pseudo=read geom=check gue
 ss=(read,tcheck) scf=(maxcycle=1)
 ----------------------------------------------------------------------
 -----
 title
 -----
 Structure from the checkpoint file:  "BDE49_nonexpt_453_mol2.chk"
 Charge =  0 Multiplicity = 2

                         Standard orientation:
 ---------------------------------------------------------------------
 Center     Atomic      Atomic             Coordinates (Angstroms)
 Number     Number       Type             X           Y           Z
 ---------------------------------------------------------------------
      1          1           0       -1.606671    1.878160    0.000000
      2          7           0       -0.039643    0.216974    0.000000
      3          5           0       -0.467370    1.526072    0.000000
      4          6           0       -0.948457   -0.933992   -0.000001
      5          1           0       -0.784030   -1.557203   -0.887003
      6          1           0       -1.980598   -0.587354   -0.000001
      7          1           0       -0.784031   -1.557203    0.887002
      8          6           0        1.373436   -0.158548    0.000000
      9          1           0        1.987692    0.740590    0.000001
     10          1           0        1.616057   -0.755463   -0.887254
     11          1           0        1.616056   -0.755464    0.887255
 ---------------------------------------------------------------------

 SCF Done:  E(UHF) =  -158.975397063     A.U. after    2 cycles

 The electronic state is 2-A.
 Alpha  occ. eigenvalues --  -15.62967 -11.27096 -11.26820  -7.61166  -1.18402
 Alpha  occ. eigenvalues --   -0.96354  -0.88132  -0.69820  -0.63130  -0.62740
 Alpha  occ. eigenvalues --   -0.57457  -0.55564  -0.52843  -0.52441  -0.38079
 Alpha  occ. eigenvalues --   -0.31419
 Alpha virt. eigenvalues --    0.03283   0.04303   0.04575   0.05382   0.07138
 Alpha virt. eigenvalues --    0.07499   0.07575   0.07903   0.09570   0.09701
 Alpha virt. eigenvalues --    0.12595   0.14336   0.14355   0.15381   0.15799

  Beta  occ. eigenvalues --  -15.63303 -11.26939 -11.26720  -7.59259  -1.18518
  Beta  occ. eigenvalues --   -0.95970  -0.87418  -0.68541  -0.63551  -0.61967
  Beta  occ. eigenvalues --   -0.55542  -0.55314  -0.52730  -0.50962  -0.39045
  Beta virt. eigenvalues --    0.03284   0.04319   0.04452   0.05177   0.06911
  Beta virt. eigenvalues --    0.07531   0.07702   0.07908   0.09177   0.09636
  Beta virt. eigenvalues --    0.11564   0.13982   0.14815   0.15160   0.15517

 Mulliken charges and spin densities:
               1          2
     1  H    0.448762   0.014157
     2  N   -0.336249  -0.192363
     3  B   -0.701126   1.107806
     4  C    0.684700   0.032031
     5  H   -0.082815  -0.002880
     6  H   -0.283901  -0.003042
     7  H   -0.082814  -0.002880
     8  C    0.808466   0.058199
     9  H   -0.290115  -0.012442
    10  H   -0.082455   0.000707
    11  H   -0.082452   0.000707
 Sum of Mulliken charges =  -0.00000   1.00000

 Dipole moment (field-independent basis, Debye):
    X=              0.2964    Y=             -2.1026    Z=             -0.0000  Tot=              2.1234
                          Isotropic Fermi Contact Couplings
        Atom                 a.u.       MegaHertz       Gauss      10(-4) cm-1
     1  H(1)               0.01333      59.59376      21.26454      19.87834
     2  N(14)             -0.02442      -7.88993      -2.81532      -2.63180
     3  B(11)              0.30372     435.64403     155.44862     145.31521
     4  C(13)              0.03650      41.02760      14.63967      13.68534
     5  H(1)              -0.00087      -3.87549      -1.38287      -1.29273
     6  H(1)              -0.00035      -1.57368      -0.56153      -0.52492
     7  H(1)              -0.00087      -3.87550      -1.38288      -1.29273
     8  C(13)              0.02633      29.59790      10.56127       9.87280

 Normal termination of Gaussian 16 at Wed Apr  9 00:33:57 2025.
