 Gaussian 16, Revision C.01,

 ----------------------------------------------------------------------
 #t hf aug-cc-pvdz symm=none int=(grid=ultrafine) guess=(read,tcheck) s
 table=opt
 ----------------------------------------------------------------------
 -----
 title
 -----
 Symbolic Z-matrix:
 Charge =  0 Multiplicity = 2

 SCF Done:  E(UHF) =  -139.721752858     A.U. after   15 cycles
 Normal termination of Gaussian 16 at Wed Apr  9 00:33:45 2025.
 Gaussian 16:  ES64L-G16RevC.01  3-Jul-2019

 ----------------------------------------------------------------------
 #t hf aug-cc-pvdz iop(5/13=1,5/36=2,99/5=2) pseudo=read geom=check gue
 ss=(read,tcheck) scf=(maxcycle=1)
 ----------------------------------------------------------------------
 -----
 title
 -----
 Structure from the checkpoint file:  "BDE49_nonexpt_45_mol2.chk"
 Charge =  0 Multiplicity = 2

                         Standard orientation:
 ---------------------------------------------------------------------
 Center     Atomic      Atomic             Coordinates (Angstroms)
 Number     Number       Type             X           Y           Z
 ---------------------------------------------------------------------
      1          5           0       -1.401575    0.108253   -0.000001
      2          8           0       -0.226450   -0.494710   -0.000002
      3          6           0        1.047730    0.183429    0.000002
      4          1           0        1.596937   -0.125870   -0.889811
      5          1           0        1.596937   -0.125881    0.889812
      6          1           0        0.910661    1.267534    0.000009
      7          1           0       -1.571442    1.300057    0.000004
 ---------------------------------------------------------------------

 SCF Done:  E(UHF) =  -139.773058620     A.U. after    2 cycles

 The electronic state is 2-A.
 Alpha  occ. eigenvalues --  -20.59683 -11.30841  -7.65493  -1.34771  -0.96525
 Alpha  occ. eigenvalues --   -0.74359  -0.66354  -0.65273  -0.58792  -0.52769
 Alpha  occ. eigenvalues --   -0.50327  -0.32348
 Alpha virt. eigenvalues --    0.03356   0.04652   0.05454   0.05822   0.07006
 Alpha virt. eigenvalues --    0.07390   0.08672   0.11400   0.13270   0.13982
 Alpha virt. eigenvalues --    0.15839   0.16268   0.17536   0.22990   0.24076

  Beta  occ. eigenvalues --  -20.59721 -11.30650  -7.63583  -1.34662  -0.95730
  Beta  occ. eigenvalues --   -0.73293  -0.65558  -0.65097  -0.56049  -0.51109
  Beta  occ. eigenvalues --   -0.50695
  Beta virt. eigenvalues --    0.03398   0.04879   0.04898   0.05633   0.07247
  Beta virt. eigenvalues --    0.07475   0.08642   0.09639   0.13831   0.14065
  Beta virt. eigenvalues --    0.14420   0.16313   0.18237   0.19856   0.23120

 Mulliken charges and spin densities:
               1          2
     1  B   -0.098241   1.033100
     2  O   -0.512954  -0.130700
     3  C    0.838329   0.051000
     4  H   -0.112535  -0.001961
     5  H   -0.112533  -0.001961
     6  H   -0.199261  -0.005881
     7  H    0.197195   0.056404
 Sum of Mulliken charges =  -0.00000   1.00000

 Dipole moment (field-independent basis, Debye):
    X=              2.0167    Y=              1.2995    Z=              0.0000  Tot=              2.3992
                          Isotropic Fermi Contact Couplings
        Atom                 a.u.       MegaHertz       Gauss      10(-4) cm-1
     1  B(11)              0.33705     483.45642     172.50927     161.26370
     2  O(17)              0.09696     -58.77968     -20.97405     -19.60679
     3  C(13)              0.04053      45.55931      16.25670      15.19695
     4  H(1)              -0.00101      -4.52705      -1.61537      -1.51006
     5  H(1)              -0.00101      -4.52704      -1.61536      -1.51006
     6  H(1)              -0.00106      -4.75423      -1.69643      -1.58584
     7  H(1)               0.02701     120.75362      43.08789      40.27907
 --------------------------------------------------------

 Normal termination of Gaussian 16 at Wed Apr  9 00:33:47 2025.
