 Gaussian 16, Revision C.01,

 ----------------------------------------------------------------------
 #t hf aug-cc-pvdz symm=none int=(grid=ultrafine) guess=(read,tcheck) s
 table=(opt,rrhf)
 ----------------------------------------------------------------------
 -----
 title
 -----
 Symbolic Z-matrix:
 Charge =  0 Multiplicity = 1

 SCF Done:  E(RHF) =  -725.788830776     A.U. after   13 cycles
 Normal termination of Gaussian 16 at Tue Apr  8 22:34:27 2025.
 Gaussian 16:  ES64L-G16RevC.01  3-Jul-2019

 ----------------------------------------------------------------------
 #t hf aug-cc-pvdz iop(5/13=1,5/36=2,99/5=2) pseudo=read geom=check gue
 ss=(read,tcheck) scf=(maxcycle=1)
 ----------------------------------------------------------------------
 -----
 title
 -----
 Structure from the checkpoint file:  "BDE49_expt_1129_mol1.chk"
 Charge =  0 Multiplicity = 1

                         Standard orientation:
 ---------------------------------------------------------------------
 Center     Atomic      Atomic             Coordinates (Angstroms)
 Number     Number       Type             X           Y           Z
 ---------------------------------------------------------------------
      1          6           0        0.457665    0.098960    0.000090
      2          8           0        0.469015    1.296621    0.000039
      3          8           0        1.556147   -0.682789    0.000029
      4          6           0       -0.764345   -0.810291    0.000008
      5          6           0        2.818237    0.015712   -0.000011
      6          1           0        3.579042   -0.761062   -0.000065
      7          1           0        2.905286    0.641564    0.889050
      8          1           0        2.905207    0.641611   -0.889046
      9          1           0       -0.740896   -1.446616   -0.883731
     10          1           0       -0.740987   -1.446640    0.883732
     11         17           0       -2.304605    0.096130   -0.000060
 ---------------------------------------------------------------------

 SCF Done:  E(RHF) =  -725.894290311     A.U. after    2 cycles

 The electronic state is 1-A.
 Alpha  occ. eigenvalues -- -103.66142 -20.63409 -20.57906 -11.41444 -11.32986
 Alpha  occ. eigenvalues --  -11.31099 -10.69405  -8.35136  -8.34821  -8.34818
 Alpha  occ. eigenvalues --   -1.43795  -1.34510  -1.17585  -1.02752  -0.94047
 Alpha  occ. eigenvalues --   -0.79923  -0.73348  -0.70961  -0.70333  -0.64347
 Alpha  occ. eigenvalues --   -0.62298  -0.56678  -0.56137  -0.55566  -0.49666
 Alpha  occ. eigenvalues --   -0.49179  -0.45866  -0.45686
 Alpha virt. eigenvalues --    0.03004   0.04457   0.05050   0.05528   0.06592
 Alpha virt. eigenvalues --    0.08411   0.08976   0.12648   0.12897   0.13594
 Alpha virt. eigenvalues --    0.13784   0.14302   0.15290   0.16347   0.16436

 Mulliken charges:
               1
     1  C    0.448277
     2  O   -0.381413
     3  O   -0.543108
     4  C   -0.137928
     5  C    0.756750
     6  H   -0.242742
     7  H   -0.059539
     8  H   -0.059537
     9  H    0.126923
    10  H    0.126928
    11  Cl  -0.034610
 Sum of Mulliken charges =  -0.00000

 Dipole moment (field-independent basis, Debye):
    X=              2.6192    Y=             -2.7260    Z=              0.0001  Tot=              3.7804

 Test job not archived.
 1\1\GINC-SE435\SP\RHF\Aug-CC-pVDZ\C3H5Cl1O2\OHZDE\08-Apr-2025\0\\#t hf
  aug-cc-pvdz iop(5/13=1,5/36=2,99/5=2) pseudo=read geom=check guess=(r
 ead,tcheck) scf=(maxcycle=1)\\title\\0,1\C,0,-0.457665,0.09896,-0.0000
 9\O,0,-0.469015,1.296621,-0.000039\O,0,-1.556147,-0.682789,-0.000029\C
 ,0,0.764345,-0.810291,-0.000008\C,0,-2.818237,0.015712,0.000011\H,0,-3
 .579042,-0.761062,0.000065\H,0,-2.905286,0.641564,-0.88905\H,0,-2.9052
 07,0.641611,0.889046\H,0,0.740896,-1.446616,0.883731\H,0,0.740987,-1.4
 4664,-0.883732\Cl,0,2.304605,0.09613,0.00006\\Version=ES64L-G16RevC.01

 Normal termination of Gaussian 16 at Tue Apr  8 22:34:31 2025.
