 Gaussian 16, Revision C.01,

 ----------------------------------------------------------------------
 #t hf aug-cc-pvdz symm=none int=(grid=ultrafine) guess=(read,tcheck) s
 table=(opt,rrhf)
 ----------------------------------------------------------------------
 -----
 title
 -----
 Symbolic Z-matrix:
 Charge =  0 Multiplicity = 1

 SCF Done:  E(RHF) =  -1560.16492757     A.U. after   15 cycles
 Normal termination of Gaussian 16 at Wed Apr  9 00:50:09 2025.
 Gaussian 16:  ES64L-G16RevC.01  3-Jul-2019

 ----------------------------------------------------------------------
 #t hf aug-cc-pvdz iop(5/13=1,5/36=2,99/5=2) pseudo=read geom=check gue
 ss=(read,tcheck) scf=(maxcycle=1)
 ----------------------------------------------------------------------
 -----
 title
 -----
 Structure from the checkpoint file:  "BDE49_nonexpt_937_mol1.chk"
 Charge =  0 Multiplicity = 1

                         Standard orientation:
 ---------------------------------------------------------------------
 Center     Atomic      Atomic             Coordinates (Angstroms)
 Number     Number       Type             X           Y           Z
 ---------------------------------------------------------------------
      1         17           0        1.443315    1.450136    0.040573
      2         16           0       -1.103820   -0.000000   -0.155773
      3          8           0       -1.570647   -1.259716   -0.656920
      4          7           0        0.641737    0.000000   -0.579264
      5          6           0       -1.184609   -0.000000    1.632192
      6          1           0       -2.249205   -0.000000    1.868495
      7          1           0       -0.708258   -0.902736    2.008410
      8         17           0        1.443315   -1.450136    0.040573
      9          8           0       -1.570647    1.259716   -0.656921
     10          1           0       -0.708259    0.902737    2.008410
 ---------------------------------------------------------------------

 SCF Done:  E(RHF) =  -1560.35784132     A.U. after    2 cycles

 The electronic state is 1-A.
 Alpha  occ. eigenvalues -- -103.72843-103.72843 -93.83664 -20.59583 -20.59582
 Alpha  occ. eigenvalues --  -15.79633 -11.31569 -10.75802 -10.75790  -9.10068
 Alpha  occ. eigenvalues --   -8.41544  -8.41536  -8.41141  -8.41139  -8.41118
 Alpha  occ. eigenvalues --   -8.41116  -6.44702  -6.44503  -6.44369  -1.46816
 Alpha  occ. eigenvalues --   -1.35013  -1.30380  -1.17711  -1.07387  -1.02104
 Alpha  occ. eigenvalues --   -0.83871  -0.74311  -0.71894  -0.70587  -0.65251
 Alpha  occ. eigenvalues --   -0.64632  -0.63572  -0.60389  -0.56779  -0.55210
 Alpha  occ. eigenvalues --   -0.53591  -0.53480  -0.51439  -0.49562  -0.48819
 Alpha  occ. eigenvalues --   -0.43550
 Alpha virt. eigenvalues --    0.02827   0.03313   0.04987   0.05730   0.08156
 Alpha virt. eigenvalues --    0.08335   0.10095   0.11180   0.12014   0.12345
 Alpha virt. eigenvalues --    0.14325   0.14743   0.15324   0.15503   0.16113

 Mulliken charges:
               1
     1  Cl   0.235821
     2  S    2.499801
     3  O   -0.973825
     4  N   -1.083991
     5  C   -0.050557
     6  H    0.044652
     7  H    0.033052
     8  Cl   0.235821
     9  O   -0.973825
    10  H    0.033053
 Sum of Mulliken charges =  -0.00000

 Dipole moment (field-independent basis, Debye):
    X=              1.0901    Y=             -0.0000    Z=              4.5373  Tot=              4.6664

 Test job not archived.
 1\1\GINC-SE092\SP\RHF\Aug-CC-pVDZ\C1H3Cl2N1O2S1\OHZDE\09-Apr-2025\0\\#
 t hf aug-cc-pvdz iop(5/13=1,5/36=2,99/5=2) pseudo=read geom=check gues
 s=(read,tcheck) scf=(maxcycle=1)\\title\\0,1\Cl,0,1.443315,1.450136,0.
 040573\S,0,-1.10382,0.,-0.155773\O,0,-1.570647,-1.259716,-0.65692\N,0,
 0.641737,0.,-0.579264\C,0,-1.184609,0.,1.632192\H,0,-2.249205,0.,1.868
 495\H,0,-0.708258,-0.902736,2.00841\Cl,0,1.443315,-1.450136,0.040573\O
 ,0,-1.570647,1.259716,-0.656921\H,0,-0.708259,0.902737,2.00841\\Versio
 n=ES64L-G16RevC.01\State=1-A\HF=-1560.3578413\RMSD=4.455e-03\Dipole=0.

 Normal termination of Gaussian 16 at Wed Apr  9 00:50:13 2025.
