 Gaussian 16, Revision C.01,

 ----------------------------------------------------------------------
 #t hf aug-cc-pvdz symm=none int=(grid=ultrafine) guess=(read,tcheck) s
 table=opt
 ----------------------------------------------------------------------
 -----
 title
 -----
 Symbolic Z-matrix:
 Charge =  0 Multiplicity = 2

 SCF Done:  E(UHF) =  -626.324789219     A.U. after   16 cycles
 Normal termination of Gaussian 16 at Tue Apr  8 23:46:16 2025.
 Gaussian 16:  ES64L-G16RevC.01  3-Jul-2019

 ----------------------------------------------------------------------
 #t hf aug-cc-pvdz iop(5/13=1,5/36=2,99/5=2) pseudo=read geom=check gue
 ss=(read,tcheck) scf=(maxcycle=1)
 ----------------------------------------------------------------------
 -----
 title
 -----
 Structure from the checkpoint file:  "BDE49_nonexpt_1802_mol2.chk"
 Charge =  0 Multiplicity = 2

                         Standard orientation:
 ---------------------------------------------------------------------
 Center     Atomic      Atomic             Coordinates (Angstroms)
 Number     Number       Type             X           Y           Z
 ---------------------------------------------------------------------
      1         14           0       -0.898914   -0.510769   -0.310509
      2          6           0        0.801178    0.101315    0.356845
      3          9           0       -2.016077    0.508619    0.258047
      4          9           0        1.184349    1.261909   -0.266758
      5          9           0        1.734904   -0.869003    0.064962
      6          1           0       -1.185253   -1.852976    0.262464
      7          1           0        0.834386    0.282121    1.437334
 ---------------------------------------------------------------------

 SCF Done:  E(UHF) =  -626.473661364     A.U. after    2 cycles

 The electronic state is 2-A.
 Alpha  occ. eigenvalues --  -69.15255 -26.14701 -26.14478 -26.13080 -11.42210
 Alpha  occ. eigenvalues --   -6.90019  -4.01231  -4.00547  -4.00353  -1.70340
 Alpha  occ. eigenvalues --   -1.66171  -1.65769  -1.00325  -0.84058  -0.82165
 Alpha  occ. eigenvalues --   -0.81469  -0.79731  -0.74781  -0.74203  -0.73697
 Alpha  occ. eigenvalues --   -0.70510  -0.66583  -0.61774  -0.50423  -0.37901
 Alpha virt. eigenvalues --    0.03631   0.04560   0.05210   0.06179   0.07711
 Alpha virt. eigenvalues --    0.10441   0.10943   0.12365   0.13833   0.15108
 Alpha virt. eigenvalues --    0.16040   0.19520   0.20977   0.21687   0.24021

  Beta  occ. eigenvalues --  -69.14671 -26.14713 -26.14515 -26.12767 -11.42033
  Beta  occ. eigenvalues --   -6.89086  -4.00179  -3.99989  -3.99129  -1.70378
  Beta  occ. eigenvalues --   -1.66237  -1.64881  -0.99848  -0.82686  -0.82060
  Beta  occ. eigenvalues --   -0.81489  -0.79150  -0.74164  -0.73605  -0.72569
  Beta  occ. eigenvalues --   -0.70508  -0.65699  -0.58990  -0.48887
  Beta virt. eigenvalues --    0.01209   0.03799   0.04985   0.05619   0.07048
  Beta virt. eigenvalues --    0.08595   0.10725   0.11075   0.13622   0.14801
  Beta virt. eigenvalues --    0.16590   0.18332   0.20993   0.22038   0.22514

 Mulliken charges and spin densities:
               1          2
     1  Si   1.097154   0.896174
     2  C    0.643635   0.049781
     3  F   -0.727112  -0.013986
     4  F   -0.376102  -0.007126
     5  F   -0.372335  -0.004288
     6  H   -0.028084   0.079960
     7  H   -0.237155  -0.000515
 Sum of Mulliken charges =  -0.00000   1.00000

 Dipole moment (field-independent basis, Debye):
    X=             -0.9097    Y=             -1.3891    Z=              0.6606  Tot=              1.7870
                          Isotropic Fermi Contact Couplings
        Atom                 a.u.       MegaHertz       Gauss      10(-4) cm-1
     1  Si(29)             0.73890    -656.68525    -234.32163    -219.04662
     2  C(13)              0.02465      27.71454       9.88924       9.24457
     3  F(19)              0.04751     199.89358      71.32700      66.67732
     4  F(19)             -0.00383     -16.12172      -5.75263      -5.37763
     5  F(19)             -0.00267     -11.22154      -4.00413      -3.74310
     6  H(1)               0.02016      90.12855      32.16011      30.06365
     7  H(1)               0.00484      21.61531       7.71288       7.21009
 --------------------------------------------------------

 Normal termination of Gaussian 16 at Tue Apr  8 23:46:18 2025.
