 Gaussian 16, Revision C.01,

 ----------------------------------------------------------------------
 #t hf aug-cc-pvdz symm=none int=(grid=ultrafine) guess=(read,tcheck) s
 table=(opt,rrhf)
 ----------------------------------------------------------------------
 -----
 title
 -----
 Symbolic Z-matrix:
 Charge =  0 Multiplicity = 1

 SCF Done:  E(RHF) =  -522.311553441     A.U. after   12 cycles
 Normal termination of Gaussian 16 at Wed Apr  9 00:07:05 2025.
 Gaussian 16:  ES64L-G16RevC.01  3-Jul-2019

 ----------------------------------------------------------------------
 #t hf aug-cc-pvdz iop(5/13=1,5/36=2,99/5=2) pseudo=read geom=check gue
 ss=(read,tcheck) scf=(maxcycle=1)
 ----------------------------------------------------------------------
 -----
 title
 -----
 Structure from the checkpoint file:  "BDE49_nonexpt_2293_mol1.chk"
 Charge =  0 Multiplicity = 1

                         Standard orientation:
 ---------------------------------------------------------------------
 Center     Atomic      Atomic             Coordinates (Angstroms)
 Number     Number       Type             X           Y           Z
 ---------------------------------------------------------------------
      1          6           0        1.087739    1.348406    0.681001
      2          6           0        0.812591   -0.000643    0.006109
      3          1           0        1.033138    2.154488   -0.054065
      4          1           0        0.355920    1.550618    1.467261
      5          8           0       -0.477459    0.060390   -0.644554
      6         14           0       -2.015206    0.005303   -0.064724
      7          6           0        0.837562   -1.143092    1.028673
      8          1           0        0.589033   -2.092875    0.549242
      9          1           0        0.122938   -0.968185    1.838657
     10          1           0        1.830459   -1.234067    1.476916
     11          6           0        1.817643   -0.260193   -1.118556
     12          1           0        1.756953    0.534619   -1.864914
     13          1           0        1.594686   -1.208736   -1.612035
     14          1           0        2.838501   -0.298736   -0.729085
     15          1           0        2.083024    1.358919    1.133776
     16          1           0       -2.885922    0.330217   -1.211898
     17          1           0       -2.246317    0.985933    1.026720
     18          1           0       -2.373068   -1.336422    0.458630
 ---------------------------------------------------------------------

 SCF Done:  E(RHF) =  -522.419312110     A.U. after    2 cycles

 The electronic state is 1-A.
 Alpha  occ. eigenvalues --  -69.08651 -20.55380 -11.30739 -11.23119 -11.22725
 Alpha  occ. eigenvalues --  -11.22354  -6.83427  -3.94336  -3.94203  -3.94179
 Alpha  occ. eigenvalues --   -1.30160  -1.06122  -0.94179  -0.93791  -0.79722
 Alpha  occ. eigenvalues --   -0.69147  -0.64253  -0.63347  -0.62363  -0.57128
 Alpha  occ. eigenvalues --   -0.57067  -0.53854  -0.52428  -0.52311  -0.52056
 Alpha  occ. eigenvalues --   -0.48201  -0.47982  -0.44478  -0.43339
 Alpha virt. eigenvalues --    0.03324   0.04514   0.04833   0.04850   0.06160
 Alpha virt. eigenvalues --    0.06659   0.06773   0.07066   0.07124   0.08689
 Alpha virt. eigenvalues --    0.09272   0.09490   0.10352   0.10903   0.11483

 Mulliken charges:
               1
     1  C    0.961627
     2  C   -2.436902
     3  H    0.002632
     4  H   -0.074538
     5  O   -0.779155
     6  Si   0.054167
     7  C    1.027916
     8  H    0.010690
     9  H   -0.087911
    10  H    0.026417
    11  C    0.945034
    12  H   -0.021997
    13  H   -0.012278
    14  H    0.036533
    15  H    0.030393
    16  H    0.147794
    17  H    0.058952
    18  H    0.110625
 Sum of Mulliken charges =  -0.00000

 Dipole moment (field-independent basis, Debye):
    X=              1.1649    Y=             -0.1268    Z=              1.0173  Tot=              1.5518

 Test job not archived.
 1\1\GINC-SE074\SP\RHF\Aug-CC-pVDZ\C4H12O1Si1\OHZDE\09-Apr-2025\0\\#t h
 f aug-cc-pvdz iop(5/13=1,5/36=2,99/5=2) pseudo=read geom=check guess=(
 read,tcheck) scf=(maxcycle=1)\\title\\0,1\C,0,1.087739,1.348406,0.6810
 01\C,0,0.812591,-0.000643,0.006109\H,0,1.033138,2.154488,-0.054065\H,0
 ,0.35592,1.550618,1.467261\O,0,-0.477459,0.06039,-0.644554\Si,0,-2.015
 206,0.005303,-0.064724\C,0,0.837562,-1.143092,1.028673\H,0,0.589033,-2
 .092875,0.549242\H,0,0.122938,-0.968185,1.838657\H,0,1.830459,-1.23406
 7,1.476916\C,0,1.817643,-0.260193,-1.118556\H,0,1.756953,0.534619,-1.8

 Normal termination of Gaussian 16 at Wed Apr  9 00:07:11 2025.
