 Gaussian 16, Revision C.01,

 ----------------------------------------------------------------------
 #t hf aug-cc-pvdz symm=none int=(grid=ultrafine) guess=(read,tcheck) s
 table=(opt,rrhf)
 ----------------------------------------------------------------------
 -----
 title
 -----
 Symbolic Z-matrix:
 Charge =  0 Multiplicity = 1

 SCF Done:  E(RHF) =  -999.707272085     A.U. after   15 cycles
 Normal termination of Gaussian 16 at Wed Apr  9 00:23:39 2025.
 Gaussian 16:  ES64L-G16RevC.01  3-Jul-2019

 ----------------------------------------------------------------------
 #t hf aug-cc-pvdz iop(5/13=1,5/36=2,99/5=2) pseudo=read geom=check gue
 ss=(read,tcheck) scf=(maxcycle=1)
 ----------------------------------------------------------------------
 -----
 title
 -----
 Structure from the checkpoint file:  "BDE49_nonexpt_2750_mol1.chk"
 Charge =  0 Multiplicity = 1

                         Standard orientation:
 ---------------------------------------------------------------------
 Center     Atomic      Atomic             Coordinates (Angstroms)
 Number     Number       Type             X           Y           Z
 ---------------------------------------------------------------------
      1         16           0        1.845705    0.323326   -0.090179
      2         16           0        0.265333   -0.952049    0.016433
      3          7           0       -1.257814    0.217911   -0.002177
      4          8           0       -2.291236   -0.406895   -0.006001
      5          8           0       -1.082577    1.404473    0.001827
      6          1           0        2.018596    0.553564    1.228568
 ---------------------------------------------------------------------

 SCF Done:  E(RHF) =  -999.813649799     A.U. after    2 cycles

 The electronic state is 1-A.
 Alpha  occ. eigenvalues --  -93.64838 -93.61356 -20.64913 -20.64396 -15.94406
 Alpha  occ. eigenvalues --   -8.94019  -8.90979  -6.28050  -6.27792  -6.27359
 Alpha  occ. eigenvalues --   -6.25078  -6.24828  -6.24501  -1.57852  -1.40641
 Alpha  occ. eigenvalues --   -1.10085  -0.96474  -0.85658  -0.76776  -0.76178
 Alpha  occ. eigenvalues --   -0.74880  -0.60961  -0.55761  -0.51559  -0.50280
 Alpha  occ. eigenvalues --   -0.49362  -0.42863  -0.41955
 Alpha virt. eigenvalues --    0.02995   0.04371   0.05612   0.07321   0.09078
 Alpha virt. eigenvalues --    0.09918   0.10933   0.12455   0.12991   0.13218
 Alpha virt. eigenvalues --    0.14619   0.16816   0.17074   0.17721   0.21449

 Mulliken charges:
               1
     1  S   -0.020678
     2  S    0.386634
     3  N    0.411345
     4  O   -0.498358
     5  O   -0.460031
     6  H    0.181087
 Sum of Mulliken charges =   0.00000

 Dipole moment (field-independent basis, Debye):
    X=              3.6257    Y=             -0.8319    Z=              0.9012  Tot=              3.8275

 Test job not archived.
 1\1\GINC-SE072\SP\RHF\Aug-CC-pVDZ\H1N1O2S2\OHZDE\09-Apr-2025\0\\#t hf
 aug-cc-pvdz iop(5/13=1,5/36=2,99/5=2) pseudo=read geom=check guess=(re
 ad,tcheck) scf=(maxcycle=1)\\title\\0,1\S,0,1.845705,0.323326,-0.09017
 9\S,0,0.265333,-0.952049,0.016433\N,0,-1.257814,0.217911,-0.002177\O,0
 ,-2.291236,-0.406895,-0.006001\O,0,-1.082577,1.404473,0.001827\H,0,2.0
 18596,0.553564,1.228568\\Version=ES64L-G16RevC.01\State=1-A\HF=-999.81
 36498\RMSD=5.479e-03\Dipole=1.4264429,-0.3272999,0.3545481\Quadrupole=
 -1.5505726,-0.8553416,2.4059142,1.3830734,1.5848105,0.5953958\PG=C01 [

 Normal termination of Gaussian 16 at Wed Apr  9 00:23:41 2025.
