 Gaussian 16, Revision C.01,

 ----------------------------------------------------------------------
 #t hf aug-cc-pvdz symm=none int=(grid=ultrafine) guess=(read,tcheck) s
 table=opt
 ----------------------------------------------------------------------
 -----
 title
 -----
 Symbolic Z-matrix:
 Charge =  0 Multiplicity = 2

 SCF Done:  E(UHF) =  -445.624527023     A.U. after   15 cycles

 1\1\GINC-SE398\Stability\UHF\Aug-CC-pVDZ\C4H9Si1\OHZDE\08-Apr-2025\0\\
 #t hf aug-cc-pvdz symm=none int=(grid=ultrafine) guess=(read,tcheck) s
 table=opt\\title\\0,2\Si,0,-1.333717,-0.035433,-0.094248\C,0,-0.02768,
 -1.414272,0.10128\C,0,-0.086602,1.407134,-0.158832\C,0,1.239086,0.7521
 21,0.304808\H,0,-0.379695,2.255799,0.46379\H,0,0.012278,1.780866,-1.18
 3176\C,0,1.302555,-0.694584,-0.22822\H,0,1.266464,0.727973,1.400508\H,
 0,2.110309,1.329429,-0.021547\H,0,1.440828,-0.668113,-1.315658\H,0,2.1
 63781,-1.228361,0.185702\H,0,-0.192579,-2.292111,-0.526206\H,0,-0.0350

 Normal termination of Gaussian 16 at Tue Apr  8 23:40:32 2025.
 Gaussian 16:  ES64L-G16RevC.01  3-Jul-2019

 ----------------------------------------------------------------------
 #t hf aug-cc-pvdz iop(5/13=1,5/36=2,99/5=2) pseudo=read geom=check gue
 ss=(read,tcheck) scf=(maxcycle=1)
 ----------------------------------------------------------------------
 -----
 title
 -----
 Structure from the checkpoint file:  "BDE49_nonexpt_1655_mol2.chk"
 Charge =  0 Multiplicity = 2

                         Standard orientation:
 ---------------------------------------------------------------------
 Center     Atomic      Atomic             Coordinates (Angstroms)
 Number     Number       Type             X           Y           Z
 ---------------------------------------------------------------------
      1         14           0       -1.333717   -0.035433   -0.094248
      2          6           0       -0.027679   -1.414272    0.101280
      3          6           0       -0.086603    1.407134   -0.158832
      4          6           0        1.239086    0.752122    0.304808
      5          1           0       -0.379696    2.255799    0.463790
      6          1           0        0.012277    1.780866   -1.183176
      7          6           0        1.302555   -0.694583   -0.228220
      8          1           0        1.266464    0.727974    1.400508
      9          1           0        2.110309    1.329430   -0.021547
     10          1           0        1.440828   -0.668112   -1.315658
     11          1           0        2.163782   -1.228360    0.185702
     12          1           0       -0.192578   -2.292111   -0.526206
     13          1           0       -0.035054   -1.757407    1.142760
     14          1           0       -2.278450    0.045586    1.059076
 ---------------------------------------------------------------------

 SCF Done:  E(UHF) =  -445.692864159     A.U. after    2 cycles

 The electronic state is 2-A.
 Alpha  occ. eigenvalues --  -69.05537 -11.23450 -11.23387 -11.21784 -11.21755
 Alpha  occ. eigenvalues --   -6.80910  -3.92231  -3.91353  -3.91326  -1.07075
 Alpha  occ. eigenvalues --   -0.95500  -0.87381  -0.77393  -0.66453  -0.63180
 Alpha  occ. eigenvalues --   -0.60414  -0.58011  -0.52444  -0.49306  -0.47823
 Alpha  occ. eigenvalues --   -0.46773  -0.43988  -0.40936  -0.30761
 Alpha virt. eigenvalues --    0.03345   0.04548   0.04653   0.04743   0.06440
 Alpha virt. eigenvalues --    0.06591   0.06783   0.06987   0.07418   0.09488
 Alpha virt. eigenvalues --    0.10080   0.10544   0.13772   0.14315   0.14729

  Beta  occ. eigenvalues --  -69.04991 -11.23425 -11.23371 -11.21706 -11.21693
  Beta  occ. eigenvalues --   -6.80087  -3.90999  -3.90946  -3.90117  -1.06811
  Beta  occ. eigenvalues --   -0.95245  -0.86776  -0.77236  -0.64683  -0.62950
  Beta  occ. eigenvalues --   -0.57992  -0.57694  -0.51576  -0.49118  -0.47633
  Beta  occ. eigenvalues --   -0.46640  -0.42952  -0.40071
  Beta virt. eigenvalues --    0.03136   0.04035   0.04613   0.04718   0.06225
  Beta virt. eigenvalues --    0.06545   0.06824   0.06850   0.07110   0.08301
  Beta virt. eigenvalues --    0.09554   0.10393   0.11240   0.13980   0.14405

 Mulliken charges and spin densities:
               1          2
     1  Si   0.323751   0.983237
     2  C    0.224416  -0.041488
     3  C    0.215852  -0.035357
     4  C    0.069869   0.029104
     5  H   -0.136241  -0.003557
     6  H   -0.115786  -0.002641
     7  C    0.081366   0.011897
     8  H   -0.151636  -0.000829
     9  H   -0.095274   0.005199
    10  H   -0.141465  -0.001561
    11  H   -0.090805   0.000869
    12  H   -0.128790  -0.002574
    13  H   -0.157127  -0.000721
    14  H    0.101871   0.058424
 Sum of Mulliken charges =  -0.00000   1.00000

 Dipole moment (field-independent basis, Debye):
    X=              0.7282    Y=              0.0107    Z=              0.0057  Tot=              0.7283
                          Isotropic Fermi Contact Couplings
        Atom                 a.u.       MegaHertz       Gauss      10(-4) cm-1
     1  Si(29)             0.51503    -457.71816    -163.32522    -152.67834
     2  C(13)              0.01522      17.10707       6.10423       5.70630
     3  C(13)              0.01238      13.91518       4.96528       4.64161
     4  C(13)              0.00932      10.47279       3.73695       3.49335
     5  H(1)               0.00149       6.66073       2.37671       2.22178
     6  H(1)               0.00329      14.69556       5.24374       4.90191
     7  C(13)              0.00210       2.36433       0.84365       0.78865
     8  H(1)              -0.00024      -1.05942      -0.37803      -0.35339

 Normal termination of Gaussian 16 at Tue Apr  8 23:40:36 2025.
