 Gaussian 16, Revision C.01,

 ----------------------------------------------------------------------
 #t hf aug-cc-pvdz symm=none int=(grid=ultrafine) guess=(read,tcheck) s
 table=opt
 ----------------------------------------------------------------------
 -----
 title
 -----
 Symbolic Z-matrix:
 Charge =  0 Multiplicity = 2

 SCF Done:  E(UHF) =  -295.722804586     A.U. after   18 cycles
 Normal termination of Gaussian 16 at Wed Apr  9 00:33:39 2025.
 Gaussian 16:  ES64L-G16RevC.01  3-Jul-2019

 ----------------------------------------------------------------------
 #t hf aug-cc-pvdz iop(5/13=1,5/36=2,99/5=2) pseudo=read geom=check gue
 ss=(read,tcheck) scf=(maxcycle=1)
 ----------------------------------------------------------------------
 -----
 title
 -----
 Structure from the checkpoint file:  "BDE49_nonexpt_445_mol2.chk"
 Charge =  0 Multiplicity = 2

                         Standard orientation:
 ---------------------------------------------------------------------
 Center     Atomic      Atomic             Coordinates (Angstroms)
 Number     Number       Type             X           Y           Z
 ---------------------------------------------------------------------
      1          9           0       -2.936774    0.000037    0.023200
      2          7           0       -0.384715   -0.000162   -0.048751
      3          6           0        1.686858    1.304656    0.026700
      4          6           0        0.962229    0.000005   -0.109300
      5          6           0        1.687153   -1.304483    0.026708
      6          5           0       -1.632663   -0.000183    0.010634
      7          1           0        1.141912    2.108599   -0.474918
      8          1           0        2.691840    1.245330   -0.400097
      9          1           0        1.800614    1.602109    1.082317
     10          1           0        1.142402   -2.108547   -0.474929
     11          1           0        1.800948   -1.601918    1.082326
     12          1           0        2.692130   -1.244922   -0.400064
 ---------------------------------------------------------------------

 SCF Done:  E(UHF) =  -295.828560797     A.U. after    2 cycles

 The electronic state is 2-A.
 Alpha  occ. eigenvalues --  -26.17351 -15.61114 -11.27375 -11.22751 -11.22747
 Alpha  occ. eigenvalues --   -7.70006  -1.71240  -1.16369  -1.00869  -0.93873
 Alpha  occ. eigenvalues --   -0.86772  -0.82258  -0.78884  -0.78299  -0.65319
 Alpha  occ. eigenvalues --   -0.61931  -0.59723  -0.54413  -0.54343  -0.51233
 Alpha  occ. eigenvalues --   -0.47202  -0.40077  -0.27526
 Alpha virt. eigenvalues --    0.03179   0.04415   0.04507   0.04985   0.06616
 Alpha virt. eigenvalues --    0.06711   0.07496   0.07572   0.08300   0.09424
 Alpha virt. eigenvalues --    0.12294   0.15047   0.15289   0.15666   0.16282

  Beta  occ. eigenvalues --  -26.17235 -15.62047 -11.24877 -11.23080 -11.23075
  Beta  occ. eigenvalues --   -7.69472  -1.70965  -1.15227  -0.99652  -0.93922
  Beta  occ. eigenvalues --   -0.86569  -0.79957  -0.78026  -0.77573  -0.63437
  Beta  occ. eigenvalues --   -0.59243  -0.57359  -0.54137  -0.53456  -0.50939
  Beta  occ. eigenvalues --   -0.45764  -0.40948
  Beta virt. eigenvalues --    0.03243   0.04419   0.04549   0.04788   0.06622
  Beta virt. eigenvalues --    0.06720   0.07515   0.07592   0.08402   0.09425
  Beta virt. eigenvalues --    0.12136   0.13026   0.15116   0.15322   0.16052

 Mulliken charges and spin densities:
               1          2
     1  F   -0.226327   0.012904
     2  N   -0.132602  -0.299689
     3  C    0.411304  -0.235455
     4  C   -0.118695   1.295932
     5  C    0.411384  -0.235458
     6  B   -0.088915   0.333558
     7  H   -0.095513   0.009348
     8  H   -0.067879   0.008292
     9  H    0.035319   0.046463
    10  H   -0.095501   0.009350
    11  H    0.035320   0.046463
    12  H   -0.067894   0.008292
 Sum of Mulliken charges =  -0.00000   1.00000

 Dipole moment (field-independent basis, Debye):
    X=              0.7138    Y=             -0.0002    Z=              0.1164  Tot=              0.7232
                          Isotropic Fermi Contact Couplings
        Atom                 a.u.       MegaHertz       Gauss      10(-4) cm-1
     1  F(19)              0.01195      50.26354      17.93528      16.76611
     2  N(14)             -0.15736     -50.84349     -18.14222     -16.95956
     3  C(13)             -0.06003     -67.48242     -24.07940     -22.50971
     4  C(13)              0.23888     268.54797      95.82459      89.57796
     5  C(13)             -0.06003     -67.48210     -24.07929     -22.50961
     6  B(11)              0.03197      45.85180      16.36106      15.29452
     7  H(1)               0.00745      33.27977      11.87505      11.10094
     8  H(1)               0.00541      24.20415       8.63664       8.07363

 Normal termination of Gaussian 16 at Wed Apr  9 00:33:43 2025.
