 Gaussian 16, Revision C.01,

 ----------------------------------------------------------------------
 #t hf aug-cc-pvdz symm=none int=(grid=ultrafine) guess=(read,tcheck) s
 table=(opt,rrhf)
 ----------------------------------------------------------------------
 -----
 title
 -----
 Symbolic Z-matrix:
 Charge =  0 Multiplicity = 1

 SCF Done:  E(RHF) =  -189.830697362     A.U. after   13 cycles
 Normal termination of Gaussian 16 at Tue Apr  8 23:00:36 2025.
 Gaussian 16:  ES64L-G16RevC.01  3-Jul-2019

 ----------------------------------------------------------------------
 #t hf aug-cc-pvdz iop(5/13=1,5/36=2,99/5=2) pseudo=read geom=check gue
 ss=(read,tcheck) scf=(maxcycle=1)
 ----------------------------------------------------------------------
 -----
 title
 -----
 Structure from the checkpoint file:  "BDE49_expt_276_mol1.chk"
 Charge =  0 Multiplicity = 1

                         Standard orientation:
 ---------------------------------------------------------------------
 Center     Atomic      Atomic             Coordinates (Angstroms)
 Number     Number       Type             X           Y           Z
 ---------------------------------------------------------------------
      1          6           0       -1.129626   -0.223655    0.026722
      2          8           0        0.016209    0.606861   -0.031369
      3          1           0       -1.189210   -0.877972   -0.848559
      4          1           0       -1.972936    0.471234    0.024141
      5          1           0       -1.144269   -0.825446    0.942264
      6          8           0        1.164109   -0.285511   -0.090729
      7          1           0        1.641628    0.003318    0.698603
 ---------------------------------------------------------------------

 SCF Done:  E(RHF) =  -189.894336706     A.U. after    2 cycles

 The electronic state is 1-A.
 Alpha  occ. eigenvalues --  -20.64037 -20.63774 -11.29342  -1.42417  -1.20673
 Alpha  occ. eigenvalues --   -0.91859  -0.73907  -0.67676  -0.66353  -0.60239
 Alpha  occ. eigenvalues --   -0.54038  -0.51773  -0.46865
 Alpha virt. eigenvalues --    0.03503   0.05013   0.06064   0.06180   0.10389
 Alpha virt. eigenvalues --    0.14631   0.15034   0.16502   0.17367   0.18974
 Alpha virt. eigenvalues --    0.21461   0.23547   0.25514   0.26080   0.28595

 Mulliken charges:
               1
     1  C    0.809333
     2  O   -0.437585
     3  H   -0.083128
     4  H   -0.149547
     5  H   -0.085488
     6  O   -0.259236
     7  H    0.205650
 Sum of Mulliken charges =  -0.00000

 Dipole moment (field-independent basis, Debye):
    X=             -0.8034    Y=             -0.5486    Z=              1.4970  Tot=              1.7853

 Test job not archived.
 1\1\GINC-SE332\SP\RHF\Aug-CC-pVDZ\C1H4O2\OHZDE\08-Apr-2025\0\\#t hf au
 g-cc-pvdz iop(5/13=1,5/36=2,99/5=2) pseudo=read geom=check guess=(read
 ,tcheck) scf=(maxcycle=1)\\title\\0,1\C,0,-1.129626,-0.223655,0.026722
 \O,0,0.016209,0.606861,-0.031369\H,0,-1.18921,-0.877972,-0.848559\H,0,
 -1.972936,0.471234,0.024141\H,0,-1.144269,-0.825446,0.942264\O,0,1.164
 109,-0.285511,-0.090729\H,0,1.641628,0.003318,0.698603\\Version=ES64L-
 G16RevC.01\State=1-A\HF=-189.8943367\RMSD=2.393e-03\Dipole=-0.3160828,
 -0.2158258,0.5889623\Quadrupole=2.0398141,-1.8097693,-0.2300448,0.5322

 Normal termination of Gaussian 16 at Tue Apr  8 23:00:37 2025.
