 Gaussian 16, Revision C.01,

 ----------------------------------------------------------------------
 #t hf aug-cc-pvdz symm=none int=(grid=ultrafine) guess=(read,tcheck) s
 table=(opt,rrhf)
 ----------------------------------------------------------------------
 -----
 title
 -----
 Symbolic Z-matrix:
 Charge =  0 Multiplicity = 1

 SCF Done:  E(RHF) =  -629.886828710     A.U. after   12 cycles
 Normal termination of Gaussian 16 at Tue Apr  8 23:48:23 2025.
 Gaussian 16:  ES64L-G16RevC.01  3-Jul-2019

 ----------------------------------------------------------------------
 #t hf aug-cc-pvdz iop(5/13=1,5/36=2,99/5=2) pseudo=read geom=check gue
 ss=(read,tcheck) scf=(maxcycle=1)
 ----------------------------------------------------------------------
 -----
 title
 -----
 Structure from the checkpoint file:  "BDE49_nonexpt_1860_mol1.chk"
 Charge =  0 Multiplicity = 1

                         Standard orientation:
 ---------------------------------------------------------------------
 Center     Atomic      Atomic             Coordinates (Angstroms)
 Number     Number       Type             X           Y           Z
 ---------------------------------------------------------------------
      1         14           0       -0.810570    0.163842    0.418990
      2          6           0        1.047495   -0.243639    0.441287
      3          8           0        1.847056    0.883292    0.162147
      4          1           0        1.386650    1.408190   -0.506547
      5          8           0       -1.668584   -1.148225   -0.061151
      6          1           0       -1.179959   -1.742221   -0.642621
      7          8           0        1.180769   -1.263001   -0.557222
      8          1           0        2.121560   -1.453303   -0.658346
      9          8           0       -0.815804    1.418352   -0.660238
     10          1           0       -1.386465    0.585490    1.707855
     11          1           0       -1.633987    1.863940   -0.888783
     12          1           0        1.407708   -0.617392    1.406577
 ---------------------------------------------------------------------

 SCF Done:  E(RHF) =  -630.037151101     A.U. after    2 cycles

 The electronic state is 1-A.
 Alpha  occ. eigenvalues --  -69.11910 -20.58902 -20.58382 -20.58272 -20.57357
 Alpha  occ. eigenvalues --  -11.33434  -6.86451  -3.97446  -3.97319  -3.97247
 Alpha  occ. eigenvalues --   -1.36850  -1.31947  -1.30484  -1.29531  -0.90986
 Alpha  occ. eigenvalues --   -0.79168  -0.75344  -0.72778  -0.67030  -0.64221
 Alpha  occ. eigenvalues --   -0.63965  -0.60758  -0.59440  -0.57612  -0.53162
 Alpha  occ. eigenvalues --   -0.52065  -0.50783  -0.49808  -0.43599
 Alpha virt. eigenvalues --    0.03065   0.04381   0.05019   0.05774   0.06812
 Alpha virt. eigenvalues --    0.06974   0.07852   0.08562   0.08852   0.12662
 Alpha virt. eigenvalues --    0.13380   0.14618   0.15663   0.18134   0.18867

 Mulliken charges:
               1
     1  Si   1.589115
     2  C    0.892172
     3  O   -0.576350
     4  H    0.167698
     5  O   -0.811026
     6  H    0.184325
     7  O   -0.602248
     8  H    0.114214
     9  O   -0.778332
    10  H   -0.021380
    11  H    0.114438
    12  H   -0.272627
 Sum of Mulliken charges =  -0.00000

 Dipole moment (field-independent basis, Debye):
    X=             -0.3190    Y=              0.1814    Z=             -0.3577  Tot=              0.5124

 Test job not archived.
 1\1\GINC-SE455\SP\RHF\Aug-CC-pVDZ\C1H6O4Si1\OHZDE\08-Apr-2025\0\\#t hf
  aug-cc-pvdz iop(5/13=1,5/36=2,99/5=2) pseudo=read geom=check guess=(r
 ead,tcheck) scf=(maxcycle=1)\\title\\0,1\Si,0,-0.81057,0.163842,0.4189
 9\C,0,1.047495,-0.243639,0.441287\O,0,1.847056,0.883292,0.162147\H,0,1
 .38665,1.40819,-0.506547\O,0,-1.668584,-1.148225,-0.061151\H,0,-1.1799
 59,-1.742221,-0.642621\O,0,1.180769,-1.263001,-0.557222\H,0,2.12156,-1
 .453303,-0.658346\O,0,-0.815804,1.418352,-0.660238\H,0,-1.386465,0.585
 49,1.707855\H,0,-1.633987,1.86394,-0.888783\H,0,1.407708,-0.617392,1.4

 Normal termination of Gaussian 16 at Tue Apr  8 23:48:27 2025.
