 Gaussian 16, Revision C.01,

 ----------------------------------------------------------------------
 #t hf aug-cc-pvdz symm=none int=(grid=ultrafine) guess=(read,tcheck) s
 table=(opt,rrhf)
 ----------------------------------------------------------------------
 -----
 title
 -----
 Symbolic Z-matrix:
 Charge =  0 Multiplicity = 1

 SCF Done:  E(RHF) =  -1360.56703483     A.U. after   13 cycles
 Normal termination of Gaussian 16 at Wed Apr  9 00:42:23 2025.
 Gaussian 16:  ES64L-G16RevC.01  3-Jul-2019

 ----------------------------------------------------------------------
 #t hf aug-cc-pvdz iop(5/13=1,5/36=2,99/5=2) pseudo=read geom=check gue
 ss=(read,tcheck) scf=(maxcycle=1)
 ----------------------------------------------------------------------
 -----
 title
 -----
 Structure from the checkpoint file:  "BDE49_nonexpt_755_mol1.chk"
 Charge =  0 Multiplicity = 1

                         Standard orientation:
 ---------------------------------------------------------------------
 Center     Atomic      Atomic             Coordinates (Angstroms)
 Number     Number       Type             X           Y           Z
 ---------------------------------------------------------------------
      1         15           0       -0.248534   -0.123496    0.878495
      2          5           0        0.566655    1.580821    0.286245
      3         17           0        1.036871   -1.420846   -0.208081
      4         17           0       -1.888918    0.101413   -0.428213
      5          8           0        1.667100    1.629961   -0.465351
      6          1           0        1.996848    0.753753   -0.722375
      7          1           0        0.045878    2.585260    0.653535
 ---------------------------------------------------------------------

 SCF Done:  E(RHF) =  -1360.65951085     A.U. after    2 cycles

 The electronic state is 1-A.
 Alpha  occ. eigenvalues -- -103.68258-103.68077 -81.36191 -20.62234 -10.71571
 Alpha  occ. eigenvalues --  -10.71367  -8.37258  -8.37064  -8.37001  -8.36978
 Alpha  occ. eigenvalues --   -8.36778  -8.36761  -7.85867  -7.68582  -4.99621
 Alpha  occ. eigenvalues --   -4.99465  -4.99185  -1.36728  -1.17179  -1.14671
 Alpha  occ. eigenvalues --   -0.82092  -0.78520  -0.66444  -0.62401  -0.59526
 Alpha  occ. eigenvalues --   -0.57153  -0.53710  -0.52350  -0.50100  -0.47877
 Alpha  occ. eigenvalues --   -0.46436  -0.37914
 Alpha virt. eigenvalues --    0.03050   0.04189   0.04547   0.05717   0.06768
 Alpha virt. eigenvalues --    0.07036   0.08320   0.09675   0.10719   0.11762
 Alpha virt. eigenvalues --    0.13608   0.13787   0.14354   0.15301   0.16097

 Mulliken charges:
               1
     1  P    0.353649
     2  B    0.439958
     3  Cl  -0.459262
     4  Cl  -0.398211
     5  O   -0.392717
     6  H    0.251623
     7  H    0.204959
 Sum of Mulliken charges =  -0.00000

 Dipole moment (field-independent basis, Debye):
    X=              0.6879    Y=              0.3232    Z=              1.0861  Tot=              1.3257

 Test job not archived.
 1\1\GINC-SE132\SP\RHF\Aug-CC-pVDZ\B1Cl2H2O1P1\OHZDE\09-Apr-2025\0\\#t
 hf aug-cc-pvdz iop(5/13=1,5/36=2,99/5=2) pseudo=read geom=check guess=
 (read,tcheck) scf=(maxcycle=1)\\title\\0,1\P,0,-0.248534,-0.123496,0.8
 78495\B,0,0.566656,1.580821,0.286245\Cl,0,1.036871,-1.420846,-0.208081
 \Cl,0,-1.888918,0.101413,-0.428213\O,0,1.667101,1.62996,-0.465351\H,0,
 1.996848,0.753752,-0.722375\H,0,0.045879,2.58526,0.653535\\Version=ES6
 4L-G16RevC.01\State=1-A\HF=-1360.6595109\RMSD=5.454e-03\Dipole=0.27064
 06,0.1271606,0.4273223\Quadrupole=0.115921,-1.6919616,1.5760406,-1.350

 Normal termination of Gaussian 16 at Wed Apr  9 00:42:26 2025.
