 Gaussian 16, Revision C.01,

 ----------------------------------------------------------------------
 #t hf aug-cc-pvdz symm=none int=(grid=ultrafine) guess=(read,tcheck) s
 table=opt
 ----------------------------------------------------------------------
 -----
 title
 -----
 Symbolic Z-matrix:
 Charge =  0 Multiplicity = 2

 SCF Done:  E(UHF) =  -788.478601359     A.U. after   26 cycles
 Normal termination of Gaussian 16 at Tue Apr  8 23:20:00 2025.
 Gaussian 16:  ES64L-G16RevC.01  3-Jul-2019

 ----------------------------------------------------------------------
 #t hf aug-cc-pvdz iop(5/13=1,5/36=2,99/5=2) pseudo=read geom=check gue
 ss=(read,tcheck) scf=(maxcycle=1)
 ----------------------------------------------------------------------
 -----
 title
 -----
 Structure from the checkpoint file:  "BDE49_expt_833_mol2.chk"
 Charge =  0 Multiplicity = 2

                         Standard orientation:
 ---------------------------------------------------------------------
 Center     Atomic      Atomic             Coordinates (Angstroms)
 Number     Number       Type             X           Y           Z
 ---------------------------------------------------------------------
      1          6           0        6.740012   -0.103233   -0.257507
      2          6           0        5.400662   -0.631124    0.264614
      3          1           0        6.907503    0.931352    0.058150
      4          1           0        6.773778   -0.123560   -1.351340
      5          1           0        7.577321   -0.702074    0.111225
      6          6           0        4.195778    0.178886   -0.227577
      7          1           0        5.410958   -0.631261    1.361354
      8          1           0        5.278336   -1.678342   -0.037462
      9          6           0        2.850577   -0.342119    0.290484
     10          1           0        4.185856    0.178960   -1.325351
     11          1           0        4.318924    1.227278    0.074087
     12          6           0        1.646353    0.468239   -0.202648
     13          1           0        2.861466   -0.341912    1.388133
     14          1           0        2.728586   -1.390420   -0.011147
     15          6           0        0.301400   -0.053215    0.316059
     16          1           0        1.635187    0.467480   -1.300198
     17          1           0        1.768376    1.516715    0.098615
     18          6           0       -0.902297    0.757459   -0.177889
     19          1           0        0.312257   -0.052418    1.413661
     20          1           0        0.178854   -1.101258    0.014513
     21          6           0       -2.245836    0.233030    0.339590
     22          1           0       -0.913799    0.756073   -1.275196
     23          1           0       -0.780480    1.805941    0.123711
     24          6           0       -3.446839    1.046547   -0.152347
     25          1           0       -2.237098    0.229781    1.437619
     26          1           0       -2.372920   -0.811101    0.028621
     27          6           0       -4.792355    0.521513    0.352486
     28          1           0       -3.458569    1.064015   -1.247249
     29          1           0       -3.341975    2.087891    0.179479
     30          1           0       -4.821099    0.471155    1.447039
     31         16           0       -5.305349   -1.097324   -0.283047
     32          1           0       -5.610597    1.196995    0.068900
 ---------------------------------------------------------------------

 SCF Done:  E(UHF) =  -788.617840793     A.U. after    2 cycles

 The electronic state is 2-A.
 Alpha  occ. eigenvalues --  -93.54654 -11.27386 -11.23927 -11.23011 -11.22783
 Alpha  occ. eigenvalues --  -11.22574 -11.22568 -11.22469 -11.22399 -11.22337
 Alpha  occ. eigenvalues --  -11.22086  -8.84357  -6.19716  -6.18032  -6.17601
 Alpha  occ. eigenvalues --   -1.09269  -1.07564  -1.04839  -1.01062  -0.96512
 Alpha  occ. eigenvalues --   -0.91573  -0.86546  -0.81774  -0.78880  -0.78658
 Alpha  occ. eigenvalues --   -0.78159  -0.66319  -0.64571  -0.62685  -0.61424
 Alpha  occ. eigenvalues --   -0.59476  -0.58706  -0.57358  -0.55591  -0.55011
 Alpha  occ. eigenvalues --   -0.53535  -0.51779  -0.50169  -0.49060  -0.48839
 Alpha  occ. eigenvalues --   -0.47685  -0.47020  -0.46364  -0.46075  -0.45992
 Alpha  occ. eigenvalues --   -0.45856  -0.43445  -0.41803  -0.36480
 Alpha virt. eigenvalues --    0.03362   0.03526   0.04170   0.04485   0.04562
 Alpha virt. eigenvalues --    0.05199   0.05616   0.06161   0.06492   0.06703
 Alpha virt. eigenvalues --    0.07213   0.07716   0.08159   0.08955   0.09388

  Beta  occ. eigenvalues --  -93.53756 -11.27515 -11.23922 -11.23003 -11.22785
  Beta  occ. eigenvalues --  -11.22574 -11.22567 -11.22469 -11.22399 -11.22337
  Beta  occ. eigenvalues --  -11.22086  -8.83357  -6.17493  -6.17051  -6.15781
  Beta  occ. eigenvalues --   -1.08991  -1.07299  -1.04402  -1.00376  -0.95456
  Beta  occ. eigenvalues --   -0.90050  -0.84842  -0.80725  -0.78823  -0.78476
  Beta  occ. eigenvalues --   -0.75648  -0.66242  -0.64400  -0.61761  -0.60948
  Beta  occ. eigenvalues --   -0.59440  -0.58534  -0.57189  -0.55531  -0.54580
  Beta  occ. eigenvalues --   -0.53343  -0.51599  -0.49937  -0.48815  -0.48669
  Beta  occ. eigenvalues --   -0.47526  -0.46961  -0.46342  -0.46025  -0.45969
  Beta  occ. eigenvalues --   -0.44975  -0.43207  -0.34281
  Beta virt. eigenvalues --    0.02281   0.03388   0.03527   0.04235   0.04501
  Beta virt. eigenvalues --    0.04598   0.05272   0.05644   0.06186   0.06546
  Beta virt. eigenvalues --    0.06722   0.07275   0.07772   0.08207   0.08968

 Mulliken charges and spin densities:
               1          2
     1  C    0.656872  -0.000002
     2  C    0.539748  -0.000004
     3  H   -0.093507   0.000000
     4  H   -0.093189   0.000000
     5  H   -0.067208  -0.000000
     6  C    0.258665  -0.000042
     7  H   -0.167343  -0.000000
     8  H   -0.165987   0.000001
     9  C    0.237821  -0.000137
    10  H   -0.197889  -0.000003
    11  H   -0.200684  -0.000000
    12  C    0.155822  -0.001515
    13  H   -0.219154   0.000007
    14  H   -0.221137   0.000003
    15  C    0.191799  -0.016866
    16  H   -0.205223   0.000122
    17  H   -0.197130  -0.000091
    18  C    0.201208  -0.004662
    19  H   -0.202754  -0.000100
    20  H   -0.195943  -0.002022
    21  C    0.289022  -0.000507
    22  H   -0.213987  -0.001151
    23  H   -0.223040   0.000409
    24  C    0.444736   0.005634
    25  H   -0.192633  -0.002037
    26  H   -0.214706   0.004696
    27  C    0.356071  -0.116933
    28  H   -0.184284  -0.002666
    29  H   -0.140526   0.002232
    30  H   -0.123186   0.012343
    31  S    0.223927   1.098549
    32  H   -0.036181   0.024745
 Sum of Mulliken charges =  -0.00000   1.00000

 Dipole moment (field-independent basis, Debye):
    X=              0.7754    Y=              1.5574    Z=              0.5609  Tot=              1.8280
                          Isotropic Fermi Contact Couplings
        Atom                 a.u.       MegaHertz       Gauss      10(-4) cm-1
     1  C(13)             -0.00000      -0.00007      -0.00002      -0.00002
     2  C(13)             -0.00000      -0.00042      -0.00015      -0.00014
     3  H(1)               0.00000       0.00001       0.00000       0.00000
     4  H(1)               0.00000       0.00001       0.00000       0.00000
     5  H(1)               0.00000       0.00000       0.00000       0.00000
     6  C(13)              0.00000       0.00038       0.00013       0.00013
     7  H(1)               0.00000       0.00005       0.00002       0.00002
     8  H(1)               0.00000       0.00004       0.00001       0.00001

 Normal termination of Gaussian 16 at Tue Apr  8 23:20:28 2025.
