 Gaussian 16, Revision C.01,

 ----------------------------------------------------------------------
 #t hf aug-cc-pvdz symm=none int=(grid=ultrafine) guess=(read,tcheck) s
 table=(opt,rrhf)
 ----------------------------------------------------------------------
 -----
 title
 -----
 Symbolic Z-matrix:
 Charge =  0 Multiplicity = 1

 SCF Done:  E(RHF) =  -716.048224015     A.U. after   16 cycles
 Normal termination of Gaussian 16 at Wed Apr  9 00:52:02 2025.
 Gaussian 16:  ES64L-G16RevC.01  3-Jul-2019

 ----------------------------------------------------------------------
 #t hf aug-cc-pvdz iop(5/13=1,5/36=2,99/5=2) pseudo=read geom=check gue
 ss=(read,tcheck) scf=(maxcycle=1)
 ----------------------------------------------------------------------
 -----
 title
 -----
 Structure from the checkpoint file:  "BDE49_nonexpt_998_mol1.chk"
 Charge =  0 Multiplicity = 1

                         Standard orientation:
 ---------------------------------------------------------------------
 Center     Atomic      Atomic             Coordinates (Angstroms)
 Number     Number       Type             X           Y           Z
 ---------------------------------------------------------------------
      1         16           0       -0.144587   -1.017312   -0.023464
      2          7           0        1.190345    0.262816   -0.005992
      3          8           0        0.897421    1.399668   -0.287800
      4          8           0        2.269459   -0.189376    0.310127
      5          8           0       -1.422612   -0.158022   -0.550329
      6          6           0       -2.156383    0.606122    0.442429
      7          1           0       -3.033989    0.981158   -0.081747
      8          1           0       -1.545506    1.436821    0.795049
      9          1           0       -2.455369   -0.035585    1.273510
 ---------------------------------------------------------------------

 SCF Done:  E(RHF) =  -716.177160448     A.U. after    2 cycles

 The electronic state is 1-A.
 Alpha  occ. eigenvalues --  -93.67196 -20.65630 -20.64339 -20.64012 -15.94091
 Alpha  occ. eigenvalues --  -11.32339  -8.95918  -6.30074  -6.29788  -6.29275
 Alpha  occ. eigenvalues --   -1.57314  -1.40148  -1.39281  -1.05654  -0.96283
 Alpha  occ. eigenvalues --   -0.86073  -0.78586  -0.75879  -0.74700  -0.68867
 Alpha  occ. eigenvalues --   -0.68077  -0.64487  -0.55761  -0.54677  -0.53593
 Alpha  occ. eigenvalues --   -0.49883  -0.47155  -0.41840
 Alpha virt. eigenvalues --    0.02958   0.04935   0.05439   0.06741   0.07287
 Alpha virt. eigenvalues --    0.07650   0.09358   0.11821   0.11952   0.13521
 Alpha virt. eigenvalues --    0.14038   0.16062   0.16402   0.17356   0.17632

 Mulliken charges:
               1
     1  S    1.048677
     2  N    0.329805
     3  O   -0.471204
     4  O   -0.522018
     5  O   -0.824931
     6  C    0.731755
     7  H   -0.177371
     8  H   -0.063107
     9  H   -0.051605
 Sum of Mulliken charges =   0.00000

 Dipole moment (field-independent basis, Debye):
    X=             -3.8261    Y=             -1.0010    Z=              1.2929  Tot=              4.1608

 Test job not archived.
 1\1\GINC-SE404\SP\RHF\Aug-CC-pVDZ\C1H3N1O3S1\OHZDE\09-Apr-2025\0\\#t h
 f aug-cc-pvdz iop(5/13=1,5/36=2,99/5=2) pseudo=read geom=check guess=(
 read,tcheck) scf=(maxcycle=1)\\title\\0,1\S,0,-0.144587,-1.017312,-0.0
 23464\N,0,1.190345,0.262816,-0.005992\O,0,0.897421,1.399668,-0.2878\O,
 0,2.269459,-0.189376,0.310127\O,0,-1.422612,-0.158022,-0.550329\C,0,-2
 .156383,0.606122,0.442429\H,0,-3.033989,0.981158,-0.081747\H,0,-1.5455
 06,1.436821,0.795049\H,0,-2.455369,-0.035585,1.27351\\Version=ES64L-G1
 6RevC.01\State=1-A\HF=-716.1771604\RMSD=3.534e-03\Dipole=-1.5052949,-0

 Normal termination of Gaussian 16 at Wed Apr  9 00:52:05 2025.
