 Gaussian 16, Revision C.01,

 ----------------------------------------------------------------------
 #t hf aug-cc-pvdz symm=none int=(grid=ultrafine) guess=(read,tcheck) s
 table=(opt,rrhf)
 ----------------------------------------------------------------------
 -----
 title
 -----
 Symbolic Z-matrix:
 Charge =  0 Multiplicity = 1

 SCF Done:  E(RHF) =  -796.731862075     A.U. after   15 cycles
 Normal termination of Gaussian 16 at Wed Apr  9 00:50:10 2025.
 Gaussian 16:  ES64L-G16RevC.01  3-Jul-2019

 ----------------------------------------------------------------------
 #t hf aug-cc-pvdz iop(5/13=1,5/36=2,99/5=2) pseudo=read geom=check gue
 ss=(read,tcheck) scf=(maxcycle=1)
 ----------------------------------------------------------------------
 -----
 title
 -----
 Structure from the checkpoint file:  "BDE49_nonexpt_942_mol1.chk"
 Charge =  0 Multiplicity = 1

                         Standard orientation:
 ---------------------------------------------------------------------
 Center     Atomic      Atomic             Coordinates (Angstroms)
 Number     Number       Type             X           Y           Z
 ---------------------------------------------------------------------
      1         17           0       -0.547216    1.701009   -0.170216
      2          8           0        2.095326    0.594774    0.331774
      3          8           0       -0.947260   -0.875633   -0.414784
      4          7           0       -0.153453    0.018407    0.304266
      5          7           0        1.511535   -1.544825   -0.222064
      6          6           0        1.269641   -0.248284    0.101391
      7          6           0       -2.151238   -1.150731    0.318530
      8          1           0        0.776987   -2.117970   -0.600874
      9          1           0        2.474873   -1.792673   -0.374186
     10          1           0       -2.679212   -1.897966   -0.273216
     11          1           0       -1.913924   -1.536969    1.311810
     12          1           0       -2.757584   -0.245688    0.399268
 ---------------------------------------------------------------------

 SCF Done:  E(RHF) =  -796.857701960     A.U. after    2 cycles

 The electronic state is 1-A.
 Alpha  occ. eigenvalues -- -103.69252 -20.65444 -20.55623 -15.76963 -15.66590
 Alpha  occ. eigenvalues --  -11.41884 -11.31332 -10.72198  -8.37938  -8.37562
 Alpha  occ. eigenvalues --   -8.37537  -1.43578  -1.37637  -1.20696  -1.19552
 Alpha  occ. eigenvalues --   -1.05732  -0.93867  -0.81788  -0.77626  -0.73089
 Alpha  occ. eigenvalues --   -0.70466  -0.67448  -0.65527  -0.61770  -0.60854
 Alpha  occ. eigenvalues --   -0.56610  -0.53866  -0.49414  -0.48553  -0.46945
 Alpha  occ. eigenvalues --   -0.43963  -0.41722
 Alpha virt. eigenvalues --    0.02611   0.03726   0.04937   0.05671   0.06852
 Alpha virt. eigenvalues --    0.08071   0.10045   0.10623   0.11900   0.13135
 Alpha virt. eigenvalues --    0.13927   0.14409   0.14894   0.15964   0.16555

 Mulliken charges:
               1
     1  Cl   0.237160
     2  O   -0.409969
     3  O   -0.731491
     4  N   -0.407814
     5  N   -0.101080
     6  C    0.905528
     7  C    0.812180
     8  H    0.048165
     9  H    0.012777
    10  H   -0.179507
    11  H   -0.082761
    12  H   -0.103189
 Sum of Mulliken charges =  -0.00000

 Dipole moment (field-independent basis, Debye):
    X=             -2.5951    Y=             -4.4202    Z=             -0.6884  Tot=              5.1717

 Test job not archived.
 1\1\GINC-SE126\SP\RHF\Aug-CC-pVDZ\C2H5Cl1N2O2\OHZDE\09-Apr-2025\0\\#t
 hf aug-cc-pvdz iop(5/13=1,5/36=2,99/5=2) pseudo=read geom=check guess=
 (read,tcheck) scf=(maxcycle=1)\\title\\0,1\Cl,0,-0.547217,1.701009,-0.
 170216\O,0,2.095326,0.594775,0.331774\O,0,-0.947259,-0.875634,-0.41478
 4\N,0,-0.153453,0.018407,0.304266\N,0,1.511536,-1.544824,-0.222064\C,0
 ,1.269641,-0.248283,0.101391\C,0,-2.151237,-1.150733,0.31853\H,0,0.776
 988,-2.11797,-0.600874\H,0,2.474874,-1.792671,-0.374186\H,0,-2.679211,
 -1.897968,-0.273216\H,0,-1.913923,-1.53697,1.31181\H,0,-2.757584,-0.24

 Normal termination of Gaussian 16 at Wed Apr  9 00:50:16 2025.
