 Gaussian 16, Revision C.01,

 ----------------------------------------------------------------------
 #t hf aug-cc-pvdz symm=none int=(grid=ultrafine) guess=(read,tcheck) s
 table=(opt,rrhf)
 ----------------------------------------------------------------------
 -----
 title
 -----
 Symbolic Z-matrix:
 Charge =  0 Multiplicity = 1

 SCF Done:  E(RHF) =  -886.990081142     A.U. after   15 cycles
 Normal termination of Gaussian 16 at Tue Apr  8 23:52:14 2025.
 Gaussian 16:  ES64L-G16RevC.01  3-Jul-2019

 ----------------------------------------------------------------------
 #t hf aug-cc-pvdz iop(5/13=1,5/36=2,99/5=2) pseudo=read geom=check gue
 ss=(read,tcheck) scf=(maxcycle=1)
 ----------------------------------------------------------------------
 -----
 title
 -----
 Structure from the checkpoint file:  "BDE49_nonexpt_1917_mol1.chk"
 Charge =  0 Multiplicity = 1

                         Standard orientation:
 ---------------------------------------------------------------------
 Center     Atomic      Atomic             Coordinates (Angstroms)
 Number     Number       Type             X           Y           Z
 ---------------------------------------------------------------------
      1         14           0        0.235763   -0.791046   -0.008565
      2          6           0       -0.524181    0.952989   -0.040866
      3          8           0       -1.900403    1.006184   -0.511609
      4          7           0       -2.725190    0.010783    0.037365
      5          8           0       -2.174996   -0.857818    0.699070
      6          8           0       -3.881107    0.135911   -0.222134
      7          8           0        1.845230   -0.652040   -0.664740
      8          1           0       -0.312629   -1.672773   -1.046412
      9          1           0        0.384548   -1.377929    1.325357
     10          7           0        2.739467    0.145801    0.039644
     11          8           0        2.260808    0.784126    0.965622
     12          8           0        3.869262    0.120851   -0.345891
     13          1           0       -0.005674    1.589094   -0.758613
     14          1           0       -0.472118    1.424513    0.943165
 ---------------------------------------------------------------------

 SCF Done:  E(RHF) =  -887.203978279     A.U. after    2 cycles

 The electronic state is 1-A.
 Alpha  occ. eigenvalues --  -69.14495 -20.71191 -20.68168 -20.67463 -20.67459
 Alpha  occ. eigenvalues --  -20.66393 -20.65441 -16.01743 -16.00475 -11.33446
 Alpha  occ. eigenvalues --   -6.89146  -4.00050  -3.99870  -3.99821  -1.64241
 Alpha  occ. eigenvalues --   -1.62480  -1.44806  -1.42822  -1.41453  -1.37764
 Alpha  occ. eigenvalues --   -1.03889  -0.94880  -0.90469  -0.85162  -0.83672
 Alpha  occ. eigenvalues --   -0.82170  -0.81126  -0.80120  -0.79552  -0.71271
 Alpha  occ. eigenvalues --   -0.69587  -0.67393  -0.62460  -0.60287  -0.59700
 Alpha  occ. eigenvalues --   -0.57884  -0.56413  -0.56039  -0.54761  -0.53734
 Alpha  occ. eigenvalues --   -0.52348  -0.50998  -0.49484
 Alpha virt. eigenvalues --    0.03230   0.03988   0.04306   0.05453   0.06061
 Alpha virt. eigenvalues --    0.06913   0.07040   0.07476   0.09159   0.10327
 Alpha virt. eigenvalues --    0.11386   0.13481   0.13569   0.14124   0.14950

 Mulliken charges:
               1
     1  Si   0.689833
     2  C    0.590214
     3  O   -0.564905
     4  N    0.859916
     5  O   -0.395960
     6  O   -0.398390
     7  O   -0.734737
     8  H    0.173012
     9  H    0.172828
    10  N    0.867031
    11  O   -0.460538
    12  O   -0.403715
    13  H   -0.237745
    14  H   -0.156845
 Sum of Mulliken charges =  -0.00000

 Dipole moment (field-independent basis, Debye):
    X=             -0.8040    Y=              0.3127    Z=             -0.0687  Tot=              0.8654

 Test job not archived.
 1\1\GINC-SE109\SP\RHF\Aug-CC-pVDZ\C1H4N2O6Si1\OHZDE\08-Apr-2025\0\\#t
 hf aug-cc-pvdz iop(5/13=1,5/36=2,99/5=2) pseudo=read geom=check guess=
 (read,tcheck) scf=(maxcycle=1)\\title\\0,1\Si,0,0.235763,-0.791046,-0.
 008565\C,0,-0.524181,0.952989,-0.040866\O,0,-1.900403,1.006184,-0.5116
 09\N,0,-2.72519,0.010783,0.037365\O,0,-2.174996,-0.857818,0.69907\O,0,
 -3.881107,0.135911,-0.222134\O,0,1.84523,-0.65204,-0.66474\H,0,-0.3126
 29,-1.672773,-1.046412\H,0,0.384548,-1.377929,1.325357\N,0,2.739467,0.
 145801,0.039644\O,0,2.260808,0.784126,0.965622\O,0,3.869262,0.120851,-

 Normal termination of Gaussian 16 at Tue Apr  8 23:52:21 2025.
