 Gaussian 16, Revision C.01,

 ----------------------------------------------------------------------
 #t hf aug-cc-pvdz symm=none int=(grid=ultrafine) guess=(read,tcheck) s
 table=opt
 ----------------------------------------------------------------------
 -----
 title
 -----
 Symbolic Z-matrix:
 Charge =  0 Multiplicity = 2

 SCF Done:  E(UHF) =  -805.554373897     A.U. after   18 cycles
 Normal termination of Gaussian 16 at Wed Apr  9 00:10:22 2025.
 Gaussian 16:  ES64L-G16RevC.01  3-Jul-2019

 ----------------------------------------------------------------------
 #t hf aug-cc-pvdz iop(5/13=1,5/36=2,99/5=2) pseudo=read geom=check gue
 ss=(read,tcheck) scf=(maxcycle=1)
 ----------------------------------------------------------------------
 -----
 title
 -----
 Structure from the checkpoint file:  "BDE49_nonexpt_235_mol2.chk"
 Charge =  0 Multiplicity = 2

                         Standard orientation:
 ---------------------------------------------------------------------
 Center     Atomic      Atomic             Coordinates (Angstroms)
 Number     Number       Type             X           Y           Z
 ---------------------------------------------------------------------
      1         17           0        3.195835    0.252894   -0.000048
      2          5           0        1.671545   -0.631672   -0.000032
      3          8           0        0.506460    0.042204    0.000027
      4          6           0       -0.742706   -0.610526    0.000054
      5          8           0       -0.840640   -1.809263    0.000017
      6          7           0       -1.749967    0.293248    0.000023
      7          6           0       -1.585727    1.742693    0.000024
      8          1           0       -2.061508    2.172199    0.887809
      9          1           0       -2.061495    2.172199   -0.887767
     10          1           0       -0.533328    2.003686    0.000032
     11          6           0       -3.121323   -0.202740   -0.000006
     12          1           0       -3.651599    0.153648   -0.888901
     13          1           0       -3.651632    0.153638    0.888874
     14          1           0       -3.105609   -1.289044   -0.000011
 ---------------------------------------------------------------------

 SCF Done:  E(UHF) =  -805.686761736     A.U. after    2 cycles

 The electronic state is 2-A.
 Alpha  occ. eigenvalues -- -103.66633 -20.63752 -20.56053 -15.67662 -11.44343
 Alpha  occ. eigenvalues --  -11.29009 -11.28395 -10.70097  -8.35918  -8.35537
 Alpha  occ. eigenvalues --   -8.35511  -7.73417  -1.43718  -1.34508  -1.24014
 Alpha  occ. eigenvalues --   -1.16154  -0.98945  -0.97388  -0.84647  -0.74642
 Alpha  occ. eigenvalues --   -0.72902  -0.69743  -0.65276  -0.63522  -0.63517
 Alpha  occ. eigenvalues --   -0.61720  -0.58344  -0.57695  -0.55340  -0.54535
 Alpha  occ. eigenvalues --   -0.51055  -0.48906  -0.48404  -0.39933  -0.36740
 Alpha virt. eigenvalues --    0.02787   0.04195   0.04306   0.05734   0.06139
 Alpha virt. eigenvalues --    0.06535   0.07137   0.07390   0.08140   0.09024
 Alpha virt. eigenvalues --    0.10228   0.11786   0.12227   0.12637   0.13868

  Beta  occ. eigenvalues -- -103.66514 -20.63618 -20.56029 -15.67673 -11.44308
  Beta  occ. eigenvalues --  -11.29004 -11.28395 -10.69957  -8.35598  -8.35484
  Beta  occ. eigenvalues --   -8.35316  -7.71144  -1.43356  -1.34233  -1.23982
  Beta  occ. eigenvalues --   -1.15056  -0.98898  -0.97238  -0.84165  -0.74288
  Beta  occ. eigenvalues --   -0.72009  -0.69828  -0.63614  -0.63101  -0.63011
  Beta  occ. eigenvalues --   -0.59662  -0.58179  -0.57696  -0.55270  -0.54490
  Beta  occ. eigenvalues --   -0.49730  -0.48965  -0.47813  -0.39971
  Beta virt. eigenvalues --    0.02741   0.04072   0.04344   0.04589   0.06548
  Beta virt. eigenvalues --    0.06555   0.07109   0.07455   0.07590   0.09044
  Beta virt. eigenvalues --    0.10845   0.12136   0.12480   0.13302   0.13327

 Mulliken charges and spin densities:
               1          2
     1  Cl  -0.319148   0.042017
     2  B    0.124991   1.075181
     3  O   -0.319929  -0.139211
     4  C    0.496651   0.063219
     5  O   -0.385017  -0.009954
     6  N   -0.375938  -0.022034
     7  C    0.839860  -0.005221
     8  H   -0.095949   0.000468
     9  H   -0.095950   0.000468
    10  H   -0.246145  -0.005272
    11  C    0.764531   0.000574
    12  H   -0.076147  -0.000030
    13  H   -0.076133  -0.000030
    14  H   -0.235678  -0.000176
 Sum of Mulliken charges =  -0.00000   1.00000

 Dipole moment (field-independent basis, Debye):
    X=             -3.1029    Y=              3.1854    Z=              0.0001  Tot=              4.4469
                          Isotropic Fermi Contact Couplings
        Atom                 a.u.       MegaHertz       Gauss      10(-4) cm-1
     1  Cl(35)             0.12316      54.00168      19.26914      18.01302
     2  B(11)              0.46819     671.55173     239.62636     224.00555
     3  O(17)              0.01131      -6.85420      -2.44575      -2.28632
     4  C(13)              0.00714       8.03123       2.86574       2.67893
     5  O(17)              0.00575      -3.48265      -1.24270      -1.16169
     6  N(14)             -0.00157      -0.50622      -0.18063      -0.16886
     7  C(13)              0.00060       0.67462       0.24072       0.22503
     8  H(1)              -0.00004      -0.16979      -0.06058      -0.05664

 Normal termination of Gaussian 16 at Wed Apr  9 00:10:28 2025.
