 Gaussian 16, Revision C.01,

 ----------------------------------------------------------------------
 #t hf aug-cc-pvdz symm=none int=(grid=ultrafine) guess=(read,tcheck) s
 table=(opt,rrhf)
 ----------------------------------------------------------------------
 -----
 title
 -----
 Symbolic Z-matrix:
 Charge =  0 Multiplicity = 1

 SCF Done:  E(RHF) =  -787.577069071     A.U. after   12 cycles
 Normal termination of Gaussian 16 at Tue Apr  8 23:40:41 2025.
 Gaussian 16:  ES64L-G16RevC.01  3-Jul-2019

 ----------------------------------------------------------------------
 #t hf aug-cc-pvdz iop(5/13=1,5/36=2,99/5=2) pseudo=read geom=check gue
 ss=(read,tcheck) scf=(maxcycle=1)
 ----------------------------------------------------------------------
 -----
 title
 -----
 Structure from the checkpoint file:  "BDE49_nonexpt_1655_mol1.chk"
 Charge =  0 Multiplicity = 1

                         Standard orientation:
 ---------------------------------------------------------------------
 Center     Atomic      Atomic             Coordinates (Angstroms)
 Number     Number       Type             X           Y           Z
 ---------------------------------------------------------------------
      1         15           0       -2.401837   -0.094301   -0.358143
      2         14           0       -0.362838   -0.060940    0.668164
      3          6           0        0.805511    1.397018    0.307888
      4          6           0        0.796168   -1.405127   -0.014770
      5          6           0        2.150982   -0.670308   -0.175172
      6          1           0        0.435065   -1.748477   -0.990517
      7          1           0        0.871413   -2.288194    0.623501
      8          6           0        1.880274    0.780956   -0.621876
      9          1           0        2.810290   -1.185481   -0.880583
     10          1           0        2.672881   -0.654214    0.789120
     11          1           0        2.800822    1.372776   -0.625609
     12          1           0        1.508354    0.772587   -1.653575
     13          1           0        1.261568    1.725913    1.248620
     14          1           0        0.319088    2.268730   -0.134236
     15          1           0       -1.922815    0.428595   -1.589399
     16          1           0       -2.804671    1.175539    0.134590
     17          1           0       -0.642321   -0.215322    2.119519
 ---------------------------------------------------------------------

 SCF Done:  E(RHF) =  -787.665474684     A.U. after    2 cycles

 The electronic state is 1-A.
 Alpha  occ. eigenvalues --  -81.24230 -69.06073 -11.23656 -11.23590 -11.21871
 Alpha  occ. eigenvalues --  -11.21782  -7.74767  -6.81310  -4.88719  -4.88632
 Alpha  occ. eigenvalues --   -4.88413  -3.92061  -3.92043  -3.91998  -1.07255
 Alpha  occ. eigenvalues --   -0.95646  -0.87754  -0.78820  -0.77641  -0.65795
 Alpha  occ. eigenvalues --   -0.63336  -0.60144  -0.58137  -0.52969  -0.51182
 Alpha  occ. eigenvalues --   -0.49409  -0.47985  -0.46974  -0.44011  -0.43290
 Alpha  occ. eigenvalues --   -0.40248  -0.34362
 Alpha virt. eigenvalues --    0.03207   0.04407   0.04565   0.04757   0.06473
 Alpha virt. eigenvalues --    0.06523   0.06682   0.06860   0.07000   0.08844
 Alpha virt. eigenvalues --    0.09060   0.09900   0.09976   0.11414   0.12192

 Mulliken charges:
               1
     1  P   -0.559928
     2  Si   0.532812
     3  C    0.172686
     4  C    0.200613
     5  C    0.176952
     6  H   -0.143629
     7  H   -0.186772
     8  C    0.155045
     9  H   -0.102689
    10  H   -0.132325
    11  H   -0.108782
    12  H   -0.155180
    13  H   -0.197640
    14  H   -0.120421
    15  H    0.206940
    16  H    0.153446
    17  H    0.108870
 Sum of Mulliken charges =  -0.00000

 Dipole moment (field-independent basis, Debye):
    X=              1.2850    Y=              0.5415    Z=             -0.1536  Tot=              1.4028

 Test job not archived.
 1\1\GINC-SE396\SP\RHF\Aug-CC-pVDZ\C4H11P1Si1\OHZDE\08-Apr-2025\0\\#t h
 f aug-cc-pvdz iop(5/13=1,5/36=2,99/5=2) pseudo=read geom=check guess=(
 read,tcheck) scf=(maxcycle=1)\\title\\0,1\P,0,-2.401837,-0.094302,-0.3
 58143\Si,0,-0.362838,-0.06094,0.668164\C,0,0.805511,1.397018,0.307888\
 C,0,0.796168,-1.405127,-0.01477\C,0,2.150982,-0.670308,-0.175172\H,0,0
 .435065,-1.748477,-0.990517\H,0,0.871413,-2.288194,0.623501\C,0,1.8802
 74,0.780956,-0.621876\H,0,2.81029,-1.185481,-0.880583\H,0,2.672881,-0.
 654214,0.78912\H,0,2.800822,1.372776,-0.625609\H,0,1.508354,0.772587,-

 Normal termination of Gaussian 16 at Tue Apr  8 23:40:47 2025.
