 Gaussian 16, Revision C.01,

 ----------------------------------------------------------------------
 #t hf aug-cc-pvdz symm=none int=(grid=ultrafine) guess=(read,tcheck) s
 table=(opt,rrhf)
 ----------------------------------------------------------------------
 -----
 title
 -----
 Symbolic Z-matrix:
 Charge =  0 Multiplicity = 1

 SCF Done:  E(RHF) =  -1087.17302028     A.U. after   15 cycles
 Normal termination of Gaussian 16 at Tue Apr  8 22:59:14 2025.
 Gaussian 16:  ES64L-G16RevC.01  3-Jul-2019

 ----------------------------------------------------------------------
 #t hf aug-cc-pvdz iop(5/13=1,5/36=2,99/5=2) pseudo=read geom=check gue
 ss=(read,tcheck) scf=(maxcycle=1)
 ----------------------------------------------------------------------
 -----
 title
 -----
 Structure from the checkpoint file:  "BDE49_expt_1975_mol1.chk"
 Charge =  0 Multiplicity = 1

                         Standard orientation:
 ---------------------------------------------------------------------
 Center     Atomic      Atomic             Coordinates (Angstroms)
 Number     Number       Type             X           Y           Z
 ---------------------------------------------------------------------
      1         16           0        1.451733   -0.000000    0.959793
      2          6           0       -0.225887    0.000000    0.382066
      3         17           0        2.544279   -0.000000   -0.844328
      4          6           0       -0.896745    1.213759    0.185893
      5          6           0       -0.896745   -1.213759    0.185893
      6          6           0       -2.232562   -1.209692   -0.202116
      7          6           0       -2.899011    0.000000   -0.395864
      8          6           0       -2.232562    1.209692   -0.202115
      9          1           0       -0.366077    2.145247    0.338729
     10          1           0       -2.753477    2.148120   -0.352731
     11          1           0       -0.366077   -2.145247    0.338728
     12          1           0       -2.753478   -2.148120   -0.352732
     13          1           0       -3.940284    0.000000   -0.697647
 ---------------------------------------------------------------------

 SCF Done:  E(RHF) =  -1087.27934545     A.U. after    2 cycles

 The electronic state is 1-A.
 Alpha  occ. eigenvalues -- -103.66823 -93.59755 -11.29228 -11.27286 -11.27278
 Alpha  occ. eigenvalues --  -11.27184 -11.26427 -11.26420 -10.69947  -8.89019
 Alpha  occ. eigenvalues --   -8.35673  -8.35336  -8.35309  -6.23126  -6.22884
 Alpha  occ. eigenvalues --   -6.22488  -1.17528  -1.14706  -1.04964  -1.03443
 Alpha  occ. eigenvalues --   -0.92518  -0.85283  -0.81513  -0.71993  -0.65780
 Alpha  occ. eigenvalues --   -0.65339  -0.61562  -0.59458  -0.55413  -0.52499
 Alpha  occ. eigenvalues --   -0.52436  -0.50245  -0.50180  -0.44749  -0.37070
 Alpha  occ. eigenvalues --   -0.36332  -0.36083
 Alpha virt. eigenvalues --    0.02997   0.03197   0.03883   0.04573   0.06012
 Alpha virt. eigenvalues --    0.06348   0.07987   0.09082   0.09267   0.11442
 Alpha virt. eigenvalues --    0.11582   0.12320   0.13273   0.13362   0.14157

 Mulliken charges:
               1
     1  S    0.200841
     2  C    0.798749
     3  Cl  -0.306409
     4  C   -0.081361
     5  C   -0.081358
     6  C    0.679250
     7  C    0.244768
     8  C    0.679253
     9  H   -0.431028
    10  H   -0.421839
    11  H   -0.431028
    12  H   -0.421838
    13  H   -0.427998
 Sum of Mulliken charges =  -0.00000

 Dipole moment (field-independent basis, Debye):
    X=             -3.4278    Y=             -0.0000    Z=              0.3119  Tot=              3.4420

 Test job not archived.
 1\1\GINC-SE163\SP\RHF\Aug-CC-pVDZ\C6H5Cl1S1\OHZDE\08-Apr-2025\0\\#t hf
  aug-cc-pvdz iop(5/13=1,5/36=2,99/5=2) pseudo=read geom=check guess=(r
 ead,tcheck) scf=(maxcycle=1)\\title\\0,1\S,0,1.451733,0.,0.959793\C,0,
 -0.225887,0.,0.382066\Cl,0,2.544279,0.,-0.844328\C,0,-0.896745,1.21375
 9,0.185893\C,0,-0.896745,-1.213759,0.185893\C,0,-2.232562,-1.209692,-0
 .202116\C,0,-2.899011,0.,-0.395864\C,0,-2.232562,1.209692,-0.202115\H,
 0,-0.366077,2.145247,0.338729\H,0,-2.753477,2.14812,-0.352731\H,0,-0.3
 66077,-2.145247,0.338728\H,0,-2.753478,-2.14812,-0.352732\H,0,-3.94028

 Normal termination of Gaussian 16 at Tue Apr  8 22:59:19 2025.
