 Gaussian 16, Revision C.01,

 ----------------------------------------------------------------------
 #t hf aug-cc-pvdz symm=none int=(grid=ultrafine) guess=(read,tcheck) s
 table=(opt,rrhf)
 ----------------------------------------------------------------------
 -----
 title
 -----
 Symbolic Z-matrix:
 Charge =  0 Multiplicity = 1

 SCF Done:  E(RHF) =  -220.427599486     A.U. after   13 cycles

 1\1\GINC-SE253\Stability\RHF\Aug-CC-pVDZ\C5H11B1\OHZDE\09-Apr-2025\0\\
 #t hf aug-cc-pvdz symm=none int=(grid=ultrafine) guess=(read,tcheck) s
 table=(opt,rrhf)\\title\\0,1\B,0,2.00139,-0.131584,0.55507\C,0,0.90662
 3,-0.204954,-0.5342\C,0,0.234461,1.192651,-0.166711\C,0,-0.222248,-1.2
 56628,-0.379501\C,0,-1.296244,-0.57866,0.486777\H,0,0.135494,-2.192148
 ,0.058514\H,0,-0.643084,-1.502173,-1.360541\C,0,-1.264003,0.881714,0.0
 17122\H,0,-1.016449,-0.633302,1.544522\H,0,-2.281923,-1.040084,0.38641
 2\H,0,-1.771398,0.968118,-0.949838\H,0,-1.754592,1.570998,0.708858\H,0

 Normal termination of Gaussian 16 at Wed Apr  9 00:25:41 2025.
 Gaussian 16:  ES64L-G16RevC.01  3-Jul-2019

 ----------------------------------------------------------------------
 #t hf aug-cc-pvdz iop(5/13=1,5/36=2,99/5=2) pseudo=read geom=check gue
 ss=(read,tcheck) scf=(maxcycle=1)
 ----------------------------------------------------------------------
 -----
 title
 -----
 Structure from the checkpoint file:  "BDE49_nonexpt_299_mol1.chk"
 Charge =  0 Multiplicity = 1

                         Standard orientation:
 ---------------------------------------------------------------------
 Center     Atomic      Atomic             Coordinates (Angstroms)
 Number     Number       Type             X           Y           Z
 ---------------------------------------------------------------------
      1          5           0        2.001390   -0.131584    0.555070
      2          6           0        0.906623   -0.204954   -0.534200
      3          6           0        0.234461    1.192651   -0.166711
      4          6           0       -0.222248   -1.256628   -0.379501
      5          6           0       -1.296244   -0.578660    0.486777
      6          1           0        0.135494   -2.192148    0.058514
      7          1           0       -0.643084   -1.502173   -1.360541
      8          6           0       -1.264003    0.881714    0.017122
      9          1           0       -1.016449   -0.633302    1.544522
     10          1           0       -2.281923   -1.040084    0.386412
     11          1           0       -1.771398    0.968118   -0.949838
     12          1           0       -1.754592    1.570998    0.708858
     13          1           0        0.440986    1.942175   -0.931170
     14          1           0        0.634226    1.606532    0.774884
     15          1           0        1.286625   -0.161104   -1.555989
     16          1           0        1.795931   -0.574641    1.647009
     17          1           0        3.015706    0.468808    0.361055
 ---------------------------------------------------------------------

 SCF Done:  E(RHF) =  -220.494730401     A.U. after    2 cycles

 The electronic state is 1-A.
 Alpha  occ. eigenvalues --  -11.24245 -11.23003 -11.22510 -11.22411 -11.20917
 Alpha  occ. eigenvalues --   -7.60026  -1.10653  -0.96084  -0.95442  -0.78618
 Alpha  occ. eigenvalues --   -0.77426  -0.68051  -0.65344  -0.62097  -0.57879
 Alpha  occ. eigenvalues --   -0.54708  -0.50416  -0.48595  -0.47537  -0.46976
 Alpha  occ. eigenvalues --   -0.46610  -0.44329  -0.41887
 Alpha virt. eigenvalues --    0.03164   0.04268   0.04344   0.04556   0.06082
 Alpha virt. eigenvalues --    0.06197   0.06495   0.06772   0.06990   0.08923
 Alpha virt. eigenvalues --    0.09106   0.09461   0.10979   0.11813   0.13294

 Mulliken charges:
               1
     1  B   -0.585252
     2  C    0.105476
     3  C    0.197163
     4  C    0.388543
     5  C    0.247423
     6  H   -0.144224
     7  H   -0.120345
     8  C    0.267528
     9  H   -0.139665
    10  H   -0.102539
    11  H   -0.135072
    12  H   -0.108194
    13  H   -0.161647
    14  H   -0.243137
    15  H   -0.209727
    16  H    0.441894
    17  H    0.301775
 Sum of Mulliken charges =  -0.00000

 Dipole moment (field-independent basis, Debye):
    X=             -0.7150    Y=              0.1772    Z=             -0.4758  Tot=              0.8769

 Test job not archived.
 1\1\GINC-SE253\SP\RHF\Aug-CC-pVDZ\C5H11B1\OHZDE\09-Apr-2025\0\\#t hf a
 ug-cc-pvdz iop(5/13=1,5/36=2,99/5=2) pseudo=read geom=check guess=(rea
 d,tcheck) scf=(maxcycle=1)\\title\\0,1\B,0,2.00139,-0.131584,0.55507\C
 ,0,0.906623,-0.204954,-0.5342\C,0,0.234461,1.192651,-0.166711\C,0,-0.2
 22248,-1.256628,-0.379501\C,0,-1.296244,-0.57866,0.486777\H,0,0.135494
 ,-2.192148,0.058514\H,0,-0.643084,-1.502173,-1.360541\C,0,-1.264003,0.
 881714,0.017122\H,0,-1.016449,-0.633302,1.544522\H,0,-2.281923,-1.0400
 84,0.386412\H,0,-1.771398,0.968118,-0.949838\H,0,-1.754592,1.570998,0.

 Normal termination of Gaussian 16 at Wed Apr  9 00:25:47 2025.
