 Gaussian 16, Revision C.01,

 ----------------------------------------------------------------------
 #t hf aug-cc-pvdz symm=none int=(grid=ultrafine) guess=(read,tcheck) s
 table=(opt,rrhf)
 ----------------------------------------------------------------------
 -----
 title
 -----
 Symbolic Z-matrix:
 Charge =  0 Multiplicity = 1

 SCF Done:  E(RHF) =  -778.635082266     A.U. after   18 cycles
 Normal termination of Gaussian 16 at Tue Apr  8 23:29:55 2025.
 Gaussian 16:  ES64L-G16RevC.01  3-Jul-2019

 ----------------------------------------------------------------------
 #t hf aug-cc-pvdz iop(5/13=1,5/36=2,99/5=2) pseudo=read geom=check gue
 ss=(read,tcheck) scf=(maxcycle=1)
 ----------------------------------------------------------------------
 -----
 title
 -----
 Structure from the checkpoint file:  "BDE49_nonexpt_1367_mol1.chk"
 Charge =  0 Multiplicity = 1

                         Standard orientation:
 ---------------------------------------------------------------------
 Center     Atomic      Atomic             Coordinates (Angstroms)
 Number     Number       Type             X           Y           Z
 ---------------------------------------------------------------------
      1          9           0        2.346991   -0.986733    0.878892
      2         15           0        1.683778   -0.435313   -0.500559
      3          7           0        1.692516    1.353605   -0.121052
      4          7           0        0.550423    1.830045    0.035943
      5          6           0       -0.099299   -0.467858   -0.153800
      6          6           0       -0.511752    0.861819    0.014807
      7          6           0       -1.846294    1.206238    0.167272
      8          1           0       -2.126721    2.245762    0.285282
      9          6           0       -2.792568    0.179659    0.161324
     10          1           0       -3.842817    0.415810    0.286087
     11          6           0       -2.398967   -1.148325   -0.009368
     12          1           0       -3.146939   -1.932771   -0.008096
     13          6           0       -1.051230   -1.479785   -0.186351
     14          1           0       -0.763016   -2.514554   -0.332441
 ---------------------------------------------------------------------

 SCF Done:  E(RHF) =  -778.794847883     A.U. after    2 cycles

 The electronic state is 1-A.
 Alpha  occ. eigenvalues --  -81.36356 -26.13412 -15.72401 -15.70272 -11.30568
 Alpha  occ. eigenvalues --  -11.28662 -11.28111 -11.27883 -11.27755 -11.27520
 Alpha  occ. eigenvalues --   -7.85666  -4.99759  -4.99533  -4.99203  -1.65565
 Alpha  occ. eigenvalues --   -1.34098  -1.17544  -1.05631  -1.04810  -0.94480
 Alpha  occ. eigenvalues --   -0.88221  -0.83817  -0.81145  -0.75836  -0.74378
 Alpha  occ. eigenvalues --   -0.73532  -0.67997  -0.67646  -0.65137  -0.62552
 Alpha  occ. eigenvalues --   -0.58816  -0.57153  -0.54622  -0.53088  -0.50887
 Alpha  occ. eigenvalues --   -0.41811  -0.38622  -0.36341  -0.36112
 Alpha virt. eigenvalues --    0.02346   0.02665   0.03646   0.04666   0.05817
 Alpha virt. eigenvalues --    0.06725   0.07564   0.07915   0.09161   0.10330
 Alpha virt. eigenvalues --    0.11579   0.12423   0.12519   0.12949   0.13502

 Mulliken charges:
               1
     1  F   -0.649249
     2  P    1.096423
     3  N   -0.521371
     4  N   -0.679265
     5  C   -0.252646
     6  C    0.214164
     7  C    1.021894
     8  H   -0.480832
     9  C    0.354366
    10  H   -0.410010
    11  C    0.698815
    12  H   -0.432127
    13  C    0.497657
    14  H   -0.457820
 Sum of Mulliken charges =  -0.00000

 Dipole moment (field-independent basis, Debye):
    X=             -4.2070    Y=             -1.8520    Z=             -1.0082  Tot=              4.7058

 Test job not archived.
 1\1\GINC-SE051\SP\RHF\Aug-CC-pVDZ\C6H4F1N2P1\OHZDE\08-Apr-2025\0\\#t h
 f aug-cc-pvdz iop(5/13=1,5/36=2,99/5=2) pseudo=read geom=check guess=(
 read,tcheck) scf=(maxcycle=1)\\title\\0,1\F,0,2.346991,-0.986733,0.878
 892\P,0,1.683778,-0.435313,-0.500559\N,0,1.692516,1.353605,-0.121052\N
 ,0,0.550423,1.830045,0.035943\C,0,-0.099299,-0.467858,-0.1538\C,0,-0.5
 11752,0.861819,0.014807\C,0,-1.846294,1.206238,0.167272\H,0,-2.126721,
 2.245762,0.285282\C,0,-2.792568,0.179659,0.161324\H,0,-3.842817,0.4158
 11,0.286087\C,0,-2.398967,-1.148325,-0.009368\H,0,-3.146939,-1.932771,

 Normal termination of Gaussian 16 at Tue Apr  8 23:30:02 2025.
