 Gaussian 16, Revision C.01,

 ----------------------------------------------------------------------
 #t hf aug-cc-pvdz symm=none int=(grid=ultrafine) guess=(read,tcheck) s
 table=(opt,rrhf)
 ----------------------------------------------------------------------
 -----
 title
 -----
 Symbolic Z-matrix:
 Charge =  0 Multiplicity = 1

 SCF Done:  E(RHF) =  -1064.35210483     A.U. after   15 cycles
 Normal termination of Gaussian 16 at Tue Apr  8 22:49:11 2025.
 Gaussian 16:  ES64L-G16RevC.01  3-Jul-2019

 ----------------------------------------------------------------------
 #t hf aug-cc-pvdz iop(5/13=1,5/36=2,99/5=2) pseudo=read geom=check gue
 ss=(read,tcheck) scf=(maxcycle=1)
 ----------------------------------------------------------------------
 -----
 title
 -----
 Structure from the checkpoint file:  "BDE49_expt_1692_mol1.chk"
 Charge =  0 Multiplicity = 1

                         Standard orientation:
 ---------------------------------------------------------------------
 Center     Atomic      Atomic             Coordinates (Angstroms)
 Number     Number       Type             X           Y           Z
 ---------------------------------------------------------------------
      1          6           0        1.329925    1.725701    0.177840
      2          6           0        0.149566    2.356156   -0.203199
      3          6           0       -1.033492    1.629450   -0.293325
      4          6           0       -1.026386    0.265741   -0.000721
      5          6           0        0.154795   -0.367069    0.378025
      6          6           0        1.343613    0.359116    0.471369
      7          1           0        2.250499    2.295719    0.242070
      8          1           0        0.150268    3.415344   -0.431322
      9          6           0        2.614324   -0.320675    0.879057
     10          1           0        0.149993   -1.429176    0.591157
     11          1           0        3.287923    0.352849    1.403933
     12         17           0        3.565674   -0.921907   -0.569657
     13          1           0        2.429835   -1.202513    1.488009
     14          1           0       -1.954366    2.112353   -0.594752
     15          6           0       -2.315107   -0.510442   -0.039683
     16          9           0       -3.146356   -0.061125   -1.004368
     17          9           0       -2.989979   -0.412967    1.130505
     18          9           0       -2.111892   -1.825912   -0.262927
 ---------------------------------------------------------------------

 SCF Done:  E(RHF) =  -1064.56807052     A.U. after    2 cycles

 The electronic state is 1-A.
 Alpha  occ. eigenvalues -- -103.65640 -26.16760 -26.16674 -26.16245 -11.53257
 Alpha  occ. eigenvalues --  -11.32589 -11.28754 -11.28334 -11.28037 -11.27963
 Alpha  occ. eigenvalues --  -11.27721 -11.27279 -10.68875  -8.34589  -8.34302
 Alpha  occ. eigenvalues --   -8.34295  -1.76009  -1.69169  -1.68692  -1.19373
 Alpha  occ. eigenvalues --   -1.16007  -1.08952  -1.05504  -1.00726  -0.94439
 Alpha  occ. eigenvalues --   -0.89984  -0.88265  -0.87685  -0.84365  -0.80363
 Alpha  occ. eigenvalues --   -0.77288  -0.77179  -0.72976  -0.72621  -0.72168
 Alpha  occ. eigenvalues --   -0.71615  -0.68414  -0.66896  -0.62171  -0.61826
 Alpha  occ. eigenvalues --   -0.60840  -0.58301  -0.54106  -0.53305  -0.52536
 Alpha  occ. eigenvalues --   -0.45755  -0.45497  -0.37659  -0.36524
 Alpha virt. eigenvalues --    0.02844   0.03565   0.04341   0.05547   0.06063
 Alpha virt. eigenvalues --    0.06540   0.07606   0.08006   0.08433   0.08987
 Alpha virt. eigenvalues --    0.10033   0.10264   0.12019   0.12856   0.13201

 Mulliken charges:
               1
     1  C    0.196918
     2  C    0.238062
     3  C   -0.040221
     4  C    1.053342
     5  C   -0.208132
     6  C    1.139450
     7  H   -0.561277
     8  H   -0.423027
     9  C    0.421854
    10  H   -0.593189
    11  H   -0.184715
    12  Cl  -0.151974
    13  H   -0.153546
    14  H   -0.531315
    15  C    0.817260
    16  F   -0.343207
    17  F   -0.344880
    18  F   -0.331404
 Sum of Mulliken charges =   0.00000

 Dipole moment (field-independent basis, Debye):
    X=              1.4382    Y=              2.6499    Z=              1.6651  Tot=              3.4443

 Test job not archived.
 1\1\GINC-SE402\SP\RHF\Aug-CC-pVDZ\C8H6Cl1F3\OHZDE\08-Apr-2025\0\\#t hf
  aug-cc-pvdz iop(5/13=1,5/36=2,99/5=2) pseudo=read geom=check guess=(r
 ead,tcheck) scf=(maxcycle=1)\\title\\0,1\C,0,1.329925,1.725701,0.17784
 \C,0,0.149566,2.356156,-0.203199\C,0,-1.033492,1.62945,-0.293325\C,0,-
 1.026386,0.265741,-0.000721\C,0,0.154795,-0.367069,0.378025\C,0,1.3436
 13,0.359116,0.471369\H,0,2.250499,2.295719,0.24207\H,0,0.150268,3.4153
 44,-0.431322\C,0,2.614324,-0.320675,0.879057\H,0,0.149993,-1.429176,0.
 591157\H,0,3.287923,0.352849,1.403933\Cl,0,3.565674,-0.921907,-0.56965

 Normal termination of Gaussian 16 at Tue Apr  8 22:49:22 2025.
