 Gaussian 16, Revision C.01,

 ----------------------------------------------------------------------
 #t hf aug-cc-pvdz symm=none int=(grid=ultrafine) guess=(read,tcheck) s
 table=opt
 ----------------------------------------------------------------------
 -----
 title
 -----
 Symbolic Z-matrix:
 Charge =  0 Multiplicity = 2

 SCF Done:  E(UHF) =  -1015.31794116     A.U. after   20 cycles
 Normal termination of Gaussian 16 at Tue Apr  8 23:48:05 2025.
 Gaussian 16:  ES64L-G16RevC.01  3-Jul-2019

 ----------------------------------------------------------------------
 #t hf aug-cc-pvdz iop(5/13=1,5/36=2,99/5=2) pseudo=read geom=check gue
 ss=(read,tcheck) scf=(maxcycle=1)
 ----------------------------------------------------------------------
 -----
 title
 -----
 Structure from the checkpoint file:  "BDE49_nonexpt_1812_mol2.chk"
 Charge =  0 Multiplicity = 2

                         Standard orientation:
 ---------------------------------------------------------------------
 Center     Atomic      Atomic             Coordinates (Angstroms)
 Number     Number       Type             X           Y           Z
 ---------------------------------------------------------------------
      1          6           0       -0.266313    0.944229   -0.020985
      2          8           0       -0.688740    2.045860   -0.284076
      3         14           0        1.597320    0.699579    0.356411
      4          8           0       -1.017085   -0.157694    0.110193
      5         17           0        2.292889   -1.185892   -0.178911
      6          6           0       -2.451431   -0.001341   -0.104158
      7          6           0       -3.090053   -1.356817    0.108077
      8          1           0       -2.607889    0.376979   -1.116569
      9          1           0       -2.823468    0.749257    0.596575
     10          1           0       -2.689049   -2.090222   -0.594311
     11          1           0       -4.169626   -1.284415   -0.047577
     12          1           0       -2.912060   -1.717237    1.123289
     13          1           0        2.353882    1.709943   -0.416223
 ---------------------------------------------------------------------

 SCF Done:  E(UHF) =  -1015.44337333     A.U. after    2 cycles

 The electronic state is 2-A.
 Alpha  occ. eigenvalues -- -103.66562 -69.14061 -20.62760 -20.58229 -11.39653
 Alpha  occ. eigenvalues --  -11.31033 -11.24298 -10.69973  -8.35717  -8.35481
 Alpha  occ. eigenvalues --   -8.35401  -6.88990  -4.00215  -3.99471  -3.99325
 Alpha  occ. eigenvalues --   -1.42841  -1.33997  -1.14981  -1.04778  -0.89871
 Alpha  occ. eigenvalues --   -0.81237  -0.76093  -0.70399  -0.69946  -0.65223
 Alpha  occ. eigenvalues --   -0.60632  -0.57530  -0.56594  -0.54320  -0.53328
 Alpha  occ. eigenvalues --   -0.52785  -0.50903  -0.49660  -0.48627  -0.45087
 Alpha  occ. eigenvalues --   -0.35690
 Alpha virt. eigenvalues --    0.03441   0.04643   0.04818   0.05118   0.05766
 Alpha virt. eigenvalues --    0.06097   0.06796   0.07658   0.08543   0.09424
 Alpha virt. eigenvalues --    0.11814   0.12032   0.12711   0.13599   0.14138

  Beta  occ. eigenvalues -- -103.66470 -69.13473 -20.62771 -20.57920 -11.39615
  Beta  occ. eigenvalues --  -11.31031 -11.24298 -10.69874  -8.35567  -8.35351
  Beta  occ. eigenvalues --   -8.35215  -6.88075  -3.99082  -3.98941  -3.98057
  Beta  occ. eigenvalues --   -1.42634  -1.33513  -1.14216  -1.04730  -0.89591
  Beta  occ. eigenvalues --   -0.80738  -0.74362  -0.69940  -0.69878  -0.63412
  Beta  occ. eigenvalues --   -0.60101  -0.57110  -0.56470  -0.53410  -0.52676
  Beta  occ. eigenvalues --   -0.52388  -0.49314  -0.48656  -0.48067  -0.44087
  Beta virt. eigenvalues --    0.01171   0.03512   0.04941   0.05050   0.05330
  Beta virt. eigenvalues --    0.05864   0.06376   0.07188   0.07762   0.08837
  Beta virt. eigenvalues --    0.10547   0.12057   0.12510   0.13418   0.14133

 Mulliken charges and spin densities:
               1          2
     1  C    0.232446  -0.030094
     2  O   -0.451539   0.066559
     3  Si   0.590769   0.861262
     4  O   -0.410854  -0.005251
     5  Cl  -0.483962   0.034841
     6  C    0.726911   0.009633
     7  C    0.214146   0.000290
     8  H   -0.156109  -0.000012
     9  H   -0.155366  -0.000474
    10  H   -0.047556  -0.000268
    11  H   -0.017437   0.000191
    12  H   -0.048243   0.000067
    13  H    0.006793   0.063257
 Sum of Mulliken charges =  -0.00000   1.00000

 Dipole moment (field-independent basis, Debye):
    X=             -1.2078    Y=             -0.8225    Z=              0.7184  Tot=              1.6283
                          Isotropic Fermi Contact Couplings
        Atom                 a.u.       MegaHertz       Gauss      10(-4) cm-1
     1  C(13)              0.02480      27.88154       9.94883       9.30028
     2  O(17)              0.02746     -16.64433      -5.93911      -5.55195
     3  Si(29)             0.67558    -600.40795    -214.24049    -200.27453
     4  O(17)             -0.00217       1.31525       0.46931       0.43872
     5  Cl(35)             0.05315      23.30319       8.31516       7.77311
     6  C(13)              0.00020       0.22352       0.07976       0.07456
     7  C(13)              0.00003       0.02947       0.01052       0.00983
     8  H(1)              -0.00008      -0.33844      -0.12076      -0.11289

 Normal termination of Gaussian 16 at Tue Apr  8 23:48:11 2025.
