 Gaussian 16, Revision C.01,

 ----------------------------------------------------------------------
 #t hf aug-cc-pvdz symm=none int=(grid=ultrafine) guess=(read,tcheck) s
 table=(opt,rrhf)
 ----------------------------------------------------------------------
 -----
 title
 -----
 Symbolic Z-matrix:
 Charge =  0 Multiplicity = 1

 SCF Done:  E(RHF) =  -498.011154187     A.U. after   14 cycles
 Normal termination of Gaussian 16 at Tue Apr  8 23:57:28 2025.
 Gaussian 16:  ES64L-G16RevC.01  3-Jul-2019

 ----------------------------------------------------------------------
 #t hf aug-cc-pvdz iop(5/13=1,5/36=2,99/5=2) pseudo=read geom=check gue
 ss=(read,tcheck) scf=(maxcycle=1)
 ----------------------------------------------------------------------
 -----
 title
 -----
 Structure from the checkpoint file:  "BDE49_nonexpt_2065_mol1.chk"
 Charge =  0 Multiplicity = 1

                         Standard orientation:
 ---------------------------------------------------------------------
 Center     Atomic      Atomic             Coordinates (Angstroms)
 Number     Number       Type             X           Y           Z
 ---------------------------------------------------------------------
      1         14           0       -1.778512   -0.268191   -0.000001
      2          6           0        0.055459    0.154879   -0.000000
      3          7           0        0.829698   -0.866684   -0.000000
      4          8           0        2.189238   -0.498201    0.000001
      5          1           0        2.632441   -1.352799   -0.000000
      6          6           0        0.554501    1.579279    0.000002
      7          1           0       -0.268107    2.296027    0.000002
      8          1           0        1.181219    1.759439   -0.878120
      9          1           0        1.181218    1.759438    0.878125
     10          1           0       -1.974408   -1.730791   -0.000004
     11          1           0       -2.417370    0.335409   -1.195170
     12          1           0       -2.417371    0.335404    1.195170
 ---------------------------------------------------------------------

 SCF Done:  E(RHF) =  -498.098125802     A.U. after    2 cycles

 The electronic state is 1-A.
 Alpha  occ. eigenvalues --  -69.07121 -20.61255 -15.69619 -11.27884 -11.24552
 Alpha  occ. eigenvalues --   -6.82465  -3.93253  -3.93222  -3.93210  -1.37835
 Alpha  occ. eigenvalues --   -1.14122  -0.97751  -0.79193  -0.70834  -0.69170
 Alpha  occ. eigenvalues --   -0.63383  -0.62021  -0.57493  -0.56209  -0.50080
 Alpha  occ. eigenvalues --   -0.49002  -0.48348  -0.42448  -0.39518
 Alpha virt. eigenvalues --    0.03257   0.04246   0.05001   0.05337   0.06729
 Alpha virt. eigenvalues --    0.06830   0.07767   0.08124   0.09152   0.10600
 Alpha virt. eigenvalues --    0.12311   0.13438   0.14082   0.14699   0.16218

 Mulliken charges:
               1
     1  Si   0.196410
     2  C   -0.063813
     3  N   -0.182539
     4  O   -0.488032
     5  H    0.177120
     6  C    0.340468
     7  H   -0.122599
     8  H    0.051163
     9  H    0.051163
    10  H    0.021094
    11  H    0.009782
    12  H    0.009782
 Sum of Mulliken charges =  -0.00000

 Dipole moment (field-independent basis, Debye):
    X=             -0.0614    Y=              0.5506    Z=             -0.0000  Tot=              0.5540

 Test job not archived.
 1\1\GINC-SE253\SP\RHF\Aug-CC-pVDZ\C2H7N1O1Si1\OHZDE\08-Apr-2025\0\\#t
 hf aug-cc-pvdz iop(5/13=1,5/36=2,99/5=2) pseudo=read geom=check guess=
 (read,tcheck) scf=(maxcycle=1)\\title\\0,1\Si,0,-1.778512,-0.268191,-0
 .000001\C,0,0.055459,0.154879,0.\N,0,0.829698,-0.866684,0.\O,0,2.18923
 8,-0.498201,0.000001\H,0,2.632441,-1.352799,0.\C,0,0.554501,1.579279,0
 .000002\H,0,-0.268107,2.296027,0.000002\H,0,1.181219,1.759439,-0.87812
 \H,0,1.181218,1.759438,0.878125\H,0,-1.974408,-1.730791,-0.000004\H,0,
 -2.41737,0.335409,-1.19517\H,0,-2.417371,0.335404,1.19517\\Version=ES6

 Normal termination of Gaussian 16 at Tue Apr  8 23:57:32 2025.
