 Gaussian 16, Revision C.01,

 ----------------------------------------------------------------------
 #t hf aug-cc-pvdz symm=none int=(grid=ultrafine) guess=(read,tcheck) s
 table=(opt,rrhf)
 ----------------------------------------------------------------------
 -----
 title
 -----
 Symbolic Z-matrix:
 Charge =  0 Multiplicity = 1

 SCF Done:  E(RHF) =  -154.925610858     A.U. after   10 cycles
 Normal termination of Gaussian 16 at Tue Apr  8 23:00:38 2025.
 Gaussian 16:  ES64L-G16RevC.01  3-Jul-2019

 ----------------------------------------------------------------------
 #t hf aug-cc-pvdz iop(5/13=1,5/36=2,99/5=2) pseudo=read geom=check gue
 ss=(read,tcheck) scf=(maxcycle=1)
 ----------------------------------------------------------------------
 -----
 title
 -----
 Structure from the checkpoint file:  "BDE49_expt_26_mol1.chk"
 Charge =  0 Multiplicity = 1

                         Standard orientation:
 ---------------------------------------------------------------------
 Center     Atomic      Atomic             Coordinates (Angstroms)
 Number     Number       Type             X           Y           Z
 ---------------------------------------------------------------------
      1          6           0       -0.601406   -0.000334   -0.000213
      2          6           0        0.601406   -0.000402   -0.000459
      3          6           0        2.059792    0.000200    0.000195
      4          6           0       -2.059792    0.000192    0.000163
      5          1           0       -2.455479    1.013520   -0.117699
      6          1           0       -2.455712   -0.404111    0.936687
      7          1           0       -2.456218   -0.608425   -0.818204
      8          1           0        2.455444    1.013550   -0.117596
      9          1           0        2.456404   -0.608396   -0.818097
     10          1           0        2.455560   -0.404078    0.936795
 ---------------------------------------------------------------------

 SCF Done:  E(RHF) =  -154.977732809     A.U. after    2 cycles

 The electronic state is 1-A.
 Alpha  occ. eigenvalues --  -11.25350 -11.25344 -11.22982 -11.22585  -1.05444
 Alpha  occ. eigenvalues --   -0.99657  -0.91570  -0.65613  -0.60143  -0.59242
 Alpha  occ. eigenvalues --   -0.59241  -0.57492  -0.57492  -0.36563  -0.36563
 Alpha virt. eigenvalues --    0.03478   0.03901   0.05732   0.05733   0.07128
 Alpha virt. eigenvalues --    0.07128   0.08669   0.12238   0.13945   0.15034
 Alpha virt. eigenvalues --    0.15037   0.16368   0.16371   0.16406   0.17603

 Mulliken charges:
               1
     1  C   -0.608764
     2  C   -0.608754
     3  C    0.184382
     4  C    0.184383
     5  H    0.141580
     6  H    0.141465
     7  H    0.141331
     8  H    0.141604
     9  H    0.141194
    10  H    0.141579
 Sum of Mulliken charges =  -0.00000

 Dipole moment (field-independent basis, Debye):
    X=             -0.0000    Y=              0.0013    Z=              0.0012  Tot=              0.0018

 Test job not archived.
 1\1\GINC-SE166\SP\RHF\Aug-CC-pVDZ\C4H6\OHZDE\08-Apr-2025\0\\#t hf aug-
 cc-pvdz iop(5/13=1,5/36=2,99/5=2) pseudo=read geom=check guess=(read,t
 check) scf=(maxcycle=1)\\title\\0,1\C,0,0.601406,0.000331,-0.000217\C,
 0,-0.601406,0.000396,-0.000464\C,0,-2.059792,-0.000198,0.000197\C,0,2.
 059792,-0.00019,0.000165\H,0,2.455479,-1.014921,-0.104934\H,0,2.455712
 ,0.415868,0.931527\H,0,2.456218,0.598079,-0.825797\H,0,-2.455444,-1.01
 495,-0.104831\H,0,-2.456404,0.598051,-0.825689\H,0,-2.45556,0.415836,0
 .931635\\Version=ES64L-G16RevC.01\State=1-A\HF=-154.9777328\RMSD=1.083

 Normal termination of Gaussian 16 at Tue Apr  8 23:00:41 2025.
