 Gaussian 16, Revision C.01,

 ----------------------------------------------------------------------
 #t hf aug-cc-pvdz symm=none int=(grid=ultrafine) guess=(read,tcheck) s
 table=(opt,rrhf)
 ----------------------------------------------------------------------
 -----
 title
 -----
 Symbolic Z-matrix:
 Charge =  0 Multiplicity = 1

 SCF Done:  E(RHF) =  -363.830761510     A.U. after   14 cycles

 1\1\GINC-SE435\Stability\RHF\Aug-CC-pVDZ\C8H11N1\OHZDE\08-Apr-2025\0\\
 #t hf aug-cc-pvdz symm=none int=(grid=ultrafine) guess=(read,tcheck) s
 table=(opt,rrhf)\\title\\0,1\C,0,-0.003342,0.307808,-0.360749\N,0,-2.4
 07764,-0.316973,-0.342968\C,0,-2.732139,-0.261694,1.079577\H,0,-3.0798
 68,0.729599,1.418993\H,0,-1.848653,-0.521969,1.667414\H,0,-3.508697,-0
 .996072,1.305174\C,0,0.430088,-1.020477,-0.418703\C,0,1.743187,-1.3515
 76,-0.096157\C,0,2.644925,-0.359427,0.287529\C,0,2.221134,0.965489,0.3
 52108\C,0,0.904248,1.293358,0.033443\H,0,0.57744,2.327143,0.094572\H,0

 Normal termination of Gaussian 16 at Tue Apr  8 22:39:38 2025.
 Gaussian 16:  ES64L-G16RevC.01  3-Jul-2019

 ----------------------------------------------------------------------
 #t hf aug-cc-pvdz iop(5/13=1,5/36=2,99/5=2) pseudo=read geom=check gue
 ss=(read,tcheck) scf=(maxcycle=1)
 ----------------------------------------------------------------------
 -----
 title
 -----
 Structure from the checkpoint file:  "BDE49_expt_1301_mol1.chk"
 Charge =  0 Multiplicity = 1

                         Standard orientation:
 ---------------------------------------------------------------------
 Center     Atomic      Atomic             Coordinates (Angstroms)
 Number     Number       Type             X           Y           Z
 ---------------------------------------------------------------------
      1          6           0       -0.003342    0.307808   -0.360749
      2          7           0       -2.407764   -0.316973   -0.342968
      3          6           0       -2.732139   -0.261694    1.079577
      4          1           0       -3.079868    0.729599    1.418993
      5          1           0       -1.848653   -0.521969    1.667414
      6          1           0       -3.508697   -0.996072    1.305174
      7          6           0        0.430088   -1.020477   -0.418703
      8          6           0        1.743187   -1.351576   -0.096157
      9          6           0        2.644925   -0.359427    0.287529
     10          6           0        2.221134    0.965489    0.352108
     11          6           0        0.904248    1.293358    0.033443
     12          1           0        0.577440    2.327143    0.094572
     13          1           0       -0.281671   -1.785645   -0.705780
     14          1           0        2.064692   -2.386473   -0.144162
     15          1           0        3.667381   -0.618319    0.539310
     16          1           0        2.912322    1.743581    0.657333
     17          6           0       -1.421855    0.676451   -0.761957
     18          1           0       -1.469005    0.742851   -1.855235
     19          1           0       -1.645254    1.687226   -0.375875
     20          1           0       -3.251812   -0.202698   -0.891520
 ---------------------------------------------------------------------

 SCF Done:  E(RHF) =  -363.939506869     A.U. after    2 cycles

 The electronic state is 1-A.
 Alpha  occ. eigenvalues --  -15.61074 -11.26663 -11.25267 -11.24355 -11.24064
 Alpha  occ. eigenvalues --  -11.23949 -11.23753 -11.23736 -11.23227  -1.17870
 Alpha  occ. eigenvalues --   -1.13342  -1.02296  -1.00278  -0.93663  -0.86166
 Alpha  occ. eigenvalues --   -0.82345  -0.78668  -0.69611  -0.66746  -0.64086
 Alpha  occ. eigenvalues --   -0.63042  -0.60252  -0.58689  -0.57884  -0.55650
 Alpha  occ. eigenvalues --   -0.53008  -0.52058  -0.48861  -0.48658  -0.48114
 Alpha  occ. eigenvalues --   -0.37023  -0.33461  -0.32578
 Alpha virt. eigenvalues --    0.03334   0.03770   0.04127   0.04605   0.05423
 Alpha virt. eigenvalues --    0.05594   0.06938   0.07483   0.07919   0.08241
 Alpha virt. eigenvalues --    0.08811   0.11004   0.11359   0.12293   0.13172

 Mulliken charges:
               1
     1  C    0.307690
     2  N   -0.478343
     3  C    0.744758
     4  H   -0.094398
     5  H   -0.182930
     6  H   -0.227390
     7  C    0.359218
     8  C    0.134073
     9  C    0.707082
    10  C    0.202111
    11  C    0.604781
    12  H   -0.575697
    13  H   -0.615769
    14  H   -0.451407
    15  H   -0.445838
    16  H   -0.452742
    17  C    0.771169
    18  H   -0.062877
    19  H   -0.223199
    20  H   -0.020291
 Sum of Mulliken charges =  -0.00000

 Dipole moment (field-independent basis, Debye):
    X=             -1.0103    Y=              0.7685    Z=              0.0014  Tot=              1.2694

 Test job not archived.
 1\1\GINC-SE435\SP\RHF\Aug-CC-pVDZ\C8H11N1\OHZDE\08-Apr-2025\0\\#t hf a
 ug-cc-pvdz iop(5/13=1,5/36=2,99/5=2) pseudo=read geom=check guess=(rea
 d,tcheck) scf=(maxcycle=1)\\title\\0,1\C,0,-0.003342,0.307808,-0.36074
 9\N,0,-2.407764,-0.316973,-0.342968\C,0,-2.732139,-0.261694,1.079577\H
 ,0,-3.079868,0.729599,1.418993\H,0,-1.848653,-0.521969,1.667414\H,0,-3
 .508697,-0.996072,1.305174\C,0,0.430088,-1.020477,-0.418703\C,0,1.7431
 87,-1.351576,-0.096157\C,0,2.644925,-0.359427,0.287529\C,0,2.221134,0.
 965489,0.352108\C,0,0.904248,1.293358,0.033443\H,0,0.57744,2.327143,0.

 Normal termination of Gaussian 16 at Tue Apr  8 22:39:48 2025.
