 Gaussian 16, Revision C.01,

 ----------------------------------------------------------------------
 #t hf aug-cc-pvdz symm=none int=(grid=ultrafine) guess=(read,tcheck) s
 table=(opt,rrhf)
 ----------------------------------------------------------------------
 -----
 title
 -----
 Symbolic Z-matrix:
 Charge =  0 Multiplicity = 1

 SCF Done:  E(RHF) =  -786.224804309     A.U. after   15 cycles
 Normal termination of Gaussian 16 at Wed Apr  9 00:45:18 2025.
 Gaussian 16:  ES64L-G16RevC.01  3-Jul-2019

 ----------------------------------------------------------------------
 #t hf aug-cc-pvdz iop(5/13=1,5/36=2,99/5=2) pseudo=read geom=check gue
 ss=(read,tcheck) scf=(maxcycle=1)
 ----------------------------------------------------------------------
 -----
 title
 -----
 Structure from the checkpoint file:  "BDE49_nonexpt_763_mol1.chk"
 Charge =  0 Multiplicity = 1

                         Standard orientation:
 ---------------------------------------------------------------------
 Center     Atomic      Atomic             Coordinates (Angstroms)
 Number     Number       Type             X           Y           Z
 ---------------------------------------------------------------------
      1          6           0        2.768671   -0.518927   -1.043638
      2          6           0        1.626311   -1.138813   -0.547610
      3          6           0        3.222011    0.675722   -0.484230
      4          6           0        2.525114    1.241433    0.579250
      5          6           0        1.381072    0.616697    1.078739
      6          6           0        0.913580   -0.582620    0.524394
      7          1           0        1.279011   -2.064801   -0.993364
      8          5           0       -2.258472    0.654718   -0.251063
      9          8           0       -1.374585    1.693886   -0.300741
     10          8           0       -3.589489    0.926941   -0.351074
     11          1           0        3.307172   -0.968781   -1.870318
     12          1           0        2.871589    2.165691    1.028039
     13          1           0        4.111719    1.157688   -0.872715
     14          1           0        0.854785    1.055054    1.920852
     15          6           0       -0.331204   -1.247605    1.059578
     16          1           0       -3.750167    1.870500   -0.476441
     17          1           0       -0.446123    1.441739   -0.236916
     18         15           0       -1.753541   -1.229329   -0.197716
     19          1           0       -0.632372   -0.783386    1.999529
     20          1           0       -0.131209   -2.302963    1.264792
     21          1           0       -2.789664   -1.646347    0.673227
 ---------------------------------------------------------------------

 SCF Done:  E(RHF) =  -786.383545352     A.U. after    2 cycles

 The electronic state is 1-A.
 Alpha  occ. eigenvalues --  -81.23753 -20.58379 -20.58092 -11.26784 -11.25772
 Alpha  occ. eigenvalues --  -11.25640 -11.25637 -11.25433 -11.25245 -11.25152
 Alpha  occ. eigenvalues --   -7.74272  -7.67080  -4.88343  -4.88242  -4.87957
 Alpha  occ. eigenvalues --   -1.34624  -1.30894  -1.15730  -1.05325  -1.02044
 Alpha  occ. eigenvalues --   -0.94620  -0.84130  -0.82011  -0.79361  -0.76806
 Alpha  occ. eigenvalues --   -0.72471  -0.70500  -0.65574  -0.64875  -0.62422
 Alpha  occ. eigenvalues --   -0.60153  -0.59291  -0.59112  -0.58437  -0.56703
 Alpha  occ. eigenvalues --   -0.53784  -0.52315  -0.50873  -0.50353  -0.47624
 Alpha  occ. eigenvalues --   -0.44582  -0.35476  -0.33772  -0.33311
 Alpha virt. eigenvalues --    0.02940   0.03710   0.04069   0.04741   0.05381
 Alpha virt. eigenvalues --    0.05755   0.06676   0.07074   0.07371   0.07582
 Alpha virt. eigenvalues --    0.08391   0.09406   0.09675   0.09781   0.10563

 Mulliken charges:
               1
     1  C    0.217012
     2  C    0.569102
     3  C    0.692947
     4  C    0.124239
     5  C    0.805346
     6  C    0.222225
     7  H   -0.602977
     8  B    0.830020
     9  O   -0.486991
    10  O   -0.581528
    11  H   -0.455343
    12  H   -0.454808
    13  H   -0.438528
    14  H   -0.664984
    15  C    0.122644
    16  H    0.196648
    17  H    0.275130
    18  P   -0.018469
    19  H   -0.304756
    20  H   -0.182540
    21  H    0.135611
 Sum of Mulliken charges =  -0.00000

 Dipole moment (field-independent basis, Debye):
    X=              2.0245    Y=              0.6118    Z=              0.9666  Tot=              2.3253

 Test job not archived.
 1\1\GINC-SE132\SP\RHF\Aug-CC-pVDZ\C7H10B1O2P1\OHZDE\09-Apr-2025\0\\#t
 hf aug-cc-pvdz iop(5/13=1,5/36=2,99/5=2) pseudo=read geom=check guess=
 (read,tcheck) scf=(maxcycle=1)\\title\\0,1\C,0,2.768671,-0.518927,-1.0
 43638\C,0,1.626311,-1.138813,-0.54761\C,0,3.222011,0.675722,-0.48423\C
 ,0,2.525114,1.241433,0.57925\C,0,1.381072,0.616697,1.078739\C,0,0.9135
 8,-0.58262,0.524394\H,0,1.279011,-2.064801,-0.993364\B,0,-2.258472,0.6
 54718,-0.251063\O,0,-1.374585,1.693886,-0.300741\O,0,-3.589489,0.92694
 1,-0.351074\H,0,3.307172,-0.968781,-1.870318\H,0,2.871589,2.165691,1.0

 Normal termination of Gaussian 16 at Wed Apr  9 00:45:33 2025.
