 Gaussian 16, Revision C.01,

 ----------------------------------------------------------------------
 #t hf aug-cc-pvdz symm=none int=(grid=ultrafine) guess=(read,tcheck) s
 table=opt
 ----------------------------------------------------------------------
 -----
 title
 -----
 Symbolic Z-matrix:
 Charge =  0 Multiplicity = 2

 SCF Done:  E(UHF) =  -837.846082791     A.U. after   21 cycles
 Normal termination of Gaussian 16 at Tue Apr  8 23:53:21 2025.
 Gaussian 16:  ES64L-G16RevC.01  3-Jul-2019

 ----------------------------------------------------------------------
 #t hf aug-cc-pvdz iop(5/13=1,5/36=2,99/5=2) pseudo=read geom=check gue
 ss=(read,tcheck) scf=(maxcycle=1)
 ----------------------------------------------------------------------
 -----
 title
 -----
 Structure from the checkpoint file:  "BDE49_nonexpt_1966_mol2.chk"
 Charge =  0 Multiplicity = 2

                         Standard orientation:
 ---------------------------------------------------------------------
 Center     Atomic      Atomic             Coordinates (Angstroms)
 Number     Number       Type             X           Y           Z
 ---------------------------------------------------------------------
      1         14           0       -1.615131    0.207465    0.022914
      2         16           0        0.577064   -0.188738   -0.449499
      3          1           0       -2.307281   -0.941867   -0.626362
      4          1           0       -1.665212    0.030126    1.499254
      5          8           0        0.868614   -1.324075    0.467911
      6          8           0        1.050379    1.280342    0.268748
      7          1           0        1.999361    1.376897    0.105023
 ---------------------------------------------------------------------

 SCF Done:  E(UHF) =  -837.955779306     A.U. after    2 cycles

 The electronic state is 2-A.
 Alpha  occ. eigenvalues --  -93.69965 -69.12177 -20.62558 -20.54965  -8.97909
 Alpha  occ. eigenvalues --   -6.87367  -6.32154  -6.31934  -6.31628  -3.98604
 Alpha  occ. eigenvalues --   -3.97763  -3.97691  -1.37572  -1.30385  -0.91648
 Alpha  occ. eigenvalues --   -0.73328  -0.72130  -0.63606  -0.62871  -0.58219
 Alpha  occ. eigenvalues --   -0.53308  -0.51114  -0.48096  -0.40715  -0.36066
 Alpha virt. eigenvalues --    0.03281   0.03767   0.04790   0.06595   0.07156
 Alpha virt. eigenvalues --    0.08353   0.09334   0.10198   0.11374   0.12507
 Alpha virt. eigenvalues --    0.14626   0.16640   0.17421   0.17661   0.19562

  Beta  occ. eigenvalues --  -93.69931 -69.11601 -20.62566 -20.54619  -8.97870
  Beta  occ. eigenvalues --   -6.86478  -6.32159  -6.31851  -6.31531  -3.97399
  Beta  occ. eigenvalues --   -3.97309  -3.96443  -1.37377  -1.29803  -0.90939
  Beta  occ. eigenvalues --   -0.72248  -0.69926  -0.62691  -0.62598  -0.56608
  Beta  occ. eigenvalues --   -0.52818  -0.49911  -0.46787  -0.37784
  Beta virt. eigenvalues --    0.00032   0.03764   0.04083   0.05136   0.06950
  Beta virt. eigenvalues --    0.08139   0.08733   0.09895   0.10483   0.11827
  Beta virt. eigenvalues --    0.13667   0.16281   0.17224   0.18485   0.19833

 Mulliken charges and spin densities:
               1          2
     1  Si   0.486914   0.853870
     2  S    0.964415   0.018638
     3  H   -0.069931   0.044978
     4  H    0.018889   0.052812
     5  O   -0.941212   0.039471
     6  O   -0.643566  -0.006289
     7  H    0.184491  -0.003481
 Sum of Mulliken charges =  -0.00000   1.00000

 Dipole moment (field-independent basis, Debye):
    X=             -1.4409    Y=              2.5822    Z=             -1.9464  Tot=              3.5401
                          Isotropic Fermi Contact Couplings
        Atom                 a.u.       MegaHertz       Gauss      10(-4) cm-1
     1  Si(29)             0.62409    -554.64807    -197.91222    -185.01068
     2  S(33)              0.02109       7.24482       2.58513       2.41661
     3  H(1)               0.00979      43.74820      15.61045      14.59283
     4  H(1)               0.01194      53.36591      19.04228      17.80095
     5  O(17)              0.03357     -20.35232      -7.26221      -6.78880
     6  O(17)             -0.00685       4.15032       1.48094       1.38440
     7  H(1)              -0.00054      -2.41900      -0.86316      -0.80689
 --------------------------------------------------------

 Normal termination of Gaussian 16 at Tue Apr  8 23:53:23 2025.
