 Gaussian 16, Revision C.01,

 ----------------------------------------------------------------------
 #t hf aug-cc-pvdz symm=none int=(grid=ultrafine) guess=(read,tcheck) s
 table=(opt,rrhf)
 ----------------------------------------------------------------------
 -----
 title
 -----
 Symbolic Z-matrix:
 Charge =  0 Multiplicity = 1

 SCF Done:  E(RHF) =  -407.382215950     A.U. after   12 cycles
 Normal termination of Gaussian 16 at Wed Apr  9 00:40:23 2025.
 Gaussian 16:  ES64L-G16RevC.01  3-Jul-2019

 ----------------------------------------------------------------------
 #t hf aug-cc-pvdz iop(5/13=1,5/36=2,99/5=2) pseudo=read geom=check gue
 ss=(read,tcheck) scf=(maxcycle=1)
 ----------------------------------------------------------------------
 -----
 title
 -----
 Structure from the checkpoint file:  "BDE49_nonexpt_672_mol1.chk"
 Charge =  0 Multiplicity = 1

                         Standard orientation:
 ---------------------------------------------------------------------
 Center     Atomic      Atomic             Coordinates (Angstroms)
 Number     Number       Type             X           Y           Z
 ---------------------------------------------------------------------
      1          8           0        0.262216   -0.196054   -0.497865
      2          5           0        1.534101   -0.224796   -0.006555
      3          8           0        2.492925   -0.960955   -0.656583
      4          6           0       -0.784313    0.571663    0.134495
      5          6           0       -0.741317    2.006421   -0.381117
      6          1           0        0.215160    2.471563   -0.134122
      7          1           0       -1.537460    2.603582    0.072421
      8          1           0       -0.869319    2.024914   -1.467046
      9          6           0       -2.110411   -0.127490   -0.160478
     10          6           0       -2.197168   -1.546371    0.405408
     11          1           0       -2.252772   -0.148204   -1.247049
     12          1           0       -2.917005    0.488661    0.252257
     13          1           0       -1.409480   -2.177902   -0.010226
     14          1           0       -3.160125   -2.006465    0.168862
     15          1           0       -2.087343   -1.545061    1.494562
     16          1           0       -0.604501    0.570909    1.215260
     17          1           0        2.134869   -1.397391   -1.434888
     18          8           0        1.872414    0.466875    1.126466
     19          1           0        2.796277    0.335107    1.356753
 ---------------------------------------------------------------------

 SCF Done:  E(RHF) =  -407.521129684     A.U. after    2 cycles

 The electronic state is 1-A.
 Alpha  occ. eigenvalues --  -20.57797 -20.57613 -20.56615 -11.29220 -11.22932
 Alpha  occ. eigenvalues --  -11.22369 -11.22095  -7.67940  -1.35542  -1.30909
 Alpha  occ. eigenvalues --   -1.30610  -1.05667  -0.98093  -0.87024  -0.80405
 Alpha  occ. eigenvalues --   -0.77986  -0.75374  -0.70487  -0.63899  -0.62003
 Alpha  occ. eigenvalues --   -0.59833  -0.58860  -0.58157  -0.57638  -0.55916
 Alpha  occ. eigenvalues --   -0.54314  -0.52320  -0.51460  -0.50299  -0.48837
 Alpha  occ. eigenvalues --   -0.46184  -0.45198
 Alpha virt. eigenvalues --    0.03279   0.04322   0.04727   0.04779   0.06042
 Alpha virt. eigenvalues --    0.06414   0.06721   0.06803   0.07022   0.08838
 Alpha virt. eigenvalues --    0.09122   0.09215   0.09994   0.10489   0.11492

 Mulliken charges:
               1
     1  O   -0.667812
     2  B    0.788576
     3  O   -0.513370
     4  C    0.031392
     5  C    0.389497
     6  H   -0.094536
     7  H   -0.024322
     8  H    0.024138
     9  C    0.316677
    10  C    0.484470
    11  H   -0.103503
    12  H   -0.042895
    13  H   -0.055137
    14  H   -0.062082
    15  H   -0.078668
    16  H   -0.242864
    17  H    0.170941
    18  O   -0.488207
    19  H    0.167706
 Sum of Mulliken charges =  -0.00000

 Dipole moment (field-independent basis, Debye):
    X=             -0.5345    Y=              0.0936    Z=             -0.1317  Tot=              0.5584

 Test job not archived.
 1\1\GINC-SE059\SP\RHF\Aug-CC-pVDZ\C4H11B1O3\OHZDE\09-Apr-2025\0\\#t hf
  aug-cc-pvdz iop(5/13=1,5/36=2,99/5=2) pseudo=read geom=check guess=(r
 ead,tcheck) scf=(maxcycle=1)\\title\\0,1\O,0,0.262216,-0.196054,-0.497
 865\B,0,1.534101,-0.224796,-0.006555\O,0,2.492925,-0.960955,-0.656583\
 C,0,-0.784313,0.571663,0.134495\C,0,-0.741317,2.006421,-0.381117\H,0,0
 .21516,2.471563,-0.134122\H,0,-1.53746,2.603582,0.072421\H,0,-0.869319
 ,2.024914,-1.467046\C,0,-2.110411,-0.12749,-0.160478\C,0,-2.197168,-1.
 546371,0.405408\H,0,-2.252772,-0.148204,-1.247049\H,0,-2.917005,0.4886

 Normal termination of Gaussian 16 at Wed Apr  9 00:40:32 2025.
