 Gaussian 16, Revision C.01,

 ----------------------------------------------------------------------
 #t hf aug-cc-pvdz symm=none int=(grid=ultrafine) guess=(read,tcheck) s
 table=(opt,rrhf)
 ----------------------------------------------------------------------
 -----
 title
 -----
 Symbolic Z-matrix:
 Charge =  0 Multiplicity = 1

 SCF Done:  E(RHF) =  -442.076496282     A.U. after   13 cycles
 Normal termination of Gaussian 16 at Wed Apr  9 00:39:21 2025.
 Gaussian 16:  ES64L-G16RevC.01  3-Jul-2019

 ----------------------------------------------------------------------
 #t hf aug-cc-pvdz iop(5/13=1,5/36=2,99/5=2) pseudo=read geom=check gue
 ss=(read,tcheck) scf=(maxcycle=1)
 ----------------------------------------------------------------------
 -----
 title
 -----
 Structure from the checkpoint file:  "BDE49_nonexpt_663_mol1.chk"
 Charge =  0 Multiplicity = 1

                         Standard orientation:
 ---------------------------------------------------------------------
 Center     Atomic      Atomic             Coordinates (Angstroms)
 Number     Number       Type             X           Y           Z
 ---------------------------------------------------------------------
      1          6           0        1.914189   -0.808960    0.000007
      2          6           0        0.684906    0.065618    0.000020
      3          8           0       -0.448558   -0.668577    0.000004
      4          8           0        0.702449    1.277584    0.000003
      5          5           0       -1.746337   -0.106580   -0.000009
      6          8           0       -2.744484   -1.025051   -0.000024
      7          6           0        3.223999   -0.027022   -0.000001
      8          1           0        1.835620   -1.470143   -0.869714
      9          1           0        1.835633   -1.470147    0.869727
     10          1           0        3.299390    0.614115   -0.880132
     11          1           0        4.074542   -0.712070   -0.000009
     12          1           0        3.299403    0.614112    0.880130
     13          1           0       -3.608408   -0.602027   -0.000028
     14          8           0       -1.984115    1.224218    0.000004
     15          1           0       -1.145392    1.715853    0.000021
 ---------------------------------------------------------------------

 SCF Done:  E(RHF) =  -442.226921895     A.U. after    2 cycles

 The electronic state is 1-A.
 Alpha  occ. eigenvalues --  -20.61920 -20.58773 -20.58344 -20.58120 -11.41811
 Alpha  occ. eigenvalues --  -11.26612 -11.24073  -7.70614  -1.43431  -1.35574
 Alpha  occ. eigenvalues --   -1.33142  -1.31732  -1.06634  -0.93120  -0.84224
 Alpha  occ. eigenvalues --   -0.78146  -0.73863  -0.72480  -0.71035  -0.68754
 Alpha  occ. eigenvalues --   -0.63711  -0.62435  -0.59563  -0.58150  -0.57426
 Alpha  occ. eigenvalues --   -0.54120  -0.53790  -0.53006  -0.51669  -0.51179
 Alpha  occ. eigenvalues --   -0.48358
 Alpha virt. eigenvalues --    0.03096   0.04373   0.04858   0.04937   0.05618
 Alpha virt. eigenvalues --    0.06683   0.06809   0.07715   0.08244   0.09216
 Alpha virt. eigenvalues --    0.10053   0.12792   0.13144   0.13982   0.14618

 Mulliken charges:
               1
     1  C    0.153073
     2  C    0.332079
     3  O   -0.660446
     4  O   -0.471717
     5  B    0.704969
     6  O   -0.424062
     7  C    0.497980
     8  H   -0.017689
     9  H   -0.017687
    10  H   -0.048320
    11  H   -0.041825
    12  H   -0.048324
    13  H    0.206743
    14  O   -0.498585
    15  H    0.333811
 Sum of Mulliken charges =  -0.00000

 Dipole moment (field-independent basis, Debye):
    X=              1.3354    Y=             -1.0907    Z=              0.0000  Tot=              1.7242

 Test job not archived.
 1\1\GINC-SE328\SP\RHF\Aug-CC-pVDZ\C3H7B1O4\OHZDE\09-Apr-2025\0\\#t hf
 aug-cc-pvdz iop(5/13=1,5/36=2,99/5=2) pseudo=read geom=check guess=(re
 ad,tcheck) scf=(maxcycle=1)\\title\\0,1\C,0,1.914189,-0.80896,0.000007
 \C,0,0.684906,0.065618,0.00002\O,0,-0.448558,-0.668577,0.000004\O,0,0.
 702449,1.277584,0.000003\B,0,-1.746337,-0.10658,-0.000009\O,0,-2.74448
 4,-1.025051,-0.000024\C,0,3.223999,-0.027022,-0.000001\H,0,1.83562,-1.
 470143,-0.869714\H,0,1.835633,-1.470147,0.869727\H,0,3.29939,0.614115,
 -0.880132\H,0,4.074542,-0.71207,-0.000009\H,0,3.299403,0.614112,0.8801

 Normal termination of Gaussian 16 at Wed Apr  9 00:39:27 2025.
