 Gaussian 16, Revision C.01,

 ----------------------------------------------------------------------
 #t hf aug-cc-pvdz symm=none int=(grid=ultrafine) guess=(read,tcheck) s
 table=(opt,rrhf)
 ----------------------------------------------------------------------
 -----
 title
 -----
 Symbolic Z-matrix:
 Charge =  0 Multiplicity = 1

 SCF Done:  E(RHF) =  -747.515748344     A.U. after   16 cycles
 Normal termination of Gaussian 16 at Wed Apr  9 00:04:52 2025.
 Gaussian 16:  ES64L-G16RevC.01  3-Jul-2019

 ----------------------------------------------------------------------
 #t hf aug-cc-pvdz iop(5/13=1,5/36=2,99/5=2) pseudo=read geom=check gue
 ss=(read,tcheck) scf=(maxcycle=1)
 ----------------------------------------------------------------------
 -----
 title
 -----
 Structure from the checkpoint file:  "BDE49_nonexpt_2199_mol1.chk"
 Charge =  0 Multiplicity = 1

                         Standard orientation:
 ---------------------------------------------------------------------
 Center     Atomic      Atomic             Coordinates (Angstroms)
 Number     Number       Type             X           Y           Z
 ---------------------------------------------------------------------
      1          6           0       -1.595183    1.453107   -0.000016
      2          6           0       -1.252492    0.097813   -0.000024
      3          6           0        0.097296   -0.276641   -0.000014
      4          6           0       -0.590803    2.420212    0.000001
      5          6           0        0.747202    2.048972    0.000011
      6          6           0        1.094193    0.692869    0.000004
      7          1           0       -0.852812    3.472027    0.000007
      8          1           0        1.539893    2.787032    0.000025
      9          8           0        2.425919    0.391461    0.000014
     10         14           0        3.200081   -1.083951    0.000013
     11          1           0       -2.632693    1.761198   -0.000023
     12          1           0        0.328199   -1.335835   -0.000021
     13          6           0       -2.275498   -1.003001   -0.000046
     14          8           0       -1.929632   -2.167803    0.000011
     15          6           0       -3.747393   -0.633222    0.000007
     16          1           0       -4.000827   -0.037819    0.881843
     17          1           0       -4.334957   -1.549579    0.000041
     18          1           0       -4.000891   -0.037842   -0.881827
     19          1           0        4.634527   -0.749261    0.000031
     20          1           0        2.842105   -1.862253   -1.206300
     21          1           0        2.842078   -1.862270    1.206306
 ---------------------------------------------------------------------

 SCF Done:  E(RHF) =  -747.685541078     A.U. after    2 cycles

 The electronic state is 1-A.
 Alpha  occ. eigenvalues --  -69.10523 -20.59275 -20.56389 -11.35116 -11.32690
 Alpha  occ. eigenvalues --  -11.26524 -11.26207 -11.25933 -11.25717 -11.25441
 Alpha  occ. eigenvalues --  -11.24821  -6.85329  -3.96241  -3.96091  -3.96060
 Alpha  occ. eigenvalues --   -1.35611  -1.35163  -1.15543  -1.04722  -1.02221
 Alpha  occ. eigenvalues --   -0.99418  -0.87589  -0.85815  -0.78491  -0.74009
 Alpha  occ. eigenvalues --   -0.71198  -0.67955  -0.66157  -0.64443  -0.62664
 Alpha  occ. eigenvalues --   -0.62630  -0.61541  -0.61147  -0.56760  -0.55965
 Alpha  occ. eigenvalues --   -0.54213  -0.52964  -0.51620  -0.50115  -0.48032
 Alpha  occ. eigenvalues --   -0.47450  -0.43648  -0.35698  -0.33597
 Alpha virt. eigenvalues --    0.02987   0.03652   0.03970   0.05059   0.05180
 Alpha virt. eigenvalues --    0.05928   0.05963   0.06526   0.06816   0.07293
 Alpha virt. eigenvalues --    0.08980   0.09197   0.09559   0.10076   0.10681

 Mulliken charges:
               1
     1  C    0.378804
     2  C    1.520540
     3  C   -0.034464
     4  C    0.442643
     5  C    0.832867
     6  C    0.018849
     7  H   -0.444887
     8  H   -0.545669
     9  O   -0.899510
    10  Si   0.249428
    11  H   -0.664523
    12  H   -0.645156
    13  C   -0.518273
    14  O   -0.522537
    15  C    0.514254
    16  H    0.108787
    17  H   -0.143572
    18  H    0.108804
    19  H    0.028618
    20  H    0.107497
    21  H    0.107500
 Sum of Mulliken charges =  -0.00000

 Dipole moment (field-independent basis, Debye):
    X=             -0.8204    Y=              2.8160    Z=             -0.0001  Tot=              2.9330

 Test job not archived.
 1\1\GINC-SE273\SP\RHF\Aug-CC-pVDZ\C8H10O2Si1\OHZDE\09-Apr-2025\0\\#t h
 f aug-cc-pvdz iop(5/13=1,5/36=2,99/5=2) pseudo=read geom=check guess=(
 read,tcheck) scf=(maxcycle=1)\\title\\0,1\C,0,-1.595183,1.453107,-0.00
 0016\C,0,-1.252492,0.097813,-0.000024\C,0,0.097296,-0.276641,-0.000014
 \C,0,-0.590803,2.420212,0.000001\C,0,0.747202,2.048972,0.000011\C,0,1.
 094193,0.692869,0.000004\H,0,-0.852812,3.472027,0.000007\H,0,1.539893,
 2.787032,0.000025\O,0,2.425919,0.391461,0.000014\Si,0,3.200081,-1.0839
 51,0.000013\H,0,-2.632693,1.761198,-0.000023\H,0,0.328199,-1.335835,-0

 Normal termination of Gaussian 16 at Wed Apr  9 00:05:08 2025.
