 Gaussian 16, Revision C.01,

 ----------------------------------------------------------------------
 #t hf aug-cc-pvdz symm=none int=(grid=ultrafine) guess=(read,tcheck) s
 table=(opt,rrhf)
 ----------------------------------------------------------------------
 -----
 title
 -----
 Symbolic Z-matrix:
 Charge =  0 Multiplicity = 1

 SCF Done:  E(RHF) =  -1046.31227458     A.U. after   13 cycles
 Normal termination of Gaussian 16 at Tue Apr  8 22:58:38 2025.
 Gaussian 16:  ES64L-G16RevC.01  3-Jul-2019

 ----------------------------------------------------------------------
 #t hf aug-cc-pvdz iop(5/13=1,5/36=2,99/5=2) pseudo=read geom=check gue
 ss=(read,tcheck) scf=(maxcycle=1)
 ----------------------------------------------------------------------
 -----
 title
 -----
 Structure from the checkpoint file:  "BDE49_expt_1980_mol1.chk"
 Charge =  0 Multiplicity = 1

                         Standard orientation:
 ---------------------------------------------------------------------
 Center     Atomic      Atomic             Coordinates (Angstroms)
 Number     Number       Type             X           Y           Z
 ---------------------------------------------------------------------
      1         16           0       -0.436050   -0.202452    0.000000
      2          8           0       -0.762350   -0.811733   -1.257081
      3          8           0       -0.762348   -0.811733    1.257081
      4          6           0       -0.980326    1.504612    0.000001
      5          1           0       -0.604606    1.980707    0.902675
      6          1           0       -2.070696    1.462330    0.000001
      7          1           0       -0.604607    1.980707   -0.902674
      8         17           0        1.666838    0.104444   -0.000001
 ---------------------------------------------------------------------

 SCF Done:  E(RHF) =  -1046.46753351     A.U. after    2 cycles

 The electronic state is 1-A.
 Alpha  occ. eigenvalues -- -103.69160 -93.84522 -20.60570 -20.60568 -11.32287
 Alpha  occ. eigenvalues --  -10.72466  -9.10915  -8.38168  -8.37846  -8.37831
 Alpha  occ. eigenvalues --   -6.45503  -6.45334  -6.45147  -1.46949  -1.35612
 Alpha  occ. eigenvalues --   -1.17323  -1.06488  -0.85505  -0.73129  -0.71903
 Alpha  occ. eigenvalues --   -0.70746  -0.64406  -0.63771  -0.57069  -0.55523
 Alpha  occ. eigenvalues --   -0.54245  -0.50199  -0.49490  -0.49079
 Alpha virt. eigenvalues --    0.02460   0.04691   0.05234   0.05370   0.08189
 Alpha virt. eigenvalues --    0.10338   0.11637   0.12123   0.13614   0.13828
 Alpha virt. eigenvalues --    0.15384   0.16777   0.17068   0.17390   0.19046

 Mulliken charges:
               1
     1  S    2.115309
     2  O   -0.961729
     3  O   -0.961729
     4  C   -0.055674
     5  H    0.027032
     6  H    0.059018
     7  H    0.027033
     8  Cl  -0.249259
 Sum of Mulliken charges =  -0.00000

 Dipole moment (field-independent basis, Debye):
    X=             -0.7052    Y=              4.4344    Z=              0.0000  Tot=              4.4901

 Test job not archived.
 1\1\GINC-SE454\SP\RHF\Aug-CC-pVDZ\C1H3Cl1O2S1\OHZDE\08-Apr-2025\0\\#t
 hf aug-cc-pvdz iop(5/13=1,5/36=2,99/5=2) pseudo=read geom=check guess=
 (read,tcheck) scf=(maxcycle=1)\\title\\0,1\S,0,-0.43605,-0.202452,0.\O
 ,0,-0.76235,-0.811733,-1.257081\O,0,-0.762348,-0.811733,1.257081\C,0,-
 0.980326,1.504612,0.000001\H,0,-0.604606,1.980707,0.902675\H,0,-2.0706
 96,1.46233,0.000001\H,0,-0.604607,1.980707,-0.902674\Cl,0,1.666838,0.1
 04444,-0.000001\\Version=ES64L-G16RevC.01\State=1-A\HF=-1046.4675335\R
 MSD=4.955e-03\Dipole=-0.2774318,1.7446384,0.000001\Quadrupole=1.659265

 Normal termination of Gaussian 16 at Tue Apr  8 22:58:41 2025.
