 Gaussian 16, Revision C.01,

 ----------------------------------------------------------------------
 #t hf aug-cc-pvdz symm=none int=(grid=ultrafine) guess=(read,tcheck) s
 table=opt
 ----------------------------------------------------------------------
 -----
 title
 -----
 Symbolic Z-matrix:
 Charge =  0 Multiplicity = 2

 SCF Done:  E(UHF) =  -523.731469711     A.U. after   16 cycles
 Normal termination of Gaussian 16 at Wed Apr  9 00:33:45 2025.
 Gaussian 16:  ES64L-G16RevC.01  3-Jul-2019

 ----------------------------------------------------------------------
 #t hf aug-cc-pvdz iop(5/13=1,5/36=2,99/5=2) pseudo=read geom=check gue
 ss=(read,tcheck) scf=(maxcycle=1)
 ----------------------------------------------------------------------
 -----
 title
 -----
 Structure from the checkpoint file:  "BDE49_nonexpt_462_mol2.chk"
 Charge =  0 Multiplicity = 2

                         Standard orientation:
 ---------------------------------------------------------------------
 Center     Atomic      Atomic             Coordinates (Angstroms)
 Number     Number       Type             X           Y           Z
 ---------------------------------------------------------------------
      1          1           0        2.965740   -0.376883    0.000034
      2          5           0        1.791163   -0.556959    0.000020
      3          6           0        0.687270    0.503869    0.000009
      4         17           0       -1.035141   -0.127326   -0.000012
      5          1           0        0.776125    1.151501   -0.879152
      6          1           0        0.776104    1.151497    0.879176
 ---------------------------------------------------------------------

 SCF Done:  E(UHF) =  -523.769797584     A.U. after    2 cycles

 The electronic state is 2-A.
 Alpha  occ. eigenvalues -- -103.65023 -11.30006 -10.68260  -8.34034  -8.33669
 Alpha  occ. eigenvalues --   -8.33666  -7.66174  -1.15296  -0.94632  -0.68505
 Alpha  occ. eigenvalues --   -0.62597  -0.58937  -0.53756  -0.44985  -0.44481
 Alpha  occ. eigenvalues --   -0.34918
 Alpha virt. eigenvalues --    0.03277   0.03305   0.05143   0.05849   0.05938
 Alpha virt. eigenvalues --    0.08656   0.10126   0.10349   0.13097   0.14952
 Alpha virt. eigenvalues --    0.15799   0.16542   0.17621   0.18043   0.19251

  Beta  occ. eigenvalues -- -103.64970 -11.30078 -10.68199  -8.33853  -8.33632
  Beta  occ. eigenvalues --   -8.33625  -7.64288  -1.14887  -0.93807  -0.64346
  Beta  occ. eigenvalues --   -0.62557  -0.57974  -0.52511  -0.44877  -0.44112
  Beta virt. eigenvalues --    0.03117   0.04036   0.04330   0.05572   0.06699
  Beta virt. eigenvalues --    0.08745   0.09023   0.10363   0.11630   0.14454
  Beta virt. eigenvalues --    0.15435   0.16201   0.16655   0.18308   0.18624

 Mulliken charges and spin densities:
               1          2
     1  H    0.331067  -0.021916
     2  B   -0.111391   1.042805
     3  C    0.082938  -0.047663
     4  Cl  -0.214550   0.021493
     5  H   -0.044033   0.002641
     6  H   -0.044031   0.002641
 Sum of Mulliken charges =  -0.00000   1.00000

 Dipole moment (field-independent basis, Debye):
    X=              2.1733    Y=              1.4719    Z=              0.0000  Tot=              2.6249
                          Isotropic Fermi Contact Couplings
        Atom                 a.u.       MegaHertz       Gauss      10(-4) cm-1
     1  H(1)               0.00172       7.68708       2.74294       2.56413
     2  B(11)              0.27217     390.38856     139.30035     130.21961
     3  C(13)             -0.01893     -21.27802      -7.59253      -7.09758
     4  Cl(35)             0.04583      20.09344       7.16984       6.70245
     5  H(1)               0.00234      10.46178       3.73302       3.48967
     6  H(1)               0.00234      10.46175       3.73301       3.48966
 --------------------------------------------------------
       Center         ----  Spin Dipole Couplings  ----

 Normal termination of Gaussian 16 at Wed Apr  9 00:33:46 2025.
