 Gaussian 16, Revision C.01,

 ----------------------------------------------------------------------
 #t hf aug-cc-pvdz symm=none int=(grid=ultrafine) guess=(read,tcheck) s
 table=(opt,rrhf)
 ----------------------------------------------------------------------
 -----
 title
 -----
 Symbolic Z-matrix:
 Charge =  0 Multiplicity = 1

 SCF Done:  E(RHF) =  -311.379790659     A.U. after   14 cycles
 Normal termination of Gaussian 16 at Wed Apr  9 00:38:27 2025.
 Gaussian 16:  ES64L-G16RevC.01  3-Jul-2019

 ----------------------------------------------------------------------
 #t hf aug-cc-pvdz iop(5/13=1,5/36=2,99/5=2) pseudo=read geom=check gue
 ss=(read,tcheck) scf=(maxcycle=1)
 ----------------------------------------------------------------------
 -----
 title
 -----
 Structure from the checkpoint file:  "BDE49_nonexpt_615_mol1.chk"
 Charge =  0 Multiplicity = 1

                         Standard orientation:
 ---------------------------------------------------------------------
 Center     Atomic      Atomic             Coordinates (Angstroms)
 Number     Number       Type             X           Y           Z
 ---------------------------------------------------------------------
      1          6           0       -2.485175    0.482912    0.724739
      2          6           0       -1.957584   -0.342564   -0.452572
      3          1           0       -2.567708   -0.126739    1.630742
      4          1           0       -3.478122    0.883432    0.505032
      5          1           0       -1.825521    1.326254    0.937186
      6          6           0       -0.581082   -0.961449   -0.197280
      7          1           0       -1.896315    0.287925   -1.343453
      8          1           0       -2.661141   -1.149703   -0.680586
      9          6           0        0.560457    0.049676   -0.194596
     10          1           0       -0.344866   -1.703365   -0.971413
     11          1           0       -0.571469   -1.508559    0.754221
     12          8           0        0.435164    1.200491   -0.529927
     13          5           0        3.036365    0.196575    0.295740
     14          7           0        1.803355   -0.488121    0.215982
     15          1           0        3.090626    1.341971    0.002327
     16          1           0        3.982390   -0.425907    0.663200
     17          1           0        1.765818   -1.466719    0.469838
 ---------------------------------------------------------------------

 SCF Done:  E(RHF) =  -311.479832648     A.U. after    2 cycles

 The electronic state is 1-A.
 Alpha  occ. eigenvalues --  -20.55521 -15.64928 -11.37583 -11.25869 -11.23858
 Alpha  occ. eigenvalues --  -11.22330  -7.62047  -1.36554  -1.17746  -1.06793
 Alpha  occ. eigenvalues --   -0.96172  -0.84518  -0.78092  -0.73271  -0.70082
 Alpha  occ. eigenvalues --   -0.64606  -0.63627  -0.59607  -0.57903  -0.56313
 Alpha  occ. eigenvalues --   -0.54863  -0.49836  -0.49187  -0.48755  -0.48388
 Alpha  occ. eigenvalues --   -0.44253  -0.44106
 Alpha virt. eigenvalues --    0.02641   0.03950   0.04007   0.04975   0.05653
 Alpha virt. eigenvalues --    0.05707   0.06122   0.07148   0.07557   0.08580
 Alpha virt. eigenvalues --    0.09085   0.10589   0.10998   0.11713   0.12743

 Mulliken charges:
               1
     1  C    0.365890
     2  C    0.250778
     3  H   -0.076219
     4  H   -0.071014
     5  H   -0.088113
     6  C    0.243961
     7  H   -0.079555
     8  H   -0.055862
     9  C    0.415417
    10  H   -0.037638
    11  H   -0.126361
    12  O   -0.429557
    13  B   -0.721291
    14  N   -0.308865
    15  H    0.341351
    16  H    0.395183
    17  H   -0.018105
 Sum of Mulliken charges =  -0.00000

 Dipole moment (field-independent basis, Debye):
    X=             -0.5962    Y=             -3.8532    Z=              0.8447  Tot=              3.9895

 Test job not archived.
 1\1\GINC-SE125\SP\RHF\Aug-CC-pVDZ\C4H10B1N1O1\OHZDE\09-Apr-2025\0\\#t
 hf aug-cc-pvdz iop(5/13=1,5/36=2,99/5=2) pseudo=read geom=check guess=
 (read,tcheck) scf=(maxcycle=1)\\title\\0,1\C,0,-2.485175,0.482912,0.72
 4739\C,0,-1.957584,-0.342564,-0.452572\H,0,-2.567708,-0.126739,1.63074
 2\H,0,-3.478122,0.883432,0.505032\H,0,-1.825521,1.326254,0.937186\C,0,
 -0.581082,-0.961449,-0.19728\H,0,-1.896315,0.287925,-1.343453\H,0,-2.6
 61141,-1.149703,-0.680586\C,0,0.560457,0.049676,-0.194596\H,0,-0.34486
 6,-1.703365,-0.971413\H,0,-0.571469,-1.508559,0.754221\O,0,0.435164,1.

 Normal termination of Gaussian 16 at Wed Apr  9 00:38:34 2025.
