 Gaussian 16, Revision C.01,

 ----------------------------------------------------------------------
 #t hf aug-cc-pvdz symm=none int=(grid=ultrafine) guess=(read,tcheck) s
 table=(opt,rrhf)
 ----------------------------------------------------------------------
 -----
 title
 -----
 Symbolic Z-matrix:
 Charge =  0 Multiplicity = 1

 SCF Done:  E(RHF) =  -1155.48369080     A.U. after   14 cycles
 Normal termination of Gaussian 16 at Tue Apr  8 23:43:14 2025.
 Gaussian 16:  ES64L-G16RevC.01  3-Jul-2019

 ----------------------------------------------------------------------
 #t hf aug-cc-pvdz iop(5/13=1,5/36=2,99/5=2) pseudo=read geom=check gue
 ss=(read,tcheck) scf=(maxcycle=1)
 ----------------------------------------------------------------------
 -----
 title
 -----
 Structure from the checkpoint file:  "BDE49_nonexpt_1699_mol1.chk"
 Charge =  0 Multiplicity = 1

                         Standard orientation:
 ---------------------------------------------------------------------
 Center     Atomic      Atomic             Coordinates (Angstroms)
 Number     Number       Type             X           Y           Z
 ---------------------------------------------------------------------
      1         16           0        0.137965   -1.265061   -0.631724
      2         15           0        1.370755    0.230656    0.270879
      3          8           0        1.102837    0.416547    1.696784
      4          8           0        1.319042    1.524131   -0.662151
      5          8           0       -1.301850   -0.968075    0.224957
      6          6           0       -2.113454    0.097414   -0.128822
      7          6           0       -1.947192    0.892140   -1.188318
      8          6           0       -3.206594    0.207967    0.889074
      9          1           0       -3.881076    1.028160    0.644622
     10          1           0       -2.777652    0.372539    1.880863
     11          1           0       -3.777311   -0.723914    0.928331
     12          1           0       -1.168763    0.725347   -1.920443
     13          1           0       -2.658213    1.685452   -1.371245
     14          1           0        0.445115    1.940515   -0.635031
     15          8           0        2.811354   -0.291589   -0.183247
     16          1           0        3.201500   -0.880211    0.474954
 ---------------------------------------------------------------------

 SCF Done:  E(RHF) =  -1155.70634173     A.U. after    2 cycles

 The electronic state is 1-A.
 Alpha  occ. eigenvalues --  -93.61296 -81.44963 -20.64247 -20.63921 -20.63050
 Alpha  occ. eigenvalues --  -20.54532 -11.33753 -11.24997 -11.23870  -8.90504
 Alpha  occ. eigenvalues --   -7.93141  -6.24700  -6.24334  -6.24025  -5.07785
 Alpha  occ. eigenvalues --   -5.07674  -5.07319  -1.40170  -1.38207  -1.36562
 Alpha  occ. eigenvalues --   -1.27864  -1.07665  -0.98076  -0.95179  -0.87044
 Alpha  occ. eigenvalues --   -0.77963  -0.74478  -0.71400  -0.68903  -0.67669
 Alpha  occ. eigenvalues --   -0.66936  -0.65291  -0.63217  -0.60375  -0.59689
 Alpha  occ. eigenvalues --   -0.58007  -0.57176  -0.55265  -0.53285  -0.52211
 Alpha  occ. eigenvalues --   -0.50728  -0.45408  -0.40067  -0.37086
 Alpha virt. eigenvalues --    0.03241   0.03850   0.04480   0.05493   0.05907
 Alpha virt. eigenvalues --    0.06857   0.07682   0.08161   0.08420   0.10107
 Alpha virt. eigenvalues --    0.11139   0.11907   0.12470   0.12858   0.14284

 Mulliken charges:
               1
     1  S    0.180029
     2  P    2.213675
     3  O   -0.930597
     4  O   -0.720697
     5  O   -0.866549
     6  C    0.227307
     7  C    0.802571
     8  C    0.116159
     9  H   -0.077069
    10  H    0.053801
    11  H    0.017309
    12  H   -0.438018
    13  H   -0.289726
    14  H    0.198784
    15  O   -0.649977
    16  H    0.162998
 Sum of Mulliken charges =  -0.00000

 Dipole moment (field-independent basis, Debye):
    X=             -1.1329    Y=             -0.1259    Z=             -1.6956  Tot=              2.0431

 Test job not archived.
 1\1\GINC-SE212\SP\RHF\Aug-CC-pVDZ\C3H7O4P1S1\OHZDE\08-Apr-2025\0\\#t h
 f aug-cc-pvdz iop(5/13=1,5/36=2,99/5=2) pseudo=read geom=check guess=(
 read,tcheck) scf=(maxcycle=1)\\title\\0,1\S,0,-0.137965,1.265061,-0.63
 1724\P,0,-1.370755,-0.230656,0.270879\O,0,-1.102837,-0.416547,1.696784
 \O,0,-1.319042,-1.524131,-0.662151\O,0,1.30185,0.968075,0.224957\C,0,2
 .113454,-0.097414,-0.128822\C,0,1.947192,-0.89214,-1.188318\C,0,3.2065
 94,-0.207967,0.889074\H,0,3.881076,-1.02816,0.644622\H,0,2.777652,-0.3
 72539,1.880863\H,0,3.777311,0.723914,0.928331\H,0,1.168763,-0.725347,-

 Normal termination of Gaussian 16 at Tue Apr  8 23:43:22 2025.
