 Gaussian 16, Revision C.01,

 ----------------------------------------------------------------------
 #t hf aug-cc-pvdz symm=none int=(grid=ultrafine) guess=(read,tcheck) s
 table=(opt,rrhf)
 ----------------------------------------------------------------------
 -----
 title
 -----
 Symbolic Z-matrix:
 Charge =  0 Multiplicity = 1

 SCF Done:  E(RHF) =  -683.025806031     A.U. after   18 cycles
 Normal termination of Gaussian 16 at Tue Apr  8 23:02:17 2025.
 Gaussian 16:  ES64L-G16RevC.01  3-Jul-2019

 ----------------------------------------------------------------------
 #t hf aug-cc-pvdz iop(5/13=1,5/36=2,99/5=2) pseudo=read geom=check gue
 ss=(read,tcheck) scf=(maxcycle=1)
 ----------------------------------------------------------------------
 -----
 title
 -----
 Structure from the checkpoint file:  "BDE49_expt_1774_mol1.chk"
 Charge =  0 Multiplicity = 1

                         Standard orientation:
 ---------------------------------------------------------------------
 Center     Atomic      Atomic             Coordinates (Angstroms)
 Number     Number       Type             X           Y           Z
 ---------------------------------------------------------------------
      1          6           0       -2.958860    0.133402   -0.971158
      2          6           0       -3.365319   -0.685066    0.088845
      3          6           0       -2.443880   -0.950444    1.106531
      4          6           0       -1.161909   -0.411167    1.075244
      5          6           0       -0.775025    0.396477    0.007656
      6          6           0       -1.678063    0.671170   -1.018724
      7          1           0       -1.378277    1.303595   -1.844246
      8          1           0       -3.654707    0.352141   -1.774426
      9          1           0       -0.458412   -0.618980    1.872770
     10          7           0        0.551005    0.947917   -0.022593
     11          6           0        1.712683    0.123234   -0.046294
     12          6           0        1.662357   -1.131959   -0.660459
     13          6           0        2.799618   -1.933293   -0.694020
     14          6           0        3.993642   -1.491154   -0.129808
     15          6           0        4.039483   -0.238094    0.478830
     16          6           0        2.906548    0.566327    0.534834
     17          1           0        2.937811    1.533809    1.015676
     18          1           0        0.739624   -1.474306   -1.111067
     19          1           0        2.749819   -2.905186   -1.171681
     20          1           0        4.877647   -2.117209   -0.159845
     21          1           0        4.960839    0.113972    0.928763
     22          7           0        0.776293    2.299417    0.002145
     23          8           0       -0.212621    2.993180    0.059935
     24          1           0       -2.732789   -1.583793    1.938669
     25          6           0       -4.767576   -1.239922    0.143527
     26          1           0       -5.461476   -0.504872    0.565505
     27          1           0       -4.818815   -2.135156    0.766662
     28          1           0       -5.133579   -1.497867   -0.853143
 ---------------------------------------------------------------------

 SCF Done:  E(RHF) =  -683.225001407     A.U. after    2 cycles

 The electronic state is 1-A.
 Alpha  occ. eigenvalues --  -20.61283 -15.80294 -15.70373 -11.30504 -11.29390
 Alpha  occ. eigenvalues --  -11.26321 -11.25848 -11.25708 -11.25565 -11.25510
 Alpha  occ. eigenvalues --  -11.25220 -11.25105 -11.25077 -11.25009 -11.24825
 Alpha  occ. eigenvalues --  -11.24313  -1.47314  -1.26476  -1.15973  -1.14101
 Alpha  occ. eigenvalues --   -1.05635  -1.02496  -1.02216  -1.01533  -0.96051
 Alpha  occ. eigenvalues --   -0.89617  -0.85199  -0.84401  -0.83257  -0.78849
 Alpha  occ. eigenvalues --   -0.74726  -0.73355  -0.68806  -0.67789  -0.66467
 Alpha  occ. eigenvalues --   -0.64621  -0.64102  -0.62412  -0.61946  -0.60245
 Alpha  occ. eigenvalues --   -0.60218  -0.59320  -0.58631  -0.55521  -0.53167
 Alpha  occ. eigenvalues --   -0.52903  -0.51681  -0.51046  -0.50962  -0.50413
 Alpha  occ. eigenvalues --   -0.44336  -0.42692  -0.35545  -0.34932  -0.34823
 Alpha  occ. eigenvalues --   -0.31070
 Alpha virt. eigenvalues --    0.02998   0.03228   0.03838   0.04323   0.04682
 Alpha virt. eigenvalues --    0.05251   0.05815   0.05867   0.06630   0.07217
 Alpha virt. eigenvalues --    0.08020   0.08401   0.08814   0.09454   0.09651

 Mulliken charges:
               1
     1  C    1.069248
     2  C   -0.088133
     3  C    0.555128
     4  C    0.553056
     5  C   -0.294713
     6  C    0.554896
     7  H   -0.695107
     8  H   -0.587803
     9  H   -0.718638
    10  N   -0.638738
    11  C    0.552048
    12  C    0.277859
    13  C    0.499075
    14  C    0.714134
    15  C    0.626423
    16  C    0.628881
    17  H   -0.585118
    18  H   -0.629383
    19  H   -0.457631
    20  H   -0.459474
    21  H   -0.448448
    22  N    0.079829
    23  O   -0.519814
    24  H   -0.605982
    25  C    0.642261
    26  H    0.107101
    27  H   -0.100669
    28  H   -0.030287
 Sum of Mulliken charges =  -0.00000

 Dipole moment (field-independent basis, Debye):
    X=             -0.4069    Y=             -3.6753    Z=             -0.0562  Tot=              3.6982

 Test job not archived.
 1\1\GINC-SE186\SP\RHF\Aug-CC-pVDZ\C13H12N2O1\OHZDE\08-Apr-2025\0\\#t h
 f aug-cc-pvdz iop(5/13=1,5/36=2,99/5=2) pseudo=read geom=check guess=(
 read,tcheck) scf=(maxcycle=1)\\title\\0,1\C,0,-2.95886,0.133402,-0.971
 158\C,0,-3.365319,-0.685066,0.088845\C,0,-2.44388,-0.950444,1.106531\C
 ,0,-1.161909,-0.411167,1.075244\C,0,-0.775025,0.396477,0.007656\C,0,-1
 .678063,0.67117,-1.018724\H,0,-1.378277,1.303595,-1.844246\H,0,-3.6547
 07,0.352141,-1.774426\H,0,-0.458412,-0.61898,1.87277\N,0,0.551005,0.94
 7917,-0.022593\C,0,1.712683,0.123234,-0.046294\C,0,1.662357,-1.131959,

 Normal termination of Gaussian 16 at Tue Apr  8 23:02:53 2025.
