 Gaussian 16, Revision C.01,

 ----------------------------------------------------------------------
 #t hf aug-cc-pvdz symm=none int=(grid=ultrafine) guess=(read,tcheck) s
 table=(opt,rrhf)
 ----------------------------------------------------------------------
 -----
 title
 -----
 Symbolic Z-matrix:
 Charge =  0 Multiplicity = 1

 SCF Done:  E(RHF) =  -497.289441185     A.U. after   17 cycles
 Normal termination of Gaussian 16 at Tue Apr  8 22:44:59 2025.
 Gaussian 16:  ES64L-G16RevC.01  3-Jul-2019

 ----------------------------------------------------------------------
 #t hf aug-cc-pvdz iop(5/13=1,5/36=2,99/5=2) pseudo=read geom=check gue
 ss=(read,tcheck) scf=(maxcycle=1)
 ----------------------------------------------------------------------
 -----
 title
 -----
 Structure from the checkpoint file:  "BDE49_expt_1437_mol1.chk"
 Charge =  0 Multiplicity = 1

                         Standard orientation:
 ---------------------------------------------------------------------
 Center     Atomic      Atomic             Coordinates (Angstroms)
 Number     Number       Type             X           Y           Z
 ---------------------------------------------------------------------
      1          6           0       -1.708818    1.184748   -0.000000
      2          6           0       -0.843778    2.305111   -0.000000
      3          6           0        0.517373    2.151142   -0.000001
      4          6           0        1.088080    0.849479   -0.000001
      5          6           0        0.232603   -0.294211   -0.000000
      6          6           0       -1.185168   -0.090573   -0.000000
      7          6           0        2.491745    0.642939   -0.000001
      8          6           0        3.022110   -0.624744   -0.000001
      9          6           0        2.170624   -1.751485   -0.000000
     10          6           0        0.804923   -1.590088   -0.000000
     11          1           0        2.598182   -2.747819   -0.000000
     12          1           0        0.146176   -2.448216    0.000001
     13          1           0        3.143631    1.510306   -0.000002
     14          1           0        4.097545   -0.763827   -0.000001
     15          1           0       -1.279634    3.297979   -0.000001
     16          1           0        1.173339    3.014454   -0.000001
     17          1           0       -2.777886    1.346837    0.000001
     18          8           0       -1.929493   -1.231862    0.000001
     19          6           0       -3.344906   -1.119070    0.000002
     20          1           0       -3.704471   -0.597538   -0.893916
     21          1           0       -3.704469   -0.597537    0.893921
     22          1           0       -3.725207   -2.139238    0.000003
 ---------------------------------------------------------------------

 SCF Done:  E(RHF) =  -497.437288382     A.U. after    2 cycles

 The electronic state is 1-A.
 Alpha  occ. eigenvalues --  -20.60310 -11.31560 -11.29954 -11.25376 -11.24854
 Alpha  occ. eigenvalues --  -11.24823 -11.24539 -11.24265 -11.24241 -11.24068
 Alpha  occ. eigenvalues --  -11.23775 -11.23566  -1.37357  -1.16169  -1.09960
 Alpha  occ. eigenvalues --   -1.04352  -1.00589  -0.98244  -0.94463  -0.85013
 Alpha  occ. eigenvalues --   -0.84246  -0.80007  -0.72674  -0.71592  -0.69365
 Alpha  occ. eigenvalues --   -0.66912  -0.65728  -0.64509  -0.60320  -0.60267
 Alpha  occ. eigenvalues --   -0.57920  -0.57279  -0.54514  -0.53639  -0.52561
 Alpha  occ. eigenvalues --   -0.50091  -0.49024  -0.48229  -0.44536  -0.37128
 Alpha  occ. eigenvalues --   -0.32440  -0.28259
 Alpha virt. eigenvalues --    0.03255   0.03768   0.03847   0.04996   0.05193
 Alpha virt. eigenvalues --    0.05795   0.06695   0.07075   0.08162   0.08304
 Alpha virt. eigenvalues --    0.09549   0.09959   0.10867   0.10940   0.11780

 Mulliken charges:
               1
     1  C    0.668760
     2  C    0.112255
     3  C    0.755934
     4  C    0.318823
     5  C    0.834047
     6  C   -0.129203
     7  C    0.873720
     8  C    0.233061
     9  C    0.167264
    10  C    0.366866
    11  H   -0.442681
    12  H   -0.649880
    13  H   -0.562917
    14  H   -0.444547
    15  H   -0.460632
    16  H   -0.582834
    17  H   -0.715123
    18  O   -0.731579
    19  C    0.806986
    20  H   -0.042955
    21  H   -0.042954
    22  H   -0.332409
 Sum of Mulliken charges =  -0.00000

 Dipole moment (field-independent basis, Debye):
    X=             -1.4119    Y=              0.3105    Z=              0.0000  Tot=              1.4457

 Test job not archived.
 1\1\GINC-SE184\SP\RHF\Aug-CC-pVDZ\C11H10O1\OHZDE\08-Apr-2025\0\\#t hf
 aug-cc-pvdz iop(5/13=1,5/36=2,99/5=2) pseudo=read geom=check guess=(re
 ad,tcheck) scf=(maxcycle=1)\\title\\0,1\C,0,-1.708818,1.184748,0.\C,0,
 -0.843778,2.305111,0.\C,0,0.517373,2.151142,-0.000001\C,0,1.08808,0.84
 9479,-0.000001\C,0,0.232603,-0.294211,0.\C,0,-1.185168,-0.090573,0.\C,
 0,2.491745,0.642939,-0.000001\C,0,3.02211,-0.624744,-0.000001\C,0,2.17
 0624,-1.751485,0.\C,0,0.804923,-1.590088,0.\H,0,2.598182,-2.747819,0.\
 H,0,0.146176,-2.448216,0.000001\H,0,3.143631,1.510306,-0.000002\H,0,4.

 Normal termination of Gaussian 16 at Tue Apr  8 22:45:16 2025.
