 Gaussian 16, Revision C.01,

 ----------------------------------------------------------------------
 #t hf aug-cc-pvdz symm=none int=(grid=ultrafine) guess=(read,tcheck) s
 table=(opt,rrhf)
 ----------------------------------------------------------------------
 -----
 title
 -----
 Symbolic Z-matrix:
 Charge =  0 Multiplicity = 1

 SCF Done:  E(RHF) =  -1092.73712536     A.U. after   13 cycles
 Normal termination of Gaussian 16 at Wed Apr  9 00:12:50 2025.
 Gaussian 16:  ES64L-G16RevC.01  3-Jul-2019

 ----------------------------------------------------------------------
 #t hf aug-cc-pvdz iop(5/13=1,5/36=2,99/5=2) pseudo=read geom=check gue
 ss=(read,tcheck) scf=(maxcycle=1)
 ----------------------------------------------------------------------
 -----
 title
 -----
 Structure from the checkpoint file:  "BDE49_nonexpt_2459_mol1.chk"
 Charge =  0 Multiplicity = 1

                         Standard orientation:
 ---------------------------------------------------------------------
 Center     Atomic      Atomic             Coordinates (Angstroms)
 Number     Number       Type             X           Y           Z
 ---------------------------------------------------------------------
      1         14           0       -2.106948   -0.532989    0.294581
      2         14           0       -0.568449    1.158839   -0.285566
      3          1           0       -2.348298   -1.428778   -0.852891
      4          1           0       -3.382283    0.123755    0.676247
      5          1           0       -1.603367   -1.290620    1.461368
      6         16           0        1.387722    0.041973   -0.434724
      7          1           0       -0.470200    2.297426    0.664446
      8          1           0       -0.800095    1.694581   -1.646985
      9          8           0        0.921720   -1.347094   -0.836033
     10          6           0        1.798682   -0.000368    1.357061
     11          1           0        2.037674    1.012108    1.689710
     12          1           0        2.677337   -0.640201    1.449728
     13          1           0        0.975380   -0.422789    1.933654
 ---------------------------------------------------------------------

 SCF Done:  E(RHF) =  -1092.85093333     A.U. after    2 cycles

 The electronic state is 1-A.
 Alpha  occ. eigenvalues --  -93.64033 -69.09765 -69.07232 -20.51612 -11.28177
 Alpha  occ. eigenvalues --   -8.92680  -6.85037  -6.82579  -6.26924  -6.26713
 Alpha  occ. eigenvalues --   -6.26473  -3.95798  -3.95728  -3.95677  -3.93337
 Alpha  occ. eigenvalues --   -3.93332  -3.93319  -1.28454  -1.02107  -0.85146
 Alpha  occ. eigenvalues --   -0.74337  -0.67388  -0.62359  -0.61526  -0.58755
 Alpha  occ. eigenvalues --   -0.55482  -0.53101  -0.50972  -0.48802  -0.48376
 Alpha  occ. eigenvalues --   -0.42201  -0.41492  -0.36006
 Alpha virt. eigenvalues --    0.03103   0.03889   0.04434   0.05530   0.05994
 Alpha virt. eigenvalues --    0.06559   0.07209   0.07515   0.08280   0.08891
 Alpha virt. eigenvalues --    0.09374   0.09740   0.10252   0.11257   0.11631

 Mulliken charges:
               1
     1  Si  -0.121141
     2  Si   0.233751
     3  H    0.124626
     4  H    0.039132
     5  H    0.068751
     6  S    0.709563
     7  H    0.053687
     8  H    0.026922
     9  O   -1.035714
    10  C    0.122817
    11  H   -0.073440
    12  H   -0.055998
    13  H   -0.092956
 Sum of Mulliken charges =   0.00000

 Dipole moment (field-independent basis, Debye):
    X=             -0.2647    Y=              3.4908    Z=              2.6963  Tot=              4.4188

 Test job not archived.
 1\1\GINC-SE402\SP\RHF\Aug-CC-pVDZ\C1H8O1S1Si2\OHZDE\09-Apr-2025\0\\#t
 hf aug-cc-pvdz iop(5/13=1,5/36=2,99/5=2) pseudo=read geom=check guess=
 (read,tcheck) scf=(maxcycle=1)\\title\\0,1\Si,0,-2.106948,-0.532989,0.
 294581\Si,0,-0.568449,1.158839,-0.285566\H,0,-2.348298,-1.428778,-0.85
 2891\H,0,-3.382283,0.123755,0.676247\H,0,-1.603367,-1.29062,1.461368\S
 ,0,1.387722,0.041973,-0.434724\H,0,-0.4702,2.297426,0.664446\H,0,-0.80
 0095,1.694581,-1.646985\O,0,0.92172,-1.347094,-0.836033\C,0,1.798682,-
 0.000368,1.357061\H,0,2.037674,1.012108,1.68971\H,0,2.677337,-0.640201

 Normal termination of Gaussian 16 at Wed Apr  9 00:12:54 2025.
