 Gaussian 16, Revision C.01,

 ----------------------------------------------------------------------
 #t hf aug-cc-pvdz symm=none int=(grid=ultrafine) guess=(read,tcheck) s
 table=(opt,rrhf)
 ----------------------------------------------------------------------
 -----
 title
 -----
 Symbolic Z-matrix:
 Charge =  0 Multiplicity = 1

 SCF Done:  E(RHF) =  -292.234638715     A.U. after   13 cycles
 Normal termination of Gaussian 16 at Wed Apr  9 00:25:55 2025.
 Gaussian 16:  ES64L-G16RevC.01  3-Jul-2019

 ----------------------------------------------------------------------
 #t hf aug-cc-pvdz iop(5/13=1,5/36=2,99/5=2) pseudo=read geom=check gue
 ss=(read,tcheck) scf=(maxcycle=1)
 ----------------------------------------------------------------------
 -----
 title
 -----
 Structure from the checkpoint file:  "BDE49_nonexpt_308_mol1.chk"
 Charge =  0 Multiplicity = 1

                         Standard orientation:
 ---------------------------------------------------------------------
 Center     Atomic      Atomic             Coordinates (Angstroms)
 Number     Number       Type             X           Y           Z
 ---------------------------------------------------------------------
      1          6           0       -0.319092   -0.486421   -0.177480
      2          5           0        1.170049   -0.019679   -0.035611
      3          8           0        1.546062    1.295273   -0.040305
      4          8           0        2.194563   -0.914222    0.112823
      5          6           0       -1.382297    0.276257    0.104590
      6          1           0       -0.522243   -1.514274   -0.487398
      7          6           0       -2.820255   -0.138618    0.024078
      8          1           0       -1.221562    1.301622    0.444511
      9          1           0       -2.922898   -1.170587   -0.318145
     10          1           0       -3.376412    0.509893   -0.662376
     11          1           0       -3.309076   -0.048131    1.000650
     12          1           0        0.817726    1.887093   -0.240637
     13          1           0        1.889091   -1.822940    0.154178
 ---------------------------------------------------------------------

 SCF Done:  E(RHF) =  -292.333317036     A.U. after    2 cycles

 The electronic state is 1-A.
 Alpha  occ. eigenvalues --  -20.57267 -20.57136 -11.26884 -11.24675 -11.22311
 Alpha  occ. eigenvalues --   -7.65304  -1.33360  -1.30174  -1.07153  -0.94407
 Alpha  occ. eigenvalues --   -0.79910  -0.77297  -0.68288  -0.67797  -0.61803
 Alpha  occ. eigenvalues --   -0.58924  -0.58262  -0.58041  -0.56993  -0.52596
 Alpha  occ. eigenvalues --   -0.51195  -0.47385  -0.37767
 Alpha virt. eigenvalues --    0.02947   0.03977   0.04532   0.05110   0.06553
 Alpha virt. eigenvalues --    0.06980   0.07353   0.08097   0.08821   0.09654
 Alpha virt. eigenvalues --    0.10265   0.11061   0.12579   0.14305   0.14565

 Mulliken charges:
               1
     1  C    0.470642
     2  B    0.786320
     3  O   -0.476893
     4  O   -0.536672
     5  C    0.165087
     6  H   -0.385229
     7  C    0.097833
     8  H   -0.513942
     9  H   -0.106040
    10  H    0.040791
    11  H    0.049483
    12  H    0.218200
    13  H    0.190421
 Sum of Mulliken charges =   0.00000

 Dipole moment (field-independent basis, Debye):
    X=             -3.8679    Y=             -0.7691    Z=             -0.2599  Tot=              3.9522

 Test job not archived.
 1\1\GINC-SE458\SP\RHF\Aug-CC-pVDZ\C3H7B1O2\OHZDE\09-Apr-2025\0\\#t hf
 aug-cc-pvdz iop(5/13=1,5/36=2,99/5=2) pseudo=read geom=check guess=(re
 ad,tcheck) scf=(maxcycle=1)\\title\\0,1\C,0,-0.319092,-0.486421,-0.177
 48\B,0,1.170049,-0.019679,-0.035611\O,0,1.546062,1.295273,-0.040305\O,
 0,2.194563,-0.914222,0.112823\C,0,-1.382297,0.276257,0.10459\H,0,-0.52
 2243,-1.514274,-0.487398\C,0,-2.820255,-0.138618,0.024078\H,0,-1.22156
 2,1.301622,0.444511\H,0,-2.922898,-1.170587,-0.318145\H,0,-3.376412,0.
 509893,-0.662376\H,0,-3.309076,-0.048131,1.00065\H,0,0.817726,1.887093

 Normal termination of Gaussian 16 at Wed Apr  9 00:25:58 2025.
