 Gaussian 16, Revision C.01,

 ----------------------------------------------------------------------
 #t hf aug-cc-pvdz symm=none int=(grid=ultrafine) guess=(read,tcheck) s
 table=(opt,rrhf)
 ----------------------------------------------------------------------
 -----
 title
 -----
 Symbolic Z-matrix:
 Charge =  0 Multiplicity = 1

 SCF Done:  E(RHF) =  -598.921780316     A.U. after   14 cycles
 Normal termination of Gaussian 16 at Tue Apr  8 23:12:23 2025.
 Gaussian 16:  ES64L-G16RevC.01  3-Jul-2019

 ----------------------------------------------------------------------
 #t hf aug-cc-pvdz iop(5/13=1,5/36=2,99/5=2) pseudo=read geom=check gue
 ss=(read,tcheck) scf=(maxcycle=1)
 ----------------------------------------------------------------------
 -----
 title
 -----
 Structure from the checkpoint file:  "BDE49_expt_812_mol1.chk"
 Charge =  0 Multiplicity = 1

                         Standard orientation:
 ---------------------------------------------------------------------
 Center     Atomic      Atomic             Coordinates (Angstroms)
 Number     Number       Type             X           Y           Z
 ---------------------------------------------------------------------
      1         14           0        1.639442   -0.437272   -0.000021
      2          6           0       -0.225500   -0.169203   -0.000007
      3          6           0       -0.778301    1.122789    0.000048
      4          6           0       -2.156413    1.321584    0.000059
      5          6           0       -3.018457    0.225903    0.000015
      6          6           0       -2.494474   -1.064232   -0.000041
      7          6           0       -1.113494   -1.256114   -0.000052
      8          1           0       -0.721535   -2.268417   -0.000095
      9          1           0       -0.126908    1.992329    0.000084
     10          1           0       -3.159944   -1.920803   -0.000076
     11          6           0        2.421294    0.305728   -1.543000
     12          1           0        2.251611    1.385667   -1.592870
     13          1           0        2.001097   -0.139356   -2.448890
     14          1           0        3.502493    0.137367   -1.553456
     15          1           0       -2.558730    2.328929    0.000103
     16          1           0       -4.092186    0.378248    0.000023
     17          6           0        2.421297    0.305599    1.543018
     18          1           0        1.860989   -1.907692   -0.000083
     19          1           0        2.251613    1.385533    1.592980
     20          1           0        3.502496    0.137237    1.553457
     21          1           0        2.001103   -0.139562    2.448872
 ---------------------------------------------------------------------

 SCF Done:  E(RHF) =  -599.040535939     A.U. after    2 cycles

 The electronic state is 1-A.
 Alpha  occ. eigenvalues --  -69.05180 -11.24730 -11.24693 -11.24578 -11.24417
 Alpha  occ. eigenvalues --  -11.24334 -11.22819 -11.21117 -11.21113  -6.80431
 Alpha  occ. eigenvalues --   -3.91205  -3.91178  -3.91147  -1.13802  -1.00805
 Alpha  occ. eigenvalues --   -1.00631  -0.94644  -0.91925  -0.82442  -0.81935
 Alpha  occ. eigenvalues --   -0.71265  -0.65231  -0.62751  -0.62052  -0.59019
 Alpha  occ. eigenvalues --   -0.57054  -0.56469  -0.54697  -0.54488  -0.53729
 Alpha  occ. eigenvalues --   -0.50428  -0.49437  -0.44930  -0.43921  -0.43349
 Alpha  occ. eigenvalues --   -0.33936  -0.33642
 Alpha virt. eigenvalues --    0.03016   0.03931   0.04117   0.05078   0.05341
 Alpha virt. eigenvalues --    0.05635   0.06650   0.07132   0.07348   0.07813
 Alpha virt. eigenvalues --    0.07824   0.09695   0.09771   0.10092   0.10935

 Mulliken charges:
               1
     1  Si   1.141703
     2  C   -0.730107
     3  C    0.765069
     4  C    0.495932
     5  C    0.772439
     6  C    0.622256
     7  C    0.459467
     8  H   -0.649459
     9  H   -0.647804
    10  H   -0.453729
    11  C    0.444060
    12  H   -0.225968
    13  H   -0.359465
    14  H   -0.247766
    15  H   -0.447030
    16  H   -0.448355
    17  C    0.444061
    18  H   -0.102105
    19  H   -0.225970
    20  H   -0.247766
    21  H   -0.359463
 Sum of Mulliken charges =  -0.00000

 Dipole moment (field-independent basis, Debye):
    X=             -0.0907    Y=              0.4980    Z=              0.0000  Tot=              0.5062

 Test job not archived.
 1\1\GINC-SE128\SP\RHF\Aug-CC-pVDZ\C8H12Si1\OHZDE\08-Apr-2025\0\\#t hf
 aug-cc-pvdz iop(5/13=1,5/36=2,99/5=2) pseudo=read geom=check guess=(re
 ad,tcheck) scf=(maxcycle=1)\\title\\0,1\Si,0,1.639442,-0.437272,-0.000
 021\C,0,-0.2255,-0.169203,-0.000007\C,0,-0.778301,1.122789,0.000048\C,
 0,-2.156413,1.321584,0.000059\C,0,-3.018457,0.225903,0.000015\C,0,-2.4
 94474,-1.064232,-0.000041\C,0,-1.113494,-1.256114,-0.000052\H,0,-0.721
 535,-2.268417,-0.000095\H,0,-0.126908,1.992329,0.000084\H,0,-3.159944,
 -1.920803,-0.000076\C,0,2.421294,0.305728,-1.543\H,0,2.251611,1.385667

 Normal termination of Gaussian 16 at Tue Apr  8 23:12:36 2025.
