 Gaussian 16, Revision C.01,

 ----------------------------------------------------------------------
 #t hf aug-cc-pvdz symm=none int=(grid=ultrafine) guess=(read,tcheck) s
 table=opt
 ----------------------------------------------------------------------
 -----
 title
 -----
 Symbolic Z-matrix:
 Charge =  0 Multiplicity = 2

 SCF Done:  E(UHF) =  -2063.93394892     A.U. after   24 cycles
 Normal termination of Gaussian 16 at Tue Apr  8 23:08:15 2025.
 Gaussian 16:  ES64L-G16RevC.01  3-Jul-2019

 ----------------------------------------------------------------------
 #t hf aug-cc-pvdz iop(5/13=1,5/36=2,99/5=2) pseudo=read geom=check gue
 ss=(read,tcheck) scf=(maxcycle=1)
 ----------------------------------------------------------------------
 -----
 title
 -----
 Structure from the checkpoint file:  "BDE49_expt_626_mol2.chk"
 Charge =  0 Multiplicity = 2

                         Standard orientation:
 ---------------------------------------------------------------------
 Center     Atomic      Atomic             Coordinates (Angstroms)
 Number     Number       Type             X           Y           Z
 ---------------------------------------------------------------------
      1          6           0       -0.618234    0.096700    0.136294
      2          8           0       -1.129235    1.461662   -0.015631
      3          8           0       -1.192682    1.831186   -1.277858
      4          6           0        0.752576   -0.018361   -0.575765
      5         17           0       -0.540186   -0.131629    1.882073
      6         17           0        1.443936   -1.652534   -0.427743
      7          1           0        0.588977    0.181475   -1.629882
      8         17           0        1.892345    1.220739    0.023435
      9         17           0       -1.785489   -1.024475   -0.618081
 ---------------------------------------------------------------------

 SCF Done:  E(UHF) =  -2064.07612628     A.U. after    2 cycles

 The electronic state is 2-A.
 Alpha  occ. eigenvalues -- -103.70672-103.70453-103.69689-103.69508 -20.73721
 Alpha  occ. eigenvalues --  -20.72993 -11.48324 -11.41826 -10.73993 -10.73770
 Alpha  occ. eigenvalues --  -10.72977 -10.72790  -8.39718  -8.39508  -8.39371
 Alpha  occ. eigenvalues --   -8.39367  -8.39157  -8.39147  -8.38698  -8.38515
 Alpha  occ. eigenvalues --   -8.38371  -8.38360  -8.38186  -8.38177  -1.57411
 Alpha  occ. eigenvalues --   -1.30451  -1.23757  -1.19635  -1.17706  -1.16185
 Alpha  occ. eigenvalues --   -0.99925  -0.86128  -0.82483  -0.77659  -0.75529
 Alpha  occ. eigenvalues --   -0.69946  -0.66386  -0.63012  -0.61030  -0.57438
 Alpha  occ. eigenvalues --   -0.56467  -0.53195  -0.51831  -0.51229  -0.50093
 Alpha  occ. eigenvalues --   -0.49905  -0.48685  -0.47896  -0.47380
 Alpha virt. eigenvalues --    0.04439   0.06436   0.06907   0.08033   0.08795
 Alpha virt. eigenvalues --    0.09937   0.11165   0.11802   0.12963   0.13617
 Alpha virt. eigenvalues --    0.13959   0.15047   0.15404   0.16343   0.17107

  Beta  occ. eigenvalues -- -103.70678-103.70446-103.69691-103.69510 -20.72252
  Beta  occ. eigenvalues --  -20.69562 -11.48398 -11.41813 -10.73999 -10.73764
  Beta  occ. eigenvalues --  -10.72978 -10.72793  -8.39735  -8.39470  -8.39381
  Beta  occ. eigenvalues --   -8.39372  -8.39151  -8.39149  -8.38707  -8.38518
  Beta  occ. eigenvalues --   -8.38372  -8.38360  -8.38191  -8.38179  -1.51522
  Beta  occ. eigenvalues --   -1.28360  -1.22896  -1.18153  -1.16268  -1.12171
  Beta  occ. eigenvalues --   -0.99384  -0.84607  -0.76748  -0.73458  -0.71753
  Beta  occ. eigenvalues --   -0.66903  -0.63543  -0.61087  -0.58361  -0.54981
  Beta  occ. eigenvalues --   -0.52689  -0.51606  -0.51147  -0.50058  -0.49870
  Beta  occ. eigenvalues --   -0.48692  -0.47789  -0.47295
  Beta virt. eigenvalues --    0.04335   0.05144   0.06480   0.06925   0.08057
  Beta virt. eigenvalues --    0.08810   0.10145   0.11225   0.12009   0.13059
  Beta virt. eigenvalues --    0.13884   0.14163   0.15147   0.15439   0.16586

 Mulliken charges and spin densities:
               1          2
     1  C    0.580868  -0.004212
     2  O   -0.423149   0.046463
     3  O   -0.097408   0.965031
     4  C   -0.202787   0.006735
     5  Cl  -0.031312  -0.005342
     6  Cl  -0.003681  -0.001449
     7  H    0.223148  -0.006644
     8  Cl   0.002921  -0.002464
     9  Cl  -0.048600   0.001882
 Sum of Mulliken charges =  -0.00000   1.00000

 Dipole moment (field-independent basis, Debye):
    X=              0.1155    Y=             -0.5867    Z=             -0.7630  Tot=              0.9694
                          Isotropic Fermi Contact Couplings
        Atom                 a.u.       MegaHertz       Gauss      10(-4) cm-1
     1  C(13)             -0.01336     -15.01506      -5.35775      -5.00849
     2  O(17)              0.07822     -47.41771     -16.91982     -15.81685
     3  O(17)              0.29889    -181.18350     -64.65078     -60.43631
     4  C(13)              0.00013       0.14914       0.05322       0.04975
     5  Cl(35)            -0.00294      -1.28912      -0.45999      -0.43000
     6  Cl(35)            -0.00003      -0.01104      -0.00394      -0.00368
     7  H(1)               0.00004       0.16336       0.05829       0.05449
     8  Cl(35)            -0.00161      -0.70597      -0.25191      -0.23549

 Normal termination of Gaussian 16 at Tue Apr  8 23:08:21 2025.
