 Gaussian 16, Revision C.01,

 ----------------------------------------------------------------------
 #t hf aug-cc-pvdz symm=none int=(grid=ultrafine) guess=(read,tcheck) s
 table=opt
 ----------------------------------------------------------------------
 -----
 title
 -----
 Symbolic Z-matrix:
 Charge =  0 Multiplicity = 2

 SCF Done:  E(UHF) =  -312.185769614     A.U. after   17 cycles
 Normal termination of Gaussian 16 at Tue Apr  8 23:18:48 2025.
 Gaussian 16:  ES64L-G16RevC.01  3-Jul-2019

 ----------------------------------------------------------------------
 #t hf aug-cc-pvdz iop(5/13=1,5/36=2,99/5=2) pseudo=read geom=check gue
 ss=(read,tcheck) scf=(maxcycle=1)
 ----------------------------------------------------------------------
 -----
 title
 -----
 Structure from the checkpoint file:  "BDE49_nonexpt_1109_mol2.chk"
 Charge =  0 Multiplicity = 2

                         Standard orientation:
 ---------------------------------------------------------------------
 Center     Atomic      Atomic             Coordinates (Angstroms)
 Number     Number       Type             X           Y           Z
 ---------------------------------------------------------------------
      1          8           0       -0.760611    1.107884    0.000000
      2          6           0        0.206327    0.205653    0.000000
      3          9           0        0.206327   -0.606513    1.091013
      4          9           0        0.206327   -0.606513   -1.091013
      5          1           0        1.133052    0.820253    0.000000
 ---------------------------------------------------------------------

 SCF Done:  E(UHF) =  -312.297623583     A.U. after    2 cycles

 The electronic state is 2-A'.
 Alpha  occ. eigenvalues --  -26.16317 -26.16308 -20.70699 -11.50149  -1.73417
 Alpha  occ. eigenvalues --   -1.68355  -1.46334  -0.99964  -0.87847  -0.85831
 Alpha  occ. eigenvalues --   -0.83096  -0.75965  -0.75431  -0.72029  -0.70521
 Alpha  occ. eigenvalues --   -0.63210  -0.60428
 Alpha virt. eigenvalues --    0.03473   0.08446   0.08860   0.08864   0.15617
 Alpha virt. eigenvalues --    0.19862   0.21471   0.22210   0.24219   0.25057
 Alpha virt. eigenvalues --    0.29746   0.31262   0.31421   0.32048   0.32400

  Beta  occ. eigenvalues --  -26.16248 -26.16238 -20.66643 -11.50449  -1.73068
  Beta  occ. eigenvalues --   -1.68099  -1.33461  -0.97606  -0.85218  -0.84869
  Beta  occ. eigenvalues --   -0.81088  -0.75397  -0.71877  -0.71093  -0.62024
  Beta  occ. eigenvalues --   -0.58612
  Beta virt. eigenvalues --    0.00895   0.03649   0.08578   0.08915   0.09547
  Beta virt. eigenvalues --    0.15782   0.20006   0.22238   0.23746   0.24261
  Beta virt. eigenvalues --    0.25427   0.30061   0.31523   0.32252   0.32383

 Mulliken charges and spin densities:
               1          2
     1  O   -0.285047   1.040683
     2  C    1.061375  -0.128159
     3  F   -0.320158   0.011924
     4  F   -0.320158   0.011924
     5  H   -0.136012   0.063627
 Sum of Mulliken charges =  -0.00000   1.00000

 Dipole moment (field-independent basis, Debye):
    X=              1.1610    Y=              1.3872    Z=             -0.0000  Tot=              1.8089
                          Isotropic Fermi Contact Couplings
        Atom                 a.u.       MegaHertz       Gauss      10(-4) cm-1
     1  O(17)              0.27569    -167.12374     -59.63391     -55.74648
     2  C(13)             -0.04427     -49.77130     -17.75964     -16.60192
     3  F(19)              0.00848      35.66715      12.72692      11.89728
     4  F(19)              0.00848      35.66715      12.72692      11.89728
     5  H(1)               0.02980     133.19762      47.52822      44.42994
 --------------------------------------------------------
       Center         ----  Spin Dipole Couplings  ----
                      3XX-RR        3YY-RR        3ZZ-RR

 Normal termination of Gaussian 16 at Tue Apr  8 23:18:49 2025.
