 Gaussian 16, Revision C.01,

 ----------------------------------------------------------------------
 #t hf aug-cc-pvdz symm=none int=(grid=ultrafine) guess=(read,tcheck) s
 table=(opt,rrhf)
 ----------------------------------------------------------------------
 -----
 title
 -----
 Symbolic Z-matrix:
 Charge =  0 Multiplicity = 1

 SCF Done:  E(RHF) =  -805.627855806     A.U. after   14 cycles
 Normal termination of Gaussian 16 at Wed Apr  9 00:51:34 2025.
 Gaussian 16:  ES64L-G16RevC.01  3-Jul-2019

 ----------------------------------------------------------------------
 #t hf aug-cc-pvdz iop(5/13=1,5/36=2,99/5=2) pseudo=read geom=check gue
 ss=(read,tcheck) scf=(maxcycle=1)
 ----------------------------------------------------------------------
 -----
 title
 -----
 Structure from the checkpoint file:  "BDE49_nonexpt_984_mol1.chk"
 Charge =  0 Multiplicity = 1

                         Standard orientation:
 ---------------------------------------------------------------------
 Center     Atomic      Atomic             Coordinates (Angstroms)
 Number     Number       Type             X           Y           Z
 ---------------------------------------------------------------------
      1          7           0        1.509765    0.158502   -0.000109
      2         16           0        0.000000   -0.959577   -0.000026
      3          7           0       -1.509765    0.158502    0.000111
      4          8           0        2.504311   -0.526223    0.000340
      5          8           0        1.393249    1.347111   -0.000455
      6          8           0       -2.504311   -0.526223   -0.000290
      7          8           0       -1.393249    1.347111    0.000456
 ---------------------------------------------------------------------

 SCF Done:  E(RHF) =  -805.775593041     A.U. after    2 cycles

 The electronic state is 1-A.
 Alpha  occ. eigenvalues --  -93.70202 -20.68291 -20.68290 -20.67722 -20.67722
 Alpha  occ. eigenvalues --  -15.98888 -15.98887  -8.99183  -6.33227  -6.32935
 Alpha  occ. eigenvalues --   -6.32429  -1.61935  -1.61499  -1.44592  -1.44241
 Alpha  occ. eigenvalues --   -1.11626  -0.97125  -0.89208  -0.83910  -0.79666
 Alpha  occ. eigenvalues --   -0.79264  -0.79228  -0.78067  -0.74755  -0.59282
 Alpha  occ. eigenvalues --   -0.56898  -0.53558  -0.53017  -0.51630  -0.51248
 Alpha  occ. eigenvalues --   -0.47927
 Alpha virt. eigenvalues --    0.03027   0.03310   0.03592   0.04745   0.08020
 Alpha virt. eigenvalues --    0.08751   0.09438   0.10424   0.13003   0.14860
 Alpha virt. eigenvalues --    0.16251   0.16830   0.16850   0.17064   0.22614

 Mulliken charges:
               1
     1  N    0.348580
     2  S    1.078546
     3  N    0.348580
     4  O   -0.474741
     5  O   -0.413111
     6  O   -0.474741
     7  O   -0.413111
 Sum of Mulliken charges =  -0.00000

 Dipole moment (field-independent basis, Debye):
    X=             -0.0000    Y=             -2.1477    Z=             -0.0001  Tot=              2.1477

 Test job not archived.
 1\1\GINC-SE128\SP\RHF\Aug-CC-pVDZ\N2O4S1\OHZDE\09-Apr-2025\0\\#t hf au
 g-cc-pvdz iop(5/13=1,5/36=2,99/5=2) pseudo=read geom=check guess=(read
 ,tcheck) scf=(maxcycle=1)\\title\\0,1\N,0,-1.509765,-0.158502,-0.00010
 9\S,0,0.,0.959577,-0.000026\N,0,1.509765,-0.158502,0.000111\O,0,-2.504
 311,0.526223,0.00034\O,0,-1.393249,-1.347111,-0.000455\O,0,2.504311,0.
 526223,-0.00029\O,0,1.393249,-1.347111,0.000456\\Version=ES64L-G16RevC
 .01\State=1-A\HF=-805.775593\RMSD=4.314e-03\Dipole=0.,0.8449549,-0.000
 0382\Quadrupole=-5.3417943,0.9205076,4.4212867,0.,0.0013636,-0.0000788

 Normal termination of Gaussian 16 at Wed Apr  9 00:51:37 2025.
