 Gaussian 16, Revision C.01,

 ----------------------------------------------------------------------
 #t hf aug-cc-pvdz symm=none int=(grid=ultrafine) guess=(read,tcheck) s
 table=(opt,rrhf)
 ----------------------------------------------------------------------
 -----
 title
 -----
 Symbolic Z-matrix:
 Charge =  0 Multiplicity = 1

 SCF Done:  E(RHF) =  -647.728471447     A.U. after   15 cycles
 Normal termination of Gaussian 16 at Wed Apr  9 00:05:53 2025.
 Gaussian 16:  ES64L-G16RevC.01  3-Jul-2019

 ----------------------------------------------------------------------
 #t hf aug-cc-pvdz iop(5/13=1,5/36=2,99/5=2) pseudo=read geom=check gue
 ss=(read,tcheck) scf=(maxcycle=1)
 ----------------------------------------------------------------------
 -----
 title
 -----
 Structure from the checkpoint file:  "BDE49_nonexpt_2258_mol1.chk"
 Charge =  0 Multiplicity = 1

                         Standard orientation:
 ---------------------------------------------------------------------
 Center     Atomic      Atomic             Coordinates (Angstroms)
 Number     Number       Type             X           Y           Z
 ---------------------------------------------------------------------
      1          8           0        0.589518   -0.000079   -0.919369
      2          7           0        1.543704   -0.000044    0.093955
      3          8           0        1.119720    0.000105    1.236032
      4          8           0        2.679589   -0.000033   -0.282251
      5         14           0       -1.099665   -0.000018   -0.506442
      6          6           0       -1.568490   -1.566018    0.387289
      7          1           0       -1.205870   -2.446523   -0.149688
      8          1           0       -2.659628   -1.638603    0.444883
      9          1           0       -1.168981   -1.588184    1.402533
     10          6           0       -1.568406    1.566087    0.387147
     11          1           0       -2.659540    1.638734    0.444738
     12          1           0       -1.205741    2.446525   -0.149909
     13          1           0       -1.168895    1.588323    1.402389
     14          1           0       -1.631214   -0.000068   -1.884341
 ---------------------------------------------------------------------

 SCF Done:  E(RHF) =  -647.872947572     A.U. after    2 cycles

 The electronic state is 1-A.
 Alpha  occ. eigenvalues --  -69.11533 -20.66005 -20.64827 -20.64090 -15.99182
 Alpha  occ. eigenvalues --  -11.23329 -11.23324  -6.86317  -3.97241  -3.97052
 Alpha  occ. eigenvalues --   -3.97011  -1.61041  -1.41340  -1.36333  -0.97785
 Alpha  occ. eigenvalues --   -0.94529  -0.92839  -0.82301  -0.78594  -0.78147
 Alpha  occ. eigenvalues --   -0.68329  -0.62049  -0.59482  -0.58845  -0.57121
 Alpha  occ. eigenvalues --   -0.56953  -0.55820  -0.54807  -0.53209  -0.50632
 Alpha  occ. eigenvalues --   -0.47620  -0.46202
 Alpha virt. eigenvalues --    0.02724   0.04226   0.04742   0.05142   0.06691
 Alpha virt. eigenvalues --    0.07144   0.07289   0.08017   0.08157   0.10178
 Alpha virt. eigenvalues --    0.10200   0.13159   0.14033   0.14663   0.15207

 Mulliken charges:
               1
     1  O   -0.738922
     2  N    0.816147
     3  O   -0.454214
     4  O   -0.419789
     5  Si   1.575576
     6  C    0.317633
     7  H   -0.282886
     8  H   -0.236205
     9  H   -0.164736
    10  C    0.317636
    11  H   -0.236211
    12  H   -0.282886
    13  H   -0.164728
    14  H   -0.046415
 Sum of Mulliken charges =  -0.00000

 Dipole moment (field-independent basis, Debye):
    X=             -3.7503    Y=             -0.0001    Z=             -0.0269  Tot=              3.7503

 Test job not archived.
 1\1\GINC-SE331\SP\RHF\Aug-CC-pVDZ\C2H7N1O3Si1\OHZDE\09-Apr-2025\0\\#t
 hf aug-cc-pvdz iop(5/13=1,5/36=2,99/5=2) pseudo=read geom=check guess=
 (read,tcheck) scf=(maxcycle=1)\\title\\0,1\O,0,0.589518,-0.000079,-0.9
 19369\N,0,1.543704,-0.000044,0.093955\O,0,1.11972,0.000105,1.236032\O,
 0,2.679589,-0.000033,-0.282251\Si,0,-1.099665,-0.000018,-0.506442\C,0,
 -1.56849,-1.566018,0.387289\H,0,-1.20587,-2.446523,-0.149688\H,0,-2.65
 9628,-1.638603,0.444883\H,0,-1.168981,-1.588184,1.402533\C,0,-1.568406
 ,1.566087,0.387147\H,0,-2.65954,1.638734,0.444738\H,0,-1.205741,2.4465

 Normal termination of Gaussian 16 at Wed Apr  9 00:05:58 2025.
