 Gaussian 16, Revision C.01,

 ----------------------------------------------------------------------
 #t hf aug-cc-pvdz symm=none int=(grid=ultrafine) guess=(read,tcheck) s
 table=(opt,rrhf)
 ----------------------------------------------------------------------
 -----
 title
 -----
 Symbolic Z-matrix:
 Charge =  0 Multiplicity = 1

 SCF Done:  E(RHF) =  -844.971275976     A.U. after   12 cycles
 Normal termination of Gaussian 16 at Wed Apr  9 00:14:12 2025.
 Gaussian 16:  ES64L-G16RevC.01  3-Jul-2019

 ----------------------------------------------------------------------
 #t hf aug-cc-pvdz iop(5/13=1,5/36=2,99/5=2) pseudo=read geom=check gue
 ss=(read,tcheck) scf=(maxcycle=1)
 ----------------------------------------------------------------------
 -----
 title
 -----
 Structure from the checkpoint file:  "BDE49_nonexpt_2499_mol1.chk"
 Charge =  0 Multiplicity = 1

                         Standard orientation:
 ---------------------------------------------------------------------
 Center     Atomic      Atomic             Coordinates (Angstroms)
 Number     Number       Type             X           Y           Z
 ---------------------------------------------------------------------
      1         14           0        0.836129   -1.010647    0.456614
      2          6           0        1.872664    0.557105    0.609574
      3          6           0        2.398475    1.126719   -0.717976
      4          1           0        2.710598    0.306651    1.273986
      5          1           0        1.287859    1.313638    1.145261
      6          1           0        1.578124    1.392411   -1.389507
      7          1           0        3.027570    0.400961   -1.241427
      8         16           0       -0.950526   -0.849346   -0.745453
      9          6           0       -2.102599    0.093707    0.359898
     10          6           0       -2.023361    1.609042    0.204051
     11          1           0       -1.922737   -0.214766    1.391536
     12          1           0       -3.095044   -0.268723    0.085361
     13          1           0       -1.044526    1.993870    0.498112
     14          1           0       -2.779128    2.092322    0.832585
     15          1           0       -2.201337    1.906051   -0.831664
     16          1           0        2.999912    2.025558   -0.554699
     17          1           0        0.447964   -1.462974    1.816902
     18          1           0        1.622276   -2.065856   -0.225087
 ---------------------------------------------------------------------

 SCF Done:  E(RHF) =  -845.065174303     A.U. after    2 cycles

 The electronic state is 1-A.
 Alpha  occ. eigenvalues --  -93.51191 -69.07860 -11.27551 -11.23762 -11.23162
 Alpha  occ. eigenvalues --  -11.22742  -8.81097  -6.82911  -6.15226  -6.15022
 Alpha  occ. eigenvalues --   -6.14789  -3.93717  -3.93658  -3.93610  -1.05315
 Alpha  occ. eigenvalues --   -1.01603  -0.92470  -0.84912  -0.81198  -0.67160
 Alpha  occ. eigenvalues --   -0.63245  -0.60760  -0.59002  -0.57610  -0.54450
 Alpha  occ. eigenvalues --   -0.52462  -0.51866  -0.50115  -0.48407  -0.44959
 Alpha  occ. eigenvalues --   -0.44293  -0.40275  -0.34617
 Alpha virt. eigenvalues --    0.03232   0.04207   0.04644   0.04809   0.06175
 Alpha virt. eigenvalues --    0.06209   0.06493   0.07092   0.07270   0.08644
 Alpha virt. eigenvalues --    0.09008   0.09555   0.09959   0.10840   0.11788

 Mulliken charges:
               1
     1  Si   0.414146
     2  C    0.290873
     3  C    0.219421
     4  H   -0.178928
     5  H   -0.206573
     6  H   -0.130701
     7  H   -0.108236
     8  S   -0.219723
     9  C    0.008441
    10  C    0.314891
    11  H   -0.162980
    12  H   -0.043607
    13  H   -0.199808
    14  H   -0.056683
    15  H   -0.071392
    16  H   -0.096817
    17  H    0.135489
    18  H    0.092186
 Sum of Mulliken charges =   0.00000

 Dipole moment (field-independent basis, Debye):
    X=              0.0503    Y=              1.5450    Z=              1.4208  Tot=              2.0996

 Test job not archived.
 1\1\GINC-SE080\SP\RHF\Aug-CC-pVDZ\C4H12S1Si1\OHZDE\09-Apr-2025\0\\#t h
 f aug-cc-pvdz iop(5/13=1,5/36=2,99/5=2) pseudo=read geom=check guess=(
 read,tcheck) scf=(maxcycle=1)\\title\\0,1\Si,0,0.836129,-1.010647,0.45
 6614\C,0,1.872664,0.557105,0.609574\C,0,2.398475,1.126719,-0.717976\H,
 0,2.710598,0.306651,1.273986\H,0,1.287859,1.313638,1.145261\H,0,1.5781
 24,1.392411,-1.389507\H,0,3.02757,0.400961,-1.241427\S,0,-0.950526,-0.
 849346,-0.745453\C,0,-2.102599,0.093707,0.359898\C,0,-2.023361,1.60904
 2,0.204051\H,0,-1.922737,-0.214766,1.391536\H,0,-3.095044,-0.268724,0.

 Normal termination of Gaussian 16 at Wed Apr  9 00:14:19 2025.
