 Gaussian 16, Revision C.01,

 ----------------------------------------------------------------------
 #t hf aug-cc-pvdz symm=none int=(grid=ultrafine) guess=(read,tcheck) s
 table=(opt,rrhf)
 ----------------------------------------------------------------------
 -----
 title
 -----
 Symbolic Z-matrix:
 Charge =  0 Multiplicity = 1

 SCF Done:  E(RHF) =  -1617.21939827     A.U. after   16 cycles
 Normal termination of Gaussian 16 at Tue Apr  8 23:25:02 2025.
 Gaussian 16:  ES64L-G16RevC.01  3-Jul-2019

 ----------------------------------------------------------------------
 #t hf aug-cc-pvdz iop(5/13=1,5/36=2,99/5=2) pseudo=read geom=check gue
 ss=(read,tcheck) scf=(maxcycle=1)
 ----------------------------------------------------------------------
 -----
 title
 -----
 Structure from the checkpoint file:  "BDE49_nonexpt_1236_mol1.chk"
 Charge =  0 Multiplicity = 1

                         Standard orientation:
 ---------------------------------------------------------------------
 Center     Atomic      Atomic             Coordinates (Angstroms)
 Number     Number       Type             X           Y           Z
 ---------------------------------------------------------------------
      1         17           0       -1.953916    2.198810   -0.143478
      2         16           0       -1.199624   -1.055205    0.363233
      3          8           0       -1.382708   -2.302498   -0.366318
      4          8           0       -1.569151   -0.917824    1.758260
      5         15           0       -2.510282    0.300521   -0.827110
      6          6           0        0.498161   -0.537370    0.183248
      7          6           0        1.048647    0.340108    1.115433
      8          6           0        2.375053    0.732189    0.968880
      9          6           0        3.157834    0.259217   -0.090049
     10          6           0        2.577425   -0.625835   -1.008981
     11          6           0        1.254282   -1.027941   -0.881536
     12          6           0        4.603736    0.664964   -0.225453
     13          1           0        0.449198    0.693066    1.944211
     14          1           0        2.809172    1.414373    1.691625
     15          1           0        3.172485   -1.009290   -1.830959
     16          1           0        0.813104   -1.727456   -1.580329
     17          1           0        4.807776    1.598531    0.301888
     18          1           0        4.884141    0.794830   -1.273232
     19          1           0        5.261239   -0.103228    0.195504
     20          1           0       -1.608298    0.265452   -1.919445
 ---------------------------------------------------------------------

 SCF Done:  E(RHF) =  -1617.45293181     A.U. after    2 cycles

 The electronic state is 1-A.
 Alpha  occ. eigenvalues -- -103.68265 -93.78753 -81.35782 -20.57007 -20.56779
 Alpha  occ. eigenvalues --  -11.29228 -11.28677 -11.28297 -11.28208 -11.26705
 Alpha  occ. eigenvalues --  -11.26614 -11.25700 -10.71567  -9.05539  -8.37273
 Alpha  occ. eigenvalues --   -8.36988  -8.36965  -7.85592  -6.40160  -6.39906
 Alpha  occ. eigenvalues --   -6.39847  -4.99349  -4.99250  -4.99013  -1.42336
 Alpha  occ. eigenvalues --   -1.31427  -1.18024  -1.16261  -1.07971  -1.04178
 Alpha  occ. eigenvalues --   -0.97903  -0.90684  -0.86438  -0.83526  -0.78983
 Alpha  occ. eigenvalues --   -0.73251  -0.68579  -0.67576  -0.66507  -0.65267
 Alpha  occ. eigenvalues --   -0.64156  -0.62272  -0.60159  -0.58457  -0.56866
 Alpha  occ. eigenvalues --   -0.54613  -0.53902  -0.52975  -0.52230  -0.51661
 Alpha  occ. eigenvalues --   -0.51303  -0.50253  -0.50066  -0.44510  -0.40082
 Alpha  occ. eigenvalues --   -0.36869  -0.36028
 Alpha virt. eigenvalues --    0.02664   0.03539   0.04053   0.04334   0.04868
 Alpha virt. eigenvalues --    0.05158   0.05985   0.06633   0.07182   0.08041
 Alpha virt. eigenvalues --    0.08488   0.09048   0.09673   0.09695   0.11465

 Mulliken charges:
               1
     1  Cl  -0.430886
     2  S    2.677959
     3  O   -1.153281
     4  O   -1.181429
     5  P    0.331909
     6  C    0.235786
     7  C   -0.087144
     8  C    0.805655
     9  C   -0.331753
    10  C    0.844164
    11  C   -0.204022
    12  C    0.603337
    13  H   -0.584134
    14  H   -0.586011
    15  H   -0.583876
    16  H   -0.596910
    17  H   -0.111171
    18  H   -0.024634
    19  H    0.108188
    20  H    0.268253
 Sum of Mulliken charges =  -0.00000

 Dipole moment (field-independent basis, Debye):
    X=              4.3512    Y=              2.9106    Z=             -2.9561  Tot=              6.0119

 Test job not archived.
 1\1\GINC-SE284\SP\RHF\Aug-CC-pVDZ\C7H8Cl1O2P1S1\OHZDE\08-Apr-2025\0\\#
 t hf aug-cc-pvdz iop(5/13=1,5/36=2,99/5=2) pseudo=read geom=check gues
 s=(read,tcheck) scf=(maxcycle=1)\\title\\0,1\Cl,0,-1.953916,2.19881,-0
 .143478\S,0,-1.199624,-1.055205,0.363233\O,0,-1.382708,-2.302498,-0.36
 6318\O,0,-1.569151,-0.917824,1.75826\P,0,-2.510282,0.300521,-0.82711\C
 ,0,0.498161,-0.53737,0.183248\C,0,1.048647,0.340108,1.115433\C,0,2.375
 053,0.732189,0.96888\C,0,3.157834,0.259217,-0.090049\C,0,2.577425,-0.6
 25835,-1.008981\C,0,1.254282,-1.027941,-0.881536\C,0,4.603736,0.664964

 Normal termination of Gaussian 16 at Tue Apr  8 23:25:17 2025.
