 Gaussian 16, Revision C.01,

 ----------------------------------------------------------------------
 #t hf aug-cc-pvdz symm=none int=(grid=ultrafine) guess=(read,tcheck) s
 table=(opt,rrhf)
 ----------------------------------------------------------------------
 -----
 title
 -----
 Symbolic Z-matrix:
 Charge =  0 Multiplicity = 1

 SCF Done:  E(RHF) =  -747.450964322     A.U. after   16 cycles
 Normal termination of Gaussian 16 at Wed Apr  9 00:04:59 2025.
 Gaussian 16:  ES64L-G16RevC.01  3-Jul-2019

 ----------------------------------------------------------------------
 #t hf aug-cc-pvdz iop(5/13=1,5/36=2,99/5=2) pseudo=read geom=check gue
 ss=(read,tcheck) scf=(maxcycle=1)
 ----------------------------------------------------------------------
 -----
 title
 -----
 Structure from the checkpoint file:  "BDE49_nonexpt_2200_mol1.chk"
 Charge =  0 Multiplicity = 1

                         Standard orientation:
 ---------------------------------------------------------------------
 Center     Atomic      Atomic             Coordinates (Angstroms)
 Number     Number       Type             X           Y           Z
 ---------------------------------------------------------------------
      1          6           0       -2.584131   -1.397755   -0.000030
      2          6           0       -1.233469   -1.714711    0.000077
      3          6           0       -0.249428   -0.719240    0.000130
      4          6           0       -2.967252   -0.057407   -0.000095
      5          6           0       -2.014422    0.957970   -0.000062
      6          6           0       -0.655101    0.631306    0.000043
      7          1           0       -4.018717    0.207811   -0.000183
      8          1           0       -2.334794    1.990639   -0.000130
      9          8           0        0.341071    1.557420    0.000041
     10          6           0        0.017825    2.944040   -0.000081
     11          1           0        0.971454    3.468221   -0.000062
     12          1           0       -0.548632    3.218262    0.895238
     13          1           0       -0.548525    3.218132   -0.895507
     14          1           0       -3.331923   -2.181533   -0.000062
     15          1           0       -0.893775   -2.743560    0.000138
     16          6           0        1.187758   -1.141930    0.000252
     17          8           0        1.469996   -2.331941   -0.000243
     18         14           0        2.702738    0.069986    0.000058
     19          1           0        2.741409    0.921300    1.210784
     20          1           0        2.740566    0.921982   -1.210220
     21          1           0        3.885398   -0.818536   -0.000599
 ---------------------------------------------------------------------

 SCF Done:  E(RHF) =  -747.611564928     A.U. after    2 cycles

 The electronic state is 1-A.
 Alpha  occ. eigenvalues --  -69.06538 -20.62273 -20.56324 -11.33778 -11.33050
 Alpha  occ. eigenvalues --  -11.31555 -11.27077 -11.26146 -11.25561 -11.25248
 Alpha  occ. eigenvalues --  -11.24757  -6.81785  -3.92561  -3.92528  -3.92526
 Alpha  occ. eigenvalues --   -1.39482  -1.34435  -1.15630  -1.04692  -1.02862
 Alpha  occ. eigenvalues --   -0.96296  -0.88665  -0.83038  -0.79064  -0.75342
 Alpha  occ. eigenvalues --   -0.71767  -0.68838  -0.68549  -0.66652  -0.63672
 Alpha  occ. eigenvalues --   -0.63180  -0.61129  -0.57490  -0.56772  -0.55616
 Alpha  occ. eigenvalues --   -0.53846  -0.53427  -0.51281  -0.49435  -0.47329
 Alpha  occ. eigenvalues --   -0.46425  -0.39631  -0.35717  -0.33575
 Alpha virt. eigenvalues --    0.02525   0.03528   0.04187   0.05000   0.05224
 Alpha virt. eigenvalues --    0.05498   0.05530   0.06691   0.06891   0.07420
 Alpha virt. eigenvalues --    0.08015   0.09506   0.09648   0.10700   0.11356

 Mulliken charges:
               1
     1  C    0.557542
     2  C    0.492433
     3  C    0.782093
     4  C    0.262992
     5  C    0.894984
     6  C    0.146154
     7  H   -0.458712
     8  H   -0.752333
     9  O   -0.499739
    10  C    0.916166
    11  H   -0.331915
    12  H   -0.097296
    13  H   -0.097266
    14  H   -0.451669
    15  H   -0.583415
    16  C   -0.302288
    17  O   -0.561184
    18  Si  -0.234133
    19  H    0.138207
    20  H    0.138334
    21  H    0.041044
 Sum of Mulliken charges =  -0.00000

 Dipole moment (field-independent basis, Debye):
    X=             -3.1854    Y=              4.6073    Z=              0.0005  Tot=              5.6013

 Test job not archived.
 1\1\GINC-SE253\SP\RHF\Aug-CC-pVDZ\C8H10O2Si1\OHZDE\09-Apr-2025\0\\#t h
 f aug-cc-pvdz iop(5/13=1,5/36=2,99/5=2) pseudo=read geom=check guess=(
 read,tcheck) scf=(maxcycle=1)\\title\\0,1\C,0,2.584131,-1.397755,0.000
 03\C,0,1.233469,-1.714711,-0.000077\C,0,0.249428,-0.71924,-0.00013\C,0
 ,2.967252,-0.057407,0.000095\C,0,2.014422,0.95797,0.000062\C,0,0.65510
 1,0.631306,-0.000043\H,0,4.018717,0.20781,0.000183\H,0,2.334794,1.9906
 39,0.00013\O,0,-0.341071,1.55742,-0.000041\C,0,-0.017824,2.94404,0.000
 081\H,0,-0.971453,3.468221,0.000062\H,0,0.548633,3.218262,-0.895238\H,

 Normal termination of Gaussian 16 at Wed Apr  9 00:05:13 2025.
