 Gaussian 16, Revision C.01,

 ----------------------------------------------------------------------
 #t hf aug-cc-pvdz symm=none int=(grid=ultrafine) guess=(read,tcheck) s
 table=(opt,rrhf)
 ----------------------------------------------------------------------
 -----
 title
 -----
 Symbolic Z-matrix:
 Charge =  0 Multiplicity = 1

 SCF Done:  E(RHF) =  -457.399929334     A.U. after   15 cycles
 Normal termination of Gaussian 16 at Tue Apr  8 22:42:43 2025.
 Gaussian 16:  ES64L-G16RevC.01  3-Jul-2019

 ----------------------------------------------------------------------
 #t hf aug-cc-pvdz iop(5/13=1,5/36=2,99/5=2) pseudo=read geom=check gue
 ss=(read,tcheck) scf=(maxcycle=1)
 ----------------------------------------------------------------------
 -----
 title
 -----
 Structure from the checkpoint file:  "BDE49_expt_1457_mol1.chk"
 Charge =  0 Multiplicity = 1

                         Standard orientation:
 ---------------------------------------------------------------------
 Center     Atomic      Atomic             Coordinates (Angstroms)
 Number     Number       Type             X           Y           Z
 ---------------------------------------------------------------------
      1          8           0       -1.081779   -0.614406   -0.347845
      2          6           0       -2.104410    0.164946    0.128063
      3          6           0        0.259233   -0.265672   -0.169619
      4          8           0       -1.955549    1.201619    0.710949
      5          6           0        0.745009    1.025749   -0.356938
      6          6           0        1.116705   -1.318354    0.135629
      7          6           0        2.481893   -1.077837    0.258843
      8          6           0        2.984680    0.209361    0.080231
      9          6           0        2.113869    1.252305   -0.227192
     10          1           0        2.497941    2.256169   -0.368241
     11          1           0        0.070135    1.837382   -0.584144
     12          1           0        3.150348   -1.897714    0.495367
     13          1           0        4.047303    0.398138    0.178393
     14          1           0        0.702946   -2.310818    0.265931
     15          6           0       -3.422423   -0.490742   -0.193592
     16          1           0       -3.480656   -1.465296    0.296424
     17          1           0       -3.502026   -0.660926   -1.269314
     18          1           0       -4.234708    0.146823    0.148204
 ---------------------------------------------------------------------

 SCF Done:  E(RHF) =  -457.540963077     A.U. after    2 cycles

 The electronic state is 1-A.
 Alpha  occ. eigenvalues --  -20.63106 -20.57156 -11.40815 -11.31780 -11.25879
 Alpha  occ. eigenvalues --  -11.25261 -11.25161 -11.24921 -11.24781 -11.24591
 Alpha  occ. eigenvalues --   -1.43023  -1.34408  -1.14914  -1.04580  -1.01952
 Alpha  occ. eigenvalues --   -0.99528  -0.87577  -0.84266  -0.78442  -0.72091
 Alpha  occ. eigenvalues --   -0.70519  -0.68796  -0.68267  -0.63556  -0.62336
 Alpha  occ. eigenvalues --   -0.60068  -0.59504  -0.57692  -0.56821  -0.53036
 Alpha  occ. eigenvalues --   -0.52446  -0.50716  -0.49044  -0.47177  -0.34665
 Alpha  occ. eigenvalues --   -0.33664
 Alpha virt. eigenvalues --    0.03274   0.03781   0.04234   0.05227   0.05473
 Alpha virt. eigenvalues --    0.05945   0.07270   0.07570   0.09604   0.10379
 Alpha virt. eigenvalues --    0.10465   0.11740   0.11968   0.12592   0.13673

 Mulliken charges:
               1
     1  O   -0.679762
     2  C    0.216337
     3  C    0.379730
     4  O   -0.418322
     5  C    0.373197
     6  C    0.335152
     7  C    0.719885
     8  C    0.486040
     9  C    0.649098
    10  H   -0.435553
    11  H   -0.579635
    12  H   -0.425384
    13  H   -0.444640
    14  H   -0.514077
    15  C    0.264268
    16  H    0.058886
    17  H    0.023757
    18  H   -0.008979
 Sum of Mulliken charges =  -0.00000

 Dipole moment (field-independent basis, Debye):
    X=             -0.2689    Y=             -1.7269    Z=             -1.0058  Tot=              2.0165

 Test job not archived.
 1\1\GINC-SE455\SP\RHF\Aug-CC-pVDZ\C8H8O2\OHZDE\08-Apr-2025\0\\#t hf au
 g-cc-pvdz iop(5/13=1,5/36=2,99/5=2) pseudo=read geom=check guess=(read
 ,tcheck) scf=(maxcycle=1)\\title\\0,1\O,0,1.081779,0.614406,-0.347845\
 C,0,2.10441,-0.164946,0.128063\C,0,-0.259233,0.265672,-0.169619\O,0,1.
 955549,-1.201619,0.710949\C,0,-0.745009,-1.025749,-0.356938\C,0,-1.116
 705,1.318354,0.135629\C,0,-2.481893,1.077837,0.258843\C,0,-2.98468,-0.
 209361,0.080231\C,0,-2.113869,-1.252305,-0.227192\H,0,-2.497941,-2.256
 169,-0.368241\H,0,-0.070135,-1.837382,-0.584144\H,0,-3.150348,1.897714

 Normal termination of Gaussian 16 at Tue Apr  8 22:42:51 2025.
