 Gaussian 16, Revision C.01,

 ----------------------------------------------------------------------
 #t hf aug-cc-pvdz symm=none int=(grid=ultrafine) guess=(read,tcheck) s
 table=(opt,rrhf)
 ----------------------------------------------------------------------
 -----
 title
 -----
 Symbolic Z-matrix:
 Charge =  0 Multiplicity = 1

 SCF Done:  E(RHF) =  -798.236664204     A.U. after   12 cycles
 Normal termination of Gaussian 16 at Tue Apr  8 23:39:36 2025.
 Gaussian 16:  ES64L-G16RevC.01  3-Jul-2019

 ----------------------------------------------------------------------
 #t hf aug-cc-pvdz iop(5/13=1,5/36=2,99/5=2) pseudo=read geom=check gue
 ss=(read,tcheck) scf=(maxcycle=1)
 ----------------------------------------------------------------------
 -----
 title
 -----
 Structure from the checkpoint file:  "BDE49_nonexpt_1597_mol1.chk"
 Charge =  0 Multiplicity = 1

                         Standard orientation:
 ---------------------------------------------------------------------
 Center     Atomic      Atomic             Coordinates (Angstroms)
 Number     Number       Type             X           Y           Z
 ---------------------------------------------------------------------
      1          8           0       -0.091224    0.328008   -0.275631
      2         15           0       -1.595377   -0.106905   -0.050339
      3          8           0       -1.990814   -1.442346   -0.505460
      4          6           0        0.993367   -0.529918    0.172950
      5          6           0        2.308234    0.021606   -0.365102
      6          6           0        2.579349    1.440560    0.147373
      7          1           0        1.756656    2.112318   -0.102760
      8          1           0        3.496063    1.842702   -0.292308
      9          1           0        2.700961    1.444473    1.236128
     10          6           0        3.448154   -0.941585   -0.006514
     11          1           0        2.214748    0.057399   -1.457161
     12          1           0        3.565342   -1.027915    1.078940
     13          1           0        4.396882   -0.582163   -0.412365
     14          1           0        3.271950   -1.944202   -0.406732
     15          1           0        0.808391   -1.542557   -0.194275
     16          1           0        0.991813   -0.540381    1.268094
     17          8           0       -1.787164    0.168454    1.513309
     18          1           0       -2.531915   -0.329557    1.870058
     19          8           0       -2.385384    1.106819   -0.721312
     20          1           0       -2.678168    0.882011   -1.612023
 ---------------------------------------------------------------------

 SCF Done:  E(RHF) =  -798.460640425     A.U. after    2 cycles

 The electronic state is 1-A.
 Alpha  occ. eigenvalues --  -81.44483 -20.61832 -20.61719 -20.60392 -20.52870
 Alpha  occ. eigenvalues --  -11.30697 -11.24837 -11.23414 -11.22574  -7.92417
 Alpha  occ. eigenvalues --   -5.07121  -5.07027  -5.07016  -1.39697  -1.35263
 Alpha  occ. eigenvalues --   -1.34794  -1.26294  -1.08544  -0.94796  -0.93472
 Alpha  occ. eigenvalues --   -0.84663  -0.79371  -0.76215  -0.73523  -0.69204
 Alpha  occ. eigenvalues --   -0.67421  -0.65619  -0.63598  -0.61224  -0.60224
 Alpha  occ. eigenvalues --   -0.58771  -0.57001  -0.56046  -0.55287  -0.54236
 Alpha  occ. eigenvalues --   -0.51555  -0.49261  -0.49081  -0.48756  -0.47700
 Alpha  occ. eigenvalues --   -0.47346
 Alpha virt. eigenvalues --    0.03220   0.03980   0.04404   0.04895   0.05393
 Alpha virt. eigenvalues --    0.06327   0.07043   0.07314   0.07966   0.08614
 Alpha virt. eigenvalues --    0.09398   0.10768   0.11305   0.12842   0.14188

 Mulliken charges:
               1
     1  O   -1.069061
     2  P    2.469874
     3  O   -0.859047
     4  C    1.111097
     5  C   -1.344609
     6  C    0.743841
     7  H   -0.084880
     8  H   -0.077306
     9  H   -0.014188
    10  C    0.754685
    11  H   -0.114976
    12  H   -0.008023
    13  H   -0.065708
    14  H   -0.067135
    15  H   -0.222375
    16  H   -0.168337
    17  O   -0.665350
    18  H    0.159885
    19  O   -0.643115
    20  H    0.164729
 Sum of Mulliken charges =  -0.00000

 Dipole moment (field-independent basis, Debye):
    X=              1.1198    Y=              0.5007    Z=              0.4122  Tot=              1.2940

 Test job not archived.
 1\1\GINC-SE127\SP\RHF\Aug-CC-pVDZ\C4H11O4P1\OHZDE\08-Apr-2025\0\\#t hf
  aug-cc-pvdz iop(5/13=1,5/36=2,99/5=2) pseudo=read geom=check guess=(r
 ead,tcheck) scf=(maxcycle=1)\\title\\0,1\O,0,-0.091224,0.328008,-0.275
 631\P,0,-1.595377,-0.106905,-0.050339\O,0,-1.990814,-1.442346,-0.50546
 \C,0,0.993367,-0.529918,0.17295\C,0,2.308234,0.021606,-0.365102\C,0,2.
 579349,1.44056,0.147373\H,0,1.756656,2.112318,-0.10276\H,0,3.496063,1.
 842702,-0.292308\H,0,2.700961,1.444473,1.236128\C,0,3.448154,-0.941585
 ,-0.006514\H,0,2.214748,0.057399,-1.457161\H,0,3.565342,-1.027915,1.07

 Normal termination of Gaussian 16 at Tue Apr  8 23:39:47 2025.
