 Gaussian 16, Revision C.01,

 ----------------------------------------------------------------------
 #t hf aug-cc-pvdz symm=none int=(grid=ultrafine) guess=(read,tcheck) s
 table=(opt,rrhf)
 ----------------------------------------------------------------------
 -----
 title
 -----
 Symbolic Z-matrix:
 Charge =  0 Multiplicity = 1

 SCF Done:  E(RHF) =  -458.884949114     A.U. after   15 cycles
 Normal termination of Gaussian 16 at Wed Apr  9 00:36:33 2025.
 Gaussian 16:  ES64L-G16RevC.01  3-Jul-2019

 ----------------------------------------------------------------------
 #t hf aug-cc-pvdz iop(5/13=1,5/36=2,99/5=2) pseudo=read geom=check gue
 ss=(read,tcheck) scf=(maxcycle=1)
 ----------------------------------------------------------------------
 -----
 title
 -----
 Structure from the checkpoint file:  "BDE49_nonexpt_558_mol1.chk"
 Charge =  0 Multiplicity = 1

                         Standard orientation:
 ---------------------------------------------------------------------
 Center     Atomic      Atomic             Coordinates (Angstroms)
 Number     Number       Type             X           Y           Z
 ---------------------------------------------------------------------
      1          8           0        0.873027    0.846743   -0.000001
      2          6           0        2.252058    0.982209    0.000002
      3          6           0        0.599871   -0.489179    0.000000
      4          6           0        2.823840   -0.242310   -0.000001
      5          6           0        1.760115   -1.208293    0.000003
      6          1           0        3.882504   -0.448167   -0.000001
      7          1           0        2.618974    1.992750    0.000004
      8          1           0        1.848334   -2.282300    0.000005
      9          5           0       -1.897497    0.003052   -0.000001
     10          8           0       -3.103128   -0.648063   -0.000001
     11          8           0       -1.855559    1.367032    0.000000
     12          1           0       -0.954943    1.709997    0.000000
     13          1           0       -3.835712   -0.025864    0.000000
     14          7           0       -0.730195   -0.843233   -0.000002
     15          1           0       -0.890327   -1.839305   -0.000003
 ---------------------------------------------------------------------

 SCF Done:  E(RHF) =  -459.034565053     A.U. after    2 cycles

 The electronic state is 1-A.
 Alpha  occ. eigenvalues --  -20.64664 -20.57799 -20.57609 -15.64148 -11.35683
 Alpha  occ. eigenvalues --  -11.29581 -11.24951 -11.23074  -7.67843  -1.43113
 Alpha  occ. eigenvalues --   -1.34380  -1.30715  -1.19171  -1.08192  -0.98562
 Alpha  occ. eigenvalues --   -0.83382  -0.81036  -0.78343  -0.75327  -0.72383
 Alpha  occ. eigenvalues --   -0.69252  -0.67122  -0.63791  -0.60079  -0.59647
 Alpha  occ. eigenvalues --   -0.59117  -0.58181  -0.57003  -0.54498  -0.52283
 Alpha  occ. eigenvalues --   -0.48590  -0.41064  -0.29387
 Alpha virt. eigenvalues --    0.03147   0.03847   0.04176   0.05310   0.05785
 Alpha virt. eigenvalues --    0.06517   0.07446   0.08481   0.08987   0.10979
 Alpha virt. eigenvalues --    0.11306   0.12324   0.13230   0.13627   0.14295

 Mulliken charges:
               1
     1  O   -0.425390
     2  C    0.445193
     3  C    0.023414
     4  C    0.360092
     5  C    0.946823
     6  H   -0.301510
     7  H   -0.430179
     8  H   -0.407737
     9  B    0.605716
    10  O   -0.502878
    11  O   -0.478750
    12  H    0.270660
    13  H    0.199720
    14  N   -0.228680
    15  H   -0.076493
 Sum of Mulliken charges =  -0.00000

 Dipole moment (field-independent basis, Debye):
    X=              1.2553    Y=             -0.4449    Z=              0.0000  Tot=              1.3318

 Test job not archived.
 1\1\GINC-SE073\SP\RHF\Aug-CC-pVDZ\C4H6B1N1O3\OHZDE\09-Apr-2025\0\\#t h
 f aug-cc-pvdz iop(5/13=1,5/36=2,99/5=2) pseudo=read geom=check guess=(
 read,tcheck) scf=(maxcycle=1)\\title\\0,1\O,0,0.873027,0.846743,-0.000
 001\C,0,2.252058,0.982209,0.000002\C,0,0.599871,-0.489179,0.\C,0,2.823
 84,-0.24231,-0.000001\C,0,1.760115,-1.208293,0.000003\H,0,3.882504,-0.
 448167,-0.000001\H,0,2.618974,1.99275,0.000004\H,0,1.848334,-2.2823,0.
 000005\B,0,-1.897497,0.003052,-0.000001\O,0,-3.103128,-0.648063,-0.000
 001\O,0,-1.855559,1.367032,0.\H,0,-0.954943,1.709997,0.\H,0,-3.835712,

 Normal termination of Gaussian 16 at Wed Apr  9 00:36:39 2025.
