 Gaussian 16, Revision C.01,

 ----------------------------------------------------------------------
 #t hf aug-cc-pvdz symm=none int=(grid=ultrafine) guess=(read,tcheck) s
 table=(opt,rrhf)
 ----------------------------------------------------------------------
 -----
 title
 -----
 Symbolic Z-matrix:
 Charge =  0 Multiplicity = 1

 SCF Done:  E(RHF) =  -126.578825665     A.U. after   12 cycles
 Normal termination of Gaussian 16 at Wed Apr  9 00:13:31 2025.
 Gaussian 16:  ES64L-G16RevC.01  3-Jul-2019

 ----------------------------------------------------------------------
 #t hf aug-cc-pvdz iop(5/13=1,5/36=2,99/5=2) pseudo=read geom=check gue
 ss=(read,tcheck) scf=(maxcycle=1)
 ----------------------------------------------------------------------
 -----
 title
 -----
 Structure from the checkpoint file:  "BDE49_nonexpt_24_mol1.chk"
 Charge =  0 Multiplicity = 1

                         Standard orientation:
 ---------------------------------------------------------------------
 Center     Atomic      Atomic             Coordinates (Angstroms)
 Number     Number       Type             X           Y           Z
 ---------------------------------------------------------------------
      1          5           0       -0.057350    0.455160   -0.000111
      2          5           0        1.504006   -0.139282    0.000009
      3          8           0       -1.158761   -0.342301   -0.000130
      4          1           0       -1.986758    0.147686    0.000330
      5          1           0       -0.205178    1.655564    0.001050
      6          1           0        2.113983   -0.323019    1.012416
      7          1           0        2.114763   -0.321210   -1.012249
 ---------------------------------------------------------------------

 SCF Done:  E(RHF) =  -126.624327915     A.U. after    2 cycles

 The electronic state is 1-A.
 Alpha  occ. eigenvalues --  -20.59282  -7.62451  -7.60157  -1.33221  -0.78360
 Alpha  occ. eigenvalues --   -0.68728  -0.65057  -0.56233  -0.54418  -0.48424
 Alpha  occ. eigenvalues --   -0.41878
 Alpha virt. eigenvalues --    0.03282   0.04440   0.04603   0.05451   0.06670
 Alpha virt. eigenvalues --    0.06850   0.07157   0.08969   0.10611   0.11279
 Alpha virt. eigenvalues --    0.13660   0.14044   0.14230   0.15787   0.21186

 Mulliken charges:
               1
     1  B    0.277501
     2  B   -0.413518
     3  O   -0.477032
     4  H    0.165342
     5  H    0.035243
     6  H    0.206262
     7  H    0.206202
 Sum of Mulliken charges =  -0.00000

 Dipole moment (field-independent basis, Debye):
    X=             -1.0247    Y=              1.0772    Z=             -0.0000  Tot=              1.4867

 Test job not archived.
 1\1\GINC-SE455\SP\RHF\Aug-CC-pVDZ\B2H4O1\OHZDE\09-Apr-2025\0\\#t hf au
 g-cc-pvdz iop(5/13=1,5/36=2,99/5=2) pseudo=read geom=check guess=(read
 ,tcheck) scf=(maxcycle=1)\\title\\0,1\B,0,0.05735,0.45516,0.000111\B,0
 ,-1.504006,-0.139282,-0.000009\O,0,1.158761,-0.342301,0.00013\H,0,1.98
 6758,0.147686,-0.00033\H,0,0.205178,1.655564,-0.00105\H,0,-2.113983,-0
 .323019,-1.012416\H,0,-2.114763,-0.32121,1.012249\\Version=ES64L-G16Re
 vC.01\State=1-A\HF=-126.6243279\RMSD=3.641e-03\Dipole=0.4031306,0.4238
 139,0.0000142\Quadrupole=1.2622656,-0.7686216,-0.493644,0.9781218,-0.0

 Normal termination of Gaussian 16 at Wed Apr  9 00:13:33 2025.
