 Gaussian 16, Revision C.01,

 ----------------------------------------------------------------------
 #t hf aug-cc-pvdz symm=none int=(grid=ultrafine) guess=(read,tcheck) s
 table=(opt,rrhf)
 ----------------------------------------------------------------------
 -----
 title
 -----
 Symbolic Z-matrix:
 Charge =  0 Multiplicity = 1

 SCF Done:  E(RHF) =  -469.248461164     A.U. after   13 cycles
 Normal termination of Gaussian 16 at Wed Apr  9 00:33:51 2025.
 Gaussian 16:  ES64L-G16RevC.01  3-Jul-2019

 ----------------------------------------------------------------------
 #t hf aug-cc-pvdz iop(5/13=1,5/36=2,99/5=2) pseudo=read geom=check gue
 ss=(read,tcheck) scf=(maxcycle=1)
 ----------------------------------------------------------------------
 -----
 title
 -----
 Structure from the checkpoint file:  "BDE49_nonexpt_440_mol1.chk"
 Charge =  0 Multiplicity = 1

                         Standard orientation:
 ---------------------------------------------------------------------
 Center     Atomic      Atomic             Coordinates (Angstroms)
 Number     Number       Type             X           Y           Z
 ---------------------------------------------------------------------
      1          5           0       -0.000001    1.378821   -0.015111
      2          9           0       -0.000000    2.694935    0.213605
      3          8           0       -1.204424    0.760555   -0.120573
      4          8           0        1.204424    0.760556   -0.120574
      5          6           0        0.000001   -1.337455    0.158700
      6          6           0        1.262101   -0.658498   -0.373032
      7          6           0       -1.262101   -0.658498   -0.373032
      8          6           0       -2.544990   -1.186330    0.248346
      9          1           0       -2.524011   -1.055805    1.333303
     10          1           0       -2.673984   -2.248808    0.024801
     11          1           0       -3.404558   -0.640470   -0.145003
     12          1           0       -1.307882   -0.788355   -1.461740
     13          1           0        0.000000   -1.295386    1.254687
     14          1           0       -0.000000   -2.392488   -0.131091
     15          6           0        2.544989   -1.186330    0.248346
     16          1           0        1.307882   -0.788356   -1.461740
     17          1           0        2.524010   -1.055803    1.333303
     18          1           0        3.404558   -0.640470   -0.145003
     19          1           0        2.673985   -2.248807    0.024802
 ---------------------------------------------------------------------

 SCF Done:  E(RHF) =  -469.410776675     A.U. after    2 cycles

 The electronic state is 1-A.
 Alpha  occ. eigenvalues --  -26.10079 -20.58130 -20.58130 -11.31326 -11.31322
 Alpha  occ. eigenvalues --  -11.25194 -11.23758 -11.23757  -7.70785  -1.64221
 Alpha  occ. eigenvalues --   -1.36145  -1.32137  -1.08359  -1.02639  -0.95243
 Alpha  occ. eigenvalues --   -0.85247  -0.85214  -0.78762  -0.73928  -0.73171
 Alpha  occ. eigenvalues --   -0.71556  -0.68215  -0.66697  -0.65973  -0.60241
 Alpha  occ. eigenvalues --   -0.57998  -0.56629  -0.56372  -0.55119  -0.55051
 Alpha  occ. eigenvalues --   -0.54261  -0.52996  -0.47581  -0.46936  -0.46219
 Alpha virt. eigenvalues --    0.02902   0.04021   0.04054   0.04614   0.05855
 Alpha virt. eigenvalues --    0.05972   0.06287   0.06812   0.07472   0.08657
 Alpha virt. eigenvalues --    0.08693   0.09107   0.09347   0.11173   0.13341

 Mulliken charges:
               1
     1  B    0.704666
     2  F   -0.491653
     3  O   -0.600058
     4  O   -0.600059
     5  C   -0.057879
     6  C    0.411223
     7  C    0.411223
     8  C    0.534346
     9  H   -0.010062
    10  H   -0.017403
    11  H   -0.015983
    12  H   -0.257816
    13  H   -0.084336
    14  H   -0.159290
    15  C    0.534347
    16  H   -0.257815
    17  H   -0.010061
    18  H   -0.015981
    19  H   -0.017406
 Sum of Mulliken charges =  -0.00000

 Dipole moment (field-independent basis, Debye):
    X=             -0.0000    Y=             -4.7573    Z=             -0.6690  Tot=              4.8041

 Test job not archived.
 1\1\GINC-SE343\SP\RHF\Aug-CC-pVDZ\C5H10B1F1O2\OHZDE\09-Apr-2025\0\\#t
 hf aug-cc-pvdz iop(5/13=1,5/36=2,99/5=2) pseudo=read geom=check guess=
 (read,tcheck) scf=(maxcycle=1)\\title\\0,1\B,0,0.,1.378821,-0.015111\F
 ,0,0.000001,2.694935,0.213605\O,0,-1.204424,0.760556,-0.120573\O,0,1.2
 04424,0.760556,-0.120574\C,0,0.,-1.337455,0.1587\C,0,1.262101,-0.65849
 8,-0.373032\C,0,-1.262101,-0.658497,-0.373032\C,0,-2.54499,-1.186329,0
 .248346\H,0,-2.524011,-1.055804,1.333303\H,0,-2.673985,-2.248807,0.024
 801\H,0,-3.404558,-0.640469,-0.145003\H,0,-1.307882,-0.788354,-1.46174

 Normal termination of Gaussian 16 at Wed Apr  9 00:34:00 2025.
