 Gaussian 16, Revision C.01,

 ----------------------------------------------------------------------
 #t hf aug-cc-pvdz symm=none int=(grid=ultrafine) guess=(read,tcheck) s
 table=opt
 ----------------------------------------------------------------------
 -----
 title
 -----
 Symbolic Z-matrix:
 Charge =  0 Multiplicity = 2

 SCF Done:  E(UHF) =  -870.102621333     A.U. after   16 cycles
 Normal termination of Gaussian 16 at Tue Apr  8 22:43:35 2025.
 Gaussian 16:  ES64L-G16RevC.01  3-Jul-2019

 ----------------------------------------------------------------------
 #t hf aug-cc-pvdz iop(5/13=1,5/36=2,99/5=2) pseudo=read geom=check gue
 ss=(read,tcheck) scf=(maxcycle=1)
 ----------------------------------------------------------------------
 -----
 title
 -----
 Structure from the checkpoint file:  "BDE49_expt_1321_mol2.chk"
 Charge =  0 Multiplicity = 2

                         Standard orientation:
 ---------------------------------------------------------------------
 Center     Atomic      Atomic             Coordinates (Angstroms)
 Number     Number       Type             X           Y           Z
 ---------------------------------------------------------------------
      1          7           0       -0.000001    0.000004   -0.535694
      2         14           0        1.656803   -0.006739   -0.050026
      3         14           0       -1.656804    0.006738   -0.050021
      4          6           0       -1.952109   -0.464758    1.751730
      5          1           0       -1.588116   -1.474906    1.964164
      6          1           0       -3.020757   -0.444811    1.991051
      7          1           0       -1.444719    0.223274    2.434203
      8          6           0       -2.599238   -1.188763   -1.156250
      9          1           0       -2.231549   -2.212069   -1.036344
     10          1           0       -2.487516   -0.913835   -2.208148
     11          1           0       -3.666274   -1.187975   -0.910738
     12          6           0       -2.250960    1.775586   -0.340133
     13          1           0       -3.316417    1.849524   -0.098005
     14          1           0       -1.713263    2.488551    0.290392
     15          1           0       -2.114594    2.069852   -1.383284
     16          6           0        2.599221    1.188825   -1.156202
     17          1           0        2.487498    0.913945   -2.208113
     18          1           0        3.666258    1.188036   -0.910694
     19          1           0        2.231522    2.212121   -1.036247
     20          6           0        1.952111    0.464676    1.751747
     21          1           0        1.588110    1.474810    1.964229
     22          1           0        3.020760    0.444727    1.991063
     23          1           0        1.444730   -0.223394    2.434189
     24          6           0        2.250976   -1.775567   -0.340223
     25          1           0        3.316434   -1.849507   -0.098099
     26          1           0        1.713286   -2.488568    0.290267
     27          1           0        2.114613   -2.069784   -1.383389
 ---------------------------------------------------------------------

 SCF Done:  E(UHF) =  -870.258177776     A.U. after    2 cycles

 The electronic state is 2-A.
 Alpha  occ. eigenvalues --  -69.05900 -69.05900 -15.60743 -11.20775 -11.20774
 Alpha  occ. eigenvalues --  -11.20665 -11.20665 -11.20453 -11.20452  -6.80887
 Alpha  occ. eigenvalues --   -6.80860  -3.91764  -3.91750  -3.91651  -3.91647
 Alpha  occ. eigenvalues --   -3.91633  -3.91629  -1.08357  -0.96050  -0.94298
 Alpha  occ. eigenvalues --   -0.91960  -0.91733  -0.91413  -0.91386  -0.67504
 Alpha  occ. eigenvalues --   -0.58864  -0.57508  -0.57373  -0.56837  -0.56115
 Alpha  occ. eigenvalues --   -0.56084  -0.55361  -0.55284  -0.54325  -0.54092
 Alpha  occ. eigenvalues --   -0.53718  -0.53059  -0.52983  -0.50638  -0.48644
 Alpha  occ. eigenvalues --   -0.46956  -0.43236  -0.42588  -0.40269  -0.38701
 Alpha virt. eigenvalues --    0.02875   0.03583   0.03973   0.04294   0.05904
 Alpha virt. eigenvalues --    0.06064   0.06138   0.06685   0.06735   0.07554
 Alpha virt. eigenvalues --    0.07822   0.07834   0.08309   0.08455   0.09006

  Beta  occ. eigenvalues --  -69.05958 -69.05958 -15.57914 -11.20669 -11.20669
  Beta  occ. eigenvalues --  -11.20650 -11.20648 -11.20407 -11.20406  -6.80972
  Beta  occ. eigenvalues --   -6.80945  -3.91910  -3.91895  -3.91733  -3.91729
  Beta  occ. eigenvalues --   -3.91682  -3.91677  -0.98974  -0.95886  -0.92007
  Beta  occ. eigenvalues --   -0.91672  -0.91346  -0.91254  -0.91052  -0.66311
  Beta  occ. eigenvalues --   -0.58550  -0.57298  -0.56649  -0.56232  -0.56082
  Beta  occ. eigenvalues --   -0.55994  -0.55046  -0.54290  -0.54011  -0.53853
  Beta  occ. eigenvalues --   -0.53709  -0.53031  -0.52958  -0.47047  -0.45600
  Beta  occ. eigenvalues --   -0.43328  -0.42501  -0.42258  -0.36150
  Beta virt. eigenvalues --    0.02885   0.03584   0.03663   0.04303   0.05908
  Beta virt. eigenvalues --    0.06062   0.06141   0.06370   0.06736   0.06855
  Beta virt. eigenvalues --    0.07559   0.07822   0.07835   0.08338   0.08456

 Mulliken charges and spin densities:
               1          2
     1  N   -1.130101   1.222219
     2  Si   1.445792  -0.162322
     3  Si   1.445802  -0.162323
     4  C    0.574765   0.001117
     5  H   -0.315532   0.004253
     6  H   -0.252822  -0.000840
     7  H   -0.330330  -0.000174
     8  C    0.591661   0.006706
     9  H   -0.282818   0.005952
    10  H   -0.287840  -0.003073
    11  H   -0.300651  -0.000166
    12  C    0.574566   0.024898
    13  H   -0.290252   0.000359
    14  H   -0.284395   0.007718
    15  H   -0.277100   0.004464
    16  C    0.591667   0.006707
    17  H   -0.287838  -0.003073
    18  H   -0.300650  -0.000166
    19  H   -0.282819   0.005952
    20  C    0.574768   0.001116
    21  H   -0.315534   0.004253
    22  H   -0.252824  -0.000840
    23  H   -0.330328  -0.000174
    24  C    0.574564   0.024897
    25  H   -0.290256   0.000359
    26  H   -0.284397   0.007719
    27  H   -0.277098   0.004463
 Sum of Mulliken charges =   0.00000   1.00000

 Dipole moment (field-independent basis, Debye):
    X=             -0.0000    Y=             -0.0000    Z=              0.6582  Tot=              0.6582
                          Isotropic Fermi Contact Couplings
        Atom                 a.u.       MegaHertz       Gauss      10(-4) cm-1
     1  N(14)              0.22704      73.35677      26.17552      24.46919
     2  Si(29)            -0.06047      53.73908      19.17544      17.92543
     3  Si(29)            -0.06047      53.73902      19.17542      17.92541
     4  C(13)             -0.00174      -1.95752      -0.69849      -0.65296
     5  H(1)              -0.00014      -0.61839      -0.22066      -0.20627
     6  H(1)              -0.00036      -1.60856      -0.57397      -0.53656
     7  H(1)              -0.00011      -0.46963      -0.16758      -0.15665
     8  C(13)              0.00897      10.08582       3.59887       3.36427

 Normal termination of Gaussian 16 at Tue Apr  8 22:43:57 2025.
