 Gaussian 16, Revision C.01,

 ----------------------------------------------------------------------
 #t hf aug-cc-pvdz symm=none int=(grid=ultrafine) guess=(read,tcheck) s
 table=opt
 ----------------------------------------------------------------------
 -----
 title
 -----
 Symbolic Z-matrix:
 Charge =  0 Multiplicity = 2

 SCF Done:  E(UHF) =  -1013.22855507     A.U. after   27 cycles
 Normal termination of Gaussian 16 at Tue Apr  8 23:24:24 2025.
 Gaussian 16:  ES64L-G16RevC.01  3-Jul-2019

 ----------------------------------------------------------------------
 #t hf aug-cc-pvdz iop(5/13=1,5/36=2,99/5=2) pseudo=read geom=check gue
 ss=(read,tcheck) scf=(maxcycle=1)
 ----------------------------------------------------------------------
 -----
 title
 -----
 Structure from the checkpoint file:  "BDE49_expt_714_mol2.chk"
 Charge =  0 Multiplicity = 2

                         Standard orientation:
 ---------------------------------------------------------------------
 Center     Atomic      Atomic             Coordinates (Angstroms)
 Number     Number       Type             X           Y           Z
 ---------------------------------------------------------------------
      1          6           0        0.429644    1.129671    0.487048
      2          6           0        1.407918   -0.045537    0.321240
      3          6           0        0.824731   -1.392131    0.759029
      4          6           0       -0.682388   -1.561136    0.665433
      5          6           0       -1.491350   -0.566659   -0.195869
      6          1           0       -1.031472   -1.520482    1.703942
      7          1           0       -0.878326   -2.583119    0.333536
      8          7           0       -0.860282    0.795106   -0.184709
      9          6           0        0.187019    1.352025    2.001254
     10          1           0       -0.145695    0.450180    2.518385
     11          1           0       -0.581787    2.117011    2.121519
     12          1           0        1.101653    1.701805    2.486584
     13          6           0        0.985163    2.422509   -0.120622
     14          1           0        1.079064    2.342534   -1.201857
     15          1           0        1.970207    2.626765    0.306695
     16          1           0        0.319606    3.254055    0.102223
     17          6           0       -2.911580   -0.438900    0.383164
     18          1           0       -2.883260   -0.064883    1.409877
     19          1           0       -3.400111   -1.416786    0.384382
     20          1           0       -3.500589    0.252416   -0.217555
     21          6           0       -1.575270   -1.033277   -1.661554
     22          1           0       -0.586144   -1.211920   -2.084159
     23          1           0       -2.073097   -0.265722   -2.255414
     24          1           0       -2.154942   -1.957977   -1.725607
     25          8           0       -1.556295    1.754377   -0.658227
     26          8           0        1.533599   -2.250993    1.220811
     27         17           0        1.976858   -0.273462   -1.400911
     28          1           0        2.318535    0.132765    0.890482
 ---------------------------------------------------------------------

 SCF Done:  E(UHF) =  -1013.41112193     A.U. after    2 cycles

 The electronic state is 2-A.
 Alpha  occ. eigenvalues -- -103.66878 -20.60499 -20.58657 -15.72644 -11.37072
 Alpha  occ. eigenvalues --  -11.33385 -11.32070 -11.30928 -11.26924 -11.25658
 Alpha  occ. eigenvalues --  -11.23955 -11.23901 -11.23431 -10.70105  -8.35817
 Alpha  occ. eigenvalues --   -8.35545  -8.35536  -1.42578  -1.38132  -1.20041
 Alpha  occ. eigenvalues --   -1.14991  -1.10829  -1.01936  -0.98790  -0.95920
 Alpha  occ. eigenvalues --   -0.95615  -0.94583  -0.83389  -0.80047  -0.73309
 Alpha  occ. eigenvalues --   -0.72905  -0.71484  -0.68959  -0.66166  -0.64684
 Alpha  occ. eigenvalues --   -0.63226  -0.62091  -0.60986  -0.60489  -0.58204
 Alpha  occ. eigenvalues --   -0.57613  -0.56843  -0.55924  -0.55106  -0.54601
 Alpha  occ. eigenvalues --   -0.53814  -0.52178  -0.51243  -0.50744  -0.49704
 Alpha  occ. eigenvalues --   -0.47840  -0.46843  -0.45818  -0.43063  -0.37929
 Alpha virt. eigenvalues --    0.03017   0.03456   0.04196   0.04436   0.05547
 Alpha virt. eigenvalues --    0.05739   0.05990   0.06725   0.07200   0.07814
 Alpha virt. eigenvalues --    0.08066   0.08323   0.08405   0.08772   0.09651

  Beta  occ. eigenvalues -- -103.66879 -20.58650 -20.57536 -15.70629 -11.37080
  Beta  occ. eigenvalues --  -11.33348 -11.32265 -11.31122 -11.26914 -11.25559
  Beta  occ. eigenvalues --  -11.23893 -11.23879 -11.23358 -10.70107  -8.35826
  Beta  occ. eigenvalues --   -8.35545  -8.35535  -1.38147  -1.36066  -1.19328
  Beta  occ. eigenvalues --   -1.13238  -1.10691  -1.00758  -0.96041  -0.95630
  Beta  occ. eigenvalues --   -0.94816  -0.94335  -0.83076  -0.79578  -0.72087
  Beta  occ. eigenvalues --   -0.71352  -0.68945  -0.66573  -0.64756  -0.63038
  Beta  occ. eigenvalues --   -0.62153  -0.60802  -0.60231  -0.59491  -0.57130
  Beta  occ. eigenvalues --   -0.56641  -0.56288  -0.55024  -0.54555  -0.53442
  Beta  occ. eigenvalues --   -0.52343  -0.51092  -0.50569  -0.49607  -0.47698
  Beta  occ. eigenvalues --   -0.46354  -0.44361  -0.42881  -0.42139
  Beta virt. eigenvalues --    0.03023   0.03459   0.04204   0.04446   0.05547
  Beta virt. eigenvalues --    0.05742   0.05991   0.06684   0.07207   0.07749
  Beta virt. eigenvalues --    0.08045   0.08280   0.08400   0.08746   0.09650

 Mulliken charges and spin densities:
               1          2
     1  C   -2.738652  -0.103273
     2  C    0.777418   0.025202
     3  C    0.173529  -0.007751
     4  C    0.830691   0.019754
     5  C   -2.907138  -0.092572
     6  H    0.059316   0.000842
     7  H    0.020199  -0.001910
     8  N    0.297381   0.522648
     9  C    1.282665   0.022739
    10  H   -0.082191  -0.003475
    11  H   -0.031515  -0.003781
    12  H    0.017285   0.000387
    13  C    1.345514   0.005607
    14  H    0.029320  -0.004828
    15  H    0.049321  -0.001313
    16  H    0.110404  -0.006631
    17  C    1.434844   0.010218
    18  H   -0.081306  -0.003982
    19  H    0.035233  -0.002726
    20  H    0.016868  -0.007688
    21  C    1.051152   0.012579
    22  H   -0.058194  -0.003861
    23  H    0.001805  -0.003621
    24  H    0.015319  -0.001322
    25  O   -0.719961   0.633893
    26  O   -0.536701   0.001731
    27  Cl  -0.145771  -0.004254
    28  H   -0.246836  -0.002611
 Sum of Mulliken charges =   0.00000   1.00000

 Dipole moment (field-independent basis, Debye):
    X=             -1.4429    Y=              0.7067    Z=              1.7920  Tot=              2.4067
                          Isotropic Fermi Contact Couplings
        Atom                 a.u.       MegaHertz       Gauss      10(-4) cm-1
     1  C(13)             -0.03400     -38.22093     -13.63818     -12.74913
     2  C(13)              0.00947      10.65015       3.80024       3.55251
     3  C(13)             -0.00152      -1.71011      -0.61021      -0.57043
     4  C(13)              0.00198       2.23095       0.79606       0.74416
     5  C(13)             -0.03303     -37.12966     -13.24878     -12.38512
     6  H(1)              -0.00032      -1.43897      -0.51346      -0.47999
     7  H(1)              -0.00053      -2.36775      -0.84487      -0.78980
     8  N(14)              0.21731      70.21340      25.05389      23.42067

 Normal termination of Gaussian 16 at Tue Apr  8 23:25:02 2025.
