 Gaussian 16, Revision C.01,

 ----------------------------------------------------------------------
 #t hf aug-cc-pvdz symm=none int=(grid=ultrafine) guess=(read,tcheck) s
 table=(opt,rrhf)
 ----------------------------------------------------------------------
 -----
 title
 -----
 Symbolic Z-matrix:
 Charge =  0 Multiplicity = 1

 SCF Done:  E(RHF) =  -977.084152271     A.U. after   12 cycles

 1\1\GINC-SE412\Stability\RHF\Aug-CC-pVDZ\F4H2Si2\OHZDE\09-Apr-2025\0\\
 #t hf aug-cc-pvdz symm=none int=(grid=ultrafine) guess=(read,tcheck) s
 table=(opt,rrhf)\\title\\0,1\Si,0,1.513723,0.58826,0.\Si,0,-0.756409,-
 0.015574,0.\F,0,-1.656677,1.297267,-0.000001\F,0,2.39825,-0.759212,0.0
 00001\F,0,-1.162779,-0.865803,1.279706\H,0,1.82673,1.362188,1.217\F,0,
 -1.162779,-0.865805,-1.279705\H,0,1.82673,1.362186,-1.217002\\Version=
 ES64L-G16RevC.01\HF=-977.0841523\RMSD=1.881e-09\Dipole=0.5414644,0.693
 2792,0.0000004\Quadrupole=-1.3014619,0.4819337,0.8195282,2.6438935,-0.

 Normal termination of Gaussian 16 at Wed Apr  9 00:07:30 2025.
 Gaussian 16:  ES64L-G16RevC.01  3-Jul-2019

 ----------------------------------------------------------------------
 #t hf aug-cc-pvdz iop(5/13=1,5/36=2,99/5=2) pseudo=read geom=check gue
 ss=(read,tcheck) scf=(maxcycle=1)
 ----------------------------------------------------------------------
 -----
 title
 -----
 Structure from the checkpoint file:  "BDE49_nonexpt_2309_mol1.chk"
 Charge =  0 Multiplicity = 1

                         Standard orientation:
 ---------------------------------------------------------------------
 Center     Atomic      Atomic             Coordinates (Angstroms)
 Number     Number       Type             X           Y           Z
 ---------------------------------------------------------------------
      1         14           0        1.513723    0.588260   -0.000000
      2         14           0       -0.756409   -0.015574   -0.000000
      3          9           0       -1.656677    1.297267   -0.000001
      4          9           0        2.398250   -0.759212    0.000001
      5          9           0       -1.162779   -0.865803    1.279706
      6          1           0        1.826730    1.362188    1.217000
      7          9           0       -1.162779   -0.865805   -1.279705
      8          1           0        1.826730    1.362186   -1.217002
 ---------------------------------------------------------------------

 SCF Done:  E(RHF) =  -977.307259287     A.U. after    2 cycles

 The electronic state is 1-A.
 Alpha  occ. eigenvalues --  -69.21959 -69.14831 -26.14610 -26.14500 -26.14498
 Alpha  occ. eigenvalues --  -26.13135  -6.95644  -6.89549  -4.06641  -4.06636
 Alpha  occ. eigenvalues --   -4.06351  -4.00465  -4.00270  -4.00269  -1.68761
 Alpha  occ. eigenvalues --   -1.66968  -1.66907  -1.65689  -0.88020  -0.82767
 Alpha  occ. eigenvalues --   -0.81083  -0.81029  -0.78258  -0.76005  -0.76004
 Alpha  occ. eigenvalues --   -0.74392  -0.74389  -0.73620  -0.73593  -0.72258
 Alpha  occ. eigenvalues --   -0.66754  -0.52183  -0.47688
 Alpha virt. eigenvalues --    0.03494   0.04222   0.04882   0.05858   0.07127
 Alpha virt. eigenvalues --    0.07494   0.07862   0.08527   0.10770   0.12392
 Alpha virt. eigenvalues --    0.12636   0.15872   0.17157   0.18398   0.21045

 Mulliken charges:
               1
     1  Si   0.643013
     2  Si   2.387758
     3  F   -0.728673
     4  F   -0.778417
     5  F   -0.759365
     6  H   -0.002475
     7  F   -0.759365
     8  H   -0.002476
 Sum of Mulliken charges =  -0.00000

 Dipole moment (field-independent basis, Debye):
    X=              1.4808    Y=              1.9330    Z=              0.0000  Tot=              2.4350

 Test job not archived.
 1\1\GINC-SE412\SP\RHF\Aug-CC-pVDZ\F4H2Si2\OHZDE\09-Apr-2025\0\\#t hf a
 ug-cc-pvdz iop(5/13=1,5/36=2,99/5=2) pseudo=read geom=check guess=(rea
 d,tcheck) scf=(maxcycle=1)\\title\\0,1\Si,0,1.513723,0.58826,0.\Si,0,-
 0.756409,-0.015574,0.\F,0,-1.656677,1.297267,-0.000001\F,0,2.39825,-0.
 759212,0.000001\F,0,-1.162779,-0.865803,1.279706\H,0,1.82673,1.362188,
 1.217\F,0,-1.162779,-0.865805,-1.279705\H,0,1.82673,1.362186,-1.217002
 \\Version=ES64L-G16RevC.01\State=1-A\HF=-977.3072593\RMSD=4.821e-03\Di
 pole=0.5825849,0.7605126,0.0000004\Quadrupole=-1.4541078,0.5410718,0.9

 Normal termination of Gaussian 16 at Wed Apr  9 00:07:34 2025.
