 Gaussian 16, Revision C.01,

 ----------------------------------------------------------------------
 #t hf aug-cc-pvdz symm=none int=(grid=ultrafine) guess=(read,tcheck) s
 table=(opt,rrhf)
 ----------------------------------------------------------------------
 -----
 title
 -----
 Symbolic Z-matrix:
 Charge =  0 Multiplicity = 1

 SCF Done:  E(RHF) =  -1105.82678463     A.U. after   15 cycles
 Normal termination of Gaussian 16 at Tue Apr  8 23:28:08 2025.
 Gaussian 16:  ES64L-G16RevC.01  3-Jul-2019

 ----------------------------------------------------------------------
 #t hf aug-cc-pvdz iop(5/13=1,5/36=2,99/5=2) pseudo=read geom=check gue
 ss=(read,tcheck) scf=(maxcycle=1)
 ----------------------------------------------------------------------
 -----
 title
 -----
 Structure from the checkpoint file:  "BDE49_nonexpt_1361_mol1.chk"
 Charge =  0 Multiplicity = 1

                         Standard orientation:
 ---------------------------------------------------------------------
 Center     Atomic      Atomic             Coordinates (Angstroms)
 Number     Number       Type             X           Y           Z
 ---------------------------------------------------------------------
      1          9           0       -2.632588    0.000007   -0.381943
      2         15           0       -1.262127    0.000007    0.478101
      3          6           0       -0.000005    1.278980   -0.000084
      4          8           0        0.000018    2.471752   -0.000042
      5          6           0       -0.000012   -1.278980   -0.000068
      6         15           0        1.262173   -0.000007   -0.478105
      7          8           0       -0.000009   -2.471752   -0.000045
      8          9           0        2.632515   -0.000007    0.382129
 ---------------------------------------------------------------------

 SCF Done:  E(RHF) =  -1106.02456735     A.U. after    2 cycles

 The electronic state is 1-A.
 Alpha  occ. eigenvalues --  -81.39468 -81.39466 -26.17730 -26.17729 -20.63965
 Alpha  occ. eigenvalues --  -20.63965 -11.42069 -11.42060  -7.89082  -7.89071
 Alpha  occ. eigenvalues --   -5.03269  -5.03256  -5.02800  -5.02755  -5.02561
 Alpha  occ. eigenvalues --   -5.02548  -1.69722  -1.69703  -1.42907  -1.42683
 Alpha  occ. eigenvalues --   -1.05320  -0.89587  -0.85647  -0.84644  -0.78671
 Alpha  occ. eigenvalues --   -0.78637  -0.78192  -0.77466  -0.74509  -0.74039
 Alpha  occ. eigenvalues --   -0.69833  -0.67232  -0.63584  -0.61302  -0.55863
 Alpha  occ. eigenvalues --   -0.43509  -0.42097  -0.38161
 Alpha virt. eigenvalues --   -0.02261   0.04865   0.05560   0.05835   0.06775
 Alpha virt. eigenvalues --    0.07597   0.07706   0.08274   0.08743   0.10289
 Alpha virt. eigenvalues --    0.12514   0.12575   0.14168   0.14501   0.14759

 Mulliken charges:
               1
     1  F   -0.615134
     2  P    1.172325
     3  C   -0.164254
     4  O   -0.392921
     5  C   -0.164254
     6  P    1.172298
     7  O   -0.392921
     8  F   -0.615139
 Sum of Mulliken charges =  -0.00000

 Dipole moment (field-independent basis, Debye):
    X=             -0.0001    Y=             -0.0000    Z=             -0.0001  Tot=              0.0001

 Test job not archived.
 1\1\GINC-SE363\SP\RHF\Aug-CC-pVDZ\C2F2O2P2\OHZDE\08-Apr-2025\0\\#t hf
 aug-cc-pvdz iop(5/13=1,5/36=2,99/5=2) pseudo=read geom=check guess=(re
 ad,tcheck) scf=(maxcycle=1)\\title\\0,1\F,0,-2.632588,0.000009,-0.3819
 43\P,0,-1.262127,0.000008,0.478101\C,0,-0.000004,1.27898,-0.000084\O,0
 ,0.00002,2.471752,-0.000042\C,0,-0.000013,-1.27898,-0.000068\P,0,1.262
 173,-0.000008,-0.478105\O,0,-0.000011,-2.471752,-0.000045\F,0,2.632515
 ,-0.000009,0.382129\\Version=ES64L-G16RevC.01\State=1-A\HF=-1106.02456
 73\RMSD=6.138e-03\Dipole=-0.000022,0.,-0.0000323\Quadrupole=1.1407425,

 Normal termination of Gaussian 16 at Tue Apr  8 23:28:11 2025.
