 Gaussian 16, Revision C.01,

 ----------------------------------------------------------------------
 #t hf aug-cc-pvdz symm=none int=(grid=ultrafine) guess=(read,tcheck) s
 table=(opt,rrhf)
 ----------------------------------------------------------------------
 -----
 title
 -----
 Symbolic Z-matrix:
 Charge =  0 Multiplicity = 1

 SCF Done:  E(RHF) =  -408.394436502     A.U. after   10 cycles
 Normal termination of Gaussian 16 at Tue Apr  8 22:43:49 2025.
 Gaussian 16:  ES64L-G16RevC.01  3-Jul-2019

 ----------------------------------------------------------------------
 #t hf aug-cc-pvdz iop(5/13=1,5/36=2,99/5=2) pseudo=read geom=check gue
 ss=(read,tcheck) scf=(maxcycle=1)
 ----------------------------------------------------------------------
 -----
 title
 -----
 Structure from the checkpoint file:  "BDE49_expt_1538_mol1.chk"
 Charge =  0 Multiplicity = 1

                         Standard orientation:
 ---------------------------------------------------------------------
 Center     Atomic      Atomic             Coordinates (Angstroms)
 Number     Number       Type             X           Y           Z
 ---------------------------------------------------------------------
      1         14           0       -0.000001   -0.000004    0.376076
      2          6           0       -1.499727   -0.969284   -0.222114
      3          1           0       -1.471594   -2.002658    0.135926
      4          1           0       -1.541766   -0.996550   -1.315642
      5          1           0       -2.430371   -0.519141    0.135822
      6          6           0       -0.089570    1.783425   -0.222122
      7          1           0       -0.092179    1.833506   -1.315644
      8          1           0        0.765583    2.364322    0.135818
      9          1           0       -0.998565    2.275734    0.135946
     10          6           0        1.589297   -0.814146   -0.222121
     11          1           0        0.000003    0.000014    1.864759
     12          1           0        1.633873   -0.837026   -1.315648
     13          1           0        1.664900   -1.845136    0.135920
     14          1           0        2.470130   -0.272980    0.135818
 ---------------------------------------------------------------------

 SCF Done:  E(RHF) =  -408.462036197     A.U. after    2 cycles

 The electronic state is 1-A.
 Alpha  occ. eigenvalues --  -69.04556 -11.20883 -11.20877 -11.20877  -6.79763
 Alpha  occ. eigenvalues --   -3.90554  -3.90542  -3.90542  -0.95745  -0.91733
 Alpha  occ. eigenvalues --   -0.91733  -0.63604  -0.57333  -0.56218  -0.56217
 Alpha  occ. eigenvalues --   -0.54271  -0.54270  -0.53137  -0.44068  -0.43144
 Alpha  occ. eigenvalues --   -0.43144
 Alpha virt. eigenvalues --    0.03131   0.04805   0.04805   0.05047   0.06938
 Alpha virt. eigenvalues --    0.06938   0.07370   0.07370   0.07492   0.09146
 Alpha virt. eigenvalues --    0.10277   0.10277   0.12650   0.14995   0.15588

 Mulliken charges:
               1
     1  Si   1.322272
     2  C    0.382539
     3  H   -0.297244
     4  H   -0.188000
     5  H   -0.297239
     6  C    0.382568
     7  H   -0.188046
     8  H   -0.297225
     9  H   -0.297217
    10  C    0.382540
    11  H   -0.122468
    12  H   -0.188018
    13  H   -0.297242
    14  H   -0.297220
 Sum of Mulliken charges =  -0.00000

 Dipole moment (field-independent basis, Debye):
    X=             -0.0000    Y=              0.0000    Z=             -0.5328  Tot=              0.5328

 Test job not archived.
 1\1\GINC-SE088\SP\RHF\Aug-CC-pVDZ\C3H10Si1\OHZDE\08-Apr-2025\0\\#t hf
 aug-cc-pvdz iop(5/13=1,5/36=2,99/5=2) pseudo=read geom=check guess=(re
 ad,tcheck) scf=(maxcycle=1)\\title\\0,1\Si,0,-0.000001,-0.000004,0.376
 076\C,0,-1.498524,-0.971142,-0.222114\H,0,-1.469111,-2.00448,0.135926\
 H,0,-1.54053,-0.99846,-1.315642\H,0,-2.429726,-0.522153,0.135822\C,0,-
 0.09178,1.783313,-0.222122\H,0,-0.094451,1.83339,-1.315644\H,0,0.76265
 2,2.365269,0.135818\H,0,-1.001384,2.274495,0.135946\C,0,1.590305,-0.81
 2176,-0.222121\H,0,0.000003,0.000014,1.864759\H,0,1.634909,-0.835,-1.3

 Normal termination of Gaussian 16 at Tue Apr  8 22:43:53 2025.
