 Gaussian 16, Revision C.01,

 ----------------------------------------------------------------------
 #t hf aug-cc-pvdz symm=none int=(grid=ultrafine) guess=(read,tcheck) s
 table=(opt,rrhf)
 ----------------------------------------------------------------------
 -----
 title
 -----
 Symbolic Z-matrix:
 Charge =  0 Multiplicity = 1

 SCF Done:  E(RHF) =  -613.289484431     A.U. after   16 cycles
 Normal termination of Gaussian 16 at Wed Apr  9 00:41:07 2025.
 Gaussian 16:  ES64L-G16RevC.01  3-Jul-2019

 ----------------------------------------------------------------------
 #t hf aug-cc-pvdz iop(5/13=1,5/36=2,99/5=2) pseudo=read geom=check gue
 ss=(read,tcheck) scf=(maxcycle=1)
 ----------------------------------------------------------------------
 -----
 title
 -----
 Structure from the checkpoint file:  "BDE49_nonexpt_700_mol1.chk"
 Charge =  0 Multiplicity = 1

                         Standard orientation:
 ---------------------------------------------------------------------
 Center     Atomic      Atomic             Coordinates (Angstroms)
 Number     Number       Type             X           Y           Z
 ---------------------------------------------------------------------
      1          6           0       -0.468909    1.142036   -0.273397
      2          6           0       -1.842668    1.239359   -0.090931
      3          6           0       -2.565881    0.079146    0.177500
      4          7           0       -2.001837   -1.127743    0.274586
      5          6           0       -0.680655   -1.209279    0.110994
      6          6           0        0.145527   -0.109717   -0.160448
      7          1           0       -2.347366    2.195427   -0.164626
      8          1           0       -3.642236    0.117816    0.317762
      9          1           0        0.117009    2.026678   -0.498769
     10          5           0        2.948173    0.629763    0.809861
     11          1           0       -0.253589   -2.204339    0.204919
     12         15           0        1.940141   -0.299573   -0.429845
     13          1           0        4.048609    0.241675    1.037468
     14          1           0        2.570594    1.684125    1.207991
     15          1           0        2.152381   -1.671670   -0.210789
 ---------------------------------------------------------------------

 SCF Done:  E(RHF) =  -613.388178330     A.U. after    2 cycles

 The electronic state is 1-A.
 Alpha  occ. eigenvalues --  -81.25579 -15.63816 -11.29402 -11.29082 -11.27684
 Alpha  occ. eigenvalues --  -11.27083 -11.25915  -7.76372  -7.63369  -4.90569
 Alpha  occ. eigenvalues --   -4.90462  -4.90124  -1.23776  -1.08625  -1.03805
 Alpha  occ. eigenvalues --   -0.87700  -0.86566  -0.80068  -0.72308  -0.68050
 Alpha  occ. eigenvalues --   -0.66856  -0.63553  -0.58522  -0.57777  -0.55399
 Alpha  occ. eigenvalues --   -0.52855  -0.49230  -0.48149  -0.42004  -0.40578
 Alpha  occ. eigenvalues --   -0.37619  -0.31255
 Alpha virt. eigenvalues --    0.02978   0.03597   0.03999   0.04633   0.05237
 Alpha virt. eigenvalues --    0.05601   0.06511   0.07441   0.07868   0.08398
 Alpha virt. eigenvalues --    0.09299   0.09728   0.10741   0.10914   0.11341

 Mulliken charges:
               1
     1  C    0.188468
     2  C    0.653040
     3  C    0.583301
     4  N   -0.498794
     5  C    0.780661
     6  C   -0.171041
     7  H   -0.398231
     8  H   -0.335566
     9  H   -0.531894
    10  B   -0.444837
    11  H   -0.429390
    12  P   -0.069209
    13  H    0.302196
    14  H    0.283383
    15  H    0.087911
 Sum of Mulliken charges =  -0.00000

 Dipole moment (field-independent basis, Debye):
    X=              0.3049    Y=              1.3919    Z=              0.1384  Tot=              1.4316

 Test job not archived.
 1\1\GINC-SE095\SP\RHF\Aug-CC-pVDZ\C5H7B1N1P1\OHZDE\09-Apr-2025\0\\#t h
 f aug-cc-pvdz iop(5/13=1,5/36=2,99/5=2) pseudo=read geom=check guess=(
 read,tcheck) scf=(maxcycle=1)\\title\\0,1\C,0,-0.468909,1.142036,-0.27
 3397\C,0,-1.842668,1.239359,-0.090931\C,0,-2.565881,0.079146,0.1775\N,
 0,-2.001837,-1.127743,0.274586\C,0,-0.680655,-1.209279,0.110994\C,0,0.
 145527,-0.109717,-0.160448\H,0,-2.347366,2.195427,-0.164626\H,0,-3.642
 236,0.117816,0.317762\H,0,0.117009,2.026678,-0.498769\B,0,2.948173,0.6
 29763,0.809861\H,0,-0.253589,-2.204339,0.204919\P,0,1.940141,-0.299573

 Normal termination of Gaussian 16 at Wed Apr  9 00:41:13 2025.
