 Gaussian 16, Revision C.01,

 ----------------------------------------------------------------------
 #t hf aug-cc-pvdz symm=none int=(grid=ultrafine) guess=(read,tcheck) s
 table=(opt,rrhf)
 ----------------------------------------------------------------------
 -----
 title
 -----
 Symbolic Z-matrix:
 Charge =  0 Multiplicity = 1

 SCF Done:  E(RHF) =  -498.626962793     A.U. after   12 cycles

 1\1\GINC-SE362\Stability\RHF\Aug-CC-pVDZ\C4H11P1\OHZDE\08-Apr-2025\0\\
 #t hf aug-cc-pvdz symm=none int=(grid=ultrafine) guess=(read,tcheck) s
 table=(opt,rrhf)\\title\\0,1\P,0,-2.348068,-0.290275,-0.108809\C,0,-0.
 741296,0.669133,0.026756\C,0,3.039174,-0.405652,-0.011678\H,0,-0.73017
 7,1.285698,0.928914\H,0,-0.71599,1.350975,-0.830399\C,0,0.48606,-0.251
 226,-0.008712\C,0,1.815441,0.514342,0.018764\H,0,0.447963,-0.878294,-0
 .90781\H,0,0.451708,-0.94011,0.844616\H,0,1.851278,1.142378,0.916934\H
 ,0,1.851704,1.201225,-0.835288\H,0,3.048362,-1.022184,-0.915805\H,0,3.

 Normal termination of Gaussian 16 at Tue Apr  8 23:23:10 2025.
 Gaussian 16:  ES64L-G16RevC.01  3-Jul-2019

 ----------------------------------------------------------------------
 #t hf aug-cc-pvdz iop(5/13=1,5/36=2,99/5=2) pseudo=read geom=check gue
 ss=(read,tcheck) scf=(maxcycle=1)
 ----------------------------------------------------------------------
 -----
 title
 -----
 Structure from the checkpoint file:  "BDE49_nonexpt_1266_mol1.chk"
 Charge =  0 Multiplicity = 1

                         Standard orientation:
 ---------------------------------------------------------------------
 Center     Atomic      Atomic             Coordinates (Angstroms)
 Number     Number       Type             X           Y           Z
 ---------------------------------------------------------------------
      1         15           0       -2.348068   -0.290275   -0.108809
      2          6           0       -0.741296    0.669133    0.026756
      3          6           0        3.039174   -0.405652   -0.011678
      4          1           0       -0.730177    1.285698    0.928914
      5          1           0       -0.715990    1.350975   -0.830399
      6          6           0        0.486060   -0.251226   -0.008712
      7          6           0        1.815441    0.514342    0.018764
      8          1           0        0.447963   -0.878294   -0.907810
      9          1           0        0.451708   -0.940110    0.844616
     10          1           0        1.851278    1.142378    0.916934
     11          1           0        1.851704    1.201225   -0.835288
     12          1           0        3.048362   -1.022184   -0.915805
     13          1           0        3.047796   -1.081408    0.849165
     14          1           0        3.969293    0.168635    0.008047
     15          1           0       -3.229430    0.777029    0.209314
     16          1           0       -2.367773   -0.809400    1.213663
 ---------------------------------------------------------------------

 SCF Done:  E(RHF) =  -498.699308460     A.U. after    2 cycles

 The electronic state is 1-A.
 Alpha  occ. eigenvalues --  -81.24927 -11.24154 -11.23576 -11.23229 -11.22530
 Alpha  occ. eigenvalues --   -7.75270  -4.89269  -4.89215  -4.88892  -1.06899
 Alpha  occ. eigenvalues --   -0.98605  -0.87469  -0.79922  -0.74935  -0.65088
 Alpha  occ. eigenvalues --   -0.59521  -0.58639  -0.55193  -0.52714  -0.51331
 Alpha  occ. eigenvalues --   -0.48890  -0.47505  -0.47172  -0.43847  -0.34632
 Alpha virt. eigenvalues --    0.03484   0.04359   0.04715   0.05009   0.06209
 Alpha virt. eigenvalues --    0.06738   0.06812   0.07688   0.08767   0.09281
 Alpha virt. eigenvalues --    0.09921   0.10231   0.11382   0.13205   0.13785

 Mulliken charges:
               1
     1  P    0.125378
     2  C    0.011478
     3  C    0.474961
     4  H   -0.156178
     5  H   -0.142570
     6  C    0.077554
     7  C    0.227587
     8  H   -0.154842
     9  H   -0.177290
    10  H   -0.134815
    11  H   -0.134425
    12  H   -0.076129
    13  H   -0.077875
    14  H   -0.061302
    15  H    0.088335
    16  H    0.110134
 Sum of Mulliken charges =   0.00000

 Dipole moment (field-independent basis, Debye):
    X=              0.9162    Y=              0.7732    Z=              0.5252  Tot=              1.3089

 Test job not archived.
 1\1\GINC-SE362\SP\RHF\Aug-CC-pVDZ\C4H11P1\OHZDE\08-Apr-2025\0\\#t hf a
 ug-cc-pvdz iop(5/13=1,5/36=2,99/5=2) pseudo=read geom=check guess=(rea
 d,tcheck) scf=(maxcycle=1)\\title\\0,1\P,0,-2.348068,-0.290275,-0.1088
 09\C,0,-0.741296,0.669133,0.026756\C,0,3.039174,-0.405652,-0.011678\H,
 0,-0.730177,1.285698,0.928914\H,0,-0.71599,1.350975,-0.830399\C,0,0.48
 606,-0.251226,-0.008712\C,0,1.815441,0.514342,0.018764\H,0,0.447963,-0
 .878294,-0.90781\H,0,0.451708,-0.94011,0.844616\H,0,1.851278,1.142378,
 0.916934\H,0,1.851704,1.201225,-0.835288\H,0,3.048362,-1.022184,-0.915

 Normal termination of Gaussian 16 at Tue Apr  8 23:23:14 2025.
