 Gaussian 16, Revision C.01,

 ----------------------------------------------------------------------
 #t hf aug-cc-pvdz symm=none int=(grid=ultrafine) guess=(read,tcheck) s
 table=(opt,rrhf)
 ----------------------------------------------------------------------
 -----
 title
 -----
 Symbolic Z-matrix:
 Charge =  0 Multiplicity = 1

 SCF Done:  E(RHF) =  -1512.98059115     A.U. after   12 cycles
 Normal termination of Gaussian 16 at Tue Apr  8 23:27:49 2025.
 Gaussian 16:  ES64L-G16RevC.01  3-Jul-2019

 ----------------------------------------------------------------------
 #t hf aug-cc-pvdz iop(5/13=1,5/36=2,99/5=2) pseudo=read geom=check gue
 ss=(read,tcheck) scf=(maxcycle=1)
 ----------------------------------------------------------------------
 -----
 title
 -----
 Structure from the checkpoint file:  "BDE49_expt_804_mol1.chk"
 Charge =  0 Multiplicity = 1

                         Standard orientation:
 ---------------------------------------------------------------------
 Center     Atomic      Atomic             Coordinates (Angstroms)
 Number     Number       Type             X           Y           Z
 ---------------------------------------------------------------------
      1         14           0       -2.291722    0.033290   -0.025113
      2         14           0       -0.000527    0.000063   -0.664078
      3          6           0       -3.057158    1.735513   -0.338902
      4          6           0       -2.489472   -0.378910    1.811168
      5          6           0       -3.255964   -1.235490   -1.044034
      6         14           0        1.116676   -2.000650   -0.025517
      7         14           0        1.174439    1.967536   -0.025508
      8          1           0       -0.000997   -0.000285   -2.162329
      9          1           0       -3.188008   -1.016228   -2.113449
     10          1           0       -4.315920   -1.221958   -0.767089
     11          1           0       -2.883150   -2.251244   -0.888869
     12          1           0       -2.593226    2.510513    0.277515
     13          1           0       -4.126511    1.719350   -0.100957
     14          1           0       -2.954432    2.034974   -1.385791
     15          1           0       -1.947139    0.328060    2.445497
     16          1           0       -2.121384   -1.382657    2.042202
     17          1           0       -3.545591   -0.340227    2.099231
     18          6           0        3.031218    1.779107   -0.339715
     19          1           0        3.552220    2.712942   -0.101176
     20          1           0        3.239286    1.540766   -1.386660
     21          1           0        3.469916    0.989393    0.276466
     22          6           0        0.918051    2.343912    1.811345
     23          1           0       -0.134877    2.527609    2.043738
     24          1           0        1.480530    3.238656    2.099343
     25          1           0        1.259399    1.520133    2.444876
     26          6           0        0.557497    3.437486   -1.043566
     27          1           0       -0.508420    3.623103   -0.887678
     28          1           0        0.712575    3.268995   -2.113097
     29          1           0        1.099857    4.348374   -0.766938
     30          6           0        0.022993   -3.514859   -0.330242
     31          1           0       -0.877406   -3.498418    0.290132
     32          1           0        0.572289   -4.432410   -0.091973
     33          1           0       -0.292289   -3.578556   -1.375574
     34          6           0        2.692981   -2.205259   -1.050984
     35          1           0        2.464539   -2.257681   -2.119349
     36          1           0        3.211027   -3.130257   -0.774551
     37          1           0        3.388308   -1.375390   -0.900294
     38          6           0        1.581356   -1.961687    1.808585
     39          1           0        0.701394   -1.842622    2.447226
     40          1           0        2.268983   -1.141449    2.034126
     41          1           0        2.075888   -2.895722    2.096524
 ---------------------------------------------------------------------

 SCF Done:  E(RHF) =  -1513.18401387     A.U. after    2 cycles

 The electronic state is 1-A.
 Alpha  occ. eigenvalues --  -69.04417 -69.04416 -69.04414 -69.02059 -11.20950
 Alpha  occ. eigenvalues --  -11.20950 -11.20949 -11.20849 -11.20847 -11.20847
 Alpha  occ. eigenvalues --  -11.20684 -11.20681 -11.20681  -6.79596  -6.79596
 Alpha  occ. eigenvalues --   -6.79595  -6.77667  -3.90347  -3.90347  -3.90346
 Alpha  occ. eigenvalues --   -3.90341  -3.90340  -3.90338  -3.90327  -3.90326
 Alpha  occ. eigenvalues --   -3.90324  -3.88367  -3.88312  -3.88312  -0.96110
 Alpha  occ. eigenvalues --   -0.95388  -0.95387  -0.91749  -0.91646  -0.91643
 Alpha  occ. eigenvalues --   -0.91485  -0.91482  -0.91315  -0.69313  -0.61334
 Alpha  occ. eigenvalues --   -0.61334  -0.58881  -0.57234  -0.57231  -0.56678
 Alpha  occ. eigenvalues --   -0.56462  -0.56460  -0.55801  -0.55797  -0.55772
 Alpha  occ. eigenvalues --   -0.55010  -0.54221  -0.54216  -0.54057  -0.53837
 Alpha  occ. eigenvalues --   -0.53833  -0.53448  -0.53057  -0.53051  -0.52816
 Alpha  occ. eigenvalues --   -0.43830  -0.43186  -0.43185  -0.42784  -0.42781
 Alpha  occ. eigenvalues --   -0.42401  -0.40202  -0.33730  -0.33729
 Alpha virt. eigenvalues --    0.02753   0.03685   0.03686   0.04159   0.05195
 Alpha virt. eigenvalues --    0.05196   0.05647   0.05648   0.05717   0.06798
 Alpha virt. eigenvalues --    0.07108   0.07290   0.07291   0.07444   0.07445

 Mulliken charges:
               1
     1  Si   1.535805
     2  Si  -0.466690
     3  C    0.617669
     4  C    0.833197
     5  C    0.519140
     6  Si   1.535587
     7  Si   1.535734
     8  H   -0.010655
     9  H   -0.364757
    10  H   -0.340851
    11  H   -0.396734
    12  H   -0.395869
    13  H   -0.367851
    14  H   -0.351362
    15  H   -0.388557
    16  H   -0.403984
    17  H   -0.337424
    18  C    0.618393
    19  H   -0.366531
    20  H   -0.351450
    21  H   -0.397246
    22  C    0.833074
    23  H   -0.403830
    24  H   -0.337622
    25  H   -0.388278
    26  C    0.518969
    27  H   -0.397105
    28  H   -0.364743
    29  H   -0.341060
    30  C    0.619867
    31  H   -0.397284
    32  H   -0.366949
    33  H   -0.351276
    34  C    0.518750
    35  H   -0.364558
    36  H   -0.341510
    37  H   -0.395913
    38  C    0.833120
    39  H   -0.386834
    40  H   -0.404530
    41  H   -0.337852
 Sum of Mulliken charges =   0.00000

 Dipole moment (field-independent basis, Debye):
    X=             -0.0014    Y=              0.0005    Z=              0.5516  Tot=              0.5516

 Test job not archived.
 1\1\GINC-SE404\SP\RHF\Aug-CC-pVDZ\C9H28Si4\OHZDE\08-Apr-2025\0\\#t hf
 aug-cc-pvdz iop(5/13=1,5/36=2,99/5=2) pseudo=read geom=check guess=(re
 ad,tcheck) scf=(maxcycle=1)\\title\\0,1\Si,0,2.291725,-0.033068,-0.025
 113\Si,0,0.000527,-0.000063,-0.664078\C,0,3.057326,-1.735217,-0.338902
 \C,0,2.489435,0.379151,1.811168\C,0,3.255844,1.235805,-1.044034\Si,0,-
 1.11687,2.000542,-0.025517\Si,0,-1.174248,-1.96765,-0.025508\H,0,0.000
 997,0.000285,-2.162329\H,0,3.18791,1.016537,-2.113449\H,0,4.315802,1.2
 22376,-0.767089\H,0,2.882932,2.251523,-0.888869\H,0,2.593469,-2.510262

 Normal termination of Gaussian 16 at Tue Apr  8 23:28:59 2025.
