 Gaussian 16, Revision C.01,

 ----------------------------------------------------------------------
 #t hf aug-cc-pvdz symm=none int=(grid=ultrafine) guess=(read,tcheck) s
 table=opt
 ----------------------------------------------------------------------
 -----
 title
 -----
 Symbolic Z-matrix:
 Charge =  0 Multiplicity = 2

 SCF Done:  E(UHF) =  -1223.12555548     A.U. after   20 cycles
 Normal termination of Gaussian 16 at Tue Apr  8 22:49:22 2025.
 Gaussian 16:  ES64L-G16RevC.01  3-Jul-2019

 ----------------------------------------------------------------------
 #t hf aug-cc-pvdz iop(5/13=1,5/36=2,99/5=2) pseudo=read geom=check gue
 ss=(read,tcheck) scf=(maxcycle=1)
 ----------------------------------------------------------------------
 -----
 title
 -----
 Structure from the checkpoint file:  "BDE49_expt_1719_mol2.chk"
 Charge =  0 Multiplicity = 2

                         Standard orientation:
 ---------------------------------------------------------------------
 Center     Atomic      Atomic             Coordinates (Angstroms)
 Number     Number       Type             X           Y           Z
 ---------------------------------------------------------------------
      1          6           0        0.207460   -0.677829    0.000141
      2          8           0        0.236485   -1.887507    0.000011
      3          6           0       -1.044678    0.091848    0.000039
      4          8           0        1.286155    0.123124    0.000100
      5         17           0       -2.526990   -0.747610   -0.000147
      6         17           0       -1.086971    1.800434    0.000019
      7          6           0        2.569938   -0.552643    0.000036
      8          6           0        3.642722    0.515675   -0.000004
      9          1           0        2.624673   -1.194278   -0.882472
     10          1           0        2.624751   -1.194290    0.882531
     11          1           0        3.562199    1.148715   -0.886036
     12          1           0        4.629665    0.045908   -0.000051
     13          1           0        3.562278    1.148702    0.886044
 ---------------------------------------------------------------------

 SCF Done:  E(UHF) =  -1223.26164988     A.U. after    2 cycles

 The electronic state is 2-A.
 Alpha  occ. eigenvalues -- -103.70350-103.69917 -20.63097 -20.59192 -11.41935
 Alpha  occ. eigenvalues --  -11.39560 -11.31342 -11.24499 -10.73614 -10.73201
 Alpha  occ. eigenvalues --   -8.39196  -8.39195  -8.39004  -8.38786  -8.38781
 Alpha  occ. eigenvalues --   -8.38585  -1.44214  -1.35414  -1.26415  -1.17629
 Alpha  occ. eigenvalues --   -1.05884  -0.97729  -0.86860  -0.79906  -0.73435
 Alpha  occ. eigenvalues --   -0.71655  -0.71412  -0.64656  -0.63629  -0.60633
 Alpha  occ. eigenvalues --   -0.59241  -0.56480  -0.54959  -0.53442  -0.52999
 Alpha  occ. eigenvalues --   -0.51463  -0.49647  -0.49540  -0.47799  -0.38635
 Alpha virt. eigenvalues --    0.03318   0.04967   0.05002   0.05636   0.07230
 Alpha virt. eigenvalues --    0.07668   0.08566   0.09970   0.11658   0.11691
 Alpha virt. eigenvalues --    0.12089   0.13483   0.15031   0.15756   0.15833

  Beta  occ. eigenvalues -- -103.70319-103.69885 -20.63125 -20.58098 -11.42544
  Beta  occ. eigenvalues --  -11.36882 -11.31349 -11.24498 -10.73580 -10.73167
  Beta  occ. eigenvalues --   -8.39484  -8.39068  -8.38983  -8.38784  -8.38565
  Beta  occ. eigenvalues --   -8.38369  -1.43649  -1.33823  -1.24077  -1.17277
  Beta  occ. eigenvalues --   -1.05599  -0.94818  -0.85494  -0.79257  -0.71875
  Beta  occ. eigenvalues --   -0.70682  -0.70408  -0.62693  -0.60701  -0.60226
  Beta  occ. eigenvalues --   -0.56432  -0.54463  -0.53408  -0.52493  -0.51654
  Beta  occ. eigenvalues --   -0.49176  -0.48964  -0.47431  -0.47104
  Beta virt. eigenvalues --    0.02922   0.03321   0.04982   0.05021   0.05680
  Beta virt. eigenvalues --    0.07450   0.07678   0.08696   0.10309   0.11730
  Beta virt. eigenvalues --    0.11976   0.12460   0.13496   0.15408   0.15826

 Mulliken charges and spin densities:
               1          2
     1  C    0.528404  -0.350167
     2  O   -0.366291   0.253622
     3  C    0.129522   1.076693
     4  O   -0.429899   0.008498
     5  Cl  -0.176674   0.009087
     6  Cl  -0.190588   0.002934
     7  C    0.656991  -0.001048
     8  C    0.244894  -0.000182
     9  H   -0.154012   0.000343
    10  H   -0.154024   0.000344
    11  H   -0.037825  -0.000045
    12  H   -0.012668  -0.000033
    13  H   -0.037830  -0.000046
 Sum of Mulliken charges =   0.00000   1.00000

 Dipole moment (field-independent basis, Debye):
    X=              2.1128    Y=              1.3631    Z=              0.0002  Tot=              2.5143
                          Isotropic Fermi Contact Couplings
        Atom                 a.u.       MegaHertz       Gauss      10(-4) cm-1
     1  C(13)             -0.09054    -101.78302     -36.31871     -33.95116
     2  O(17)              0.09130     -55.34565     -19.74870     -18.46132
     3  C(13)              0.26844     301.78169     107.68321     100.66354
     4  O(17)             -0.01278       7.74717       2.76438       2.58418
     5  Cl(35)             0.03139      13.76215       4.91068       4.59056
     6  Cl(35)             0.03305      14.48903       5.17004       4.83302
     7  C(13)             -0.00145      -1.62899      -0.58126      -0.54337
     8  C(13)              0.00024       0.27032       0.09646       0.09017

 Normal termination of Gaussian 16 at Tue Apr  8 22:49:27 2025.
