 Gaussian 16, Revision C.01,

 ----------------------------------------------------------------------
 #t hf aug-cc-pvdz symm=none int=(grid=ultrafine) guess=(read,tcheck) s
 table=(opt,rrhf)
 ----------------------------------------------------------------------
 -----
 title
 -----
 Symbolic Z-matrix:
 Charge =  0 Multiplicity = 1

 SCF Done:  E(RHF) =  -2624.99865140     A.U. after   12 cycles
 Normal termination of Gaussian 16 at Tue Apr  8 23:47:26 2025.
 Gaussian 16:  ES64L-G16RevC.01  3-Jul-2019

 ----------------------------------------------------------------------
 #t hf aug-cc-pvdz iop(5/13=1,5/36=2,99/5=2) pseudo=read geom=check gue
 ss=(read,tcheck) scf=(maxcycle=1)
 ----------------------------------------------------------------------
 -----
 title
 -----
 Structure from the checkpoint file:  "BDE49_nonexpt_1817_mol1.chk"
 Charge =  0 Multiplicity = 1

                         Standard orientation:
 ---------------------------------------------------------------------
 Center     Atomic      Atomic             Coordinates (Angstroms)
 Number     Number       Type             X           Y           Z
 ---------------------------------------------------------------------
      1         14           0        0.793565    0.801277   -0.000000
      2          6           0       -0.181002   -0.850640    0.000000
      3         17           0        0.307552    1.873959    1.677513
      4         17           0        0.307552    1.873959   -1.677513
      5         17           0       -1.950611   -0.590374    0.000000
      6         17           0        0.307552   -1.772835    1.467541
      7         17           0        0.307552   -1.772835   -1.467541
      8          1           0        2.222941    0.484107   -0.000000
 ---------------------------------------------------------------------

 SCF Done:  E(RHF) =  -2625.12713177     A.U. after    2 cycles

 The electronic state is 1-A'.
 Alpha  occ. eigenvalues -- -103.70262-103.70261-103.70124-103.68304-103.68304
 Alpha  occ. eigenvalues --  -69.19549 -11.44723 -10.73533 -10.73522 -10.73395
 Alpha  occ. eigenvalues --  -10.71767 -10.71755  -8.39244  -8.39239  -8.39115
 Alpha  occ. eigenvalues --   -8.38912  -8.38911  -8.38904  -8.38902  -8.38776
 Alpha  occ. eigenvalues --   -8.38772  -8.37461  -8.37454  -8.37218  -8.37217
 Alpha  occ. eigenvalues --   -8.37212  -8.37209  -6.93809  -4.04678  -4.04588
 Alpha  occ. eigenvalues --   -4.04481  -1.26756  -1.17964  -1.16883  -1.16850
 Alpha  occ. eigenvalues --   -1.15724  -0.88813  -0.73589  -0.65002  -0.64822
 Alpha  occ. eigenvalues --   -0.63527  -0.58236  -0.58193  -0.52790  -0.52702
 Alpha  occ. eigenvalues --   -0.51983  -0.50947  -0.49652  -0.49564  -0.48767
 Alpha  occ. eigenvalues --   -0.48060  -0.47447  -0.45239
 Alpha virt. eigenvalues --    0.04424   0.05548   0.05716   0.05841   0.07885
 Alpha virt. eigenvalues --    0.08434   0.08934   0.09488   0.11097   0.11995
 Alpha virt. eigenvalues --    0.12609   0.13103   0.14121   0.14973   0.15055

 Mulliken charges:
               1
     1  Si   1.399676
     2  C   -0.478835
     3  Cl  -0.477687
     4  Cl  -0.477687
     5  Cl  -0.015326
     6  Cl  -0.016723
     7  Cl  -0.016723
     8  H    0.083306
 Sum of Mulliken charges =   0.00000

 Dipole moment (field-independent basis, Debye):
    X=              1.0066    Y=             -0.0253    Z=             -0.0000  Tot=              1.0069

 Test job not archived.
 1\1\GINC-SE253\SP\RHF\Aug-CC-pVDZ\C1H1Cl5Si1\OHZDE\08-Apr-2025\0\\#t h
 f aug-cc-pvdz iop(5/13=1,5/36=2,99/5=2) pseudo=read geom=check guess=(
 read,tcheck) scf=(maxcycle=1)\\title\\0,1\Si,0,0.793565,0.801277,0.\C,
 0,-0.181002,-0.85064,0.\Cl,0,0.307552,1.873959,1.677513\Cl,0,0.307552,
 1.873959,-1.677513\Cl,0,-1.950611,-0.590374,0.\Cl,0,0.307552,-1.772835
 ,1.467541\Cl,0,0.307552,-1.772835,-1.467541\H,0,2.222941,0.484107,0.\\
 Version=ES64L-G16RevC.01\State=1-A'\HF=-2625.1271318\RMSD=4.319e-03\Di
 pole=0.3960139,-0.009971,0.\Quadrupole=1.8578314,-1.4663624,-0.391469,

 Normal termination of Gaussian 16 at Tue Apr  8 23:47:29 2025.
