 Gaussian 16, Revision C.01,

 ----------------------------------------------------------------------
 #t hf aug-cc-pvdz symm=none int=(grid=ultrafine) guess=(read,tcheck) s
 table=(opt,rrhf)
 ----------------------------------------------------------------------
 -----
 title
 -----
 Symbolic Z-matrix:
 Charge =  0 Multiplicity = 1

 SCF Done:  E(RHF) =  -421.511220797     A.U. after   15 cycles

 1\1\GINC-SE143\Stability\RHF\Aug-CC-pVDZ\C9H10O1\OHZDE\08-Apr-2025\0\\
 #t hf aug-cc-pvdz symm=none int=(grid=ultrafine) guess=(read,tcheck) s
 table=(opt,rrhf)\\title\\0,1\O,0,-0.930646,-1.100503,-0.22735\C,0,0.27
 9051,-0.462973,-0.140297\C,0,0.491067,0.886518,-0.432311\C,0,1.348303,
 -1.259101,0.285326\C,0,2.617546,-0.710458,0.409897\C,0,2.841139,0.6344
 06,0.109576\C,0,1.774045,1.421892,-0.308717\H,0,-0.329967,1.526267,-0.
 726363\H,0,1.929854,2.470871,-0.535584\H,0,1.157526,-2.302481,0.505656
 \H,0,3.43854,-1.338139,0.73839\H,0,3.83283,1.060347,0.205006\C,0,-2.01

 Normal termination of Gaussian 16 at Tue Apr  8 22:43:13 2025.
 Gaussian 16:  ES64L-G16RevC.01  3-Jul-2019

 ----------------------------------------------------------------------
 #t hf aug-cc-pvdz iop(5/13=1,5/36=2,99/5=2) pseudo=read geom=check gue
 ss=(read,tcheck) scf=(maxcycle=1)
 ----------------------------------------------------------------------
 -----
 title
 -----
 Structure from the checkpoint file:  "BDE49_expt_1435_mol1.chk"
 Charge =  0 Multiplicity = 1

                         Standard orientation:
 ---------------------------------------------------------------------
 Center     Atomic      Atomic             Coordinates (Angstroms)
 Number     Number       Type             X           Y           Z
 ---------------------------------------------------------------------
      1          8           0       -0.930646   -1.100503   -0.227350
      2          6           0        0.279051   -0.462973   -0.140297
      3          6           0        0.491067    0.886518   -0.432311
      4          6           0        1.348303   -1.259101    0.285326
      5          6           0        2.617546   -0.710458    0.409897
      6          6           0        2.841139    0.634406    0.109576
      7          6           0        1.774045    1.421892   -0.308717
      8          1           0       -0.329967    1.526267   -0.726363
      9          1           0        1.929854    2.470871   -0.535584
     10          1           0        1.157526   -2.302481    0.505656
     11          1           0        3.438540   -1.338139    0.738390
     12          1           0        3.832830    1.060347    0.205006
     13          6           0       -2.012472   -0.468243   -0.901645
     14          6           0       -2.857161    0.422776   -0.032430
     15          1           0       -2.628695   -1.290056   -1.281402
     16          1           0       -1.646311    0.082876   -1.777702
     17          6           0       -2.707879    0.591123    1.275812
     18          1           0       -3.660581    0.932120   -0.562116
     19          1           0       -1.920263    0.087353    1.823641
     20          1           0       -3.369595    1.239215    1.838002
 ---------------------------------------------------------------------

 SCF Done:  E(RHF) =  -421.639784153     A.U. after    2 cycles

 The electronic state is 1-A.
 Alpha  occ. eigenvalues --  -20.59824 -11.31082 -11.30653 -11.25086 -11.24811
 Alpha  occ. eigenvalues --  -11.24704 -11.23939 -11.23737 -11.23616 -11.23513
 Alpha  occ. eigenvalues --   -1.36769  -1.13859  -1.06670  -1.01182  -1.00479
 Alpha  occ. eigenvalues --   -0.93682  -0.83679  -0.82318  -0.76691  -0.72195
 Alpha  occ. eigenvalues --   -0.68622  -0.67224  -0.66355  -0.62444  -0.61190
 Alpha  occ. eigenvalues --   -0.59267  -0.58338  -0.55412  -0.53701  -0.51888
 Alpha  occ. eigenvalues --   -0.51052  -0.48807  -0.47185  -0.37540  -0.34139
 Alpha  occ. eigenvalues --   -0.31692
 Alpha virt. eigenvalues --    0.03272   0.03914   0.04215   0.04613   0.05375
 Alpha virt. eigenvalues --    0.05593   0.06678   0.07264   0.07406   0.08541
 Alpha virt. eigenvalues --    0.10028   0.10855   0.11780   0.12199   0.12493

 Mulliken charges:
               1
     1  O   -0.722849
     2  C    0.277203
     3  C    0.448057
     4  C    0.486927
     5  C    0.708934
     6  C    0.568370
     7  C    0.494023
     8  H   -0.702190
     9  H   -0.452785
    10  H   -0.561808
    11  H   -0.439933
    12  H   -0.450129
    13  C    0.787914
    14  C    0.332636
    15  H   -0.180291
    16  H   -0.054593
    17  C    0.508016
    18  H   -0.378753
    19  H   -0.332092
    20  H   -0.336656
 Sum of Mulliken charges =  -0.00000

 Dipole moment (field-independent basis, Debye):
    X=             -0.6688    Y=              0.9834    Z=             -0.7385  Tot=              1.3999

 Test job not archived.
 1\1\GINC-SE143\SP\RHF\Aug-CC-pVDZ\C9H10O1\OHZDE\08-Apr-2025\0\\#t hf a
 ug-cc-pvdz iop(5/13=1,5/36=2,99/5=2) pseudo=read geom=check guess=(rea
 d,tcheck) scf=(maxcycle=1)\\title\\0,1\O,0,-0.930646,-1.100503,-0.2273
 5\C,0,0.279051,-0.462973,-0.140297\C,0,0.491067,0.886518,-0.432311\C,0
 ,1.348303,-1.259101,0.285326\C,0,2.617546,-0.710458,0.409897\C,0,2.841
 139,0.634406,0.109576\C,0,1.774045,1.421892,-0.308717\H,0,-0.329967,1.
 526267,-0.726363\H,0,1.929854,2.470871,-0.535584\H,0,1.157526,-2.30248
 1,0.505656\H,0,3.43854,-1.338139,0.73839\H,0,3.83283,1.060347,0.205006

 Normal termination of Gaussian 16 at Tue Apr  8 22:43:25 2025.
