 Gaussian 16, Revision C.01,

 ----------------------------------------------------------------------
 #t hf aug-cc-pvdz symm=none int=(grid=ultrafine) guess=(read,tcheck) s
 table=opt
 ----------------------------------------------------------------------
 -----
 title
 -----
 Symbolic Z-matrix:
 Charge =  0 Multiplicity = 2

 SCF Done:  E(UHF) =  -740.595261435     A.U. after   19 cycles
 Normal termination of Gaussian 16 at Wed Apr  9 00:51:09 2025.
 Gaussian 16:  ES64L-G16RevC.01  3-Jul-2019

 ----------------------------------------------------------------------
 #t hf aug-cc-pvdz iop(5/13=1,5/36=2,99/5=2) pseudo=read geom=check gue
 ss=(read,tcheck) scf=(maxcycle=1)
 ----------------------------------------------------------------------
 -----
 title
 -----
 Structure from the checkpoint file:  "BDE49_nonexpt_967_mol2.chk"
 Charge =  0 Multiplicity = 2

                         Standard orientation:
 ---------------------------------------------------------------------
 Center     Atomic      Atomic             Coordinates (Angstroms)
 Number     Number       Type             X           Y           Z
 ---------------------------------------------------------------------
      1         16           0       -0.339774   -0.212324    0.000000
      2          8           0       -0.321599   -0.913292    1.258258
      3          7           0        1.002390    0.951039   -0.000001
      4          6           0       -1.644597    1.005269    0.000000
      5          1           0       -2.575095    0.436876    0.000001
      6          1           0       -1.561549    1.608844    0.902148
      7          9           0        2.125669    0.185158   -0.000001
      8          8           0       -0.321599   -0.913295   -1.258256
      9          1           0       -1.561550    1.608842   -0.902151
 ---------------------------------------------------------------------

 SCF Done:  E(UHF) =  -740.782909548     A.U. after    2 cycles

 The electronic state is 2-A.
 Alpha  occ. eigenvalues --  -93.83202 -26.20570 -20.59848 -20.59847 -15.82403
 Alpha  occ. eigenvalues --  -11.31828  -9.09788  -6.44408  -6.44199  -6.44062
 Alpha  occ. eigenvalues --   -1.74030  -1.46464  -1.34783  -1.19219  -1.06142
 Alpha  occ. eigenvalues --   -0.88449  -0.84223  -0.81411  -0.77233  -0.70758
 Alpha  occ. eigenvalues --   -0.70645  -0.65967  -0.64122  -0.63150  -0.59441
 Alpha  occ. eigenvalues --   -0.54485  -0.54280  -0.52370  -0.49648
 Alpha virt. eigenvalues --    0.02551   0.04887   0.05045   0.08205   0.10546
 Alpha virt. eigenvalues --    0.10784   0.11693   0.12886   0.14060   0.14488
 Alpha virt. eigenvalues --    0.15096   0.16235   0.18448   0.18657   0.21038

  Beta  occ. eigenvalues --  -93.83276 -26.20163 -20.59775 -20.59774 -15.78772
  Beta  occ. eigenvalues --  -11.31860  -9.09882  -6.44476  -6.44408  -6.44158
  Beta  occ. eigenvalues --   -1.72451  -1.46269  -1.34577  -1.11522  -1.04371
  Beta  occ. eigenvalues --   -0.87755  -0.80963  -0.76656  -0.76305  -0.70869
  Beta  occ. eigenvalues --   -0.69968  -0.64048  -0.63622  -0.62570  -0.55609
  Beta  occ. eigenvalues --   -0.53404  -0.52986  -0.47447
  Beta virt. eigenvalues --    0.02579   0.03365   0.05055   0.05431   0.08249
  Beta virt. eigenvalues --    0.10716   0.10856   0.12190   0.13044   0.14244
  Beta virt. eigenvalues --    0.15106   0.15569   0.16762   0.18502   0.19906

 Mulliken charges and spin densities:
               1          2
     1  S    2.598245  -0.067461
     2  O   -1.000989   0.005572
     3  N   -0.311087   1.070304
     4  C   -0.040158  -0.015530
     5  H    0.059270  -0.002013
     6  H    0.020212   0.001579
     7  F   -0.344717   0.000399
     8  O   -1.000989   0.005571
     9  H    0.020215   0.001579
 Sum of Mulliken charges =  -0.00000   1.00000

 Dipole moment (field-independent basis, Debye):
    X=             -3.0030    Y=              4.0642    Z=             -0.0000  Tot=              5.0533
                          Isotropic Fermi Contact Couplings
        Atom                 a.u.       MegaHertz       Gauss      10(-4) cm-1
     1  S(33)             -0.07850     -26.96114      -9.62041      -8.99327
     2  O(17)              0.00522      -3.16456      -1.12919      -1.05558
     3  N(14)              0.30347      98.05341      34.98790      32.70710
     4  C(13)             -0.00634      -7.12580      -2.54266      -2.37691
     5  H(1)              -0.00079      -3.51754      -1.25515      -1.17333
     6  H(1)               0.00040       1.78439       0.63671       0.59521
     7  F(19)              0.06037     253.98275      90.62736      84.71953
     8  O(17)              0.00522      -3.16452      -1.12918      -1.05557

 Normal termination of Gaussian 16 at Wed Apr  9 00:51:12 2025.
