 Gaussian 16, Revision C.01,

 ----------------------------------------------------------------------
 #t hf aug-cc-pvdz symm=none int=(grid=ultrafine) guess=(read,tcheck) s
 table=(opt,rrhf)
 ----------------------------------------------------------------------
 -----
 title
 -----
 Symbolic Z-matrix:
 Charge =  0 Multiplicity = 1

 SCF Done:  E(RHF) =  -803.483796957     A.U. after   16 cycles
 Normal termination of Gaussian 16 at Tue Apr  8 23:18:49 2025.
 Gaussian 16:  ES64L-G16RevC.01  3-Jul-2019

 ----------------------------------------------------------------------
 #t hf aug-cc-pvdz iop(5/13=1,5/36=2,99/5=2) pseudo=read geom=check gue
 ss=(read,tcheck) scf=(maxcycle=1)
 ----------------------------------------------------------------------
 -----
 title
 -----
 Structure from the checkpoint file:  "BDE49_nonexpt_1093_mol1.chk"
 Charge =  0 Multiplicity = 1

                         Standard orientation:
 ---------------------------------------------------------------------
 Center     Atomic      Atomic             Coordinates (Angstroms)
 Number     Number       Type             X           Y           Z
 ---------------------------------------------------------------------
      1          6           0        0.762330   -0.990685    0.586940
      2          6           0        2.019528   -1.343584    0.108775
      3          6           0        2.855436   -0.374693   -0.446969
      4          6           0        2.424052    0.946410   -0.529620
      5          6           0        1.159886    1.296860   -0.058837
      6          6           0       -1.026644    0.722906    1.057321
      7          6           0        0.322733    0.334587    0.507617
      8          8           0       -2.079345   -0.205973    0.772936
      9         17           0       -2.489029   -0.211196   -0.922719
     10          1           0       -1.309117    1.731313    0.739639
     11          1           0       -1.025346    0.697024    2.154242
     12          1           0        0.106675   -1.742860    1.010989
     13          1           0        2.349658   -2.374514    0.169724
     14          1           0        3.836143   -0.650798   -0.817608
     15          1           0        3.065599    1.702220   -0.968433
     16          1           0        0.820717    2.324941   -0.137179
 ---------------------------------------------------------------------

 SCF Done:  E(RHF) =  -803.604505165     A.U. after    2 cycles

 The electronic state is 1-A.
 Alpha  occ. eigenvalues -- -103.70642 -20.65342 -11.31689 -11.25880 -11.25365
 Alpha  occ. eigenvalues --  -11.25240 -11.25177 -11.25080 -11.24960 -10.73340
 Alpha  occ. eigenvalues --   -8.39096  -8.38696  -8.38673  -1.36919  -1.15484
 Alpha  occ. eigenvalues --   -1.11234  -1.03610  -1.01746  -0.92312  -0.83877
 Alpha  occ. eigenvalues --   -0.81211  -0.71855  -0.68463  -0.66973  -0.66018
 Alpha  occ. eigenvalues --   -0.62671  -0.62316  -0.59792  -0.55762  -0.53949
 Alpha  occ. eigenvalues --   -0.50712  -0.50282  -0.49836  -0.47266  -0.44933
 Alpha  occ. eigenvalues --   -0.34771  -0.34316
 Alpha virt. eigenvalues --    0.03248   0.03951   0.04193   0.05242   0.05580
 Alpha virt. eigenvalues --    0.05969   0.06807   0.07648   0.09604   0.10166
 Alpha virt. eigenvalues --    0.10525   0.11376   0.12089   0.13066   0.13886

 Mulliken charges:
               1
     1  C    0.087785
     2  C    0.318473
     3  C    0.547320
     4  C    0.303372
     5  C    0.557104
     6  C    0.833693
     7  C    0.547355
     8  O   -0.654198
     9  Cl   0.200363
    10  H   -0.247506
    11  H   -0.050541
    12  H   -0.566635
    13  H   -0.443525
    14  H   -0.437332
    15  H   -0.442132
    16  H   -0.553597
 Sum of Mulliken charges =  -0.00000

 Dipole moment (field-independent basis, Debye):
    X=              1.7499    Y=              1.0636    Z=              0.2596  Tot=              2.0642

 Test job not archived.
 1\1\GINC-SE334\SP\RHF\Aug-CC-pVDZ\C7H7Cl1O1\OHZDE\08-Apr-2025\0\\#t hf
  aug-cc-pvdz iop(5/13=1,5/36=2,99/5=2) pseudo=read geom=check guess=(r
 ead,tcheck) scf=(maxcycle=1)\\title\\0,1\C,0,-0.76233,0.990685,0.58694
 \C,0,-2.019528,1.343584,0.108775\C,0,-2.855436,0.374693,-0.446969\C,0,
 -2.424052,-0.94641,-0.52962\C,0,-1.159886,-1.29686,-0.058837\C,0,1.026
 644,-0.722906,1.057321\C,0,-0.322733,-0.334587,0.507617\O,0,2.079345,0
 .205973,0.772936\Cl,0,2.489029,0.211196,-0.922719\H,0,1.309117,-1.7313
 13,0.739639\H,0,1.025346,-0.697024,2.154242\H,0,-0.106675,1.74286,1.01

 Normal termination of Gaussian 16 at Tue Apr  8 23:18:57 2025.
