 Gaussian 16, Revision C.01,

 ----------------------------------------------------------------------
 #t hf aug-cc-pvdz symm=none int=(grid=ultrafine) guess=(read,tcheck) s
 table=(opt,rrhf)
 ----------------------------------------------------------------------
 -----
 title
 -----
 Symbolic Z-matrix:
 Charge =  0 Multiplicity = 1

 SCF Done:  E(RHF) =  -169.788220915     A.U. after   14 cycles
 Normal termination of Gaussian 16 at Tue Apr  8 22:35:37 2025.
 Gaussian 16:  ES64L-G16RevC.01  3-Jul-2019

 ----------------------------------------------------------------------
 #t hf aug-cc-pvdz iop(5/13=1,5/36=2,99/5=2) pseudo=read geom=check gue
 ss=(read,tcheck) scf=(maxcycle=1)
 ----------------------------------------------------------------------
 -----
 title
 -----
 Structure from the checkpoint file:  "BDE49_expt_1150_mol1.chk"
 Charge =  0 Multiplicity = 1

                         Standard orientation:
 ---------------------------------------------------------------------
 Center     Atomic      Atomic             Coordinates (Angstroms)
 Number     Number       Type             X           Y           Z
 ---------------------------------------------------------------------
      1          6           0        0.782657    0.089647   -0.000000
      2          6           0       -0.583663    0.502537    0.000001
      3          7           0        1.894612   -0.223809   -0.000001
      4          6           0       -1.604994   -0.355958   -0.000000
      5          1           0       -0.750962    1.574635    0.000002
      6          1           0       -1.448500   -1.427736   -0.000001
      7          1           0       -2.626819    0.002411    0.000001
 ---------------------------------------------------------------------

 SCF Done:  E(RHF) =  -169.840217683     A.U. after    2 cycles

 The electronic state is 1-A.
 Alpha  occ. eigenvalues --  -15.64683 -11.30442 -11.29553 -11.29512  -1.20007
 Alpha  occ. eigenvalues --   -1.09439  -0.88797  -0.73230  -0.66698  -0.58663
 Alpha  occ. eigenvalues --   -0.54853  -0.52232  -0.47098  -0.39980
 Alpha virt. eigenvalues --    0.02624   0.04213   0.05231   0.06171   0.09509
 Alpha virt. eigenvalues --    0.10709   0.10757   0.13209   0.13424   0.14520
 Alpha virt. eigenvalues --    0.14859   0.15032   0.15897   0.17208   0.18923

 Mulliken charges:
               1
     1  C   -0.596924
     2  C    0.994761
     3  N   -0.143629
     4  C    0.518382
     5  H   -0.308710
     6  H   -0.247996
     7  H   -0.215885
 Sum of Mulliken charges =  -0.00000

 Dipole moment (field-independent basis, Debye):
    X=             -4.2167    Y=              0.6931    Z=              0.0000  Tot=              4.2733

 Test job not archived.
 1\1\GINC-SE102\SP\RHF\Aug-CC-pVDZ\C3H3N1\OHZDE\08-Apr-2025\0\\#t hf au
 g-cc-pvdz iop(5/13=1,5/36=2,99/5=2) pseudo=read geom=check guess=(read
 ,tcheck) scf=(maxcycle=1)\\title\\0,1\C,0,0.782657,0.089647,0.\C,0,-0.
 583663,0.502537,0.000001\N,0,1.894612,-0.223809,-0.000001\C,0,-1.60499
 4,-0.355958,0.\H,0,-0.750962,1.574635,0.000002\H,0,-1.4485,-1.427736,-
 0.000001\H,0,-2.626819,0.002411,0.000001\\Version=ES64L-G16RevC.01\Sta
 te=1-A\HF=-169.8402177\RMSD=5.037e-03\Dipole=-1.6589896,0.2726943,0.00
 0001\Quadrupole=-1.9676945,2.5351146,-0.5674201,1.0632348,0.000002,0.0

 Normal termination of Gaussian 16 at Tue Apr  8 22:35:39 2025.
