 Gaussian 16, Revision C.01,

 ----------------------------------------------------------------------
 #t hf aug-cc-pvdz symm=none int=(grid=ultrafine) guess=(read,tcheck) s
 table=(opt,rrhf)
 ----------------------------------------------------------------------
 -----
 title
 -----
 Symbolic Z-matrix:
 Charge =  0 Multiplicity = 1

 SCF Done:  E(RHF) =  -551.795658372     A.U. after   12 cycles

 1\1\GINC-SE083\Stability\RHF\Aug-CC-pVDZ\C1Cl1N1\OHZDE\08-Apr-2025\0\\
 #t hf aug-cc-pvdz symm=none int=(grid=ultrafine) guess=(read,tcheck) s
 table=(opt,rrhf)\\title\\0,1\C,0,0.,0.,-0.660046\N,0,0.,0.,-1.815665\C
 l,0,0.,0.,0.980584\\Version=ES64L-G16RevC.01\HF=-551.7956584\RMSD=1.30
 4e-09\Dipole=0.,0.,1.1996232\Quadrupole=0.9895092,0.9895092,-1.9790184
 ,0.,0.,0.\PG=Unknown\\@
 The archive entry for this job was punched.

 Normal termination of Gaussian 16 at Tue Apr  8 22:46:29 2025.
 Gaussian 16:  ES64L-G16RevC.01  3-Jul-2019

 ----------------------------------------------------------------------
 #t hf aug-cc-pvdz iop(5/13=1,5/36=2,99/5=2) pseudo=read geom=check gue
 ss=(read,tcheck) scf=(maxcycle=1)
 ----------------------------------------------------------------------
 -----
 title
 -----
 Structure from the checkpoint file:  "BDE49_expt_1610_mol1.chk"
 Charge =  0 Multiplicity = 1

                         Standard orientation:
 ---------------------------------------------------------------------
 Center     Atomic      Atomic             Coordinates (Angstroms)
 Number     Number       Type             X           Y           Z
 ---------------------------------------------------------------------
      1          6           0        0.000000    0.000000   -0.660046
      2          7           0        0.000000    0.000000   -1.815665
      3         17           0        0.000000    0.000000    0.980584
 ---------------------------------------------------------------------

 SCF Done:  E(RHF) =  -551.844184596     A.U. after    2 cycles

 The electronic state is 1-SG.
 Alpha  occ. eigenvalues -- -103.76167 -15.67579 -11.36175 -10.79315  -8.45095
 Alpha  occ. eigenvalues --   -8.44685  -8.44685  -1.28334  -1.20153  -0.76820
 Alpha  occ. eigenvalues --   -0.60809  -0.60809  -0.57796  -0.47219  -0.47219
 Alpha virt. eigenvalues --    0.04728   0.08735   0.10427   0.10427   0.11827
 Alpha virt. eigenvalues --    0.14200   0.14200   0.16248   0.16248   0.17252
 Alpha virt. eigenvalues --    0.22834   0.26490   0.26490   0.28519   0.33027

 Mulliken charges:
               1
     1  C   -0.136926
     2  N   -0.076850
     3  Cl   0.213777
 Sum of Mulliken charges =  -0.00000

 Dipole moment (field-independent basis, Debye):
    X=             -0.0000    Y=             -0.0000    Z=              2.8505  Tot=              2.8505

 Test job not archived.
 1\1\GINC-SE083\SP\RHF\Aug-CC-pVDZ\C1Cl1N1\OHZDE\08-Apr-2025\0\\#t hf a
 ug-cc-pvdz iop(5/13=1,5/36=2,99/5=2) pseudo=read geom=check guess=(rea
 d,tcheck) scf=(maxcycle=1)\\title\\0,1\C,0,0.,0.,-0.660046\N,0,0.,0.,-
 1.815665\Cl,0,0.,0.,0.980584\\Version=ES64L-G16RevC.01\State=1-SG\HF=-
 551.8441846\RMSD=2.968e-03\Dipole=0.,0.,1.1214636\Quadrupole=0.9200131
 ,0.9200131,-1.8400263,0.,0.,0.\PG=C*V [C*(N1C1Cl1)]\\@

 Normal termination of Gaussian 16 at Tue Apr  8 22:46:32 2025.
