 Gaussian 16, Revision C.01,

 ----------------------------------------------------------------------
 #t hf aug-cc-pvdz symm=none int=(grid=ultrafine) guess=(read,tcheck) s
 table=opt
 ----------------------------------------------------------------------
 -----
 title
 -----
 Symbolic Z-matrix:
 Charge =  0 Multiplicity = 2

 SCF Done:  E(UHF) =  -1474.29626197     A.U. after   20 cycles
 Normal termination of Gaussian 16 at Tue Apr  8 23:48:20 2025.
 Gaussian 16:  ES64L-G16RevC.01  3-Jul-2019

 ----------------------------------------------------------------------
 #t hf aug-cc-pvdz iop(5/13=1,5/36=2,99/5=2) pseudo=read geom=check gue
 ss=(read,tcheck) scf=(maxcycle=1)
 ----------------------------------------------------------------------
 -----
 title
 -----
 Structure from the checkpoint file:  "BDE49_nonexpt_1813_mol2.chk"
 Charge =  0 Multiplicity = 2

                         Standard orientation:
 ---------------------------------------------------------------------
 Center     Atomic      Atomic             Coordinates (Angstroms)
 Number     Number       Type             X           Y           Z
 ---------------------------------------------------------------------
      1          6           0        0.661696   -0.608260   -0.249812
      2          8           0        0.884458   -1.709832    0.176519
      3         14           0       -1.128318    0.070154   -0.601190
      4          8           0        1.577741    0.292548   -0.631241
      5         17           0       -2.464595   -1.214551    0.319258
      6         17           0       -1.314890    1.966494    0.228107
      7          6           0        2.986318   -0.078997   -0.491218
      8          6           0        3.497277    0.232152    0.903789
      9          1           0        3.488188    0.519019   -1.250708
     10          1           0        3.085846   -1.138104   -0.730522
     11          1           0        3.338777    1.284181    1.149604
     12          1           0        4.569885    0.024958    0.954567
     13          1           0        2.995669   -0.386340    1.649736
 ---------------------------------------------------------------------

 SCF Done:  E(UHF) =  -1474.44075368     A.U. after    2 cycles

 The electronic state is 2-A.
 Alpha  occ. eigenvalues -- -103.67639-103.67279 -69.18695 -20.63516 -20.58892
 Alpha  occ. eigenvalues --  -11.40880 -11.31571 -11.24422 -10.71040 -10.70695
 Alpha  occ. eigenvalues --   -8.36827  -8.36518  -8.36488  -8.36456  -8.36167
 Alpha  occ. eigenvalues --   -8.36108  -6.93114  -4.04187  -4.03548  -4.03422
 Alpha  occ. eigenvalues --   -1.43625  -1.34870  -1.17058  -1.14870  -1.04949
 Alpha  occ. eigenvalues --   -0.91496  -0.80689  -0.76639  -0.71324  -0.68201
 Alpha  occ. eigenvalues --   -0.67008  -0.62227  -0.59035  -0.57377  -0.56447
 Alpha  occ. eigenvalues --   -0.55123  -0.53408  -0.51831  -0.51560  -0.49866
 Alpha  occ. eigenvalues --   -0.49029  -0.48086  -0.46673  -0.37050
 Alpha virt. eigenvalues --    0.03300   0.04532   0.04838   0.05158   0.05965
 Alpha virt. eigenvalues --    0.06206   0.06568   0.07433   0.08725   0.09600
 Alpha virt. eigenvalues --    0.11183   0.11863   0.12798   0.13170   0.13716

  Beta  occ. eigenvalues -- -103.67531-103.67172 -69.18099 -20.63490 -20.58740
  Beta  occ. eigenvalues --  -11.40594 -11.31568 -11.24423 -10.70924 -10.70578
  Beta  occ. eigenvalues --   -8.36586  -8.36399  -8.36271  -8.36237  -8.36053
  Beta  occ. eigenvalues --   -8.35928  -6.92137  -4.03154  -4.03069  -4.02175
  Beta  occ. eigenvalues --   -1.43370  -1.34573  -1.16121  -1.14006  -1.04863
  Beta  occ. eigenvalues --   -0.91117  -0.79912  -0.75368  -0.71023  -0.67681
  Beta  occ. eigenvalues --   -0.65393  -0.61492  -0.58873  -0.56325  -0.55784
  Beta  occ. eigenvalues --   -0.54896  -0.51740  -0.51539  -0.50779  -0.49089
  Beta  occ. eigenvalues --   -0.48573  -0.47889  -0.44818
  Beta virt. eigenvalues --    0.00106   0.03406   0.04645   0.04988   0.05782
  Beta virt. eigenvalues --    0.06127   0.06594   0.06771   0.07465   0.09374
  Beta virt. eigenvalues --    0.11024   0.11251   0.12096   0.13182   0.13791

 Mulliken charges and spin densities:
               1          2
     1  C    0.184845   0.050626
     2  O   -0.404835   0.031531
     3  Si   1.032392   0.855103
     4  O   -0.410274  -0.017979
     5  Cl  -0.437417   0.038578
     6  Cl  -0.469818   0.040597
     7  C    0.762437   0.002573
     8  C    0.222343  -0.001613
     9  H   -0.268003   0.000647
    10  H   -0.072210   0.000210
    11  H   -0.053076   0.000244
    12  H   -0.024248  -0.000409
    13  H   -0.062135  -0.000107
 Sum of Mulliken charges =  -0.00000   1.00000

 Dipole moment (field-independent basis, Debye):
    X=              2.3434    Y=              1.2557    Z=             -1.5043  Tot=              3.0547
                          Isotropic Fermi Contact Couplings
        Atom                 a.u.       MegaHertz       Gauss      10(-4) cm-1
     1  C(13)              0.07497      84.27854      30.07268      28.11230
     2  O(17)              0.01552      -9.40824      -3.35709      -3.13825
     3  Si(29)             0.86316    -767.11522    -273.72579    -255.88209
     4  O(17)              0.00259      -1.56743      -0.55930      -0.52284
     5  Cl(35)             0.06025      26.41811       9.42664       8.81213
     6  Cl(35)             0.06004      26.32316       9.39276       8.78046
     7  C(13)              0.00022       0.25286       0.09023       0.08435
     8  C(13)             -0.00035      -0.39694      -0.14164      -0.13240

 Normal termination of Gaussian 16 at Tue Apr  8 23:48:26 2025.
