 Gaussian 16, Revision C.01,

 ----------------------------------------------------------------------
 #t hf aug-cc-pvdz symm=none int=(grid=ultrafine) guess=(read,tcheck) s
 table=opt
 ----------------------------------------------------------------------
 -----
 title
 -----
 Symbolic Z-matrix:
 Charge =  0 Multiplicity = 2

 SCF Done:  E(UHF) =  -535.988929666     A.U. after   15 cycles
 Normal termination of Gaussian 16 at Wed Apr  9 00:19:06 2025.
 Gaussian 16:  ES64L-G16RevC.01  3-Jul-2019

 ----------------------------------------------------------------------
 #t hf aug-cc-pvdz iop(5/13=1,5/36=2,99/5=2) pseudo=read geom=check gue
 ss=(read,tcheck) scf=(maxcycle=1)
 ----------------------------------------------------------------------
 -----
 title
 -----
 Structure from the checkpoint file:  "BDE49_nonexpt_2622_mol2.chk"
 Charge =  0 Multiplicity = 2

                         Standard orientation:
 ---------------------------------------------------------------------
 Center     Atomic      Atomic             Coordinates (Angstroms)
 Number     Number       Type             X           Y           Z
 ---------------------------------------------------------------------
      1         16           0        1.128122   -0.128166    0.000008
      2          6           0       -0.514526    0.549467    0.000006
      3          9           0       -1.523405   -0.399889   -0.000020
      4          1           0       -0.626068    1.176434   -0.892015
      5          1           0       -0.626075    1.176423    0.892035
 ---------------------------------------------------------------------

 SCF Done:  E(UHF) =  -536.056402843     A.U. after    2 cycles

 The electronic state is 2-A.
 Alpha  occ. eigenvalues --  -93.57357 -26.12315 -11.37112  -8.87183  -6.22506
 Alpha  occ. eigenvalues --   -6.20832  -6.20371  -1.65637  -1.06675  -0.89412
 Alpha  occ. eigenvalues --   -0.76796  -0.75700  -0.71154  -0.60368  -0.51665
 Alpha  occ. eigenvalues --   -0.44842  -0.40435
 Alpha virt. eigenvalues --    0.03566   0.05279   0.06973   0.09947   0.11650
 Alpha virt. eigenvalues --    0.12969   0.13337   0.15827   0.16025   0.23170
 Alpha virt. eigenvalues --    0.23349   0.25388   0.25414   0.27833   0.30536

  Beta  occ. eigenvalues --  -93.56450 -26.12343 -11.37251  -8.86172  -6.20306
  Beta  occ. eigenvalues --   -6.19813  -6.18516  -1.65711  -1.03570  -0.84157
  Beta  occ. eigenvalues --   -0.76434  -0.75670  -0.69532  -0.58273  -0.50235
  Beta  occ. eigenvalues --   -0.38097
  Beta virt. eigenvalues --    0.00198   0.03606   0.05482   0.07157   0.09990
  Beta virt. eigenvalues --    0.11920   0.13430   0.14604   0.16314   0.16674
  Beta virt. eigenvalues --    0.23454   0.24230   0.26098   0.26200   0.27880

 Mulliken charges and spin densities:
               1          2
     1  S    0.224158   1.078804
     2  C    0.297096  -0.109710
     3  F   -0.404083  -0.003486
     4  H   -0.058589   0.017196
     5  H   -0.058583   0.017196
 Sum of Mulliken charges =  -0.00000   1.00000

 Dipole moment (field-independent basis, Debye):
    X=              0.5395    Y=              1.9602    Z=              0.0000  Tot=              2.0330
                          Isotropic Fermi Contact Couplings
        Atom                 a.u.       MegaHertz       Gauss      10(-4) cm-1
     1  S(33)              0.19775      67.92019      24.23561      22.65574
     2  C(13)             -0.03171     -35.65076     -12.72108     -11.89181
     3  F(19)             -0.00652     -27.43045      -9.78787      -9.14981
     4  H(1)               0.01360      60.79498      21.69316      20.27902
     5  H(1)               0.01360      60.79413      21.69286      20.27874
 --------------------------------------------------------
       Center         ----  Spin Dipole Couplings  ----
                      3XX-RR        3YY-RR        3ZZ-RR

 Normal termination of Gaussian 16 at Wed Apr  9 00:19:08 2025.
