 Gaussian 16, Revision C.01,

 ----------------------------------------------------------------------
 #t hf aug-cc-pvdz symm=none int=(grid=ultrafine) guess=(read,tcheck) s
 table=opt
 ----------------------------------------------------------------------
 -----
 title
 -----
 Symbolic Z-matrix:
 Charge =  0 Multiplicity = 2

 SCF Done:  E(UHF) =  -515.206981438     A.U. after   24 cycles
 Normal termination of Gaussian 16 at Tue Apr  8 22:45:38 2025.
 Gaussian 16:  ES64L-G16RevC.01  3-Jul-2019

 ----------------------------------------------------------------------
 #t hf aug-cc-pvdz iop(5/13=1,5/36=2,99/5=2) pseudo=read geom=check gue
 ss=(read,tcheck) scf=(maxcycle=1)
 ----------------------------------------------------------------------
 -----
 title
 -----
 Structure from the checkpoint file:  "BDE49_expt_1565_mol2.chk"
 Charge =  0 Multiplicity = 2

                         Standard orientation:
 ---------------------------------------------------------------------
 Center     Atomic      Atomic             Coordinates (Angstroms)
 Number     Number       Type             X           Y           Z
 ---------------------------------------------------------------------
      1         16           0       -1.533525   -0.354911   -0.073421
      2          6           0       -0.215409    0.830188    0.307422
      3          6           0        1.139429    0.567765   -0.354929
      4          1           0       -0.126732    0.873915    1.399740
      5          1           0       -0.620463    1.805965    0.008851
      6          6           0        1.825212   -0.706510    0.140868
      7          1           0        1.783874    1.433385   -0.157454
      8          1           0        1.001347    0.518923   -1.439424
      9          1           0        2.009192   -0.663004    1.219202
     10          1           0        2.787261   -0.853897   -0.355859
     11          1           0        1.206533   -1.585378   -0.060481
 ---------------------------------------------------------------------

 SCF Done:  E(UHF) =  -515.262760093     A.U. after    2 cycles

 The electronic state is 2-A.
 Alpha  occ. eigenvalues --  -93.54729 -11.27480 -11.24288 -11.22899  -8.84447
 Alpha  occ. eigenvalues --   -6.19797  -6.18114  -6.17678  -1.08060  -0.98590
 Alpha  occ. eigenvalues --   -0.88132  -0.78956  -0.63803  -0.62600  -0.57864
 Alpha  occ. eigenvalues --   -0.52529  -0.50942  -0.49721  -0.46211  -0.42144
 Alpha  occ. eigenvalues --   -0.36605
 Alpha virt. eigenvalues --    0.03503   0.04622   0.04889   0.05578   0.07169
 Alpha virt. eigenvalues --    0.07490   0.07702   0.08992   0.12058   0.14351
 Alpha virt. eigenvalues --    0.14632   0.14763   0.15245   0.15840   0.16356

  Beta  occ. eigenvalues --  -93.53832 -11.27610 -11.24285 -11.22894  -8.83447
  Beta  occ. eigenvalues --   -6.17576  -6.17128  -6.15860  -1.07169  -0.96330
  Beta  occ. eigenvalues --   -0.84771  -0.75737  -0.62723  -0.62135  -0.57208
  Beta  occ. eigenvalues --   -0.51975  -0.50409  -0.49350  -0.45184  -0.34397
  Beta virt. eigenvalues --    0.02189   0.03518   0.04692   0.05041   0.05628
  Beta virt. eigenvalues --    0.07189   0.07503   0.07883   0.09160   0.12590
  Beta virt. eigenvalues --    0.14423   0.14685   0.14961   0.15742   0.16224

 Mulliken charges and spin densities:
               1          2
     1  S    0.205068   1.092803
     2  C   -0.155474  -0.116742
     3  C    0.053147  -0.018104
     4  H   -0.053168   0.014179
     5  H   -0.029338   0.022853
     6  C    0.332043   0.009992
     7  H   -0.056282   0.001855
     8  H   -0.087220  -0.002378
     9  H   -0.061824   0.000257
    10  H   -0.078208  -0.001547
    11  H   -0.068743  -0.003168
 Sum of Mulliken charges =   0.00000   1.00000

 Dipole moment (field-independent basis, Debye):
    X=              1.4541    Y=              1.1235    Z=              0.2737  Tot=              1.8578
                          Isotropic Fermi Contact Couplings
        Atom                 a.u.       MegaHertz       Gauss      10(-4) cm-1
     1  S(33)              0.18724      64.31288      22.94844      21.45247
     2  C(13)             -0.02730     -30.69204     -10.95168     -10.23776
     3  C(13)             -0.00020      -0.22928      -0.08181      -0.07648
     4  H(1)               0.00981      43.86307      15.65143      14.63115
     5  H(1)               0.01454      64.99418      23.19154      21.67972
     6  C(13)             -0.00043      -0.48612      -0.17346      -0.16215
     7  H(1)              -0.00070      -3.11407      -1.11118      -1.03874
     8  H(1)              -0.00029      -1.29344      -0.46153      -0.43144

 Normal termination of Gaussian 16 at Tue Apr  8 22:45:42 2025.
