 Gaussian 16, Revision C.01,

 ----------------------------------------------------------------------
 #t hf aug-cc-pvdz symm=none int=(grid=ultrafine) guess=(read,tcheck) s
 table=(opt,rrhf)
 ----------------------------------------------------------------------
 -----
 title
 -----
 Symbolic Z-matrix:
 Charge =  0 Multiplicity = 1

 SCF Done:  E(RHF) =  -499.624313857     A.U. after   16 cycles
 Normal termination of Gaussian 16 at Tue Apr  8 23:04:14 2025.
 Gaussian 16:  ES64L-G16RevC.01  3-Jul-2019

 ----------------------------------------------------------------------
 #t hf aug-cc-pvdz iop(5/13=1,5/36=2,99/5=2) pseudo=read geom=check gue
 ss=(read,tcheck) scf=(maxcycle=1)
 ----------------------------------------------------------------------
 -----
 title
 -----
 Structure from the checkpoint file:  "BDE49_expt_238_mol1.chk"
 Charge =  0 Multiplicity = 1

                         Standard orientation:
 ---------------------------------------------------------------------
 Center     Atomic      Atomic             Coordinates (Angstroms)
 Number     Number       Type             X           Y           Z
 ---------------------------------------------------------------------
      1          6           0       -3.053396    0.939445    0.000015
      2          6           0       -1.702221    1.257516    0.000086
      3          6           0       -3.456855   -0.395529   -0.000128
      4          6           0       -2.496772   -1.403055   -0.000200
      5          6           0       -1.141108   -1.082425   -0.000129
      6          6           0       -0.718930    0.254679    0.000019
      7          1           0       -1.373081    2.288477    0.000197
      8          1           0       -3.793646    1.731597    0.000070
      9          6           0        1.936792   -0.230385    0.000048
     10          1           0       -4.511372   -0.647918   -0.000184
     11          6           0        0.719801    0.734075    0.000106
     12          1           0       -0.426398   -1.891065   -0.000194
     13          1           0       -2.800448   -2.443784   -0.000314
     14          8           0        0.920323    1.933706    0.000114
     15          6           0        3.220809    0.619787   -0.000106
     16          1           0        4.094288   -0.038516   -0.000151
     17          1           0        3.270316    1.264220    0.878867
     18          1           0        3.270161    1.264135   -0.879151
     19          6           0        1.941013   -1.102830   -1.277141
     20          1           0        1.089103   -1.778292   -1.347705
     21          1           0        2.850425   -1.710565   -1.296517
     22          1           0        1.942700   -0.475490   -2.172814
     23          6           0        1.941245   -1.102706    1.277321
     24          1           0        1.943082   -0.475278    2.172933
     25          1           0        2.850667   -1.710429    1.296598
     26          1           0        1.089356   -1.778172    1.348103
 ---------------------------------------------------------------------

 SCF Done:  E(RHF) =  -499.773693410     A.U. after    2 cycles

 The electronic state is 1-A.
 Alpha  occ. eigenvalues --  -20.55707 -11.34271 -11.26167 -11.26160 -11.25975
 Alpha  occ. eigenvalues --  -11.25843 -11.25318 -11.25220 -11.25035 -11.23551
 Alpha  occ. eigenvalues --  -11.23545 -11.21907  -1.35149  -1.15394  -1.09475
 Alpha  occ. eigenvalues --   -1.03038  -1.01988  -0.94189  -0.92821  -0.88384
 Alpha  occ. eigenvalues --   -0.84132  -0.81448  -0.74654  -0.70092  -0.67113
 Alpha  occ. eigenvalues --   -0.65325  -0.63166  -0.62610  -0.61648  -0.60589
 Alpha  occ. eigenvalues --   -0.58510  -0.56944  -0.54860  -0.53633  -0.53458
 Alpha  occ. eigenvalues --   -0.52025  -0.52018  -0.50350  -0.50270  -0.47536
 Alpha  occ. eigenvalues --   -0.46891  -0.41685  -0.35165  -0.34727
 Alpha virt. eigenvalues --    0.02893   0.03572   0.04159   0.04766   0.05227
 Alpha virt. eigenvalues --    0.05434   0.06426   0.06492   0.07065   0.07312
 Alpha virt. eigenvalues --    0.07528   0.07801   0.08832   0.09453   0.10368

 Mulliken charges:
               1
     1  C    0.441821
     2  C    0.192936
     3  C    0.851309
     4  C    0.153434
     5  C    0.708272
     6  C    1.193577
     7  H   -0.660581
     8  H   -0.436720
     9  C   -2.515153
    10  H   -0.440890
    11  C   -0.775458
    12  H   -0.796580
    13  H   -0.501156
    14  O   -0.446725
    15  C    1.446943
    16  H    0.007143
    17  H   -0.012185
    18  H   -0.012223
    19  C    1.051307
    20  H   -0.160082
    21  H   -0.038885
    22  H   -0.051163
    23  C    1.051137
    24  H   -0.051180
    25  H   -0.038925
    26  H   -0.159974
 Sum of Mulliken charges =  -0.00000

 Dipole moment (field-independent basis, Debye):
    X=             -0.9796    Y=             -3.0994    Z=             -0.0001  Tot=              3.2505

 Test job not archived.
 1\1\GINC-SE453\SP\RHF\Aug-CC-pVDZ\C11H14O1\OHZDE\08-Apr-2025\0\\#t hf
 aug-cc-pvdz iop(5/13=1,5/36=2,99/5=2) pseudo=read geom=check guess=(re
 ad,tcheck) scf=(maxcycle=1)\\title\\0,1\C,0,3.053396,0.939445,-0.00001
 5\C,0,1.702221,1.257516,-0.000086\C,0,3.456855,-0.395529,0.000128\C,0,
 2.496772,-1.403055,0.0002\C,0,1.141108,-1.082425,0.000129\C,0,0.71893,
 0.254679,-0.000019\H,0,1.373081,2.288477,-0.000197\H,0,3.793646,1.7315
 97,-0.00007\C,0,-1.936792,-0.230385,-0.000048\H,0,4.511372,-0.647918,0
 .000184\C,0,-0.719801,0.734075,-0.000106\H,0,0.426398,-1.891065,0.0001

 Normal termination of Gaussian 16 at Tue Apr  8 23:04:35 2025.
