 Gaussian 16, Revision C.01,

 ----------------------------------------------------------------------
 #t hf aug-cc-pvdz symm=none int=(grid=ultrafine) guess=(read,tcheck) s
 table=(opt,rrhf)
 ----------------------------------------------------------------------
 -----
 title
 -----
 Symbolic Z-matrix:
 Charge =  0 Multiplicity = 1

 SCF Done:  E(RHF) =  -346.079203591     A.U. after   11 cycles

 1\1\GINC-SE250\Stability\RHF\Aug-CC-pVDZ\C5H12O2\OHZDE\08-Apr-2025\0\\
 #t hf aug-cc-pvdz symm=none int=(grid=ultrafine) guess=(read,tcheck) s
 table=(opt,rrhf)\\title\\0,1\C,0,0.,0.,1.300943\O,0,-0.437643,1.092743
 ,0.535896\O,0,0.437643,-1.092743,0.535896\H,0,-0.856577,-0.277308,1.92
 7113\H,0,0.856577,0.277308,1.927113\C,0,0.613528,1.77922,-0.148226\C,0
 ,-0.613528,-1.77922,-0.148226\C,0,0.,2.922299,-0.93428\H,0,1.143473,1.
 08572,-0.810659\H,0,1.338458,2.157812,0.587722\H,0,-0.710106,2.543061,
 -1.67273\H,0,0.77684,3.484862,-1.459095\H,0,-0.532354,3.604208,-0.2673

 Normal termination of Gaussian 16 at Tue Apr  8 22:55:13 2025.
 Gaussian 16:  ES64L-G16RevC.01  3-Jul-2019

 ----------------------------------------------------------------------
 #t hf aug-cc-pvdz iop(5/13=1,5/36=2,99/5=2) pseudo=read geom=check gue
 ss=(read,tcheck) scf=(maxcycle=1)
 ----------------------------------------------------------------------
 -----
 title
 -----
 Structure from the checkpoint file:  "BDE49_expt_189_mol1.chk"
 Charge =  0 Multiplicity = 1

                         Standard orientation:
 ---------------------------------------------------------------------
 Center     Atomic      Atomic             Coordinates (Angstroms)
 Number     Number       Type             X           Y           Z
 ---------------------------------------------------------------------
      1          6           0        0.000000    0.000000    1.300943
      2          8           0       -0.437643    1.092743    0.535896
      3          8           0        0.437643   -1.092743    0.535896
      4          1           0       -0.856577   -0.277308    1.927113
      5          1           0        0.856577    0.277308    1.927113
      6          6           0        0.613528    1.779220   -0.148226
      7          6           0       -0.613528   -1.779220   -0.148226
      8          6           0        0.000000    2.922299   -0.934280
      9          1           0        1.143473    1.085720   -0.810659
     10          1           0        1.338458    2.157812    0.587722
     11          1           0       -0.710106    2.543061   -1.672730
     12          1           0        0.776840    3.484862   -1.459095
     13          1           0       -0.532354    3.604208   -0.267316
     14          6           0       -0.000000   -2.922299   -0.934280
     15          1           0       -1.143473   -1.085720   -0.810659
     16          1           0       -1.338458   -2.157812    0.587722
     17          1           0        0.710106   -2.543061   -1.672730
     18          1           0       -0.776840   -3.484862   -1.459095
     19          1           0        0.532354   -3.604208   -0.267316
 ---------------------------------------------------------------------

 SCF Done:  E(RHF) =  -346.193525614     A.U. after    2 cycles

 The electronic state is 1-A.
 Alpha  occ. eigenvalues --  -20.57139 -20.57137 -11.33574 -11.28384 -11.28384
 Alpha  occ. eigenvalues --  -11.22528 -11.22528  -1.36704  -1.30309  -1.03074
 Alpha  occ. eigenvalues --   -1.00691  -0.89932  -0.85094  -0.81268  -0.70292
 Alpha  occ. eigenvalues --   -0.69696  -0.67690  -0.62959  -0.62229  -0.58820
 Alpha  occ. eigenvalues --   -0.54656  -0.54220  -0.53003  -0.52104  -0.50377
 Alpha  occ. eigenvalues --   -0.50161  -0.47030  -0.45016  -0.44474
 Alpha virt. eigenvalues --    0.03604   0.04382   0.04715   0.04931   0.06075
 Alpha virt. eigenvalues --    0.06076   0.06199   0.06907   0.07922   0.08995
 Alpha virt. eigenvalues --    0.09758   0.09777   0.11421   0.12922   0.14398

 Mulliken charges:
               1
     1  C    1.051443
     2  O   -0.667526
     3  O   -0.667526
     4  H   -0.234383
     5  H   -0.234383
     6  C    0.607714
     7  C    0.607714
     8  C    0.198288
     9  H   -0.147704
    10  H   -0.149634
    11  H   -0.059250
    12  H   -0.034068
    13  H   -0.039158
    14  C    0.198288
    15  H   -0.147704
    16  H   -0.149634
    17  H   -0.059250
    18  H   -0.034068
    19  H   -0.039158
 Sum of Mulliken charges =  -0.00000

 Dipole moment (field-independent basis, Debye):
    X=              0.0000    Y=              0.0000    Z=             -0.1989  Tot=              0.1989

 Test job not archived.
 1\1\GINC-SE250\SP\RHF\Aug-CC-pVDZ\C5H12O2\OHZDE\08-Apr-2025\0\\#t hf a
 ug-cc-pvdz iop(5/13=1,5/36=2,99/5=2) pseudo=read geom=check guess=(rea
 d,tcheck) scf=(maxcycle=1)\\title\\0,1\C,0,0.,0.,1.300943\O,0,-0.43764
 3,1.092743,0.535896\O,0,0.437643,-1.092743,0.535896\H,0,-0.856577,-0.2
 77308,1.927113\H,0,0.856577,0.277308,1.927113\C,0,0.613528,1.77922,-0.
 148226\C,0,-0.613528,-1.77922,-0.148226\C,0,0.,2.922299,-0.93428\H,0,1
 .143473,1.08572,-0.810659\H,0,1.338458,2.157812,0.587722\H,0,-0.710106
 ,2.543061,-1.67273\H,0,0.77684,3.484862,-1.459095\H,0,-0.532354,3.6042

 Normal termination of Gaussian 16 at Tue Apr  8 22:55:17 2025.
