 Gaussian 16, Revision C.01,

 ----------------------------------------------------------------------
 #t hf aug-cc-pvdz symm=none int=(grid=ultrafine) guess=(read,tcheck) s
 table=opt
 ----------------------------------------------------------------------
 -----
 title
 -----
 Symbolic Z-matrix:
 Charge =  0 Multiplicity = 2

 SCF Done:  E(UHF) =  -433.683550555     A.U. after   27 cycles
 Normal termination of Gaussian 16 at Wed Apr  9 00:50:42 2025.
 Gaussian 16:  ES64L-G16RevC.01  3-Jul-2019

 ----------------------------------------------------------------------
 #t hf aug-cc-pvdz iop(5/13=1,5/36=2,99/5=2) pseudo=read geom=check gue
 ss=(read,tcheck) scf=(maxcycle=1)
 ----------------------------------------------------------------------
 -----
 title
 -----
 Structure from the checkpoint file:  "BDE49_nonexpt_958_mol2.chk"
 Charge =  0 Multiplicity = 2

                         Standard orientation:
 ---------------------------------------------------------------------
 Center     Atomic      Atomic             Coordinates (Angstroms)
 Number     Number       Type             X           Y           Z
 ---------------------------------------------------------------------
      1          7           0       -0.000129   -1.255560   -0.283018
      2          6           0        1.047077   -0.442811    0.040747
      3          8           0        2.220136   -0.412619    0.033542
      4          6           0       -1.047216   -0.442460    0.040253
      5          7           0        0.000011    0.642411    0.465587
      6          8           0       -2.220281   -0.412341    0.033688
      7          9           0        0.000314    1.800372   -0.255758
 ---------------------------------------------------------------------

 SCF Done:  E(UHF) =  -433.818605534     A.U. after    2 cycles

 The electronic state is 2-A.
 Alpha  occ. eigenvalues --  -26.23995 -20.64241 -20.64240 -15.87397 -15.74905
 Alpha  occ. eigenvalues --  -11.48562 -11.48531  -1.76849  -1.47704  -1.45359
 Alpha  occ. eigenvalues --   -1.37429  -1.17847  -0.92837  -0.89292  -0.85959
 Alpha  occ. eigenvalues --   -0.85242  -0.76357  -0.76103  -0.73143  -0.70439
 Alpha  occ. eigenvalues --   -0.63868  -0.63192  -0.62552  -0.53373  -0.51447
 Alpha  occ. eigenvalues --   -0.49858
 Alpha virt. eigenvalues --    0.05770   0.06760   0.06799   0.06857   0.09609
 Alpha virt. eigenvalues --    0.09784   0.10619   0.11876   0.12927   0.15526
 Alpha virt. eigenvalues --    0.17014   0.18090   0.19456   0.20411   0.21888

  Beta  occ. eigenvalues --  -26.23793 -20.64402 -20.64401 -15.84732 -15.72949
  Beta  occ. eigenvalues --  -11.48806 -11.48775  -1.75921  -1.47033  -1.45710
  Beta  occ. eigenvalues --   -1.34137  -1.10426  -0.92416  -0.86269  -0.85089
  Beta  occ. eigenvalues --   -0.81924  -0.76560  -0.75747  -0.70238  -0.69518
  Beta  occ. eigenvalues --   -0.64256  -0.60680  -0.52509  -0.49848  -0.45763
  Beta virt. eigenvalues --   -0.05215   0.05924   0.06784   0.06892   0.07709
  Beta virt. eigenvalues --    0.07903   0.10619   0.11227   0.11904   0.12906
  Beta virt. eigenvalues --    0.15822   0.18131   0.18274   0.19715   0.20581

 Mulliken charges and spin densities:
               1          2
     1  N   -0.360007   0.584607
     2  C    0.762990  -0.114659
     3  O   -0.276858  -0.027844
     4  C    0.762962  -0.114641
     5  N   -0.273146   0.712398
     6  O   -0.276867  -0.027887
     7  F   -0.339074  -0.011973
 Sum of Mulliken charges =  -0.00000   1.00000

 Dipole moment (field-independent basis, Debye):
    X=              0.0001    Y=              0.0986    Z=              0.8641  Tot=              0.8697
                          Isotropic Fermi Contact Couplings
        Atom                 a.u.       MegaHertz       Gauss      10(-4) cm-1
     1  N(14)              0.13601      43.94621      15.68110      14.65888
     2  C(13)             -0.08346     -93.82630     -33.47956     -31.29708
     3  O(17)             -0.01599       9.69214       3.45840       3.23295
     4  C(13)             -0.08349     -93.85740     -33.49065     -31.30746
     5  N(14)              0.18939      61.19404      21.83556      20.41214
     6  O(17)             -0.01601       9.70356       3.46247       3.23676
     7  F(19)              0.04145     174.41820      62.23675      58.17965
 --------------------------------------------------------

 Normal termination of Gaussian 16 at Wed Apr  9 00:50:47 2025.
