 Gaussian 16, Revision C.01,

 ----------------------------------------------------------------------
 #t hf aug-cc-pvdz symm=none int=(grid=ultrafine) guess=(read,tcheck) s
 table=(opt,rrhf)
 ----------------------------------------------------------------------
 -----
 title
 -----
 Symbolic Z-matrix:
 Charge =  0 Multiplicity = 1

 SCF Done:  E(RHF) =  -711.002784905     A.U. after   13 cycles

 1\1\GINC-SE186\Stability\RHF\Aug-CC-pVDZ\C8H18S1\OHZDE\08-Apr-2025\0\\
 #t hf aug-cc-pvdz symm=none int=(grid=ultrafine) guess=(read,tcheck) s
 table=(opt,rrhf)\\title\\0,1\C,0,5.151486,0.447129,-0.158232\C,0,3.925
 015,-0.31686,0.34891\H,0,6.074958,0.055688,0.277223\H,0,5.088576,1.509
 679,0.096585\H,0,5.240702,0.374062,-1.246677\C,0,2.605087,0.198731,-0.
 235852\H,0,3.883028,-0.254533,1.443119\H,0,4.033819,-1.381782,0.109798
 \C,0,1.371933,-0.560865,0.265882\H,0,2.647736,0.137213,-1.331101\H,0,2
 .495774,1.264266,0.003503\C,0,0.054061,-0.039072,-0.318526\H,0,1.33089

 Normal termination of Gaussian 16 at Tue Apr  8 23:14:39 2025.
 Gaussian 16:  ES64L-G16RevC.01  3-Jul-2019

 ----------------------------------------------------------------------
 #t hf aug-cc-pvdz iop(5/13=1,5/36=2,99/5=2) pseudo=read geom=check gue
 ss=(read,tcheck) scf=(maxcycle=1)
 ----------------------------------------------------------------------
 -----
 title
 -----
 Structure from the checkpoint file:  "BDE49_expt_832_mol1.chk"
 Charge =  0 Multiplicity = 1

                         Standard orientation:
 ---------------------------------------------------------------------
 Center     Atomic      Atomic             Coordinates (Angstroms)
 Number     Number       Type             X           Y           Z
 ---------------------------------------------------------------------
      1          6           0        5.151486    0.447129   -0.158232
      2          6           0        3.925015   -0.316860    0.348910
      3          1           0        6.074958    0.055688    0.277223
      4          1           0        5.088576    1.509679    0.096585
      5          1           0        5.240702    0.374062   -1.246677
      6          6           0        2.605087    0.198731   -0.235852
      7          1           0        3.883028   -0.254533    1.443119
      8          1           0        4.033819   -1.381782    0.109798
      9          6           0        1.371933   -0.560865    0.265882
     10          1           0        2.647736    0.137213   -1.331101
     11          1           0        2.495774    1.264266    0.003503
     12          6           0        0.054061   -0.039072   -0.318526
     13          1           0        1.330895   -0.498534    1.361035
     14          1           0        1.482367   -1.626643    0.026585
     15          6           0       -1.171230   -0.810876    0.179318
     16          1           0        0.095322   -0.099514   -1.414047
     17          1           0       -0.062007    1.021230   -0.073319
     18          6           0       -2.520026   -0.341527   -0.386122
     19          1           0       -1.213382   -0.775337    1.275213
     20          1           0       -1.055988   -1.870603   -0.085716
     21          6           0       -3.657810   -1.308047   -0.052206
     22          1           0       -2.435848   -0.255747   -1.474941
     23         16           0       -2.949651    1.395126    0.103485
     24          1           0       -3.438200   -2.305196   -0.448374
     25          1           0       -4.603647   -0.967372   -0.475919
     26          1           0       -3.786138   -1.400991    1.030576
     27          1           0       -3.134641    1.140419    1.411666
 ---------------------------------------------------------------------

 SCF Done:  E(RHF) =  -711.120592006     A.U. after    2 cycles

 The electronic state is 1-A.
 Alpha  occ. eigenvalues --  -93.52594 -11.27757 -11.23633 -11.23453 -11.22618
 Alpha  occ. eigenvalues --  -11.22597 -11.22505 -11.22392 -11.22095  -8.82329
 Alpha  occ. eigenvalues --   -6.16505  -6.16289  -6.15988  -1.09623  -1.06596
 Alpha  occ. eigenvalues --   -1.01816  -0.95347  -0.92972  -0.87814  -0.80969
 Alpha  occ. eigenvalues --   -0.78737  -0.77768  -0.65743  -0.62970  -0.61356
 Alpha  occ. eigenvalues --   -0.59244  -0.58546  -0.57844  -0.55496  -0.54609
 Alpha  occ. eigenvalues --   -0.52611  -0.51176  -0.50664  -0.49346  -0.47824
 Alpha  occ. eigenvalues --   -0.47188  -0.46309  -0.46149  -0.44266  -0.42764
 Alpha  occ. eigenvalues --   -0.35043
 Alpha virt. eigenvalues --    0.03470   0.03683   0.04216   0.04587   0.05219
 Alpha virt. eigenvalues --    0.05486   0.05685   0.06659   0.07069   0.07549
 Alpha virt. eigenvalues --    0.07673   0.08068   0.09203   0.09478   0.10241

 Mulliken charges:
               1
     1  C    0.654337
     2  C    0.515440
     3  H   -0.067748
     4  H   -0.094552
     5  H   -0.090526
     6  C    0.218788
     7  H   -0.166968
     8  H   -0.163991
     9  C    0.130565
    10  H   -0.195846
    11  H   -0.176277
    12  C    0.120633
    13  H   -0.191161
    14  H   -0.205657
    15  C    0.234470
    16  H   -0.191558
    17  H   -0.184728
    18  C   -0.477327
    19  H   -0.203350
    20  H   -0.169169
    21  C    0.772210
    22  H   -0.180953
    23  S    0.253037
    24  H   -0.065584
    25  H   -0.063890
    26  H   -0.086367
    27  H    0.076174
 Sum of Mulliken charges =   0.00000

 Dipole moment (field-independent basis, Debye):
    X=              0.4312    Y=             -1.7255    Z=              0.2499  Tot=              1.7961

 Test job not archived.
 1\1\GINC-SE186\SP\RHF\Aug-CC-pVDZ\C8H18S1\OHZDE\08-Apr-2025\0\\#t hf a
 ug-cc-pvdz iop(5/13=1,5/36=2,99/5=2) pseudo=read geom=check guess=(rea
 d,tcheck) scf=(maxcycle=1)\\title\\0,1\C,0,5.151486,0.447129,-0.158232
 \C,0,3.925015,-0.31686,0.34891\H,0,6.074958,0.055688,0.277223\H,0,5.08
 8576,1.509679,0.096585\H,0,5.240702,0.374062,-1.246677\C,0,2.605087,0.
 198731,-0.235852\H,0,3.883028,-0.254533,1.443119\H,0,4.033819,-1.38178
 2,0.109798\C,0,1.371933,-0.560865,0.265882\H,0,2.647736,0.137213,-1.33
 1101\H,0,2.495774,1.264266,0.003503\C,0,0.054061,-0.039072,-0.318526\H

 Normal termination of Gaussian 16 at Tue Apr  8 23:14:57 2025.
