 Gaussian 16, Revision C.01,

 ----------------------------------------------------------------------
 #t hf aug-cc-pvdz symm=none int=(grid=ultrafine) guess=(read,tcheck) s
 table=(opt,rrhf)
 ----------------------------------------------------------------------
 -----
 title
 -----
 Symbolic Z-matrix:
 Charge =  0 Multiplicity = 1

 SCF Done:  E(RHF) =  -895.254150402     A.U. after   17 cycles
 Normal termination of Gaussian 16 at Tue Apr  8 23:31:00 2025.
 Gaussian 16:  ES64L-G16RevC.01  3-Jul-2019

 ----------------------------------------------------------------------
 #t hf aug-cc-pvdz iop(5/13=1,5/36=2,99/5=2) pseudo=read geom=check gue
 ss=(read,tcheck) scf=(maxcycle=1)
 ----------------------------------------------------------------------
 -----
 title
 -----
 Structure from the checkpoint file:  "BDE49_nonexpt_1376_mol1.chk"
 Charge =  0 Multiplicity = 1

                         Standard orientation:
 ---------------------------------------------------------------------
 Center     Atomic      Atomic             Coordinates (Angstroms)
 Number     Number       Type             X           Y           Z
 ---------------------------------------------------------------------
      1          9           0       -0.568781   -3.025641   -0.000000
      2          8           0       -0.256686   -0.943011    2.458796
      3          8           0       -0.256686   -0.943011   -2.458796
      4         15           0        0.617093   -1.915929   -0.000000
      5          6           0        0.017984   -0.681970    1.314324
      6          6           0        0.025313    0.676600    0.701534
      7          6           0       -0.004746    1.876980    1.412833
      8          6           0       -0.028837    3.070877    0.701642
      9          6           0       -0.028837    3.070877   -0.701642
     10          6           0       -0.004746    1.876980   -1.412833
     11          6           0        0.025313    0.676600   -0.701534
     12          6           0        0.017984   -0.681970   -1.314324
     13          1           0       -0.017294    1.859314    2.496000
     14          1           0       -0.056185    4.014702    1.234089
     15          1           0       -0.056185    4.014702   -1.234089
     16          1           0       -0.017294    1.859314   -2.496000
 ---------------------------------------------------------------------

 SCF Done:  E(RHF) =  -895.448778624     A.U. after    2 cycles

 The electronic state is 1-A'.
 Alpha  occ. eigenvalues --  -81.35723 -26.14114 -20.60351 -20.60351 -11.38001
 Alpha  occ. eigenvalues --  -11.37998 -11.29896 -11.29787 -11.29401 -11.29304
 Alpha  occ. eigenvalues --  -11.29137 -11.29136  -7.85306  -4.99420  -4.99082
 Alpha  occ. eigenvalues --   -4.98839  -1.66165  -1.39125  -1.38852  -1.19981
 Alpha  occ. eigenvalues --   -1.09432  -1.06364  -0.95032  -0.92112  -0.86431
 Alpha  occ. eigenvalues --   -0.81269  -0.80148  -0.75895  -0.74979  -0.73462
 Alpha  occ. eigenvalues --   -0.72044  -0.69527  -0.66469  -0.65975  -0.65367
 Alpha  occ. eigenvalues --   -0.64407  -0.60720  -0.57854  -0.57351  -0.55446
 Alpha  occ. eigenvalues --   -0.53364  -0.51223  -0.41676  -0.39084  -0.38794
 Alpha  occ. eigenvalues --   -0.38428
 Alpha virt. eigenvalues --    0.01893   0.02274   0.02340   0.03617   0.04613
 Alpha virt. eigenvalues --    0.06112   0.07130   0.07383   0.08157   0.08974
 Alpha virt. eigenvalues --    0.10108   0.10873   0.10968   0.12386   0.12454

 Mulliken charges:
               1
     1  F   -0.645732
     2  O   -0.530458
     3  O   -0.530458
     4  P    1.114815
     5  C   -0.178133
     6  C    0.552807
     7  C    0.427028
     8  C    0.439279
     9  C    0.439279
    10  C    0.427028
    11  C    0.552807
    12  C   -0.178133
    13  H   -0.510685
    14  H   -0.434378
    15  H   -0.434378
    16  H   -0.510685
 Sum of Mulliken charges =  -0.00000

 Dipole moment (field-independent basis, Debye):
    X=              1.7159    Y=              5.7108    Z=             -0.0000  Tot=              5.9631

 Test job not archived.
 1\1\GINC-SE226\SP\RHF\Aug-CC-pVDZ\C8H4F1O2P1\OHZDE\08-Apr-2025\0\\#t h
 f aug-cc-pvdz iop(5/13=1,5/36=2,99/5=2) pseudo=read geom=check guess=(
 read,tcheck) scf=(maxcycle=1)\\title\\0,1\F,0,0.568781,3.025641,0.\O,0
 ,0.256686,0.943011,2.458796\O,0,0.256686,0.943011,-2.458796\P,0,-0.617
 093,1.915929,0.\C,0,-0.017984,0.68197,1.314324\C,0,-0.025313,-0.6766,0
 .701534\C,0,0.004746,-1.87698,1.412833\C,0,0.028837,-3.070877,0.701642
 \C,0,0.028837,-3.070877,-0.701642\C,0,0.004746,-1.87698,-1.412833\C,0,
 -0.025313,-0.6766,-0.701534\C,0,-0.017984,0.68197,-1.314324\H,0,0.0172

 Normal termination of Gaussian 16 at Tue Apr  8 23:31:07 2025.
