 Gaussian 16, Revision C.01,

 ----------------------------------------------------------------------
 #t hf aug-cc-pvdz symm=none int=(grid=ultrafine) guess=(read,tcheck) s
 table=(opt,rrhf)
 ----------------------------------------------------------------------
 -----
 title
 -----
 Symbolic Z-matrix:
 Charge =  0 Multiplicity = 1

 SCF Done:  E(RHF) =  -302.378543356     A.U. after   12 cycles
 Normal termination of Gaussian 16 at Wed Apr  9 00:29:44 2025.
 Gaussian 16:  ES64L-G16RevC.01  3-Jul-2019

 ----------------------------------------------------------------------
 #t hf aug-cc-pvdz iop(5/13=1,5/36=2,99/5=2) pseudo=read geom=check gue
 ss=(read,tcheck) scf=(maxcycle=1)
 ----------------------------------------------------------------------
 -----
 title
 -----
 Structure from the checkpoint file:  "BDE49_nonexpt_370_mol1.chk"
 Charge =  0 Multiplicity = 1

                         Standard orientation:
 ---------------------------------------------------------------------
 Center     Atomic      Atomic             Coordinates (Angstroms)
 Number     Number       Type             X           Y           Z
 ---------------------------------------------------------------------
      1          9           0       -1.762558   -0.673022   -0.000045
      2          9           0       -0.698926    1.311867   -0.000042
      3          5           0       -0.606077   -0.014838    0.000066
      4          6           0        0.760509   -0.764874    0.000035
      5          6           0        2.013660    0.122514    0.000021
      6          1           0        0.764716   -1.441956    0.865027
      7          1           0        2.041581    0.770596   -0.879382
      8          1           0        2.926135   -0.478528    0.000002
      9          1           0        2.041609    0.770584    0.879432
     10          1           0        0.764689   -1.441945   -0.864966
 ---------------------------------------------------------------------

 SCF Done:  E(RHF) =  -302.496013382     A.U. after    2 cycles

 The electronic state is 1-A.
 Alpha  occ. eigenvalues --  -26.13303 -26.13178 -11.23793 -11.23335  -7.73084
 Alpha  occ. eigenvalues --   -1.68556  -1.66202  -1.03270  -0.88540  -0.85531
 Alpha  occ. eigenvalues --   -0.81250  -0.76526  -0.76388  -0.71587  -0.70923
 Alpha  occ. eigenvalues --   -0.61499  -0.59874  -0.53020  -0.50619  -0.49140
 Alpha virt. eigenvalues --    0.03162   0.04776   0.04864   0.05123   0.06968
 Alpha virt. eigenvalues --    0.07534   0.07576   0.07816   0.11420   0.13203
 Alpha virt. eigenvalues --    0.14786   0.15190   0.15858   0.16917   0.16960

 Mulliken charges:
               1
     1  F   -0.458579
     2  F   -0.468602
     3  B    1.014827
     4  C    0.224286
     5  C    0.220043
     6  H   -0.149609
     7  H   -0.084016
     8  H   -0.064707
     9  H   -0.084014
    10  H   -0.149628
 Sum of Mulliken charges =  -0.00000

 Dipole moment (field-independent basis, Debye):
    X=              1.8694    Y=             -0.9533    Z=              0.0004  Tot=              2.0984

 Test job not archived.
 1\1\GINC-SE419\SP\RHF\Aug-CC-pVDZ\C2H5B1F2\OHZDE\09-Apr-2025\0\\#t hf
 aug-cc-pvdz iop(5/13=1,5/36=2,99/5=2) pseudo=read geom=check guess=(re
 ad,tcheck) scf=(maxcycle=1)\\title\\0,1\F,0,-1.762558,-0.673022,-0.000
 045\F,0,-0.698926,1.311867,-0.000042\B,0,-0.606077,-0.014838,0.000066\
 C,0,0.760509,-0.764874,0.000035\C,0,2.01366,0.122514,0.000021\H,0,0.76
 4716,-1.441956,0.865027\H,0,2.041581,0.770596,-0.879382\H,0,2.926135,-
 0.478528,0.000002\H,0,2.041609,0.770584,0.879432\H,0,0.764689,-1.44194
 5,-0.864966\\Version=ES64L-G16RevC.01\State=1-A\HF=-302.4960134\RMSD=5

 Normal termination of Gaussian 16 at Wed Apr  9 00:29:47 2025.
