 Gaussian 16, Revision C.01,

 ----------------------------------------------------------------------
 #t hf aug-cc-pvdz symm=none int=(grid=ultrafine) guess=(read,tcheck) s
 table=opt
 ----------------------------------------------------------------------
 -----
 title
 -----
 Symbolic Z-matrix:
 Charge =  0 Multiplicity = 2

 SCF Done:  E(UHF) =  -572.203596135     A.U. after   19 cycles

 1\1\GINC-SE340\Stability\UHF\Aug-CC-pVDZ\C1Cl1O1\OHZDE\08-Apr-2025\0\\
 #t hf aug-cc-pvdz symm=none int=(grid=ultrafine) guess=(read,tcheck) s
 table=opt\\title\\0,2\C,0,0.,0.860358,0.\O,0,1.057992,1.317933,0.\Cl,0
 ,-0.497879,-0.923859,0.\\Version=ES64L-G16RevC.01\HF=-572.2035961\S2=0
 .785449\S2-1=0.\S2A=0.750707\RMSD=6.209e-09\Dipole=-0.2921036,0.012909
 3,0.\Quadrupole=-1.0184956,0.3285257,0.6899699,-1.0029747,0.,0.\PG=Unk
 nown\\@
 The archive entry for this job was punched.

 Normal termination of Gaussian 16 at Tue Apr  8 22:31:18 2025.
 Gaussian 16:  ES64L-G16RevC.01  3-Jul-2019

 ----------------------------------------------------------------------
 #t hf aug-cc-pvdz iop(5/13=1,5/36=2,99/5=2) pseudo=read geom=check gue
 ss=(read,tcheck) scf=(maxcycle=1)
 ----------------------------------------------------------------------
 -----
 title
 -----
 Structure from the checkpoint file:  "BDE49_expt_1076_mol3.chk"
 Charge =  0 Multiplicity = 2

                         Standard orientation:
 ---------------------------------------------------------------------
 Center     Atomic      Atomic             Coordinates (Angstroms)
 Number     Number       Type             X           Y           Z
 ---------------------------------------------------------------------
      1          6           0        0.000000    0.860358    0.000000
      2          8           0        1.057992    1.317933    0.000000
      3         17           0       -0.497879   -0.923859    0.000000
 ---------------------------------------------------------------------

 SCF Done:  E(UHF) =  -572.259922178     A.U. after    2 cycles

 The electronic state is 2-A'.
 Alpha  occ. eigenvalues -- -103.70696 -20.67790 -11.44758 -10.73916  -8.40448
 Alpha  occ. eigenvalues --   -8.39137  -8.39114  -1.48627  -1.20122  -0.84386
 Alpha  occ. eigenvalues --   -0.72615  -0.71056  -0.65481  -0.51438  -0.51216
 Alpha  occ. eigenvalues --   -0.44127
 Alpha virt. eigenvalues --    0.07329   0.07487   0.07811   0.09993   0.11869
 Alpha virt. eigenvalues --    0.12417   0.15477   0.15768   0.20535   0.23291
 Alpha virt. eigenvalues --    0.25215   0.26035   0.29017   0.32781   0.39972

  Beta  occ. eigenvalues -- -103.70125 -20.67232 -11.42769 -10.73312  -8.38823
  Beta  occ. eigenvalues --   -8.38791  -8.38122  -1.46911  -1.15365  -0.80760
  Beta  occ. eigenvalues --   -0.67562  -0.65930  -0.60557  -0.50373  -0.49845
  Beta virt. eigenvalues --    0.00323   0.07945   0.08525   0.08940   0.10791
  Beta virt. eigenvalues --    0.13154   0.13426   0.15854   0.16225   0.23563
  Beta virt. eigenvalues --    0.24153   0.25096   0.26766   0.29369   0.33326

 Mulliken charges and spin densities:
               1          2
     1  C    0.191774   0.551447
     2  O   -0.165810   0.066042
     3  Cl  -0.025964   0.382511
 Sum of Mulliken charges =   0.00000   1.00000

 Dipole moment (field-independent basis, Debye):
    X=             -0.9084    Y=              0.0032    Z=              0.0000  Tot=              0.9084
                          Isotropic Fermi Contact Couplings
        Atom                 a.u.       MegaHertz       Gauss      10(-4) cm-1
     1  C(13)              0.58192     654.18651     233.43002     218.21313
     2  O(17)              0.06996     -42.40924     -15.13267     -14.14620
     3  Cl(35)             0.19496      85.48404      30.50283      28.51441
 --------------------------------------------------------
       Center         ----  Spin Dipole Couplings  ----
                      3XX-RR        3YY-RR        3ZZ-RR
 --------------------------------------------------------
     1   Atom        0.506754     -0.372917     -0.133837

 Normal termination of Gaussian 16 at Tue Apr  8 22:31:19 2025.
