 Gaussian 16, Revision C.01,

 ----------------------------------------------------------------------
 #t hf aug-cc-pvdz symm=none int=(grid=ultrafine) guess=(read,tcheck) s
 table=opt
 ----------------------------------------------------------------------
 -----
 title
 -----
 Symbolic Z-matrix:
 Charge =  0 Multiplicity = 2

 SCF Done:  E(UHF) =  -943.718570903     A.U. after   14 cycles
 Normal termination of Gaussian 16 at Tue Apr  8 23:24:54 2025.
 Gaussian 16:  ES64L-G16RevC.01  3-Jul-2019

 ----------------------------------------------------------------------
 #t hf aug-cc-pvdz iop(5/13=1,5/36=2,99/5=2) pseudo=read geom=check gue
 ss=(read,tcheck) scf=(maxcycle=1)
 ----------------------------------------------------------------------
 -----
 title
 -----
 Structure from the checkpoint file:  "BDE49_nonexpt_12_mol2.chk"
 Charge =  0 Multiplicity = 2

                         Standard orientation:
 ---------------------------------------------------------------------
 Center     Atomic      Atomic             Coordinates (Angstroms)
 Number     Number       Type             X           Y           Z
 ---------------------------------------------------------------------
      1          5           0        0.000000   -0.000000    0.693571
      2         17           0        0.000000    1.542548   -0.101996
      3         17           0       -0.000000   -1.542548   -0.101996
 ---------------------------------------------------------------------

 SCF Done:  E(UHF) =  -943.761954018     A.U. after    2 cycles

 The electronic state is 2-A1.
 Alpha  occ. eigenvalues -- -103.68960-103.68960 -10.72487 -10.72459  -8.38261
 Alpha  occ. eigenvalues --   -8.38256  -8.37905  -8.37904  -8.37866  -8.37866
 Alpha  occ. eigenvalues --   -7.76226  -1.20378  -1.17091  -0.71209  -0.61227
 Alpha  occ. eigenvalues --   -0.57078  -0.54374  -0.49614  -0.49358  -0.37403
 Alpha virt. eigenvalues --    0.04130   0.05261   0.05683   0.05852   0.07028
 Alpha virt. eigenvalues --    0.12823   0.13096   0.14873   0.16202   0.17908
 Alpha virt. eigenvalues --    0.18408   0.21297   0.21950   0.25057   0.26132

  Beta  occ. eigenvalues -- -103.68863-103.68863 -10.72373 -10.72345  -8.38019
  Beta  occ. eigenvalues --   -8.38014  -8.37871  -8.37871  -8.37680  -8.37679
  Beta  occ. eigenvalues --   -7.73993  -1.19301  -1.16253  -0.68141  -0.59495
  Beta  occ. eigenvalues --   -0.54083  -0.53086  -0.49853  -0.48561
  Beta virt. eigenvalues --    0.02940   0.05316   0.05758   0.05786   0.09734
  Beta virt. eigenvalues --    0.10419   0.13189   0.13267   0.14886   0.16456
  Beta virt. eigenvalues --    0.18006   0.18509   0.22115   0.23139   0.25533

 Mulliken charges and spin densities:
               1          2
     1  B    0.340782   0.976106
     2  Cl  -0.170391   0.011947
     3  Cl  -0.170391   0.011947
 Sum of Mulliken charges =   0.00000   1.00000

 Dipole moment (field-independent basis, Debye):
    X=              0.0000    Y=             -0.0000    Z=              0.1965  Tot=              0.1965
                          Isotropic Fermi Contact Couplings
        Atom                 a.u.       MegaHertz       Gauss      10(-4) cm-1
     1  B(11)              0.43948     630.37275     224.93267     210.26972
     2  Cl(35)             0.09876      43.30381      15.45188      14.44460
     3  Cl(35)             0.09876      43.30381      15.45188      14.44460
 --------------------------------------------------------
       Center         ----  Spin Dipole Couplings  ----
                      3XX-RR        3YY-RR        3ZZ-RR
 --------------------------------------------------------
     1   Atom       -0.178156     -0.205501      0.383658

 Normal termination of Gaussian 16 at Tue Apr  8 23:24:56 2025.
