 Gaussian 16, Revision C.01,

 ----------------------------------------------------------------------
 #t hf aug-cc-pvdz symm=none int=(grid=ultrafine) guess=(read,tcheck) s
 table=(opt,rrhf)
 ----------------------------------------------------------------------
 -----
 title
 -----
 Symbolic Z-matrix:
 Charge =  0 Multiplicity = 1

 SCF Done:  E(RHF) =  -844.977123764     A.U. after   12 cycles
 Normal termination of Gaussian 16 at Wed Apr  9 00:14:09 2025.
 Gaussian 16:  ES64L-G16RevC.01  3-Jul-2019

 ----------------------------------------------------------------------
 #t hf aug-cc-pvdz iop(5/13=1,5/36=2,99/5=2) pseudo=read geom=check gue
 ss=(read,tcheck) scf=(maxcycle=1)
 ----------------------------------------------------------------------
 -----
 title
 -----
 Structure from the checkpoint file:  "BDE49_nonexpt_2492_mol1.chk"
 Charge =  0 Multiplicity = 1

                         Standard orientation:
 ---------------------------------------------------------------------
 Center     Atomic      Atomic             Coordinates (Angstroms)
 Number     Number       Type             X           Y           Z
 ---------------------------------------------------------------------
      1          6           0        1.556295    0.119049    0.328156
      2          6           0        1.942389    1.391214   -0.425546
      3          1           0        2.186982    1.164051   -1.466336
      4          1           0        2.821114    1.850628    0.040687
      5         16           0        0.056297   -0.706500   -0.425245
      6         14           0       -1.566062    0.486245    0.347632
      7          6           0       -3.168771   -0.342468   -0.159781
      8          1           0       -3.249018   -0.407700   -1.247674
      9          1           0       -4.021315    0.235503    0.208686
     10          1           0       -3.236500   -1.352409    0.251144
     11          6           0        2.689579   -0.908302    0.344553
     12          1           0        1.287278    0.365162    1.358398
     13          1           0        2.944237   -1.226143   -0.670615
     14          1           0        2.416752   -1.794437    0.920388
     15          1           0        3.585086   -0.466928    0.793403
     16          1           0        1.136062    2.126863   -0.422487
     17          1           0       -1.516731    1.873583   -0.177994
     18          1           0       -1.446772    0.571425    1.825181
 ---------------------------------------------------------------------

 SCF Done:  E(RHF) =  -845.071092246     A.U. after    2 cycles

 The electronic state is 1-A.
 Alpha  occ. eigenvalues --  -93.50818 -69.07999 -11.28075 -11.23344 -11.23270
 Alpha  occ. eigenvalues --  -11.22256  -8.80756  -6.83015  -6.14894  -6.14688
 Alpha  occ. eigenvalues --   -6.14435  -3.93834  -3.93764  -3.93738  -1.07827
 Alpha  occ. eigenvalues --   -0.95030  -0.93712  -0.91056  -0.77697  -0.67379
 Alpha  occ. eigenvalues --   -0.62569  -0.60022  -0.57581  -0.56844  -0.56159
 Alpha  occ. eigenvalues --   -0.54658  -0.50605  -0.50025  -0.47322  -0.47202
 Alpha  occ. eigenvalues --   -0.43579  -0.40478  -0.34551
 Alpha virt. eigenvalues --    0.03395   0.04147   0.04819   0.05035   0.06169
 Alpha virt. eigenvalues --    0.06226   0.06486   0.07563   0.07619   0.08118
 Alpha virt. eigenvalues --    0.08807   0.09318   0.10474   0.11415   0.11844

 Mulliken charges:
               1
     1  C   -0.629156
     2  C    0.462040
     3  H   -0.029382
     4  H   -0.030419
     5  S   -0.167698
     6  Si   0.693271
     7  C    0.244788
     8  H   -0.181734
     9  H   -0.295828
    10  H   -0.179806
    11  C    0.602455
    12  H   -0.213911
    13  H   -0.027745
    14  H   -0.075654
    15  H   -0.031099
    16  H   -0.171621
    17  H    0.008373
    18  H    0.023124
 Sum of Mulliken charges =  -0.00000

 Dipole moment (field-independent basis, Debye):
    X=              0.2680    Y=              0.8587    Z=              0.7461  Tot=              1.1687

 Test job not archived.
 1\1\GINC-SE402\SP\RHF\Aug-CC-pVDZ\C4H12S1Si1\OHZDE\09-Apr-2025\0\\#t h
 f aug-cc-pvdz iop(5/13=1,5/36=2,99/5=2) pseudo=read geom=check guess=(
 read,tcheck) scf=(maxcycle=1)\\title\\0,1\C,0,1.556295,0.119049,0.3281
 56\C,0,1.942389,1.391214,-0.425546\H,0,2.186982,1.164051,-1.466336\H,0
 ,2.821114,1.850628,0.040687\S,0,0.056297,-0.7065,-0.425245\Si,0,-1.566
 062,0.486245,0.347632\C,0,-3.168771,-0.342468,-0.159781\H,0,-3.249018,
 -0.4077,-1.247674\H,0,-4.021315,0.235503,0.208686\H,0,-3.2365,-1.35240
 9,0.251144\C,0,2.689579,-0.908302,0.344553\H,0,1.287278,0.365162,1.358

 Normal termination of Gaussian 16 at Wed Apr  9 00:14:15 2025.
