 Gaussian 16, Revision C.01,

 ----------------------------------------------------------------------
 #t hf aug-cc-pvdz symm=none int=(grid=ultrafine) guess=(read,tcheck) s
 table=opt
 ----------------------------------------------------------------------
 -----
 title
 -----
 Symbolic Z-matrix:
 Charge =  0 Multiplicity = 2

 SCF Done:  E(UHF) =  -727.230193575     A.U. after   16 cycles
 Normal termination of Gaussian 16 at Tue Apr  8 23:46:15 2025.
 Gaussian 16:  ES64L-G16RevC.01  3-Jul-2019

 ----------------------------------------------------------------------
 #t hf aug-cc-pvdz iop(5/13=1,5/36=2,99/5=2) pseudo=read geom=check gue
 ss=(read,tcheck) scf=(maxcycle=1)
 ----------------------------------------------------------------------
 -----
 title
 -----
 Structure from the checkpoint file:  "BDE49_nonexpt_1799_mol2.chk"
 Charge =  0 Multiplicity = 2

                         Standard orientation:
 ---------------------------------------------------------------------
 Center     Atomic      Atomic             Coordinates (Angstroms)
 Number     Number       Type             X           Y           Z
 ---------------------------------------------------------------------
      1         14           0        1.401497    0.288089   -0.102843
      2          6           0       -1.666536    0.684314   -0.032827
      3         16           0       -0.485898   -0.724679    0.042119
      4          1           0       -2.660416    0.261612    0.111193
      5          1           0       -1.623030    1.172989   -1.005255
      6          1           0       -1.464189    1.402639    0.760987
      7          1           0        2.416794   -0.758453    0.181902
      8          1           0        1.483470    1.376937    0.914040
 ---------------------------------------------------------------------

 SCF Done:  E(UHF) =  -727.283496746     A.U. after    2 cycles

 The electronic state is 2-A.
 Alpha  occ. eigenvalues --  -93.52859 -69.09549 -11.27632  -8.82763  -6.84698
 Alpha  occ. eigenvalues --   -6.16878  -6.16690  -6.16447  -3.95911  -3.95164
 Alpha  occ. eigenvalues --   -3.95086  -1.02541  -0.86192  -0.68818  -0.60050
 Alpha  occ. eigenvalues --   -0.59744  -0.51790  -0.47722  -0.43828  -0.38852
 Alpha  occ. eigenvalues --   -0.31297
 Alpha virt. eigenvalues --    0.03519   0.04630   0.05630   0.06073   0.06504
 Alpha virt. eigenvalues --    0.07795   0.08386   0.09300   0.11625   0.13174
 Alpha virt. eigenvalues --    0.13377   0.14419   0.15625   0.16546   0.17200

  Beta  occ. eigenvalues --  -93.52746 -69.09007 -11.27643  -8.82635  -6.83859
  Beta  occ. eigenvalues --   -6.16741  -6.16545  -6.16119  -3.94809  -3.94735
  Beta  occ. eigenvalues --   -3.93890  -1.02146  -0.85525  -0.65196  -0.59856
  Beta  occ. eigenvalues --   -0.59401  -0.50888  -0.47016  -0.41922  -0.35974
  Beta virt. eigenvalues --    0.02558   0.03971   0.04885   0.05689   0.06483
  Beta virt. eigenvalues --    0.06753   0.08389   0.09110   0.09769   0.12044
  Beta virt. eigenvalues --    0.13407   0.13931   0.15269   0.16332   0.17002

 Mulliken charges and spin densities:
               1          2
     1  Si   0.458708   0.855189
     2  C    0.101398  -0.010338
     3  S   -0.166487   0.075872
     4  H   -0.089444  -0.003360
     5  H   -0.077432   0.004225
     6  H   -0.111669   0.000083
     7  H   -0.071002   0.025615
     8  H   -0.044072   0.052713
 Sum of Mulliken charges =  -0.00000   1.00000

 Dipole moment (field-independent basis, Debye):
    X=             -0.5175    Y=              1.5374    Z=             -0.1723  Tot=              1.6313
                          Isotropic Fermi Contact Couplings
        Atom                 a.u.       MegaHertz       Gauss      10(-4) cm-1
     1  Si(29)             0.59666    -530.27267    -189.21447    -176.87992
     2  C(13)             -0.00045      -0.50777      -0.18118      -0.16937
     3  S(33)              0.04430      15.21666       5.42968       5.07573
     4  H(1)              -0.00027      -1.20701      -0.43069      -0.40261
     5  H(1)               0.00080       3.59297       1.28206       1.19849
     6  H(1)               0.00018       0.80550       0.28742       0.26869
     7  H(1)               0.00607      27.12785       9.67989       9.04888
     8  H(1)               0.01532      68.48118      24.43579      22.84286

 Normal termination of Gaussian 16 at Tue Apr  8 23:46:17 2025.
