 Gaussian 16, Revision C.01,

 ----------------------------------------------------------------------
 #t hf aug-cc-pvdz symm=none int=(grid=ultrafine) guess=(read,tcheck) s
 table=(opt,rrhf)
 ----------------------------------------------------------------------
 -----
 title
 -----
 Symbolic Z-matrix:
 Charge =  0 Multiplicity = 1

 SCF Done:  E(RHF) =  -589.243337422     A.U. after   14 cycles
 Normal termination of Gaussian 16 at Wed Apr  9 00:20:35 2025.
 Gaussian 16:  ES64L-G16RevC.01  3-Jul-2019

 ----------------------------------------------------------------------
 #t hf aug-cc-pvdz iop(5/13=1,5/36=2,99/5=2) pseudo=read geom=check gue
 ss=(read,tcheck) scf=(maxcycle=1)
 ----------------------------------------------------------------------
 -----
 title
 -----
 Structure from the checkpoint file:  "BDE49_nonexpt_2654_mol1.chk"
 Charge =  0 Multiplicity = 1

                         Standard orientation:
 ---------------------------------------------------------------------
 Center     Atomic      Atomic             Coordinates (Angstroms)
 Number     Number       Type             X           Y           Z
 ---------------------------------------------------------------------
      1          9           0       -1.398163    0.813341    0.000003
      2         16           0       -0.538736   -0.604020   -0.000003
      3          6           0        1.032556   -0.000314    0.000001
      4          7           0        2.143987    0.335162    0.000003
 ---------------------------------------------------------------------

 SCF Done:  E(RHF) =  -589.330993773     A.U. after    2 cycles

 The electronic state is 1-A.
 Alpha  occ. eigenvalues --  -93.70356 -26.18111 -15.69398 -11.34222  -8.99043
 Alpha  occ. eigenvalues --   -6.33233  -6.32920  -6.32390  -1.69266  -1.23547
 Alpha  occ. eigenvalues --   -1.07330  -0.81953  -0.78431  -0.77082  -0.63390
 Alpha  occ. eigenvalues --   -0.57811  -0.55946  -0.51487  -0.42497
 Alpha virt. eigenvalues --    0.00718   0.05179   0.08024   0.10069   0.10629
 Alpha virt. eigenvalues --    0.11975   0.11998   0.12721   0.15532   0.17952
 Alpha virt. eigenvalues --    0.19562   0.22311   0.24404   0.25939   0.26309

 Mulliken charges:
               1
     1  F   -0.568864
     2  S    1.079324
     3  C   -0.381722
     4  N   -0.128738
 Sum of Mulliken charges =   0.00000

 Dipole moment (field-independent basis, Debye):
    X=             -1.4522    Y=             -2.1161    Z=             -0.0000  Tot=              2.5665

 Test job not archived.
 1\1\GINC-SE177\SP\RHF\Aug-CC-pVDZ\C1F1N1S1\OHZDE\09-Apr-2025\0\\#t hf
 aug-cc-pvdz iop(5/13=1,5/36=2,99/5=2) pseudo=read geom=check guess=(re
 ad,tcheck) scf=(maxcycle=1)\\title\\0,1\F,0,-1.398163,0.81334,0.000003
 \S,0,-0.538736,-0.60402,-0.000003\C,0,1.032556,-0.000314,0.000001\N,0,
 2.143987,0.335162,0.000003\\Version=ES64L-G16RevC.01\State=1-A\HF=-589
 .3309938\RMSD=5.276e-03\Dipole=-0.5713365,-0.8325529,-0.0000041\Quadru
 pole=-3.1991802,2.0605707,1.1386095,0.2408931,-0.0000012,0.0000046\PG=
 C01 [X(C1F1N1S1)]\\@

 Normal termination of Gaussian 16 at Wed Apr  9 00:20:37 2025.
