 Gaussian 16, Revision C.01,

 ----------------------------------------------------------------------
 #t hf aug-cc-pvdz symm=none int=(grid=ultrafine) guess=(read,tcheck) s
 table=(opt,rrhf)
 ----------------------------------------------------------------------
 -----
 title
 -----
 Symbolic Z-matrix:
 Charge =  0 Multiplicity = 1

 SCF Done:  E(RHF) =  -408.165852642     A.U. after   13 cycles
 Normal termination of Gaussian 16 at Tue Apr  8 23:37:00 2025.
 Gaussian 16:  ES64L-G16RevC.01  3-Jul-2019

 ----------------------------------------------------------------------
 #t hf aug-cc-pvdz iop(5/13=1,5/36=2,99/5=2) pseudo=read geom=check gue
 ss=(read,tcheck) scf=(maxcycle=1)
 ----------------------------------------------------------------------
 -----
 title
 -----
 Structure from the checkpoint file:  "BDE49_nonexpt_149_mol1.chk"
 Charge =  0 Multiplicity = 1

                         Standard orientation:
 ---------------------------------------------------------------------
 Center     Atomic      Atomic             Coordinates (Angstroms)
 Number     Number       Type             X           Y           Z
 ---------------------------------------------------------------------
      1          5           0        0.705919   -1.281489   -0.386278
      2          5           0       -0.705932   -1.281483    0.386162
      3          5           0       -2.107505   -0.424520   -0.028690
      4          8           0       -2.445258    0.802834    0.451409
      5          6           0       -3.120287   -1.075338   -1.055468
      6          1           0       -3.276570   -2.144623   -0.879466
      7          1           0       -2.714222   -0.994290   -2.072279
      8          1           0       -4.091116   -0.571160   -1.041913
      9          6           0       -1.655211    1.522060    1.392592
     10          1           0       -2.133101    1.481190    2.374697
     11          1           0       -1.599526    2.564666    1.073181
     12          1           0       -0.640129    1.117774    1.470234
     13          5           0        2.107479   -0.424546    0.028710
     14          8           0        2.445261    0.802808   -0.451370
     15          6           0        3.120213   -1.075382    1.055523
     16          1           0        2.713651   -0.995491    2.072220
     17          1           0        4.090710   -0.570546    1.042774
     18          1           0        3.277310   -2.144417    0.878693
     19          6           0        1.655304    1.522075   -1.392590
     20          1           0        2.133953    1.482264   -2.374366
     21          1           0        1.598543    2.564420   -1.072506
     22          1           0        0.640604    1.117028   -1.471269
     23          1           0       -0.817363   -2.026157    1.326534
     24          1           0        0.817311   -2.026092   -1.326706
 ---------------------------------------------------------------------

 SCF Done:  E(RHF) =  -408.303926960     A.U. after    2 cycles

 The electronic state is 1-A.
 Alpha  occ. eigenvalues --  -20.57716 -20.57716 -11.29689 -11.29688 -11.19713
 Alpha  occ. eigenvalues --  -11.19712  -7.61180  -7.61180  -7.57414  -7.57306
 Alpha  occ. eigenvalues --   -1.32810  -1.32781  -0.95874  -0.95819  -0.92106
 Alpha  occ. eigenvalues --   -0.91945  -0.75354  -0.72379  -0.69891  -0.65322
 Alpha  occ. eigenvalues --   -0.64683  -0.64317  -0.64190  -0.60889  -0.55071
 Alpha  occ. eigenvalues --   -0.55016  -0.54427  -0.53633  -0.51841  -0.51779
 Alpha  occ. eigenvalues --   -0.50929  -0.50867  -0.48345  -0.48140  -0.44411
 Alpha  occ. eigenvalues --   -0.40055  -0.38143
 Alpha virt. eigenvalues --    0.02719   0.03969   0.04075   0.04235   0.05435
 Alpha virt. eigenvalues --    0.05477   0.05622   0.05860   0.06097   0.07421
 Alpha virt. eigenvalues --    0.07459   0.07551   0.07848   0.08071   0.08600

 Mulliken charges:
               1
     1  B   -0.191838
     2  B   -0.192483
     3  B    0.737560
     4  O   -0.733510
     5  C    0.489036
     6  H   -0.186700
     7  H   -0.128971
     8  H   -0.419074
     9  C    1.047748
    10  H   -0.126852
    11  H   -0.192644
    12  H   -0.359504
    13  B    0.737033
    14  O   -0.733428
    15  C    0.489048
    16  H   -0.128974
    17  H   -0.419150
    18  H   -0.186449
    19  C    1.047682
    20  H   -0.127037
    21  H   -0.192490
    22  H   -0.359407
    23  H    0.065284
    24  H    0.065120
 Sum of Mulliken charges =  -0.00000

 Dipole moment (field-independent basis, Debye):
    X=              0.0001    Y=              0.7394    Z=             -0.0001  Tot=              0.7394

 Test job not archived.
 1\1\GINC-SE453\SP\RHF\Aug-CC-pVDZ\C4H14B4O2\OHZDE\08-Apr-2025\0\\#t hf
  aug-cc-pvdz iop(5/13=1,5/36=2,99/5=2) pseudo=read geom=check guess=(r
 ead,tcheck) scf=(maxcycle=1)\\title\\0,1\B,0,0.705919,1.281489,0.38627
 8\B,0,-0.705932,1.281483,-0.386162\B,0,-2.107505,0.42452,0.02869\O,0,-
 2.445258,-0.802834,-0.451409\C,0,-3.120287,1.075338,1.055468\H,0,-3.27
 657,2.144623,0.879466\H,0,-2.714222,0.99429,2.072279\H,0,-4.091116,0.5
 7116,1.041913\C,0,-1.655211,-1.52206,-1.392592\H,0,-2.133101,-1.48119,
 -2.374697\H,0,-1.599526,-2.564666,-1.073181\H,0,-0.640129,-1.117774,-1

 Normal termination of Gaussian 16 at Tue Apr  8 23:37:14 2025.
