 Gaussian 16, Revision C.01,

 ----------------------------------------------------------------------
 #t hf aug-cc-pvdz symm=none int=(grid=ultrafine) guess=(read,tcheck) s
 table=(opt,rrhf)
 ----------------------------------------------------------------------
 -----
 title
 -----
 Symbolic Z-matrix:
 Charge =  0 Multiplicity = 1

 SCF Done:  E(RHF) =  -705.143019457     A.U. after   15 cycles
 Normal termination of Gaussian 16 at Tue Apr  8 23:37:09 2025.
 Gaussian 16:  ES64L-G16RevC.01  3-Jul-2019

 ----------------------------------------------------------------------
 #t hf aug-cc-pvdz iop(5/13=1,5/36=2,99/5=2) pseudo=read geom=check gue
 ss=(read,tcheck) scf=(maxcycle=1)
 ----------------------------------------------------------------------
 -----
 title
 -----
 Structure from the checkpoint file:  "BDE49_nonexpt_1526_mol1.chk"
 Charge =  0 Multiplicity = 1

                         Standard orientation:
 ---------------------------------------------------------------------
 Center     Atomic      Atomic             Coordinates (Angstroms)
 Number     Number       Type             X           Y           Z
 ---------------------------------------------------------------------
      1          7           0       -2.235428   -0.152461    0.134618
      2          6           0       -2.017778   -1.087432    1.231497
      3          6           0        0.555410   -0.024476   -0.504764
      4          6           0       -2.890617    1.086466    0.542982
      5          1           0       -3.060446    1.719364   -0.329543
      6          1           0       -3.862619    0.858402    0.994779
      7          1           0       -2.306241    1.661300    1.278710
      8          1           0       -1.694665   -2.054118    0.840422
      9          1           0       -2.956656   -1.238752    1.775356
     10          1           0       -1.259559   -0.739273    1.949105
     11          6           0        1.107214    1.225457   -0.186654
     12          6           0        1.340710   -1.167544   -0.302876
     13          6           0        2.634651   -1.066263    0.204759
     14          6           0        3.161157    0.181736    0.530952
     15          6           0        2.393518    1.328955    0.335998
     16          1           0        2.802145    2.303773    0.578890
     17          1           0        0.527017    2.126400   -0.361233
     18          1           0        3.229758   -1.961443    0.349579
     19          1           0        4.166680    0.260963    0.928894
     20          1           0        0.939406   -2.145559   -0.547533
     21         15           0       -1.162987   -0.074769   -1.201552
     22          1           0       -1.137606   -1.463701   -1.487840
 ---------------------------------------------------------------------

 SCF Done:  E(RHF) =  -705.279925625     A.U. after    2 cycles

 The electronic state is 1-A.
 Alpha  occ. eigenvalues --  -81.27134 -15.61510 -11.26032 -11.25951 -11.25076
 Alpha  occ. eigenvalues --  -11.25049 -11.24999 -11.24816 -11.24786 -11.24520
 Alpha  occ. eigenvalues --   -7.77083  -4.91249  -4.91097  -4.90836  -1.17235
 Alpha  occ. eigenvalues --   -1.14351  -1.01430  -1.01300  -0.95226  -0.87624
 Alpha  occ. eigenvalues --   -0.83062  -0.82533  -0.74558  -0.69531  -0.64103
 Alpha  occ. eigenvalues --   -0.63803  -0.62577  -0.61674  -0.60493  -0.59440
 Alpha  occ. eigenvalues --   -0.55315  -0.54647  -0.51800  -0.51317  -0.50092
 Alpha  occ. eigenvalues --   -0.49517  -0.47943  -0.37422  -0.34513  -0.34367
 Alpha  occ. eigenvalues --   -0.32411
 Alpha virt. eigenvalues --    0.03221   0.03960   0.03991   0.04992   0.05342
 Alpha virt. eigenvalues --    0.05689   0.06947   0.07026   0.07635   0.08039
 Alpha virt. eigenvalues --    0.08469   0.09229   0.09374   0.10353   0.11148

 Mulliken charges:
               1
     1  N   -0.722991
     2  C    0.754775
     3  C   -0.125598
     4  C    0.728783
     5  H   -0.231490
     6  H   -0.181830
     7  H   -0.054952
     8  H   -0.274084
     9  H   -0.185572
    10  H   -0.071869
    11  C    0.344262
    12  C    0.619475
    13  C    0.478507
    14  C    0.691936
    15  C    0.516358
    16  H   -0.456210
    17  H   -0.571768
    18  H   -0.448632
    19  H   -0.435931
    20  H   -0.635983
    21  P    0.180963
    22  H    0.081850
 Sum of Mulliken charges =   0.00000

 Dipole moment (field-independent basis, Debye):
    X=              0.5152    Y=             -0.2238    Z=              1.5937  Tot=              1.6898

 Test job not archived.
 1\1\GINC-SE424\SP\RHF\Aug-CC-pVDZ\C8H12N1P1\OHZDE\08-Apr-2025\0\\#t hf
  aug-cc-pvdz iop(5/13=1,5/36=2,99/5=2) pseudo=read geom=check guess=(r
 ead,tcheck) scf=(maxcycle=1)\\title\\0,1\N,0,-2.235428,-0.152461,0.134
 618\C,0,-2.017778,-1.087432,1.231497\C,0,0.55541,-0.024476,-0.504764\C
 ,0,-2.890617,1.086466,0.542982\H,0,-3.060446,1.719364,-0.329543\H,0,-3
 .862619,0.858402,0.994779\H,0,-2.306241,1.6613,1.27871\H,0,-1.694665,-
 2.054118,0.840422\H,0,-2.956656,-1.238752,1.775356\H,0,-1.259559,-0.73
 9273,1.949105\C,0,1.107214,1.225457,-0.186654\C,0,1.34071,-1.167544,-0

 Normal termination of Gaussian 16 at Tue Apr  8 23:37:24 2025.
