 Gaussian 16, Revision C.01,

 ----------------------------------------------------------------------
 #t hf aug-cc-pvdz symm=none int=(grid=ultrafine) guess=(read,tcheck) s
 table=(opt,rrhf)
 ----------------------------------------------------------------------
 -----
 title
 -----
 Symbolic Z-matrix:
 Charge =  0 Multiplicity = 1

 SCF Done:  E(RHF) =  -583.524837307     A.U. after   12 cycles
 Normal termination of Gaussian 16 at Wed Apr  9 00:43:30 2025.
 Gaussian 16:  ES64L-G16RevC.01  3-Jul-2019

 ----------------------------------------------------------------------
 #t hf aug-cc-pvdz iop(5/13=1,5/36=2,99/5=2) pseudo=read geom=check gue
 ss=(read,tcheck) scf=(maxcycle=1)
 ----------------------------------------------------------------------
 -----
 title
 -----
 Structure from the checkpoint file:  "BDE49_nonexpt_779_mol1.chk"
 Charge =  0 Multiplicity = 1

                         Standard orientation:
 ---------------------------------------------------------------------
 Center     Atomic      Atomic             Coordinates (Angstroms)
 Number     Number       Type             X           Y           Z
 ---------------------------------------------------------------------
      1         14           0        0.651366   -0.005857   -0.000019
      2          5           0       -1.390568    0.000481   -0.000082
      3          8           0       -2.034778   -1.202867    0.000062
      4          8           0       -2.177855    1.127407    0.000016
      5          6           0        1.291406   -0.895881   -1.539497
      6          1           0        0.975882   -0.388738   -2.456270
      7          1           0        0.908102   -1.919434   -1.580110
      8          6           0        1.291340   -0.895853    1.539506
      9          1           0        2.385062   -0.944743    1.544195
     10          1           0        0.908035   -1.919407    1.580120
     11          1           0        0.975771   -0.388693    2.456254
     12          6           0        1.303923    1.774560   -0.000024
     13          1           0        0.973288    2.327834   -0.885665
     14          1           0        2.398425    1.791533    0.000003
     15          1           0        0.973242    2.327853    0.885589
     16          1           0        2.385128   -0.944770   -1.544129
     17          1           0       -2.995742   -1.099108    0.000105
     18          1           0       -1.672427    1.943991    0.000042
 ---------------------------------------------------------------------

 SCF Done:  E(RHF) =  -583.650741086     A.U. after    2 cycles

 The electronic state is 1-A.
 Alpha  occ. eigenvalues --  -69.03490 -20.58517 -20.57680 -11.21238 -11.20593
 Alpha  occ. eigenvalues --  -11.20589  -7.64936  -6.78839  -3.89616  -3.89604
 Alpha  occ. eigenvalues --   -3.89566  -1.34319  -1.30426  -0.95611  -0.91791
 Alpha  occ. eigenvalues --   -0.91331  -0.78147  -0.74686  -0.64909  -0.59959
 Alpha  occ. eigenvalues --   -0.58792  -0.58055  -0.56731  -0.56343  -0.55827
 Alpha  occ. eigenvalues --   -0.54225  -0.53900  -0.52994  -0.51888  -0.42895
 Alpha  occ. eigenvalues --   -0.42643  -0.39203
 Alpha virt. eigenvalues --    0.02824   0.04158   0.04484   0.04545   0.06263
 Alpha virt. eigenvalues --    0.06507   0.06774   0.06813   0.07021   0.08687
 Alpha virt. eigenvalues --    0.09103   0.09191   0.09391   0.11060   0.11651

 Mulliken charges:
               1
     1  Si   0.950448
     2  B    0.958424
     3  O   -0.543958
     4  O   -0.531712
     5  C    0.501973
     6  H   -0.329425
     7  H   -0.283733
     8  C    0.501962
     9  H   -0.269600
    10  H   -0.283739
    11  H   -0.329426
    12  C    0.457677
    13  H   -0.305980
    14  H   -0.295788
    15  H   -0.305994
    16  H   -0.269594
    17  H    0.188132
    18  H    0.190329
 Sum of Mulliken charges =  -0.00000

 Dipole moment (field-independent basis, Debye):
    X=              0.3018    Y=              1.3391    Z=             -0.0001  Tot=              1.3727

 Test job not archived.
 1\1\GINC-SE459\SP\RHF\Aug-CC-pVDZ\C3H11B1O2Si1\OHZDE\09-Apr-2025\0\\#t
  hf aug-cc-pvdz iop(5/13=1,5/36=2,99/5=2) pseudo=read geom=check guess
 =(read,tcheck) scf=(maxcycle=1)\\title\\0,1\Si,0,0.651366,-0.005857,-0
 .000019\B,0,-1.390568,0.000481,-0.000082\O,0,-2.034778,-1.202867,0.000
 062\O,0,-2.177855,1.127407,0.000016\C,0,1.291406,-0.895881,-1.539497\H
 ,0,0.975882,-0.388738,-2.45627\H,0,0.908102,-1.919434,-1.58011\C,0,1.2
 9134,-0.895853,1.539506\H,0,2.385062,-0.944743,1.544195\H,0,0.908035,-
 1.919407,1.58012\H,0,0.975771,-0.388693,2.456254\C,0,1.303923,1.77456,

 Normal termination of Gaussian 16 at Wed Apr  9 00:43:37 2025.
