 Gaussian 16, Revision C.01,

 ----------------------------------------------------------------------
 #t hf aug-cc-pvdz symm=none int=(grid=ultrafine) guess=(read,tcheck) s
 table=(opt,rrhf)
 ----------------------------------------------------------------------
 -----
 title
 -----
 Symbolic Z-matrix:
 Charge =  0 Multiplicity = 1

 SCF Done:  E(RHF) =  -627.089722532     A.U. after   15 cycles
 Normal termination of Gaussian 16 at Tue Apr  8 23:27:41 2025.
 Gaussian 16:  ES64L-G16RevC.01  3-Jul-2019

 ----------------------------------------------------------------------
 #t hf aug-cc-pvdz iop(5/13=1,5/36=2,99/5=2) pseudo=read geom=check gue
 ss=(read,tcheck) scf=(maxcycle=1)
 ----------------------------------------------------------------------
 -----
 title
 -----
 Structure from the checkpoint file:  "BDE49_nonexpt_1343_mol1.chk"
 Charge =  0 Multiplicity = 1

                         Standard orientation:
 ---------------------------------------------------------------------
 Center     Atomic      Atomic             Coordinates (Angstroms)
 Number     Number       Type             X           Y           Z
 ---------------------------------------------------------------------
      1          6           0       -0.103603   -0.210674   -0.065829
      2         15           0       -1.895771   -0.588078   -0.275237
      3          7           0       -2.624207    0.838107    0.316793
      4          1           0       -2.559151    1.076850    1.297309
      5          1           0       -3.530864    1.050451   -0.070334
      6          6           0        0.380022    1.098566   -0.149518
      7          6           0        1.749490    1.351925   -0.084431
      8          6           0        2.653201    0.301743    0.055339
      9          6           0        2.179557   -1.007949    0.132380
     10          6           0        0.812895   -1.261545    0.071245
     11          1           0        0.457974   -2.285877    0.140303
     12          1           0       -0.323624    1.916123   -0.255007
     13          1           0        2.109560    2.373438   -0.143688
     14          1           0        3.717953    0.499927    0.105334
     15          1           0        2.875707   -1.831958    0.245120
     16          1           0       -1.970925   -1.476924    0.836842
 ---------------------------------------------------------------------

 SCF Done:  E(RHF) =  -627.201218382     A.U. after    2 cycles

 The electronic state is 1-A.
 Alpha  occ. eigenvalues --  -81.27778 -15.62075 -11.24778 -11.24656 -11.24556
 Alpha  occ. eigenvalues --  -11.24500 -11.24357 -11.24191  -7.77739  -4.91893
 Alpha  occ. eigenvalues --   -4.91735  -4.91393  -1.14321  -1.12168  -1.01129
 Alpha  occ. eigenvalues --   -1.00878  -0.83792  -0.82748  -0.76089  -0.69477
 Alpha  occ. eigenvalues --   -0.67181  -0.63514  -0.62980  -0.59206  -0.57097
 Alpha  occ. eigenvalues --   -0.55978  -0.51174  -0.49646  -0.47972  -0.40839
 Alpha  occ. eigenvalues --   -0.37869  -0.34035  -0.30799
 Alpha virt. eigenvalues --    0.03321   0.03835   0.04268   0.05379   0.05610
 Alpha virt. eigenvalues --    0.05899   0.07563   0.08110   0.09159   0.10034
 Alpha virt. eigenvalues --    0.10914   0.11280   0.12234   0.13013   0.13973

 Mulliken charges:
               1
     1  C    0.220983
     2  P    0.573403
     3  N   -0.424799
     4  H   -0.042422
     5  H   -0.001086
     6  C    0.148103
     7  C    0.591817
     8  C    0.459805
     9  C    0.615422
    10  C    0.235461
    11  H   -0.560777
    12  H   -0.565731
    13  H   -0.447800
    14  H   -0.429209
    15  H   -0.437862
    16  H    0.064690
 Sum of Mulliken charges =   0.00000

 Dipole moment (field-independent basis, Debye):
    X=             -0.4841    Y=              0.6020    Z=              1.3356  Tot=              1.5429

 Test job not archived.
 1\1\GINC-SE341\SP\RHF\Aug-CC-pVDZ\C6H8N1P1\OHZDE\08-Apr-2025\0\\#t hf
 aug-cc-pvdz iop(5/13=1,5/36=2,99/5=2) pseudo=read geom=check guess=(re
 ad,tcheck) scf=(maxcycle=1)\\title\\0,1\C,0,-0.103603,-0.210674,-0.065
 829\P,0,-1.895771,-0.588078,-0.275237\N,0,-2.624207,0.838106,0.316793\
 H,0,-2.559151,1.076849,1.297309\H,0,-3.530864,1.05045,-0.070334\C,0,0.
 380022,1.098566,-0.149518\C,0,1.74949,1.351925,-0.084431\C,0,2.653201,
 0.301743,0.055339\C,0,2.179557,-1.007949,0.13238\C,0,0.812895,-1.26154
 5,0.071245\H,0,0.457974,-2.285877,0.140303\H,0,-0.323625,1.916123,-0.2

 Normal termination of Gaussian 16 at Tue Apr  8 23:27:47 2025.
