 Gaussian 16, Revision C.01,

 ----------------------------------------------------------------------
 #t hf aug-cc-pvdz symm=none int=(grid=ultrafine) guess=(read,tcheck) s
 table=(opt,rrhf)
 ----------------------------------------------------------------------
 -----
 title
 -----
 Symbolic Z-matrix:
 Charge =  0 Multiplicity = 1

 SCF Done:  E(RHF) =  -1178.32633834     A.U. after   15 cycles
 Normal termination of Gaussian 16 at Wed Apr  9 00:18:46 2025.
 Gaussian 16:  ES64L-G16RevC.01  3-Jul-2019

 ----------------------------------------------------------------------
 #t hf aug-cc-pvdz iop(5/13=1,5/36=2,99/5=2) pseudo=read geom=check gue
 ss=(read,tcheck) scf=(maxcycle=1)
 ----------------------------------------------------------------------
 -----
 title
 -----
 Structure from the checkpoint file:  "BDE49_nonexpt_2595_mol1.chk"
 Charge =  0 Multiplicity = 1

                         Standard orientation:
 ---------------------------------------------------------------------
 Center     Atomic      Atomic             Coordinates (Angstroms)
 Number     Number       Type             X           Y           Z
 ---------------------------------------------------------------------
      1         17           0        2.618861   -0.113869    0.918356
      2         16           0        1.678089    0.248349   -0.900220
      3          8           0        0.132497    0.650671   -0.453541
      4          6           0       -0.801881   -0.405214   -0.250956
      5          8           0       -0.519117   -1.560565   -0.411211
      6          7           0       -1.992628    0.111068    0.130990
      7          6           0       -2.277822    1.531149    0.311017
      8          1           0       -1.370881    2.115319    0.202230
      9          1           0       -2.692563    1.696858    1.310209
     10          1           0       -3.012851    1.867658   -0.428293
     11          6           0       -3.103008   -0.808271    0.352971
     12          1           0       -3.473761   -0.709451    1.378074
     13          1           0       -2.759407   -1.826055    0.190162
     14          1           0       -3.922972   -0.586451   -0.338026
 ---------------------------------------------------------------------

 SCF Done:  E(RHF) =  -1178.47509515     A.U. after    2 cycles

 The electronic state is 1-A.
 Alpha  occ. eigenvalues -- -103.68284 -93.65492 -20.65673 -20.56070 -15.67478
 Alpha  occ. eigenvalues --  -11.43768 -11.28886 -11.28301 -10.71458  -8.94125
 Alpha  occ. eigenvalues --   -8.37185  -8.36847  -8.36802  -6.28252  -6.27942
 Alpha  occ. eigenvalues --   -6.27427  -1.43399  -1.34529  -1.23947  -1.16555
 Alpha  occ. eigenvalues --   -0.99394  -0.98053  -0.90663  -0.77582  -0.74200
 Alpha  occ. eigenvalues --   -0.70315  -0.69894  -0.64286  -0.63054  -0.61508
 Alpha  occ. eigenvalues --   -0.58244  -0.57608  -0.55718  -0.55191  -0.51714
 Alpha  occ. eigenvalues --   -0.49908  -0.49294  -0.47968  -0.39815  -0.37743
 Alpha virt. eigenvalues --    0.02879   0.04164   0.04349   0.04846   0.06103
 Alpha virt. eigenvalues --    0.07438   0.07686   0.07959   0.08920   0.10794
 Alpha virt. eigenvalues --    0.11753   0.12724   0.13124   0.13923   0.14068

 Mulliken charges:
               1
     1  Cl  -0.308660
     2  S    0.674911
     3  O   -0.756651
     4  C    0.368556
     5  O   -0.364884
     6  N   -0.400174
     7  C    0.833118
     8  H   -0.231421
     9  H   -0.106141
    10  H   -0.099227
    11  C    0.762388
    12  H   -0.084926
    13  H   -0.223843
    14  H   -0.063046
 Sum of Mulliken charges =  -0.00000

 Dipole moment (field-independent basis, Debye):
    X=             -3.4156    Y=              2.4389    Z=              0.1064  Tot=              4.1983

 Test job not archived.
 1\1\GINC-SE132\SP\RHF\Aug-CC-pVDZ\C3H6Cl1N1O2S1\OHZDE\09-Apr-2025\0\\#
 t hf aug-cc-pvdz iop(5/13=1,5/36=2,99/5=2) pseudo=read geom=check gues
 s=(read,tcheck) scf=(maxcycle=1)\\title\\0,1\Cl,0,2.618861,-0.113869,0
 .918356\S,0,1.678089,0.248349,-0.90022\O,0,0.132497,0.650671,-0.453541
 \C,0,-0.801881,-0.405214,-0.250956\O,0,-0.519117,-1.560565,-0.411211\N
 ,0,-1.992628,0.111068,0.13099\C,0,-2.277822,1.531149,0.311017\H,0,-1.3
 70881,2.115319,0.20223\H,0,-2.692563,1.696858,1.310209\H,0,-3.012851,1
 .867658,-0.428293\C,0,-3.103008,-0.808271,0.352971\H,0,-3.473761,-0.70

 Normal termination of Gaussian 16 at Wed Apr  9 00:18:52 2025.
