 Gaussian 16, Revision C.01,

 ----------------------------------------------------------------------
 #t hf aug-cc-pvdz symm=none int=(grid=ultrafine) guess=(read,tcheck) s
 table=(opt,rrhf)
 ----------------------------------------------------------------------
 -----
 title
 -----
 Symbolic Z-matrix:
 Charge =  0 Multiplicity = 1

 SCF Done:  E(RHF) =  -1216.92431810     A.U. after   15 cycles
 Normal termination of Gaussian 16 at Wed Apr  9 00:25:48 2025.
 Gaussian 16:  ES64L-G16RevC.01  3-Jul-2019

 ----------------------------------------------------------------------
 #t hf aug-cc-pvdz iop(5/13=1,5/36=2,99/5=2) pseudo=read geom=check gue
 ss=(read,tcheck) scf=(maxcycle=1)
 ----------------------------------------------------------------------
 -----
 title
 -----
 Structure from the checkpoint file:  "BDE49_nonexpt_2717_mol1.chk"
 Charge =  0 Multiplicity = 1

                         Standard orientation:
 ---------------------------------------------------------------------
 Center     Atomic      Atomic             Coordinates (Angstroms)
 Number     Number       Type             X           Y           Z
 ---------------------------------------------------------------------
      1          6           0       -1.897561    0.218472   -0.133468
      2          8           0       -1.255079    1.076375   -0.660843
      3         16           0       -1.310155   -1.520554    0.044525
      4         16           0        0.573080   -1.417042   -0.800174
      5          6           0        1.534712   -0.564916    0.511317
      6          8           0        1.050133   -0.176708    1.532990
      7          6           0       -3.259169    0.404891    0.512870
      8          6           0        2.993333   -0.398558    0.120049
      9          6           0        3.486130    1.040247    0.352374
     10          1           0        3.147785   -0.703960   -0.919562
     11          1           0        3.556155   -1.097443    0.749559
     12          6           0        2.847921    2.058422   -0.596898
     13          1           0        4.574380    1.051260    0.236778
     14          1           0        3.273278    1.309810    1.390176
     15          1           0        1.759670    2.075475   -0.494803
     16          1           0        3.080346    1.826383   -1.640842
     17          1           0        3.217817    3.065692   -0.390111
     18          6           0       -3.991944    1.645524    0.000973
     19          1           0       -3.072238    0.481392    1.590896
     20          1           0       -3.853584   -0.503252    0.372032
     21          1           0       -3.381795    2.538641    0.139887
     22          1           0       -4.932387    1.777973    0.539989
     23          1           0       -4.217187    1.557742   -1.064078
 ---------------------------------------------------------------------

 SCF Done:  E(RHF) =  -1217.09548848     A.U. after    2 cycles

 The electronic state is 1-A.
 Alpha  occ. eigenvalues --  -93.57679 -93.57544 -20.58680 -20.58430 -11.38543
 Alpha  occ. eigenvalues --  -11.38368 -11.26817 -11.26370 -11.24497 -11.24128
 Alpha  occ. eigenvalues --  -11.22581  -8.87333  -8.87209  -6.21496  -6.21331
 Alpha  occ. eigenvalues --   -6.21172  -6.21052  -6.20869  -6.20743  -1.38661
 Alpha  occ. eigenvalues --   -1.38309  -1.08459  -1.07307  -1.04691  -0.97710
 Alpha  occ. eigenvalues --   -0.93189  -0.87552  -0.82544  -0.75563  -0.73708
 Alpha  occ. eigenvalues --   -0.68102  -0.67244  -0.66325  -0.65066  -0.63717
 Alpha  occ. eigenvalues --   -0.61003  -0.60113  -0.57100  -0.56601  -0.55982
 Alpha  occ. eigenvalues --   -0.55178  -0.53087  -0.51179  -0.50709  -0.49303
 Alpha  occ. eigenvalues --   -0.49033  -0.46717  -0.43581  -0.43270  -0.38865
 Alpha  occ. eigenvalues --   -0.37023
 Alpha virt. eigenvalues --    0.03403   0.03600   0.04707   0.05004   0.05349
 Alpha virt. eigenvalues --    0.05574   0.05849   0.06989   0.07322   0.07538
 Alpha virt. eigenvalues --    0.08219   0.08927   0.09763   0.10317   0.11019

 Mulliken charges:
               1
     1  C   -0.115222
     2  O   -0.419788
     3  S    0.069068
     4  S    0.056333
     5  C    0.150225
     6  O   -0.504100
     7  C    0.029523
     8  C    0.174177
     9  C    0.313053
    10  H   -0.102194
    11  H    0.060874
    12  C    0.408187
    13  H   -0.086350
    14  H   -0.105300
    15  H   -0.171245
    16  H   -0.086751
    17  H   -0.078080
    18  C    0.513725
    19  H    0.080678
    20  H   -0.022139
    21  H   -0.060964
    22  H   -0.035951
    23  H   -0.067757
 Sum of Mulliken charges =  -0.00000

 Dipole moment (field-independent basis, Debye):
    X=             -0.1482    Y=             -0.5151    Z=             -0.2327  Tot=              0.5843

 Test job not archived.
 1\1\GINC-SE419\SP\RHF\Aug-CC-pVDZ\C7H12O2S2\OHZDE\09-Apr-2025\0\\#t hf
  aug-cc-pvdz iop(5/13=1,5/36=2,99/5=2) pseudo=read geom=check guess=(r
 ead,tcheck) scf=(maxcycle=1)\\title\\0,1\C,0,-1.897561,0.218472,-0.133
 468\O,0,-1.255079,1.076375,-0.660843\S,0,-1.310155,-1.520554,0.044525\
 S,0,0.57308,-1.417042,-0.800174\C,0,1.534712,-0.564916,0.511317\O,0,1.
 050133,-0.176708,1.53299\C,0,-3.259169,0.404891,0.51287\C,0,2.993333,-
 0.398558,0.120049\C,0,3.48613,1.040247,0.352374\H,0,3.147785,-0.70396,
 -0.919562\H,0,3.556155,-1.097443,0.749559\C,0,2.847921,2.058422,-0.596

 Normal termination of Gaussian 16 at Wed Apr  9 00:26:03 2025.
