 Gaussian 16, Revision C.01,

 ----------------------------------------------------------------------
 #t hf aug-cc-pvdz symm=none int=(grid=ultrafine) guess=(read,tcheck) s
 table=(opt,rrhf)
 ----------------------------------------------------------------------
 -----
 title
 -----
 Symbolic Z-matrix:
 Charge =  0 Multiplicity = 1

 SCF Done:  E(RHF) =  -1531.12962773     A.U. after   14 cycles
 Normal termination of Gaussian 16 at Wed Apr  9 00:24:20 2025.
 Gaussian 16:  ES64L-G16RevC.01  3-Jul-2019

 ----------------------------------------------------------------------
 #t hf aug-cc-pvdz iop(5/13=1,5/36=2,99/5=2) pseudo=read geom=check gue
 ss=(read,tcheck) scf=(maxcycle=1)
 ----------------------------------------------------------------------
 -----
 title
 -----
 Structure from the checkpoint file:  "BDE49_nonexpt_2746_mol1.chk"
 Charge =  0 Multiplicity = 1

                         Standard orientation:
 ---------------------------------------------------------------------
 Center     Atomic      Atomic             Coordinates (Angstroms)
 Number     Number       Type             X           Y           Z
 ---------------------------------------------------------------------
      1         16           0        0.697409   -1.287481   -0.588893
      2         16           0        2.379577   -0.859716    0.533611
      3          6           0        2.953482    0.639361   -0.268684
      4          6           0       -0.511547   -0.216819    0.224209
      5          8           0       -1.702730   -0.486726   -0.414820
      6          8           0       -0.338338    0.556653    1.102461
      7          8           0        2.482869    1.260076   -1.148849
      8          9           0        4.102638    0.977796    0.355295
      9          6           0       -2.847691    0.203949   -0.036083
     10          9           0       -3.158078   -0.028174    1.237231
     11          9           0       -3.825280   -0.246453   -0.811788
     12          9           0       -2.711685    1.514185   -0.218789
 ---------------------------------------------------------------------

 SCF Done:  E(RHF) =  -1531.42924817     A.U. after    2 cycles

 The electronic state is 1-A.
 Alpha  occ. eigenvalues --  -93.63540 -93.63423 -26.20280 -26.20104 -26.20073
 Alpha  occ. eigenvalues --  -26.19352 -20.70016 -20.63372 -20.63273 -11.62079
 Alpha  occ. eigenvalues --  -11.49404 -11.48541  -8.93128  -8.93002  -6.27246
 Alpha  occ. eigenvalues --   -6.27106  -6.26971  -6.26843  -6.26614  -6.26486
 Alpha  occ. eigenvalues --   -1.80856  -1.73727  -1.73321  -1.73122  -1.49961
 Alpha  occ. eigenvalues --   -1.44211  -1.41668  -1.12971  -1.08060  -1.01156
 Alpha  occ. eigenvalues --   -0.95723  -0.93152  -0.92941  -0.89824  -0.82637
 Alpha  occ. eigenvalues --   -0.81337  -0.81270  -0.80880  -0.79259  -0.76883
 Alpha  occ. eigenvalues --   -0.76613  -0.76062  -0.75289  -0.75159  -0.72208
 Alpha  occ. eigenvalues --   -0.70513  -0.66497  -0.64599  -0.61169  -0.58233
 Alpha  occ. eigenvalues --   -0.55958  -0.51964  -0.50617  -0.44702  -0.43257
 Alpha virt. eigenvalues --    0.04467   0.05275   0.07172   0.07559   0.08214
 Alpha virt. eigenvalues --    0.08667   0.09092   0.09346   0.09603   0.10431
 Alpha virt. eigenvalues --    0.11068   0.11960   0.12307   0.13289   0.13576

 Mulliken charges:
               1
     1  S    0.205327
     2  S    0.251242
     3  C    0.342381
     4  C    0.142836
     5  O   -0.489065
     6  O   -0.278821
     7  O   -0.283470
     8  F   -0.293711
     9  C    1.175432
    10  F   -0.272793
    11  F   -0.229916
    12  F   -0.269443
 Sum of Mulliken charges =  -0.00000

 Dipole moment (field-independent basis, Debye):
    X=              0.3279    Y=             -3.0614    Z=             -0.1481  Tot=              3.0825

 Test job not archived.
 1\1\GINC-SE329\SP\RHF\Aug-CC-pVDZ\C3F4O3S2\OHZDE\09-Apr-2025\0\\#t hf
 aug-cc-pvdz iop(5/13=1,5/36=2,99/5=2) pseudo=read geom=check guess=(re
 ad,tcheck) scf=(maxcycle=1)\\title\\0,1\S,0,0.697409,-1.287481,-0.5888
 93\S,0,2.379577,-0.859716,0.533611\C,0,2.953482,0.639361,-0.268684\C,0
 ,-0.511547,-0.216819,0.224209\O,0,-1.70273,-0.486726,-0.41482\O,0,-0.3
 38338,0.556653,1.102461\O,0,2.482869,1.260076,-1.148849\F,0,4.102638,0
 .977796,0.355295\C,0,-2.847691,0.203949,-0.036083\F,0,-3.158078,-0.028
 174,1.237231\F,0,-3.82528,-0.246453,-0.811788\F,0,-2.711685,1.514185,-

 Normal termination of Gaussian 16 at Wed Apr  9 00:24:29 2025.
