 Gaussian 16, Revision C.01,

 ----------------------------------------------------------------------
 #t hf aug-cc-pvdz symm=none int=(grid=ultrafine) guess=(read,tcheck) s
 table=opt
 ----------------------------------------------------------------------
 -----
 title
 -----
 Symbolic Z-matrix:
 Charge =  0 Multiplicity = 2

 SCF Done:  E(UHF) =  -214.723118242     A.U. after   14 cycles
 Normal termination of Gaussian 16 at Tue Apr  8 23:53:20 2025.
 Gaussian 16:  ES64L-G16RevC.01  3-Jul-2019

 ----------------------------------------------------------------------
 #t hf aug-cc-pvdz iop(5/13=1,5/36=2,99/5=2) pseudo=read geom=check gue
 ss=(read,tcheck) scf=(maxcycle=1)
 ----------------------------------------------------------------------
 -----
 title
 -----
 Structure from the checkpoint file:  "BDE49_nonexpt_1958_mol3.chk"
 Charge =  0 Multiplicity = 2

                         Standard orientation:
 ---------------------------------------------------------------------
 Center     Atomic      Atomic             Coordinates (Angstroms)
 Number     Number       Type             X           Y           Z
 ---------------------------------------------------------------------
      1          6           0       -1.524858   -0.165911   -0.000001
      2          5           0        0.008933   -0.013110   -0.000014
      3          8           0        0.657071    1.202386    0.000010
      4          1           0        0.061132    1.954770    0.000022
      5          8           0        0.784560   -1.140045   -0.000006
      6          1           0        1.723045   -0.923816    0.000000
      7          1           0       -1.997776   -1.142306    0.000001
      8          1           0       -2.214968    0.673646    0.000017
 ---------------------------------------------------------------------

 SCF Done:  E(UHF) =  -214.797269810     A.U. after    2 cycles

 The electronic state is 2-A.
 Alpha  occ. eigenvalues --  -20.58303 -20.57386 -11.24166  -7.65661  -1.34253
 Alpha  occ. eigenvalues --   -1.30449  -0.95378  -0.77681  -0.74189  -0.64288
 Alpha  occ. eigenvalues --   -0.59554  -0.58126  -0.57135  -0.52619  -0.52512
 Alpha  occ. eigenvalues --   -0.39675
 Alpha virt. eigenvalues --    0.03187   0.04991   0.05307   0.05959   0.07029
 Alpha virt. eigenvalues --    0.07909   0.09206   0.10602   0.13332   0.16369
 Alpha virt. eigenvalues --    0.16642   0.19392   0.20922   0.21075   0.22200

  Beta  occ. eigenvalues --  -20.58189 -20.57255 -11.22078  -7.65784  -1.33950
  Beta  occ. eigenvalues --   -1.30118  -0.87152  -0.77430  -0.73810  -0.63677
  Beta  occ. eigenvalues --   -0.58069  -0.57843  -0.55980  -0.51274  -0.50965
  Beta virt. eigenvalues --    0.03279   0.04443   0.05006   0.05361   0.07040
  Beta virt. eigenvalues --    0.07400   0.07917   0.09339   0.10612   0.15984
  Beta virt. eigenvalues --    0.16536   0.16739   0.19802   0.21049   0.21189

 Mulliken charges and spin densities:
               1          2
     1  C    0.360308   1.199533
     2  B    0.886981  -0.094528
     3  O   -0.464972   0.022938
     4  H    0.181104  -0.004747
     5  O   -0.514646   0.035082
     6  H    0.199767   0.000342
     7  H   -0.310935  -0.078434
     8  H   -0.337607  -0.080186
 Sum of Mulliken charges =  -0.00000   1.00000

 Dipole moment (field-independent basis, Debye):
    X=             -0.8179    Y=              1.5264    Z=             -0.0000  Tot=              1.7317
                          Isotropic Fermi Contact Couplings
        Atom                 a.u.       MegaHertz       Gauss      10(-4) cm-1
     1  C(13)              0.16191     182.02284      64.95028      60.71629
     2  B(11)             -0.02583     -37.05336     -13.22156     -12.35967
     3  O(17)              0.01147      -6.95474      -2.48163      -2.31985
     4  H(1)              -0.00071      -3.16035      -1.12769      -1.05418
     5  O(17)              0.00864      -5.23947      -1.86957      -1.74770
     6  H(1)              -0.00129      -5.75548      -2.05370      -1.91982
     7  H(1)              -0.02186     -97.71769     -34.86810     -32.59511
     8  H(1)              -0.02183     -97.57997     -34.81896     -32.54917

 Normal termination of Gaussian 16 at Tue Apr  8 23:53:23 2025.
