 Gaussian 16, Revision C.01,

 ----------------------------------------------------------------------
 #t hf aug-cc-pvdz symm=none int=(grid=ultrafine) guess=(read,tcheck) s
 table=(opt,rrhf)
 ----------------------------------------------------------------------
 -----
 title
 -----
 Symbolic Z-matrix:
 Charge =  0 Multiplicity = 1

 SCF Done:  E(RHF) =  -498.735128978     A.U. after   15 cycles
 Normal termination of Gaussian 16 at Wed Apr  9 00:39:28 2025.
 Gaussian 16:  ES64L-G16RevC.01  3-Jul-2019

 ----------------------------------------------------------------------
 #t hf aug-cc-pvdz iop(5/13=1,5/36=2,99/5=2) pseudo=read geom=check gue
 ss=(read,tcheck) scf=(maxcycle=1)
 ----------------------------------------------------------------------
 -----
 title
 -----
 Structure from the checkpoint file:  "BDE49_nonexpt_619_mol1.chk"
 Charge =  0 Multiplicity = 1

                         Standard orientation:
 ---------------------------------------------------------------------
 Center     Atomic      Atomic             Coordinates (Angstroms)
 Number     Number       Type             X           Y           Z
 ---------------------------------------------------------------------
      1          6           0       -3.012297   -0.069186   -0.020960
      2          7           0       -1.639956    0.241032   -0.003647
      3          8           0       -3.465593   -1.167226   -0.137035
      4          8           0       -3.829461    1.014935    0.098083
      5          5           0       -0.585144   -0.714737    0.029362
      6          6           0        0.908138   -0.282725    0.012468
      7          1           0       -3.340123    1.807755    0.342782
      8          6           0        1.896332   -1.283324    0.058419
      9          6           0        1.347098    1.053556   -0.046822
     10          6           0        2.698564    1.376859   -0.059785
     11          6           0        3.655320    0.361943   -0.013212
     12          6           0        3.252708   -0.970126    0.045917
     13          1           0        3.994036   -1.760517    0.081857
     14          1           0        1.587951   -2.322326    0.104051
     15          1           0        0.627015    1.866976   -0.084366
     16          1           0        3.010544    2.414287   -0.106327
     17          1           0        4.710601    0.611573   -0.023382
     18          1           0       -0.888277   -1.859567    0.079816
     19          1           0       -1.411082    1.224614   -0.060246
 ---------------------------------------------------------------------

 SCF Done:  E(RHF) =  -498.887574534     A.U. after    2 cycles

 The electronic state is 1-A.
 Alpha  occ. eigenvalues --  -20.63589 -20.55636 -15.66445 -11.43585 -11.26700
 Alpha  occ. eigenvalues --  -11.26506 -11.26123 -11.25828 -11.25568 -11.23801
 Alpha  occ. eigenvalues --   -7.62769  -1.43421  -1.34028  -1.18980  -1.15293
 Alpha  occ. eigenvalues --   -1.02419  -1.02202  -0.87206  -0.84318  -0.83920
 Alpha  occ. eigenvalues --   -0.79203  -0.75451  -0.72102  -0.66980  -0.66564
 Alpha  occ. eigenvalues --   -0.65105  -0.64242  -0.62327  -0.60491  -0.58543
 Alpha  occ. eigenvalues --   -0.53083  -0.52962  -0.51779  -0.50567  -0.48812
 Alpha  occ. eigenvalues --   -0.48050  -0.45945  -0.35440  -0.35345
 Alpha virt. eigenvalues --    0.01805   0.03066   0.03913   0.04828   0.05006
 Alpha virt. eigenvalues --    0.05845   0.06093   0.06845   0.07513   0.07802
 Alpha virt. eigenvalues --    0.09165   0.09465   0.09717   0.11228   0.12448

 Mulliken charges:
               1
     1  C    0.793535
     2  N   -0.330878
     3  O   -0.350959
     4  O   -0.428221
     5  B   -0.345182
     6  C   -0.164241
     7  H    0.145822
     8  C    0.265154
     9  C    0.941184
    10  C    0.481805
    11  C    0.777066
    12  C    0.459166
    13  H   -0.443957
    14  H   -0.628375
    15  H   -0.654401
    16  H   -0.482728
    17  H   -0.437703
    18  H    0.420596
    19  H   -0.017681
 Sum of Mulliken charges =   0.00000

 Dipole moment (field-independent basis, Debye):
    X=              4.3323    Y=              4.1908    Z=              0.5438  Tot=              6.0520

 Test job not archived.
 1\1\GINC-SE229\SP\RHF\Aug-CC-pVDZ\C7H8B1N1O2\OHZDE\09-Apr-2025\0\\#t h
 f aug-cc-pvdz iop(5/13=1,5/36=2,99/5=2) pseudo=read geom=check guess=(
 read,tcheck) scf=(maxcycle=1)\\title\\0,1\C,0,-3.012297,-0.069186,-0.0
 2096\N,0,-1.639956,0.241032,-0.003647\O,0,-3.465593,-1.167226,-0.13703
 5\O,0,-3.829461,1.014935,0.098083\B,0,-0.585144,-0.714737,0.029362\C,0
 ,0.908138,-0.282725,0.012468\H,0,-3.340123,1.807755,0.342782\C,0,1.896
 332,-1.283324,0.058419\C,0,1.347098,1.053556,-0.046822\C,0,2.698564,1.
 376859,-0.059785\C,0,3.65532,0.361943,-0.013212\C,0,3.252708,-0.970126

 Normal termination of Gaussian 16 at Wed Apr  9 00:39:40 2025.
