 Gaussian 16, Revision C.01,

 ----------------------------------------------------------------------
 #t hf aug-cc-pvdz symm=none int=(grid=ultrafine) guess=(read,tcheck) s
 table=(opt,rrhf)
 ----------------------------------------------------------------------
 -----
 title
 -----
 Symbolic Z-matrix:
 Charge =  0 Multiplicity = 1

 SCF Done:  E(RHF) =  -683.106609616     A.U. after   13 cycles
 Normal termination of Gaussian 16 at Tue Apr  8 23:27:26 2025.
 Gaussian 16:  ES64L-G16RevC.01  3-Jul-2019

 ----------------------------------------------------------------------
 #t hf aug-cc-pvdz iop(5/13=1,5/36=2,99/5=2) pseudo=read geom=check gue
 ss=(read,tcheck) scf=(maxcycle=1)
 ----------------------------------------------------------------------
 -----
 title
 -----
 Structure from the checkpoint file:  "BDE49_nonexpt_1334_mol1.chk"
 Charge =  0 Multiplicity = 1

                         Standard orientation:
 ---------------------------------------------------------------------
 Center     Atomic      Atomic             Coordinates (Angstroms)
 Number     Number       Type             X           Y           Z
 ---------------------------------------------------------------------
      1         15           0        0.642820   -0.001600    0.103116
      2          8           0        0.650860   -0.284824    1.546818
      3          8           0        1.311648    1.371501   -0.384965
      4          6           0       -0.962348    0.107715   -0.651959
      5          6           0       -2.095051    0.714855    0.153744
      6          6           0       -2.072536   -0.762398   -0.090234
      7          1           0       -2.807204    1.324097   -0.388716
      8          1           0       -1.863206    1.056857    1.154369
      9          1           0       -0.952523    0.284068   -1.721447
     10          1           0       -1.829179   -1.399145    0.751145
     11          1           0       -2.769032   -1.185618   -0.803356
     12          1           0        2.200212    1.500294   -0.030753
     13          8           0        1.482256   -1.088880   -0.753380
     14          1           0        1.600117   -1.899968   -0.245078
 ---------------------------------------------------------------------

 SCF Done:  E(RHF) =  -683.280658230     A.U. after    2 cycles

 The electronic state is 1-A.
 Alpha  occ. eigenvalues --  -81.41020 -20.61212 -20.60929 -20.52060 -11.25908
 Alpha  occ. eigenvalues --  -11.25736 -11.25645  -7.89421  -5.04083  -5.03966
 Alpha  occ. eigenvalues --   -5.03708  -1.37471  -1.34091  -1.25455  -1.14892
 Alpha  occ. eigenvalues --   -0.89185  -0.83845  -0.79961  -0.75603  -0.70699
 Alpha  occ. eigenvalues --   -0.67516  -0.66166  -0.63458  -0.60561  -0.57423
 Alpha  occ. eigenvalues --   -0.56845  -0.53512  -0.52567  -0.48396  -0.47360
 Alpha  occ. eigenvalues --   -0.44688  -0.44412
 Alpha virt. eigenvalues --    0.03166   0.04205   0.04493   0.05292   0.05978
 Alpha virt. eigenvalues --    0.07040   0.07848   0.09768   0.10355   0.12406
 Alpha virt. eigenvalues --    0.12642   0.13870   0.14437   0.14735   0.15298

 Mulliken charges:
               1
     1  P    2.247656
     2  O   -0.937094
     3  O   -0.724836
     4  C    0.184045
     5  C    0.692665
     6  C    0.723501
     7  H   -0.318784
     8  H   -0.342547
     9  H   -0.448205
    10  H   -0.341803
    11  H   -0.315072
    12  H    0.155670
    13  O   -0.735455
    14  H    0.160260
 Sum of Mulliken charges =  -0.00000

 Dipole moment (field-independent basis, Debye):
    X=             -0.5072    Y=             -0.3873    Z=             -1.9929  Tot=              2.0925

 Test job not archived.
 1\1\GINC-SE162\SP\RHF\Aug-CC-pVDZ\C3H7O3P1\OHZDE\08-Apr-2025\0\\#t hf
 aug-cc-pvdz iop(5/13=1,5/36=2,99/5=2) pseudo=read geom=check guess=(re
 ad,tcheck) scf=(maxcycle=1)\\title\\0,1\P,0,0.64282,-0.0016,0.103116\O
 ,0,0.65086,-0.284824,1.546818\O,0,1.311648,1.371501,-0.384965\C,0,-0.9
 62348,0.107715,-0.651959\C,0,-2.095051,0.714855,0.153744\C,0,-2.072536
 ,-0.762398,-0.090234\H,0,-2.807204,1.324097,-0.388716\H,0,-1.863206,1.
 056857,1.154369\H,0,-0.952523,0.284068,-1.721447\H,0,-1.829179,-1.3991
 45,0.751145\H,0,-2.769032,-1.185618,-0.803356\H,0,2.200212,1.500294,-0

 Normal termination of Gaussian 16 at Tue Apr  8 23:27:31 2025.
