 Gaussian 16, Revision C.01,

 ----------------------------------------------------------------------
 #t hf aug-cc-pvdz symm=none int=(grid=ultrafine) guess=(read,tcheck) s
 table=(opt,rrhf)
 ----------------------------------------------------------------------
 -----
 title
 -----
 Symbolic Z-matrix:
 Charge =  0 Multiplicity = 1

 SCF Done:  E(RHF) =  -876.880069739     A.U. after   16 cycles
 Normal termination of Gaussian 16 at Tue Apr  8 23:31:04 2025.
 Gaussian 16:  ES64L-G16RevC.01  3-Jul-2019

 ----------------------------------------------------------------------
 #t hf aug-cc-pvdz iop(5/13=1,5/36=2,99/5=2) pseudo=read geom=check gue
 ss=(read,tcheck) scf=(maxcycle=1)
 ----------------------------------------------------------------------
 -----
 title
 -----
 Structure from the checkpoint file:  "BDE49_nonexpt_1378_mol1.chk"
 Charge =  0 Multiplicity = 1

                         Standard orientation:
 ---------------------------------------------------------------------
 Center     Atomic      Atomic             Coordinates (Angstroms)
 Number     Number       Type             X           Y           Z
 ---------------------------------------------------------------------
      1          9           0       -2.709768   -0.367797   -0.532913
      2          8           0       -0.318960   -2.367537   -0.502622
      3          8           0       -1.042980    2.376796   -0.204749
      4         15           0       -1.595240   -0.192974    0.632692
      5          7           0        0.741300    0.934570    0.003010
      6          6           0       -0.589937    1.274277    0.016300
      7          6           0       -0.209924   -1.260325   -0.050995
      8          6           0        1.133384   -0.493137    0.055710
      9          6           0        1.741143    1.978680   -0.199197
     10          1           0        2.131009    1.968811   -1.221013
     11          1           0        1.258962    2.938478   -0.024190
     12          6           0        2.041769   -0.881474   -1.116317
     13          1           0        3.033308   -0.435902   -1.011537
     14          1           0        2.149944   -1.966069   -1.141149
     15          1           0        1.609517   -0.562029   -2.066901
     16          1           0        2.570983    1.853381    0.499815
     17          6           0        1.785454   -0.849289    1.407882
     18          1           0        2.719572   -0.297871    1.540126
     19          1           0        2.013337   -1.916678    1.444616
     20          1           0        1.124970   -0.605794    2.243668
 ---------------------------------------------------------------------

 SCF Done:  E(RHF) =  -877.076063407     A.U. after    2 cycles

 The electronic state is 1-A.
 Alpha  occ. eigenvalues --  -81.35662 -26.14083 -20.60958 -20.56415 -15.68201
 Alpha  occ. eigenvalues --  -11.38742 -11.37590 -11.33175 -11.28964 -11.26584
 Alpha  occ. eigenvalues --  -11.25602  -7.85291  -4.99421  -4.99078  -4.98854
 Alpha  occ. eigenvalues --   -1.66171  -1.39822  -1.37241  -1.25259  -1.08709
 Alpha  occ. eigenvalues --   -1.00617  -0.97039  -0.90838  -0.87947  -0.81420
 Alpha  occ. eigenvalues --   -0.76850  -0.76009  -0.73558  -0.72645  -0.69547
 Alpha  occ. eigenvalues --   -0.67374  -0.65446  -0.64884  -0.63124  -0.61256
 Alpha  occ. eigenvalues --   -0.59026  -0.57989  -0.57212  -0.56141  -0.55906
 Alpha  occ. eigenvalues --   -0.54815  -0.52923  -0.50498  -0.41265  -0.40106
 Alpha  occ. eigenvalues --   -0.39010
 Alpha virt. eigenvalues --    0.02513   0.03653   0.04054   0.04317   0.05485
 Alpha virt. eigenvalues --    0.06399   0.06423   0.06777   0.07500   0.08091
 Alpha virt. eigenvalues --    0.08873   0.09159   0.10253   0.10799   0.11795

 Mulliken charges:
               1
     1  F   -0.648719
     2  O   -0.478174
     3  O   -0.516601
     4  P    1.005153
     5  N   -0.142321
     6  C    0.029578
     7  C    0.343610
     8  C   -2.321712
     9  C    0.844113
    10  H   -0.051668
    11  H   -0.234262
    12  C    1.182419
    13  H    0.056989
    14  H   -0.021099
    15  H    0.036533
    16  H   -0.132983
    17  C    1.110885
    18  H   -0.068266
    19  H    0.047282
    20  H   -0.040757
 Sum of Mulliken charges =  -0.00000

 Dipole moment (field-independent basis, Debye):
    X=              5.3570    Y=             -0.3273    Z=              2.0481  Tot=              5.7445

 Test job not archived.
 1\1\GINC-SE331\SP\RHF\Aug-CC-pVDZ\C6H9F1N1O2P1\OHZDE\08-Apr-2025\0\\#t
  hf aug-cc-pvdz iop(5/13=1,5/36=2,99/5=2) pseudo=read geom=check guess
 =(read,tcheck) scf=(maxcycle=1)\\title\\0,1\F,0,-2.709768,-0.367797,-0
 .532913\O,0,-0.31896,-2.367537,-0.502622\O,0,-1.04298,2.376796,-0.2047
 49\P,0,-1.59524,-0.192974,0.632692\N,0,0.7413,0.93457,0.00301\C,0,-0.5
 89937,1.274277,0.0163\C,0,-0.209924,-1.260325,-0.050995\C,0,1.133384,-
 0.493137,0.05571\C,0,1.741143,1.97868,-0.199197\H,0,2.131009,1.968811,
 -1.221013\H,0,1.258962,2.938478,-0.02419\C,0,2.041769,-0.881474,-1.116

 Normal termination of Gaussian 16 at Tue Apr  8 23:31:16 2025.
