 Gaussian 16, Revision C.01,

 ----------------------------------------------------------------------
 #t hf aug-cc-pvdz symm=none int=(grid=ultrafine) guess=(read,tcheck) s
 table=opt
 ----------------------------------------------------------------------
 -----
 title
 -----
 Symbolic Z-matrix:
 Charge =  0 Multiplicity = 2

 SCF Done:  E(UHF) =  -643.954518876     A.U. after   19 cycles
 Normal termination of Gaussian 16 at Wed Apr  9 00:16:57 2025.
 Gaussian 16:  ES64L-G16RevC.01  3-Jul-2019

 ----------------------------------------------------------------------
 #t hf aug-cc-pvdz iop(5/13=1,5/36=2,99/5=2) pseudo=read geom=check gue
 ss=(read,tcheck) scf=(maxcycle=1)
 ----------------------------------------------------------------------
 -----
 title
 -----
 Structure from the checkpoint file:  "BDE49_nonexpt_2566_mol2.chk"
 Charge =  0 Multiplicity = 2

                         Standard orientation:
 ---------------------------------------------------------------------
 Center     Atomic      Atomic             Coordinates (Angstroms)
 Number     Number       Type             X           Y           Z
 ---------------------------------------------------------------------
      1         16           0       -1.855093    0.363311   -0.000037
      2          6           0       -0.308720   -0.476816    0.000048
      3          8           0       -0.456879   -1.697974   -0.000031
      4          7           0        0.879470    0.164353    0.000026
      5          6           0        1.000977    1.610268    0.000022
      6          1           0        0.010271    2.065461   -0.000001
      7          1           0        1.538956    1.950597   -0.890676
      8          1           0        1.538918    1.950605    0.890740
      9          6           0        2.111760   -0.616252    0.000019
     10          1           0        1.855484   -1.673518    0.000019
     11          1           0        2.706256   -0.388007    0.890244
     12          1           0        2.706249   -0.388004   -0.890211
 ---------------------------------------------------------------------

 SCF Done:  E(UHF) =  -644.051367712     A.U. after    2 cycles

 The electronic state is 2-A.
 Alpha  occ. eigenvalues --  -93.57674 -20.54898 -15.67448 -11.39997 -11.29764
 Alpha  occ. eigenvalues --  -11.28204  -8.87502  -6.22894  -6.21185  -6.20686
 Alpha  occ. eigenvalues --   -1.36470  -1.23708  -1.02981  -0.98650  -0.93552
 Alpha  occ. eigenvalues --   -0.75164  -0.69246  -0.67573  -0.67120  -0.58962
 Alpha  occ. eigenvalues --   -0.58162  -0.57415  -0.57062  -0.55555  -0.47827
 Alpha  occ. eigenvalues --   -0.43124  -0.40584  -0.39081
 Alpha virt. eigenvalues --    0.02804   0.04152   0.04653   0.05797   0.07427
 Alpha virt. eigenvalues --    0.07923   0.08420   0.09974   0.12052   0.12641
 Alpha virt. eigenvalues --    0.13357   0.13540   0.13891   0.15295   0.16112

  Beta  occ. eigenvalues --  -93.56749 -20.54498 -15.67486 -11.40114 -11.29693
  Beta  occ. eigenvalues --  -11.28204  -8.86470  -6.20680  -6.20103  -6.18835
  Beta  occ. eigenvalues --   -1.35656  -1.23511  -1.00017  -0.97461  -0.90046
  Beta  occ. eigenvalues --   -0.74520  -0.67664  -0.67587  -0.65640  -0.58390
  Beta  occ. eigenvalues --   -0.58089  -0.56799  -0.56005  -0.55272  -0.43021
  Beta  occ. eigenvalues --   -0.39776  -0.37505
  Beta virt. eigenvalues --    0.00480   0.02912   0.04337   0.04660   0.05877
  Beta virt. eigenvalues --    0.07430   0.07989   0.08611   0.10078   0.12097
  Beta virt. eigenvalues --    0.12809   0.13499   0.13563   0.14392   0.15368

 Mulliken charges and spin densities:
               1          2
     1  S    0.201636   1.059098
     2  C    0.011015  -0.082335
     3  O   -0.519769   0.048392
     4  N   -0.309134  -0.022430
     5  C    0.707206   0.016715
     6  H   -0.232570  -0.009702
     7  H   -0.087029  -0.000044
     8  H   -0.087026  -0.000044
     9  C    0.707592  -0.007936
    10  H   -0.219560  -0.001261
    11  H   -0.086171  -0.000226
    12  H   -0.086191  -0.000226
 Sum of Mulliken charges =  -0.00000   1.00000

 Dipole moment (field-independent basis, Debye):
    X=              2.8254    Y=              3.7604    Z=              0.0001  Tot=              4.7036
                          Isotropic Fermi Contact Couplings
        Atom                 a.u.       MegaHertz       Gauss      10(-4) cm-1
     1  S(33)              0.22364      76.81419      27.40921      25.62246
     2  C(13)             -0.02305     -25.91055      -9.24553      -8.64283
     3  O(17)              0.05126     -31.07063     -11.08677     -10.36405
     4  N(14)             -0.00845      -2.72996      -0.97412      -0.91062
     5  C(13)              0.01224      13.75516       4.90818       4.58823
     6  H(1)              -0.00032      -1.45066      -0.51763      -0.48389
     7  H(1)              -0.00006      -0.24898      -0.08884      -0.08305
     8  H(1)              -0.00006      -0.24900      -0.08885      -0.08306

 Normal termination of Gaussian 16 at Wed Apr  9 00:17:03 2025.
