 Gaussian 16, Revision C.01,

 ----------------------------------------------------------------------
 #t hf aug-cc-pvdz symm=none int=(grid=ultrafine) guess=(read,tcheck) s
 table=opt
 ----------------------------------------------------------------------
 -----
 title
 -----
 Symbolic Z-matrix:
 Charge =  0 Multiplicity = 2

 SCF Done:  E(UHF) =  -55.5747590373     A.U. after   12 cycles
 Normal termination of Gaussian 16 at Tue Apr  8 22:38:21 2025.
 Gaussian 16:  ES64L-G16RevC.01  3-Jul-2019

 ----------------------------------------------------------------------
 #t hf aug-cc-pvdz iop(5/13=1,5/36=2,99/5=2) pseudo=read geom=check gue
 ss=(read,tcheck) scf=(maxcycle=1)
 ----------------------------------------------------------------------
 -----
 title
 -----
 Structure from the checkpoint file:  "BDE49_expt_1293_mol3.chk"
 Charge =  0 Multiplicity = 2

                         Standard orientation:
 ---------------------------------------------------------------------
 Center     Atomic      Atomic             Coordinates (Angstroms)
 Number     Number       Type             X           Y           Z
 ---------------------------------------------------------------------
      1          7           0        0.000000   -0.000000    0.143949
      2          1           0        0.000000    0.802054   -0.503821
      3          1           0       -0.000000   -0.802054   -0.503821
 ---------------------------------------------------------------------

 SCF Done:  E(UHF) =  -55.5921160052     A.U. after    2 cycles

 The electronic state is 2-B1.
 Alpha  occ. eigenvalues --  -15.66477  -1.13080  -0.63967  -0.50864  -0.50205
 Alpha virt. eigenvalues --    0.03664   0.05472   0.14824   0.14957   0.20068
 Alpha virt. eigenvalues --    0.20242   0.28487   0.31118   0.36815   0.37101
 Alpha virt. eigenvalues --    0.40069   0.52820   0.59434   0.61354   0.69687

  Beta  occ. eigenvalues --  -15.63284  -1.01081  -0.61515  -0.45610
  Beta virt. eigenvalues --    0.03829   0.05528   0.06945   0.15258   0.20307
  Beta virt. eigenvalues --    0.20896   0.22661   0.28961   0.31577   0.37633
  Beta virt. eigenvalues --    0.37759   0.43970   0.52811   0.61034   0.61912

 Mulliken charges and spin densities:
               1          2
     1  N   -0.133516   1.161440
     2  H    0.066758  -0.080720
     3  H    0.066758  -0.080720
 Sum of Mulliken charges =  -0.00000   1.00000

 Dipole moment (field-independent basis, Debye):
    X=             -0.0000    Y=              0.0000    Z=             -1.9057  Tot=              1.9057
                          Isotropic Fermi Contact Couplings
        Atom                 a.u.       MegaHertz       Gauss      10(-4) cm-1
     1  N(14)              0.24088      77.83103      27.77205      25.96164
     2  H(1)              -0.02331    -104.19937     -37.18092     -34.75717
     3  H(1)              -0.02331    -104.19937     -37.18092     -34.75717
 --------------------------------------------------------
       Center         ----  Spin Dipole Couplings  ----
                      3XX-RR        3YY-RR        3ZZ-RR
 --------------------------------------------------------
     1   Atom        2.032720     -0.997240     -1.035480

 Normal termination of Gaussian 16 at Tue Apr  8 22:38:22 2025.
