 Gaussian 16, Revision C.01,

 ----------------------------------------------------------------------
 #t hf aug-cc-pvdz symm=none int=(grid=ultrafine) guess=(read,tcheck) s
 table=(opt,rrhf)
 ----------------------------------------------------------------------
 -----
 title
 -----
 Symbolic Z-matrix:
 Charge =  0 Multiplicity = 1

 SCF Done:  E(RHF) =  -671.613814630     A.U. after   12 cycles
 Normal termination of Gaussian 16 at Tue Apr  8 23:40:09 2025.
 Gaussian 16:  ES64L-G16RevC.01  3-Jul-2019

 ----------------------------------------------------------------------
 #t hf aug-cc-pvdz iop(5/13=1,5/36=2,99/5=2) pseudo=read geom=check gue
 ss=(read,tcheck) scf=(maxcycle=1)
 ----------------------------------------------------------------------
 -----
 title
 -----
 Structure from the checkpoint file:  "BDE49_nonexpt_1660_mol1.chk"
 Charge =  0 Multiplicity = 1

                         Standard orientation:
 ---------------------------------------------------------------------
 Center     Atomic      Atomic             Coordinates (Angstroms)
 Number     Number       Type             X           Y           Z
 ---------------------------------------------------------------------
      1         15           0       -0.615019   -0.745330   -0.107410
      2         14           0        1.440311    0.222470    0.006632
      3          6           0       -1.702826    0.777498    0.023695
      4          1           0       -0.623836   -1.113348    1.264494
      5          1           0       -1.669060    1.313770   -0.927059
      6          1           0       -1.415108    1.459286    0.824878
      7          1           0       -2.733308    0.454737    0.185864
      8          1           0        1.712645    0.900415   -1.283378
      9          1           0        2.451909   -0.839698    0.215806
     10          1           0        1.554639    1.225226    1.095527
 ---------------------------------------------------------------------

 SCF Done:  E(RHF) =  -671.669623622     A.U. after    2 cycles

 The electronic state is 1-A.
 Alpha  occ. eigenvalues --  -81.24742 -69.07055 -11.24644  -7.75205  -6.82338
 Alpha  occ. eigenvalues --   -4.89136  -4.89064  -4.88823  -3.93087  -3.93082
 Alpha  occ. eigenvalues --   -3.93067  -0.96499  -0.76803  -0.67467  -0.58411
 Alpha  occ. eigenvalues --   -0.57799  -0.50122  -0.48949  -0.47018  -0.42125
 Alpha  occ. eigenvalues --   -0.33726
 Alpha virt. eigenvalues --    0.03455   0.04615   0.05145   0.05951   0.06472
 Alpha virt. eigenvalues --    0.07329   0.07957   0.09090   0.09552   0.09962
 Alpha virt. eigenvalues --    0.10973   0.11935   0.13651   0.15000   0.16179

 Mulliken charges:
               1
     1  P   -0.083143
     2  Si   0.229512
     3  C    0.213496
     4  H    0.183298
     5  H   -0.141118
     6  H   -0.161438
     7  H   -0.184799
     8  H   -0.034204
     9  H   -0.018985
    10  H   -0.002620
 Sum of Mulliken charges =  -0.00000

 Dipole moment (field-independent basis, Debye):
    X=             -0.4880    Y=              0.9054    Z=              0.5257  Tot=              1.1551

 Test job not archived.
 1\1\GINC-SE435\SP\RHF\Aug-CC-pVDZ\C1H7P1Si1\OHZDE\08-Apr-2025\0\\#t hf
  aug-cc-pvdz iop(5/13=1,5/36=2,99/5=2) pseudo=read geom=check guess=(r
 ead,tcheck) scf=(maxcycle=1)\\title\\0,1\P,0,-0.615019,-0.74533,-0.107
 41\Si,0,1.440311,0.22247,0.006632\C,0,-1.702826,0.777498,0.023695\H,0,
 -0.623836,-1.113348,1.264494\H,0,-1.66906,1.31377,-0.927059\H,0,-1.415
 108,1.459286,0.824878\H,0,-2.733308,0.454737,0.185864\H,0,1.712645,0.9
 00415,-1.283378\H,0,2.451909,-0.839698,0.215806\H,0,1.554639,1.225226,
 1.095527\\Version=ES64L-G16RevC.01\State=1-A\HF=-671.6696236\RMSD=8.34

 Normal termination of Gaussian 16 at Tue Apr  8 23:40:12 2025.
