 Gaussian 16, Revision C.01,

 ----------------------------------------------------------------------
 #t hf aug-cc-pvdz symm=none int=(grid=ultrafine) guess=(read,tcheck) s
 table=opt
 ----------------------------------------------------------------------
 -----
 title
 -----
 Symbolic Z-matrix:
 Charge =  0 Multiplicity = 2

 SCF Done:  E(UHF) =  -2624.37790126     A.U. after   17 cycles
 Normal termination of Gaussian 16 at Tue Apr  8 23:47:35 2025.
 Gaussian 16:  ES64L-G16RevC.01  3-Jul-2019

 ----------------------------------------------------------------------
 #t hf aug-cc-pvdz iop(5/13=1,5/36=2,99/5=2) pseudo=read geom=check gue
 ss=(read,tcheck) scf=(maxcycle=1)
 ----------------------------------------------------------------------
 -----
 title
 -----
 Structure from the checkpoint file:  "BDE49_nonexpt_1815_mol2.chk"
 Charge =  0 Multiplicity = 2

                         Standard orientation:
 ---------------------------------------------------------------------
 Center     Atomic      Atomic             Coordinates (Angstroms)
 Number     Number       Type             X           Y           Z
 ---------------------------------------------------------------------
      1          6           0        0.870182    0.000000    0.003893
      2         14           0       -0.948387   -0.000000   -0.678556
      3         17           0        0.920594   -0.000003    1.795735
      4         17           0        1.690206    1.467899   -0.631818
      5         17           0        1.690208   -1.467896   -0.631823
      6         17           0       -1.913553    1.689628    0.012671
      7         17           0       -1.913553   -1.689628    0.012671
 ---------------------------------------------------------------------

 SCF Done:  E(UHF) =  -2624.50263772     A.U. after    2 cycles

 The electronic state is 2-A.
 Alpha  occ. eigenvalues -- -103.70299-103.70298-103.70140-103.68640-103.68639
 Alpha  occ. eigenvalues --  -69.20562 -11.45226 -10.73581 -10.73568 -10.73409
 Alpha  occ. eigenvalues --  -10.72060 -10.72050  -8.39280  -8.39275  -8.39171
 Alpha  occ. eigenvalues --   -8.38955  -8.38954  -8.38953  -8.38951  -8.38792
 Alpha  occ. eigenvalues --   -8.38776  -8.37869  -8.37863  -8.37515  -8.37513
 Alpha  occ. eigenvalues --   -8.37469  -8.37465  -6.94872  -4.05900  -4.05282
 Alpha  occ. eigenvalues --   -4.05169  -1.26900  -1.18268  -1.16984  -1.16917
 Alpha  occ. eigenvalues --   -1.16114  -0.89029  -0.73054  -0.64956  -0.64953
 Alpha  occ. eigenvalues --   -0.63505  -0.58730  -0.55421  -0.52767  -0.52422
 Alpha  occ. eigenvalues --   -0.52039  -0.51311  -0.49732  -0.48844  -0.48175
 Alpha  occ. eigenvalues --   -0.47508  -0.46381  -0.38529
 Alpha virt. eigenvalues --    0.04588   0.05597   0.05613   0.05930   0.07959
 Alpha virt. eigenvalues --    0.08550   0.08914   0.10728   0.11533   0.11912
 Alpha virt. eigenvalues --    0.12760   0.13193   0.13974   0.14291   0.16021

  Beta  occ. eigenvalues -- -103.70308-103.70307-103.70103-103.68524-103.68523
  Beta  occ. eigenvalues --  -69.19941 -11.44928 -10.73590 -10.73577 -10.73370
  Beta  occ. eigenvalues --  -10.71934 -10.71924  -8.39312  -8.39306  -8.39054
  Beta  occ. eigenvalues --   -8.38966  -8.38965  -8.38955  -8.38952  -8.38754
  Beta  occ. eigenvalues --   -8.38735  -8.37575  -8.37570  -8.37407  -8.37404
  Beta  occ. eigenvalues --   -8.37283  -8.37280  -6.93828  -4.04875  -4.04782
  Beta  occ. eigenvalues --   -4.03919  -1.26655  -1.17288  -1.16980  -1.16706
  Beta  occ. eigenvalues --   -1.15218  -0.87874  -0.70601  -0.64784  -0.64545
  Beta  occ. eigenvalues --   -0.62050  -0.57350  -0.53751  -0.52737  -0.51958
  Beta  occ. eigenvalues --   -0.51548  -0.50510  -0.49432  -0.48720  -0.48113
  Beta  occ. eigenvalues --   -0.47459  -0.45202
  Beta virt. eigenvalues --   -0.00482   0.05262   0.05788   0.05845   0.06093
  Beta virt. eigenvalues --    0.08451   0.09004   0.09273   0.11118   0.12256
  Beta virt. eigenvalues --    0.12851   0.12943   0.13494   0.15303   0.16295

 Mulliken charges and spin densities:
               1          2
     1  C   -0.366762  -0.006420
     2  Si   1.299890   0.891509
     3  Cl  -0.013269   0.020206
     4  Cl   0.005203  -0.000006
     5  Cl   0.005203  -0.000006
     6  Cl  -0.465133   0.047358
     7  Cl  -0.465133   0.047358
 Sum of Mulliken charges =  -0.00000   1.00000

 Dipole moment (field-independent basis, Debye):
    X=             -0.1227    Y=              0.0000    Z=             -1.0178  Tot=              1.0252
                          Isotropic Fermi Contact Couplings
        Atom                 a.u.       MegaHertz       Gauss      10(-4) cm-1
     1  C(13)              0.07871      88.48538      31.57378      29.51554
     2  Si(29)             0.97836    -869.49262    -310.25659    -290.03152
     3  Cl(35)             0.01014       4.44690       1.58676       1.48332
     4  Cl(35)            -0.00291      -1.27733      -0.45578      -0.42607
     5  Cl(35)            -0.00291      -1.27732      -0.45578      -0.42607
     6  Cl(35)             0.06514      28.56110      10.19131       9.52696
     7  Cl(35)             0.06514      28.56109      10.19131       9.52695
 --------------------------------------------------------

 Normal termination of Gaussian 16 at Tue Apr  8 23:47:39 2025.
