 Gaussian 16, Revision C.01,

 ----------------------------------------------------------------------
 #t hf aug-cc-pvdz symm=none int=(grid=ultrafine) guess=(read,tcheck) s
 table=(opt,rrhf)
 ----------------------------------------------------------------------
 -----
 title
 -----
 Symbolic Z-matrix:
 Charge =  0 Multiplicity = 1

 SCF Done:  E(RHF) =  -638.304483969     A.U. after   16 cycles
 Normal termination of Gaussian 16 at Wed Apr  9 00:36:50 2025.
 Gaussian 16:  ES64L-G16RevC.01  3-Jul-2019

 ----------------------------------------------------------------------
 #t hf aug-cc-pvdz iop(5/13=1,5/36=2,99/5=2) pseudo=read geom=check gue
 ss=(read,tcheck) scf=(maxcycle=1)
 ----------------------------------------------------------------------
 -----
 title
 -----
 Structure from the checkpoint file:  "BDE49_nonexpt_568_mol1.chk"
 Charge =  0 Multiplicity = 1

                         Standard orientation:
 ---------------------------------------------------------------------
 Center     Atomic      Atomic             Coordinates (Angstroms)
 Number     Number       Type             X           Y           Z
 ---------------------------------------------------------------------
      1          7           0        0.026918    0.057584    0.000047
      2          7           0       -0.205354    1.427400    0.000024
      3          5           0        1.339120   -0.636269    0.000021
      4          7           0       -1.241778   -0.747180    0.000012
      5          8           0       -1.660074   -1.023925   -1.088997
      6          8           0        1.221543   -1.982984    0.000012
      7          8           0        0.797446    2.135313   -0.000044
      8          8           0        2.506521    0.028707    0.000014
      9          8           0       -1.356066    1.799657   -0.000074
     10          8           0       -1.660117   -1.023946    1.089000
     11          1           0        2.070736   -2.435299   -0.000002
     12          1           0        2.381130    0.989435    0.000029
 ---------------------------------------------------------------------

 SCF Done:  E(RHF) =  -638.509456882     A.U. after    2 cycles

 The electronic state is 1-A.
 Alpha  occ. eigenvalues --  -20.67509 -20.67501 -20.67500 -20.66616 -20.62897
 Alpha  occ. eigenvalues --  -20.62378 -16.01402 -16.00393 -15.78419  -7.74891
 Alpha  occ. eigenvalues --   -1.63761  -1.61314  -1.44308  -1.43352  -1.39567
 Alpha  occ. eigenvalues --   -1.36141  -1.28934  -1.02413  -0.92280  -0.87219
 Alpha  occ. eigenvalues --   -0.84871  -0.81414  -0.81279  -0.79552  -0.78857
 Alpha  occ. eigenvalues --   -0.77455  -0.75540  -0.66104  -0.64952  -0.63825
 Alpha  occ. eigenvalues --   -0.58959  -0.58253  -0.57475  -0.57031  -0.55107
 Alpha  occ. eigenvalues --   -0.53544  -0.51879  -0.50876
 Alpha virt. eigenvalues --    0.02688   0.03786   0.04055   0.04837   0.05417
 Alpha virt. eigenvalues --    0.06395   0.08018   0.08650   0.11735   0.13690
 Alpha virt. eigenvalues --    0.14705   0.15839   0.16211   0.17391   0.18323

 Mulliken charges:
               1
     1  N    0.041337
     2  N    0.736600
     3  B    0.704372
     4  N    1.038512
     5  O   -0.557390
     6  O   -0.459355
     7  O   -0.542985
     8  O   -0.358786
     9  O   -0.496569
    10  O   -0.557396
    11  H    0.169743
    12  H    0.281917
 Sum of Mulliken charges =  -0.00000

 Dipole moment (field-independent basis, Debye):
    X=              3.4260    Y=             -1.0976    Z=              0.0002  Tot=              3.5975

 Test job not archived.
 1\1\GINC-SE125\SP\RHF\Aug-CC-pVDZ\B1H2N3O6\OHZDE\09-Apr-2025\0\\#t hf
 aug-cc-pvdz iop(5/13=1,5/36=2,99/5=2) pseudo=read geom=check guess=(re
 ad,tcheck) scf=(maxcycle=1)\\title\\0,1\N,0,-0.026918,0.057584,-0.0000
 47\N,0,0.205354,1.4274,-0.000024\B,0,-1.33912,-0.636269,-0.000021\N,0,
 1.241778,-0.74718,-0.000012\O,0,1.660074,-1.023925,1.088997\O,0,-1.221
 543,-1.982984,-0.000012\O,0,-0.797446,2.135313,0.000044\O,0,-2.506521,
 0.028707,-0.000014\O,0,1.356066,1.799657,0.000074\O,0,1.660117,-1.0239
 46,-1.089\H,0,-2.070736,-2.435299,0.000002\H,0,-2.38113,0.989435,-0.00

 Normal termination of Gaussian 16 at Wed Apr  9 00:36:58 2025.
