 Gaussian 16, Revision C.01,

 ----------------------------------------------------------------------
 #t hf aug-cc-pvdz symm=none int=(grid=ultrafine) guess=(read,tcheck) s
 table=(opt,rrhf)
 ----------------------------------------------------------------------
 -----
 title
 -----
 Symbolic Z-matrix:
 Charge =  0 Multiplicity = 1

 SCF Done:  E(RHF) =  -2201.95076760     A.U. after   14 cycles
 Normal termination of Gaussian 16 at Tue Apr  8 23:14:53 2025.
 Gaussian 16:  ES64L-G16RevC.01  3-Jul-2019

 ----------------------------------------------------------------------
 #t hf aug-cc-pvdz iop(5/13=1,5/36=2,99/5=2) pseudo=read geom=check gue
 ss=(read,tcheck) scf=(maxcycle=1)
 ----------------------------------------------------------------------
 -----
 title
 -----
 Structure from the checkpoint file:  "BDE49_nonexpt_1025_mol1.chk"
 Charge =  0 Multiplicity = 1

                         Standard orientation:
 ---------------------------------------------------------------------
 Center     Atomic      Atomic             Coordinates (Angstroms)
 Number     Number       Type             X           Y           Z
 ---------------------------------------------------------------------
      1         17           0       -2.490601    0.000000   -0.517899
      2          8           0       -0.879234    0.000000   -1.135320
      3         14           0        0.355585    0.000000   -0.031843
      4         17           0        2.006711    0.000000   -1.218334
      5         17           0        0.302406    1.662203    1.148362
      6         17           0        0.302406   -1.662203    1.148363
 ---------------------------------------------------------------------

 SCF Done:  E(RHF) =  -2202.08679322     A.U. after    2 cycles

 The electronic state is 1-A.
 Alpha  occ. eigenvalues -- -103.74928-103.68982-103.68982-103.68949 -69.25021
 Alpha  occ. eigenvalues --  -20.67107 -10.77533 -10.72474 -10.72461 -10.72435
 Alpha  occ. eigenvalues --   -8.43303  -8.42855  -8.42831  -8.38167  -8.38161
 Alpha  occ. eigenvalues --   -8.38135  -8.37914  -8.37914  -8.37913  -8.37908
 Alpha  occ. eigenvalues --   -8.37881  -8.37880  -6.98514  -4.09440  -4.09415
 Alpha  occ. eigenvalues --   -4.09380  -1.38946  -1.19877  -1.16734  -1.16609
 Alpha  occ. eigenvalues --   -1.12628  -0.76269  -0.67191  -0.66916  -0.66353
 Alpha  occ. eigenvalues --   -0.58961  -0.58956  -0.53286  -0.52822  -0.52651
 Alpha  occ. eigenvalues --   -0.50342  -0.50191  -0.49804  -0.49032  -0.48740
 Alpha virt. eigenvalues --    0.02501   0.05022   0.06146   0.06204   0.06595
 Alpha virt. eigenvalues --    0.10964   0.11652   0.12238   0.13386   0.13657
 Alpha virt. eigenvalues --    0.13977   0.15503   0.16467   0.16997   0.17362

 Mulliken charges:
               1
     1  Cl   0.331252
     2  O   -0.916585
     3  Si   1.824943
     4  Cl  -0.402682
     5  Cl  -0.418464
     6  Cl  -0.418464
 Sum of Mulliken charges =  -0.00000

 Dipole moment (field-independent basis, Debye):
    X=             -0.5660    Y=              0.0000    Z=              0.5320  Tot=              0.7767

 Test job not archived.
 1\1\GINC-SE253\SP\RHF\Aug-CC-pVDZ\Cl4O1Si1\OHZDE\08-Apr-2025\0\\#t hf
 aug-cc-pvdz iop(5/13=1,5/36=2,99/5=2) pseudo=read geom=check guess=(re
 ad,tcheck) scf=(maxcycle=1)\\title\\0,1\Cl,0,-2.490601,0.,-0.517899\O,
 0,-0.879234,0.,-1.13532\Si,0,0.355585,0.,-0.031843\Cl,0,2.006711,0.,-1
 .218334\Cl,0,0.302406,1.662203,1.148362\Cl,0,0.302406,-1.662203,1.1483
 63\\Version=ES64L-G16RevC.01\State=1-A\HF=-2202.0867932\RMSD=3.279e-03
 \Dipole=-0.2226835,0.0000006,0.2092873\Quadrupole=2.210458,-0.6510426,
 -1.5594155,0.0000005,-0.6906,0.0000018\PG=C01 [X(Cl4O1Si1)]\\@

 Normal termination of Gaussian 16 at Tue Apr  8 23:14:56 2025.
