 Gaussian 16, Revision C.01,

 ----------------------------------------------------------------------
 #t hf aug-cc-pvdz symm=none int=(grid=ultrafine) guess=(read,tcheck) s
 table=(opt,rrhf)
 ----------------------------------------------------------------------
 -----
 title
 -----
 Symbolic Z-matrix:
 Charge =  0 Multiplicity = 1

 SCF Done:  E(RHF) =  -498.010336985     A.U. after   16 cycles
 Normal termination of Gaussian 16 at Tue Apr  8 23:58:28 2025.
 Gaussian 16:  ES64L-G16RevC.01  3-Jul-2019

 ----------------------------------------------------------------------
 #t hf aug-cc-pvdz iop(5/13=1,5/36=2,99/5=2) pseudo=read geom=check gue
 ss=(read,tcheck) scf=(maxcycle=1)
 ----------------------------------------------------------------------
 -----
 title
 -----
 Structure from the checkpoint file:  "BDE49_nonexpt_2107_mol1.chk"
 Charge =  0 Multiplicity = 1

                         Standard orientation:
 ---------------------------------------------------------------------
 Center     Atomic      Atomic             Coordinates (Angstroms)
 Number     Number       Type             X           Y           Z
 ---------------------------------------------------------------------
      1         14           0       -0.404995    0.047699    0.429049
      2          7           0        1.183842   -0.898177    0.174507
      3          8           0        2.087207   -0.264894   -0.340223
      4          6           0       -1.724651   -0.988143   -0.402160
      5          1           0       -1.671655   -2.024959   -0.060748
      6          1           0       -1.608939   -0.979992   -1.489416
      7          6           0       -0.276029    1.797920   -0.209863
      8          1           0       -0.163092    1.813711   -1.296959
      9          1           0        0.590100    2.303619    0.223757
     10          1           0       -1.172515    2.368401    0.050086
     11          1           0       -2.720815   -0.603611   -0.164924
     12          1           0       -0.563626    0.002768    1.903904
 ---------------------------------------------------------------------

 SCF Done:  E(RHF) =  -498.102545584     A.U. after    2 cycles

 The electronic state is 1-A.
 Alpha  occ. eigenvalues --  -69.08825 -20.64190 -15.72955 -11.23337 -11.23037
 Alpha  occ. eigenvalues --   -6.83977  -3.94810  -3.94713  -3.94700  -1.44053
 Alpha  occ. eigenvalues --   -0.97624  -0.94140  -0.91493  -0.72138  -0.65461
 Alpha  occ. eigenvalues --   -0.61443  -0.59225  -0.57612  -0.56661  -0.56454
 Alpha  occ. eigenvalues --   -0.56112  -0.47271  -0.46169  -0.36618
 Alpha virt. eigenvalues --    0.02798   0.04419   0.04756   0.05317   0.06822
 Alpha virt. eigenvalues --    0.07098   0.07337   0.07755   0.08710   0.09602
 Alpha virt. eigenvalues --    0.09794   0.13187   0.14840   0.15124   0.15719

 Mulliken charges:
               1
     1  Si   1.593109
     2  N   -0.342283
     3  O   -0.381565
     4  C    0.297523
     5  H   -0.270784
     6  H   -0.184680
     7  C    0.226844
     8  H   -0.141984
     9  H   -0.238724
    10  H   -0.215955
    11  H   -0.217402
    12  H   -0.124100
 Sum of Mulliken charges =  -0.00000

 Dipole moment (field-independent basis, Debye):
    X=             -3.2275    Y=              1.0537    Z=              0.0857  Tot=              3.3963

 Test job not archived.
 1\1\GINC-SE457\SP\RHF\Aug-CC-pVDZ\C2H7N1O1Si1\OHZDE\08-Apr-2025\0\\#t
 hf aug-cc-pvdz iop(5/13=1,5/36=2,99/5=2) pseudo=read geom=check guess=
 (read,tcheck) scf=(maxcycle=1)\\title\\0,1\Si,0,-0.404995,0.047699,0.4
 29049\N,0,1.183842,-0.898177,0.174507\O,0,2.087207,-0.264894,-0.340223
 \C,0,-1.724651,-0.988143,-0.40216\H,0,-1.671655,-2.024959,-0.060748\H,
 0,-1.608939,-0.979992,-1.489416\C,0,-0.276029,1.79792,-0.209863\H,0,-0
 .163092,1.813711,-1.296959\H,0,0.5901,2.303619,0.223757\H,0,-1.172515,
 2.368401,0.050086\H,0,-2.720815,-0.603611,-0.164924\H,0,-0.563626,0.00

 Normal termination of Gaussian 16 at Tue Apr  8 23:58:32 2025.
