 Gaussian 16, Revision C.01,

 ----------------------------------------------------------------------
 #t hf aug-cc-pvdz symm=none int=(grid=ultrafine) guess=(read,tcheck) s
 table=opt
 ----------------------------------------------------------------------
 -----
 title
 -----
 Symbolic Z-matrix:
 Charge =  0 Multiplicity = 2

 SCF Done:  E(UHF) =  -227.186365755     A.U. after   18 cycles
 Normal termination of Gaussian 16 at Tue Apr  8 22:33:39 2025.
 Gaussian 16:  ES64L-G16RevC.01  3-Jul-2019

 ----------------------------------------------------------------------
 #t hf aug-cc-pvdz iop(5/13=1,5/36=2,99/5=2) pseudo=read geom=check gue
 ss=(read,tcheck) scf=(maxcycle=1)
 ----------------------------------------------------------------------
 -----
 title
 -----
 Structure from the checkpoint file:  "BDE49_expt_1127_mol2.chk"
 Charge =  0 Multiplicity = 2

                         Standard orientation:
 ---------------------------------------------------------------------
 Center     Atomic      Atomic             Coordinates (Angstroms)
 Number     Number       Type             X           Y           Z
 ---------------------------------------------------------------------
      1          6           0       -0.694383   -0.325033    0.000002
      2          8           0       -1.831999   -0.004981    0.000002
      3          8           0        0.366424    0.484898   -0.000002
      4          6           0        1.658402   -0.163636   -0.000001
      5          1           0        2.385930    0.644373   -0.000016
      6          1           0        1.777271   -0.775861   -0.894670
      7          1           0        1.777281   -0.775836    0.894684
 ---------------------------------------------------------------------

 SCF Done:  E(UHF) =  -227.262926352     A.U. after    2 cycles

 The electronic state is 2-A.
 Alpha  occ. eigenvalues --  -20.65400 -20.60829 -11.41079 -11.32662  -1.45427
 Alpha  occ. eigenvalues --   -1.38020  -1.00108  -0.83686  -0.73185  -0.72425
 Alpha  occ. eigenvalues --   -0.70732  -0.60827  -0.59655  -0.57879  -0.50565
 Alpha  occ. eigenvalues --   -0.42367
 Alpha virt. eigenvalues --    0.02904   0.05020   0.05119   0.07837   0.10470
 Alpha virt. eigenvalues --    0.10768   0.11463   0.13673   0.15100   0.15710
 Alpha virt. eigenvalues --    0.16014   0.18886   0.21922   0.25504   0.26460

  Beta  occ. eigenvalues --  -20.64552 -20.59820 -11.38951 -11.32679  -1.42388
  Beta  occ. eigenvalues --   -1.35215  -0.99291  -0.79293  -0.70071  -0.70010
  Beta  occ. eigenvalues --   -0.67124  -0.59529  -0.56933  -0.52219  -0.50721
  Beta virt. eigenvalues --    0.02397   0.04824   0.05080   0.05769   0.09908
  Beta virt. eigenvalues --    0.10734   0.11266   0.11639   0.13690   0.15162
  Beta virt. eigenvalues --    0.17260   0.18978   0.21012   0.22302   0.26142

 Mulliken charges and spin densities:
               1          2
     1  C    0.368743   0.710803
     2  O   -0.317496   0.156751
     3  O   -0.539551   0.148447
     4  C    0.788442  -0.006857
     5  H   -0.188129   0.003106
     6  H   -0.056005  -0.006125
     7  H   -0.056004  -0.006125
 Sum of Mulliken charges =  -0.00000   1.00000

 Dipole moment (field-independent basis, Debye):
    X=              4.1746    Y=             -1.2054    Z=             -0.0000  Tot=              4.3452
                          Isotropic Fermi Contact Couplings
        Atom                 a.u.       MegaHertz       Gauss      10(-4) cm-1
     1  C(13)              0.49624     557.87094     199.06223     186.08572
     2  O(17)              0.11676     -70.77777     -25.25527     -23.60892
     3  O(17)              0.09807     -59.45237     -21.21408     -19.83117
     4  C(13)              0.00360       4.05100       1.44550       1.35127
     5  H(1)              -0.00058      -2.57135      -0.91752      -0.85771
     6  H(1)              -0.00028      -1.26831      -0.45257      -0.42306
     7  H(1)              -0.00028      -1.26826      -0.45255      -0.42305
 --------------------------------------------------------

 Normal termination of Gaussian 16 at Tue Apr  8 22:33:42 2025.
