 Gaussian 16, Revision C.01,

 ----------------------------------------------------------------------
 #t hf aug-cc-pvdz symm=none int=(grid=ultrafine) guess=(read,tcheck) s
 table=(opt,rrhf)
 ----------------------------------------------------------------------
 -----
 title
 -----
 Symbolic Z-matrix:
 Charge =  0 Multiplicity = 1

 SCF Done:  E(RHF) =  -341.648911091     A.U. after   14 cycles
 Normal termination of Gaussian 16 at Tue Apr  8 22:53:43 2025.
 Gaussian 16:  ES64L-G16RevC.01  3-Jul-2019

 ----------------------------------------------------------------------
 #t hf aug-cc-pvdz iop(5/13=1,5/36=2,99/5=2) pseudo=read geom=check gue
 ss=(read,tcheck) scf=(maxcycle=1)
 ----------------------------------------------------------------------
 -----
 title
 -----
 Structure from the checkpoint file:  "BDE49_expt_1850_mol1.chk"
 Charge =  0 Multiplicity = 1

                         Standard orientation:
 ---------------------------------------------------------------------
 Center     Atomic      Atomic             Coordinates (Angstroms)
 Number     Number       Type             X           Y           Z
 ---------------------------------------------------------------------
      1          8           0        2.365017   -0.087468    0.171894
      2          8           0        1.103702   -0.776232    0.070695
      3          1           0        2.064547    0.844397    0.086401
      4          6           0        0.081208    0.087060   -0.128709
      5          8           0        0.254938    1.282291   -0.174904
      6          6           0       -1.221815   -0.652405   -0.295264
      7          6           0       -2.403410    0.117867    0.300412
      8          1           0       -1.122476   -1.649968    0.137126
      9          1           0       -1.362272   -0.788780   -1.373710
     10          1           0       -2.309097    0.207693    1.384883
     11          1           0       -3.338894   -0.400975    0.082815
     12          1           0       -2.456954    1.123766   -0.117628
 ---------------------------------------------------------------------

 SCF Done:  E(RHF) =  -341.759439431     A.U. after    2 cycles

 The electronic state is 1-A.
 Alpha  occ. eigenvalues --  -20.68483 -20.66006 -20.59047 -11.41989 -11.27625
 Alpha  occ. eigenvalues --  -11.25008  -1.49140  -1.37535  -1.24321  -1.06840
 Alpha  occ. eigenvalues --   -0.91589  -0.83904  -0.75112  -0.71749  -0.70687
 Alpha  occ. eigenvalues --   -0.64578  -0.63003  -0.61521  -0.57633  -0.55368
 Alpha  occ. eigenvalues --   -0.54115  -0.51991  -0.49579  -0.49483
 Alpha virt. eigenvalues --    0.03082   0.04615   0.04952   0.05066   0.06549
 Alpha virt. eigenvalues --    0.07505   0.10747   0.11622   0.11735   0.12927
 Alpha virt. eigenvalues --    0.14352   0.14453   0.15609   0.16337   0.16703

 Mulliken charges:
               1
     1  O   -0.193369
     2  O   -0.337689
     3  H    0.202478
     4  C    0.461277
     5  O   -0.500921
     6  C    0.064848
     7  C    0.417023
     8  H   -0.048345
     9  H    0.077000
    10  H   -0.054325
    11  H   -0.051516
    12  H   -0.036461
 Sum of Mulliken charges =  -0.00000

 Dipole moment (field-independent basis, Debye):
    X=             -2.6991    Y=             -0.7777    Z=             -0.2862  Tot=              2.8235

 Test job not archived.
 1\1\GINC-SE105\SP\RHF\Aug-CC-pVDZ\C3H6O3\OHZDE\08-Apr-2025\0\\#t hf au
 g-cc-pvdz iop(5/13=1,5/36=2,99/5=2) pseudo=read geom=check guess=(read
 ,tcheck) scf=(maxcycle=1)\\title\\0,1\O,0,2.365017,-0.087468,0.171894\
 O,0,1.103702,-0.776232,0.070695\H,0,2.064547,0.844397,0.086401\C,0,0.0
 81208,0.08706,-0.128709\O,0,0.254938,1.282291,-0.174904\C,0,-1.221815,
 -0.652405,-0.295264\C,0,-2.40341,0.117867,0.300412\H,0,-1.122476,-1.64
 9968,0.137126\H,0,-1.362272,-0.78878,-1.37371\H,0,-2.309097,0.207693,1
 .384883\H,0,-3.338894,-0.400975,0.082815\H,0,-2.456954,1.123766,-0.117

 Normal termination of Gaussian 16 at Tue Apr  8 22:53:47 2025.
