 Gaussian 16, Revision C.01,

 ----------------------------------------------------------------------
 #t hf aug-cc-pvdz symm=none int=(grid=ultrafine) guess=(read,tcheck) s
 table=(opt,rrhf)
 ----------------------------------------------------------------------
 -----
 title
 -----
 Symbolic Z-matrix:
 Charge =  0 Multiplicity = 1

 SCF Done:  E(RHF) =  -470.152432576     A.U. after   14 cycles
 Normal termination of Gaussian 16 at Wed Apr  9 00:31:14 2025.
 Gaussian 16:  ES64L-G16RevC.01  3-Jul-2019

 ----------------------------------------------------------------------
 #t hf aug-cc-pvdz iop(5/13=1,5/36=2,99/5=2) pseudo=read geom=check gue
 ss=(read,tcheck) scf=(maxcycle=1)
 ----------------------------------------------------------------------
 -----
 title
 -----
 Structure from the checkpoint file:  "BDE49_nonexpt_391_mol1.chk"
 Charge =  0 Multiplicity = 1

                         Standard orientation:
 ---------------------------------------------------------------------
 Center     Atomic      Atomic             Coordinates (Angstroms)
 Number     Number       Type             X           Y           Z
 ---------------------------------------------------------------------
      1          9           0        2.040669    0.218841    1.130772
      2          9           0        2.040676    0.218825   -1.130768
      3          5           0        1.380301    0.024991    0.000001
      4          6           0       -0.089192   -0.562250    0.000001
      5          8           0       -0.105078   -1.793648    0.000005
      6          7           0       -1.202825    0.218961   -0.000002
      7          6           0       -1.134562    1.667672   -0.000007
      8          1           0       -0.093237    1.997543   -0.000006
      9          1           0       -1.620772    2.083877    0.888858
     10          1           0       -1.620769    2.083871   -0.888877
     11          6           0       -2.522286   -0.395924   -0.000002
     12          1           0       -2.390492   -1.476239   -0.000002
     13          1           0       -3.085854   -0.096764   -0.889797
     14          1           0       -3.085853   -0.096766    0.889795
 ---------------------------------------------------------------------

 SCF Done:  E(RHF) =  -470.321903824     A.U. after    2 cycles

 The electronic state is 1-A.
 Alpha  occ. eigenvalues --  -26.15287 -26.15281 -20.55163 -15.67299 -11.36308
 Alpha  occ. eigenvalues --  -11.30270 -11.28038  -7.76239  -1.70563  -1.68310
 Alpha  occ. eigenvalues --   -1.35471  -1.23252  -0.99550  -0.95815  -0.89386
 Alpha  occ. eigenvalues --   -0.83477  -0.82799  -0.78291  -0.75463  -0.73440
 Alpha  occ. eigenvalues --   -0.72929  -0.70461  -0.67558  -0.67147  -0.59062
 Alpha  occ. eigenvalues --   -0.58418  -0.58155  -0.55380  -0.55345  -0.44471
 Alpha  occ. eigenvalues --   -0.39182
 Alpha virt. eigenvalues --    0.02615   0.04001   0.04156   0.05309   0.06694
 Alpha virt. eigenvalues --    0.06846   0.07161   0.07751   0.08335   0.09394
 Alpha virt. eigenvalues --    0.12643   0.12840   0.13112   0.13257   0.14257

 Mulliken charges:
               1
     1  F   -0.392039
     2  F   -0.392038
     3  B    0.814356
     4  C    0.273188
     5  O   -0.522332
     6  N   -0.339349
     7  C    0.775832
     8  H   -0.342706
     9  H   -0.096665
    10  H   -0.096664
    11  C    0.729847
    12  H   -0.228667
    13  H   -0.091382
    14  H   -0.091380
 Sum of Mulliken charges =  -0.00000

 Dipole moment (field-independent basis, Debye):
    X=             -3.1073    Y=              3.9280    Z=             -0.0000  Tot=              5.0084

 Test job not archived.
 1\1\GINC-SE070\SP\RHF\Aug-CC-pVDZ\C3H6B1F2N1O1\OHZDE\09-Apr-2025\0\\#t
  hf aug-cc-pvdz iop(5/13=1,5/36=2,99/5=2) pseudo=read geom=check guess
 =(read,tcheck) scf=(maxcycle=1)\\title\\0,1\F,0,-2.040669,0.218841,-1.
 130772\F,0,-2.040676,0.218825,1.130768\B,0,-1.380301,0.024991,-0.00000
 1\C,0,0.089192,-0.56225,-0.000001\O,0,0.105078,-1.793648,-0.000005\N,0
 ,1.202825,0.218961,0.000002\C,0,1.134562,1.667672,0.000007\H,0,0.09323
 7,1.997543,0.000006\H,0,1.620772,2.083877,-0.888858\H,0,1.620769,2.083
 871,0.888877\C,0,2.522286,-0.395924,0.000002\H,0,2.390492,-1.476239,0.

 Normal termination of Gaussian 16 at Wed Apr  9 00:31:18 2025.
