 Gaussian 16, Revision C.01,

 ----------------------------------------------------------------------
 #t hf aug-cc-pvdz symm=none int=(grid=ultrafine) guess=(read,tcheck) s
 table=(opt,rrhf)
 ----------------------------------------------------------------------
 -----
 title
 -----
 Symbolic Z-matrix:
 Charge =  0 Multiplicity = 1

 SCF Done:  E(RHF) =  -266.209425965     A.U. after   11 cycles

 1\1\GINC-SE165\Stability\RHF\Aug-CC-pVDZ\C4H10N2\OHZDE\08-Apr-2025\0\\
 #t hf aug-cc-pvdz symm=none int=(grid=ultrafine) guess=(read,tcheck) s
 table=(opt,rrhf)\\title\\0,1\N,0,1.372639,0.001689,0.317124\C,0,0.7372
 8,-1.210578,-0.205461\C,0,-0.734307,-1.212389,0.205467\H,0,1.242053,-2
 .084473,0.216407\H,0,0.789215,-1.279538,-1.306422\N,0,-1.372639,-0.001
 689,-0.317124\H,0,-0.78607,-1.281472,1.306427\H,0,-1.236926,-2.087525,
 -0.216401\C,0,-0.73728,1.210578,0.205461\C,0,0.734307,1.212389,-0.2054
 67\H,0,-0.789215,1.279538,1.306422\H,0,-1.242053,2.084473,-0.216407\H,

 Normal termination of Gaussian 16 at Tue Apr  8 23:02:02 2025.
 Gaussian 16:  ES64L-G16RevC.01  3-Jul-2019

 ----------------------------------------------------------------------
 #t hf aug-cc-pvdz iop(5/13=1,5/36=2,99/5=2) pseudo=read geom=check gue
 ss=(read,tcheck) scf=(maxcycle=1)
 ----------------------------------------------------------------------
 -----
 title
 -----
 Structure from the checkpoint file:  "BDE49_expt_347_mol1.chk"
 Charge =  0 Multiplicity = 1

                         Standard orientation:
 ---------------------------------------------------------------------
 Center     Atomic      Atomic             Coordinates (Angstroms)
 Number     Number       Type             X           Y           Z
 ---------------------------------------------------------------------
      1          7           0        1.372639    0.001689    0.317124
      2          6           0        0.737280   -1.210578   -0.205461
      3          6           0       -0.734307   -1.212389    0.205467
      4          1           0        1.242053   -2.084473    0.216407
      5          1           0        0.789215   -1.279538   -1.306422
      6          7           0       -1.372639   -0.001689   -0.317124
      7          1           0       -0.786070   -1.281472    1.306427
      8          1           0       -1.236926   -2.087525   -0.216401
      9          6           0       -0.737280    1.210578    0.205461
     10          6           0        0.734307    1.212389   -0.205467
     11          1           0       -0.789215    1.279538    1.306422
     12          1           0       -1.242053    2.084473   -0.216407
     13          1           0        0.786070    1.281472   -1.306427
     14          1           0        1.236926    2.087525    0.216401
     15          1           0        2.361156    0.002901    0.091812
     16          1           0       -2.361156   -0.002901   -0.091812
 ---------------------------------------------------------------------

 SCF Done:  E(RHF) =  -266.289874221     A.U. after    2 cycles

 The electronic state is 1-AG.
 Alpha  occ. eigenvalues --  -15.60328 -15.60327 -11.25270 -11.25269 -11.25220
 Alpha  occ. eigenvalues --  -11.25214  -1.20310  -1.13248  -1.01324  -0.89696
 Alpha  occ. eigenvalues --   -0.84910  -0.75606  -0.70068  -0.63890  -0.61826
 Alpha  occ. eigenvalues --   -0.59570  -0.57271  -0.56879  -0.53634  -0.48996
 Alpha  occ. eigenvalues --   -0.46956  -0.45985  -0.36757  -0.35761
 Alpha virt. eigenvalues --    0.03575   0.03993   0.04125   0.04594   0.06564
 Alpha virt. eigenvalues --    0.06836   0.07366   0.07512   0.09326   0.09561
 Alpha virt. eigenvalues --    0.11854   0.13010   0.13544   0.14480   0.15381

 Mulliken charges:
               1
     1  N   -0.634138
     2  C    0.640707
     3  C    0.640712
     4  H   -0.190490
     5  H   -0.099580
     6  N   -0.634138
     7  H   -0.099582
     8  H   -0.190485
     9  C    0.640707
    10  C    0.640712
    11  H   -0.099580
    12  H   -0.190490
    13  H   -0.099582
    14  H   -0.190485
    15  H   -0.067144
    16  H   -0.067144
 Sum of Mulliken charges =  -0.00000

 Dipole moment (field-independent basis, Debye):
    X=             -0.0000    Y=             -0.0000    Z=              0.0000  Tot=              0.0000

 Test job not archived.
 1\1\GINC-SE165\SP\RHF\Aug-CC-pVDZ\C4H10N2\OHZDE\08-Apr-2025\0\\#t hf a
 ug-cc-pvdz iop(5/13=1,5/36=2,99/5=2) pseudo=read geom=check guess=(rea
 d,tcheck) scf=(maxcycle=1)\\title\\0,1\N,0,1.372639,0.001689,0.317124\
 C,0,0.73728,-1.210578,-0.205461\C,0,-0.734307,-1.212389,0.205467\H,0,1
 .242053,-2.084473,0.216407\H,0,0.789215,-1.279538,-1.306422\N,0,-1.372
 639,-0.001689,-0.317124\H,0,-0.78607,-1.281472,1.306427\H,0,-1.236926,
 -2.087525,-0.216401\C,0,-0.73728,1.210578,0.205461\C,0,0.734307,1.2123
 89,-0.205467\H,0,-0.789215,1.279538,1.306422\H,0,-1.242053,2.084473,-0

 Normal termination of Gaussian 16 at Tue Apr  8 23:02:07 2025.
