 Gaussian 16, Revision C.01,

 ----------------------------------------------------------------------
 #t hf aug-cc-pvdz symm=none int=(grid=ultrafine) guess=(read,tcheck) s
 table=(opt,rrhf)
 ----------------------------------------------------------------------
 -----
 title
 -----
 Symbolic Z-matrix:
 Charge =  0 Multiplicity = 1

 SCF Done:  E(RHF) =  -312.591758983     A.U. after   13 cycles
 Normal termination of Gaussian 16 at Wed Apr  9 00:37:10 2025.
 Gaussian 16:  ES64L-G16RevC.01  3-Jul-2019

 ----------------------------------------------------------------------
 #t hf aug-cc-pvdz iop(5/13=1,5/36=2,99/5=2) pseudo=read geom=check gue
 ss=(read,tcheck) scf=(maxcycle=1)
 ----------------------------------------------------------------------
 -----
 title
 -----
 Structure from the checkpoint file:  "BDE49_nonexpt_567_mol1.chk"
 Charge =  0 Multiplicity = 1

                         Standard orientation:
 ---------------------------------------------------------------------
 Center     Atomic      Atomic             Coordinates (Angstroms)
 Number     Number       Type             X           Y           Z
 ---------------------------------------------------------------------
      1          6           0       -0.730179   -0.023405    0.000006
      2          5           0        1.743778    0.805428   -0.000014
      3          8           0        2.286851   -0.462503   -0.000016
      4          6           0       -0.629366   -0.900031    1.262451
      5          1           0       -0.708325   -0.282701    2.161427
      6          1           0        0.327469   -1.423026    1.288344
      7          6           0       -0.629384   -0.900038   -1.262437
      8          1           0        0.327451   -1.423032   -1.288341
      9          1           0       -0.708355   -0.282712   -2.161415
     10          1           0       -1.432441   -1.642972   -1.281989
     11          1           0       -1.432423   -1.642966    1.282018
     12          6           0       -2.068909    0.729457    0.000013
     13          1           0       -2.906309    0.028065    0.000021
     14          1           0       -2.159606    1.363014   -0.888069
     15          1           0       -2.159594    1.363018    0.888093
     16          7           0        0.352927    0.987005   -0.000005
     17          1           0        3.245446   -0.443424   -0.000024
     18          1           0        2.447625    1.775413   -0.000023
     19          1           0        0.021903    1.939273   -0.000005
 ---------------------------------------------------------------------

 SCF Done:  E(RHF) =  -312.695674088     A.U. after    2 cycles

 The electronic state is 1-A.
 Alpha  occ. eigenvalues --  -20.56915 -15.59848 -11.27488 -11.22503 -11.21250
 Alpha  occ. eigenvalues --  -11.21244  -7.62396  -1.31250  -1.16002  -1.02094
 Alpha  occ. eigenvalues --   -0.93056  -0.92212  -0.77324  -0.75179  -0.65548
 Alpha  occ. eigenvalues --   -0.63903  -0.61656  -0.60539  -0.57540  -0.56292
 Alpha  occ. eigenvalues --   -0.53623  -0.53031  -0.52779  -0.50952  -0.47841
 Alpha  occ. eigenvalues --   -0.47214  -0.45437  -0.37782
 Alpha virt. eigenvalues --    0.03068   0.03912   0.04481   0.04736   0.06379
 Alpha virt. eigenvalues --    0.06437   0.06694   0.07223   0.07382   0.08754
 Alpha virt. eigenvalues --    0.08989   0.09439   0.09603   0.10751   0.11857

 Mulliken charges:
               1
     1  C   -3.410008
     2  B   -0.136870
     3  O   -0.516584
     4  C    1.224843
     5  H   -0.057412
     6  H   -0.045780
     7  C    1.224846
     8  H   -0.045780
     9  H   -0.057412
    10  H    0.022542
    11  H    0.022545
    12  C    1.263501
    13  H   -0.046459
    14  H   -0.007593
    15  H   -0.007594
    16  N    0.140096
    17  H    0.186574
    18  H    0.337045
    19  H   -0.090500
 Sum of Mulliken charges =  -0.00000

 Dipole moment (field-independent basis, Debye):
    X=              0.0418    Y=              0.7133    Z=              0.0000  Tot=              0.7145

 Test job not archived.
 1\1\GINC-SE109\SP\RHF\Aug-CC-pVDZ\C4H12B1N1O1\OHZDE\09-Apr-2025\0\\#t
 hf aug-cc-pvdz iop(5/13=1,5/36=2,99/5=2) pseudo=read geom=check guess=
 (read,tcheck) scf=(maxcycle=1)\\title\\0,1\C,0,-0.730179,-0.023405,0.0
 00006\B,0,1.743778,0.805428,-0.000014\O,0,2.286851,-0.462503,-0.000016
 \C,0,-0.629366,-0.900031,1.262451\H,0,-0.708325,-0.282701,2.161427\H,0
 ,0.327469,-1.423026,1.288344\C,0,-0.629384,-0.900038,-1.262437\H,0,0.3
 27451,-1.423032,-1.288341\H,0,-0.708355,-0.282712,-2.161415\H,0,-1.432
 441,-1.642972,-1.281989\H,0,-1.432423,-1.642966,1.282018\C,0,-2.068909

 Normal termination of Gaussian 16 at Wed Apr  9 00:37:18 2025.
