 Gaussian 16, Revision C.01,

 ----------------------------------------------------------------------
 #t hf aug-cc-pvdz symm=none int=(grid=ultrafine) guess=(read,tcheck) s
 table=(opt,rrhf)
 ----------------------------------------------------------------------
 -----
 title
 -----
 Symbolic Z-matrix:
 Charge =  0 Multiplicity = 1

 SCF Done:  E(RHF) =  -483.289501451     A.U. after   12 cycles
 Normal termination of Gaussian 16 at Wed Apr  9 00:01:42 2025.
 Gaussian 16:  ES64L-G16RevC.01  3-Jul-2019

 ----------------------------------------------------------------------
 #t hf aug-cc-pvdz iop(5/13=1,5/36=2,99/5=2) pseudo=read geom=check gue
 ss=(read,tcheck) scf=(maxcycle=1)
 ----------------------------------------------------------------------
 -----
 title
 -----
 Structure from the checkpoint file:  "BDE49_nonexpt_2173_mol1.chk"
 Charge =  0 Multiplicity = 1

                         Standard orientation:
 ---------------------------------------------------------------------
 Center     Atomic      Atomic             Coordinates (Angstroms)
 Number     Number       Type             X           Y           Z
 ---------------------------------------------------------------------
      1         14           0       -0.868068   -0.594277    0.189491
      2          6           0        0.784173    0.097356   -0.379104
      3          6           0        1.045063    1.499793    0.200311
      4          1           0        0.241290    2.194605   -0.053834
      5          1           0        1.984060    1.912891   -0.184154
      6          1           0        1.124874    1.467184    1.292244
      7          6           0        1.932515   -0.876536   -0.053824
      8          1           0        0.709399    0.185967   -1.471372
      9          1           0        2.886851   -0.490577   -0.427409
     10          1           0        1.777056   -1.861307   -0.504451
     11          1           0        2.041277   -1.018584    1.026637
     12          8           0       -2.030853    0.497159   -0.267412
     13          1           0       -2.945082    0.331608   -0.029105
     14          1           0       -0.873635   -0.780694    1.666193
     15          1           0       -1.116821   -1.922162   -0.432614
 ---------------------------------------------------------------------

 SCF Done:  E(RHF) =  -483.385116961     A.U. after    2 cycles

 The electronic state is 1-A.
 Alpha  occ. eigenvalues --  -69.07993 -20.56724 -11.22922 -11.22454 -11.22300
 Alpha  occ. eigenvalues --   -6.82877  -3.93795  -3.93637  -3.93623  -1.29642
 Alpha  occ. eigenvalues --   -1.04434  -0.92547  -0.80693  -0.73702  -0.65177
 Alpha  occ. eigenvalues --   -0.61139  -0.59748  -0.56513  -0.55032  -0.53682
 Alpha  occ. eigenvalues --   -0.53188  -0.48172  -0.48010  -0.44909  -0.41055
 Alpha virt. eigenvalues --    0.03232   0.04298   0.05059   0.05122   0.06622
 Alpha virt. eigenvalues --    0.06671   0.07361   0.07517   0.07824   0.09044
 Alpha virt. eigenvalues --    0.09915   0.10589   0.11259   0.13978   0.14772

 Mulliken charges:
               1
     1  Si   0.645531
     2  C   -0.420947
     3  C    0.407902
     4  H   -0.106570
     5  H   -0.075091
     6  H   -0.090542
     7  C    0.508396
     8  H   -0.102930
     9  H   -0.090593
    10  H   -0.116814
    11  H   -0.055166
    12  O   -0.821507
    13  H    0.107872
    14  H    0.122054
    15  H    0.088407
 Sum of Mulliken charges =  -0.00000

 Dipole moment (field-independent basis, Debye):
    X=             -0.3858    Y=             -0.5040    Z=              0.3021  Tot=              0.7029

 Test job not archived.
 1\1\GINC-SE252\SP\RHF\Aug-CC-pVDZ\C3H10O1Si1\OHZDE\09-Apr-2025\0\\#t h
 f aug-cc-pvdz iop(5/13=1,5/36=2,99/5=2) pseudo=read geom=check guess=(
 read,tcheck) scf=(maxcycle=1)\\title\\0,1\Si,0,-0.868068,-0.594277,0.1
 89491\C,0,0.784173,0.097356,-0.379104\C,0,1.045063,1.499793,0.200311\H
 ,0,0.24129,2.194605,-0.053834\H,0,1.98406,1.912891,-0.184154\H,0,1.124
 874,1.467184,1.292244\C,0,1.932515,-0.876536,-0.053824\H,0,0.709399,0.
 185967,-1.471372\H,0,2.886851,-0.490577,-0.427409\H,0,1.777056,-1.8613
 07,-0.504451\H,0,2.041277,-1.018584,1.026637\O,0,-2.030853,0.497159,-0

 Normal termination of Gaussian 16 at Wed Apr  9 00:01:46 2025.
