 Gaussian 16, Revision C.01,

 ----------------------------------------------------------------------
 #t hf aug-cc-pvdz symm=none int=(grid=ultrafine) guess=(read,tcheck) s
 table=(opt,rrhf)
 ----------------------------------------------------------------------
 -----
 title
 -----
 Symbolic Z-matrix:
 Charge =  0 Multiplicity = 1

 SCF Done:  E(RHF) =  -443.032026995     A.U. after   13 cycles
 Normal termination of Gaussian 16 at Tue Apr  8 23:49:18 2025.
 Gaussian 16:  ES64L-G16RevC.01  3-Jul-2019

 ----------------------------------------------------------------------
 #t hf aug-cc-pvdz iop(5/13=1,5/36=2,99/5=2) pseudo=read geom=check gue
 ss=(read,tcheck) scf=(maxcycle=1)
 ----------------------------------------------------------------------
 -----
 title
 -----
 Structure from the checkpoint file:  "BDE49_nonexpt_1867_mol1.chk"
 Charge =  0 Multiplicity = 1

                         Standard orientation:
 ---------------------------------------------------------------------
 Center     Atomic      Atomic             Coordinates (Angstroms)
 Number     Number       Type             X           Y           Z
 ---------------------------------------------------------------------
      1         14           0        1.489557   -0.234194    0.015595
      2          6           0       -0.084246    0.814404   -0.208506
      3          6           0       -1.294638    0.149039    0.380426
      4          1           0        1.367995   -1.495285   -0.745870
      5          1           0        1.685726   -0.542561    1.451027
      6          1           0        2.650324    0.540944   -0.476571
      7          8           0       -2.091794   -0.503693   -0.245790
      8          1           0       -1.407532    0.275139    1.480689
      9          1           0       -0.238779    0.974295   -1.278811
     10          1           0        0.096119    1.775065    0.286014
 ---------------------------------------------------------------------

 SCF Done:  E(RHF) =  -443.104382333     A.U. after    2 cycles

 The electronic state is 1-A.
 Alpha  occ. eigenvalues --  -69.08181 -20.57395 -11.35301 -11.24943  -6.83451
 Alpha  occ. eigenvalues --   -3.94239  -3.94221  -3.94209  -1.36258  -1.01444
 Alpha  occ. eigenvalues --   -0.80667  -0.71364  -0.68408  -0.64106  -0.58001
 Alpha  occ. eigenvalues --   -0.56380  -0.49633  -0.48840  -0.46726  -0.43388
 Alpha virt. eigenvalues --    0.03039   0.04280   0.04686   0.05375   0.07020
 Alpha virt. eigenvalues --    0.07252   0.08313   0.08759   0.09173   0.10926
 Alpha virt. eigenvalues --    0.12382   0.13547   0.14799   0.15310   0.15597

 Mulliken charges:
               1
     1  Si   0.443669
     2  C   -0.098903
     3  C    0.505022
     4  H    0.003344
     5  H   -0.019002
     6  H   -0.033939
     7  O   -0.468078
     8  H   -0.116360
     9  H   -0.135344
    10  H   -0.080410
 Sum of Mulliken charges =  -0.00000

 Dipole moment (field-independent basis, Debye):
    X=              2.4456    Y=              2.0442    Z=              1.1834  Tot=              3.4000

 Test job not archived.
 1\1\GINC-SE105\SP\RHF\Aug-CC-pVDZ\C2H6O1Si1\OHZDE\08-Apr-2025\0\\#t hf
  aug-cc-pvdz iop(5/13=1,5/36=2,99/5=2) pseudo=read geom=check guess=(r
 ead,tcheck) scf=(maxcycle=1)\\title\\0,1\Si,0,1.489557,-0.234194,0.015
 595\C,0,-0.084246,0.814404,-0.208506\C,0,-1.294638,0.149039,0.380426\H
 ,0,1.367995,-1.495285,-0.74587\H,0,1.685726,-0.542561,1.451027\H,0,2.6
 50324,0.540944,-0.476571\O,0,-2.091794,-0.503693,-0.24579\H,0,-1.40753
 2,0.275139,1.480689\H,0,-0.238779,0.974295,-1.278811\H,0,0.096119,1.77
 5065,0.286014\\Version=ES64L-G16RevC.01\State=1-A\HF=-443.1043823\RMSD

 Normal termination of Gaussian 16 at Tue Apr  8 23:49:21 2025.
