 Gaussian 16, Revision C.01,

 ----------------------------------------------------------------------
 #t hf aug-cc-pvdz symm=none int=(grid=ultrafine) guess=(read,tcheck) s
 table=(opt,rrhf)
 ----------------------------------------------------------------------
 -----
 title
 -----
 Symbolic Z-matrix:
 Charge =  0 Multiplicity = 1

 SCF Done:  E(RHF) =  -980.216595919     A.U. after   16 cycles
 Normal termination of Gaussian 16 at Tue Apr  8 23:39:34 2025.
 Gaussian 16:  ES64L-G16RevC.01  3-Jul-2019

 ----------------------------------------------------------------------
 #t hf aug-cc-pvdz iop(5/13=1,5/36=2,99/5=2) pseudo=read geom=check gue
 ss=(read,tcheck) scf=(maxcycle=1)
 ----------------------------------------------------------------------
 -----
 title
 -----
 Structure from the checkpoint file:  "BDE49_nonexpt_1558_mol1.chk"
 Charge =  0 Multiplicity = 1

                         Standard orientation:
 ---------------------------------------------------------------------
 Center     Atomic      Atomic             Coordinates (Angstroms)
 Number     Number       Type             X           Y           Z
 ---------------------------------------------------------------------
      1          6           0       -1.581272   -1.268206   -0.258801
      2          6           0       -0.219232   -1.438663   -0.032956
      3          6           0       -2.148104   -0.032649    0.025526
      4          6           0       -1.400032    1.030350    0.520713
      5          6           0       -0.038859    0.846885    0.731464
      6          6           0        0.567479   -0.387970    0.457932
      7          1           0        0.561527    1.669657    1.096347
      8          1           0       -2.202985   -2.066264   -0.639486
      9          1           0        0.236195   -2.401326   -0.236158
     10          7           0        3.030774    0.108044   -0.667237
     11          8           0        2.726787    1.499436   -0.604364
     12          8           0        4.450295   -0.014304   -0.501608
     13          7           0       -3.600231    0.159029   -0.204621
     14          8           0       -4.073092    1.256945    0.053506
     15          8           0       -4.233887   -0.792356   -0.639432
     16          1           0       -1.887694    1.972721    0.727712
     17          1           0        4.751638   -0.265590   -1.382743
     18          1           0        2.572240    1.735412   -1.527659
     19         15           0        2.356349   -0.727550    0.748831
     20          1           0        2.569331    0.302872    1.704451
 ---------------------------------------------------------------------

 SCF Done:  E(RHF) =  -980.430821109     A.U. after    2 cycles

 The electronic state is 1-A.
 Alpha  occ. eigenvalues --  -81.30485 -20.63227 -20.63126 -20.62409 -20.62392
 Alpha  occ. eigenvalues --  -15.92629 -15.75466 -11.32955 -11.28860 -11.28776
 Alpha  occ. eigenvalues --  -11.28723 -11.28339 -11.28144  -7.80545  -4.94667
 Alpha  occ. eigenvalues --   -4.94509  -4.94225  -1.55628  -1.42687  -1.37222
 Alpha  occ. eigenvalues --   -1.32822  -1.19477  -1.09137  -1.05220  -1.03246
 Alpha  occ. eigenvalues --   -0.95923  -0.87418  -0.84284  -0.79426  -0.78939
 Alpha  occ. eigenvalues --   -0.74648  -0.74363  -0.73587  -0.73271  -0.68588
 Alpha  occ. eigenvalues --   -0.67262  -0.65949  -0.63711  -0.63541  -0.63326
 Alpha  occ. eigenvalues --   -0.55151  -0.53933  -0.53597  -0.53153  -0.52140
 Alpha  occ. eigenvalues --   -0.52033  -0.50181  -0.48047  -0.43192  -0.39521
 Alpha  occ. eigenvalues --   -0.37704  -0.37431
 Alpha virt. eigenvalues --    0.01930   0.02671   0.03690   0.03779   0.04741
 Alpha virt. eigenvalues --    0.05799   0.06201   0.07167   0.07902   0.08448
 Alpha virt. eigenvalues --    0.09439   0.10740   0.11174   0.11893   0.12046

 Mulliken charges:
               1
     1  C    0.525037
     2  C    0.085026
     3  C    0.959132
     4  C    0.483669
     5  C    0.575406
     6  C    0.406523
     7  H   -0.629706
     8  H   -0.468114
     9  H   -0.546207
    10  N   -0.228818
    11  O   -0.420647
    12  O   -0.420915
    13  N    0.115240
    14  O   -0.555128
    15  O   -0.555695
    16  H   -0.471889
    17  H    0.201917
    18  H    0.218655
    19  P    0.591929
    20  H    0.134585
 Sum of Mulliken charges =   0.00000

 Dipole moment (field-independent basis, Debye):
    X=              4.0586    Y=             -0.5123    Z=             -1.3119  Tot=              4.2960

 Test job not archived.
 1\1\GINC-SE069\SP\RHF\Aug-CC-pVDZ\C6H7N2O4P1\OHZDE\08-Apr-2025\0\\#t h
 f aug-cc-pvdz iop(5/13=1,5/36=2,99/5=2) pseudo=read geom=check guess=(
 read,tcheck) scf=(maxcycle=1)\\title\\0,1\C,0,-1.581272,-1.268206,-0.2
 58801\C,0,-0.219232,-1.438663,-0.032956\C,0,-2.148104,-0.032649,0.0255
 26\C,0,-1.400032,1.03035,0.520713\C,0,-0.038859,0.846885,0.731464\C,0,
 0.567479,-0.38797,0.457932\H,0,0.561527,1.669657,1.096347\H,0,-2.20298
 5,-2.066264,-0.639486\H,0,0.236195,-2.401326,-0.236158\N,0,3.030774,0.
 108044,-0.667237\O,0,2.726787,1.499436,-0.604364\O,0,4.450295,-0.01430

 Normal termination of Gaussian 16 at Tue Apr  8 23:39:48 2025.
