 Gaussian 16, Revision C.01,

 ----------------------------------------------------------------------
 #t hf aug-cc-pvdz symm=none int=(grid=ultrafine) guess=(read,tcheck) s
 table=(opt,rrhf)
 ----------------------------------------------------------------------
 -----
 title
 -----
 Symbolic Z-matrix:
 Charge =  0 Multiplicity = 1

 SCF Done:  E(RHF) =  -996.088787022     A.U. after   13 cycles
 Normal termination of Gaussian 16 at Tue Apr  8 23:45:46 2025.
 Gaussian 16:  ES64L-G16RevC.01  3-Jul-2019

 ----------------------------------------------------------------------
 #t hf aug-cc-pvdz iop(5/13=1,5/36=2,99/5=2) pseudo=read geom=check gue
 ss=(read,tcheck) scf=(maxcycle=1)
 ----------------------------------------------------------------------
 -----
 title
 -----
 Structure from the checkpoint file:  "BDE49_nonexpt_1784_mol1.chk"
 Charge =  0 Multiplicity = 1

                         Standard orientation:
 ---------------------------------------------------------------------
 Center     Atomic      Atomic             Coordinates (Angstroms)
 Number     Number       Type             X           Y           Z
 ---------------------------------------------------------------------
      1         14           0        1.140829   -0.932997   -0.000004
      2          6           0       -0.742781   -0.663641    0.000001
      3         17           0        2.477966    0.699255   -0.000006
      4          7           0       -1.516193    0.446115    0.000003
      5          6           0       -0.996226    1.804306    0.000006
      6          8           0       -1.187731   -1.815313    0.000001
      7          1           0        0.090424    1.796841    0.000004
      8          1           0       -1.342727    2.344465    0.887375
      9          1           0       -1.342731    2.344470   -0.887358
     10          6           0       -2.969645    0.303395    0.000007
     11          1           0       -3.395764    0.778422    0.889264
     12          1           0       -3.213749   -0.756218   -0.000003
     13          1           0       -3.395769    0.778439   -0.889238
     14          1           0        1.435195   -1.688226   -1.225499
     15          1           0        1.435202   -1.688228    1.225489
 ---------------------------------------------------------------------

 SCF Done:  E(RHF) =  -996.209052381     A.U. after    2 cycles

 The electronic state is 1-A.
 Alpha  occ. eigenvalues -- -103.65564 -69.12709 -20.55272 -15.67157 -11.36402
 Alpha  occ. eigenvalues --  -11.28847 -11.27758 -10.68985  -8.34669  -8.34471
 Alpha  occ. eigenvalues --   -8.34448  -6.87467  -3.98329  -3.98157  -3.98123
 Alpha  occ. eigenvalues --   -1.35576  -1.22756  -1.13729  -0.98572  -0.94988
 Alpha  occ. eigenvalues --   -0.78723  -0.73509  -0.67479  -0.66773  -0.65276
 Alpha  occ. eigenvalues --   -0.58035  -0.57525  -0.57007  -0.56723  -0.55192
 Alpha  occ. eigenvalues --   -0.52556  -0.52416  -0.48327  -0.45914  -0.41714
 Alpha  occ. eigenvalues --   -0.39006
 Alpha virt. eigenvalues --    0.02950   0.04202   0.04389   0.04710   0.06567
 Alpha virt. eigenvalues --    0.06774   0.06997   0.07590   0.07814   0.09255
 Alpha virt. eigenvalues --    0.09333   0.11421   0.12220   0.13146   0.13648

 Mulliken charges:
               1
     1  Si   0.467387
     2  C    0.147046
     3  Cl  -0.549607
     4  N   -0.350036
     5  C    0.916752
     6  O   -0.623215
     7  H   -0.413677
     8  H   -0.065327
     9  H   -0.065330
    10  C    0.744250
    11  H   -0.087954
    12  H   -0.218457
    13  H   -0.087956
    14  H    0.093062
    15  H    0.093062
 Sum of Mulliken charges =  -0.00000

 Dipole moment (field-independent basis, Debye):
    X=             -1.4305    Y=              3.0091    Z=              0.0000  Tot=              3.3318

 Test job not archived.
 1\1\GINC-SE335\SP\RHF\Aug-CC-pVDZ\C3H8Cl1N1O1Si1\OHZDE\08-Apr-2025\0\\
 #t hf aug-cc-pvdz iop(5/13=1,5/36=2,99/5=2) pseudo=read geom=check gue
 ss=(read,tcheck) scf=(maxcycle=1)\\title\\0,1\Si,0,1.140829,-0.932997,
 -0.000004\C,0,-0.742781,-0.663641,0.000001\Cl,0,2.477966,0.699255,-0.0
 00006\N,0,-1.516193,0.446115,0.000003\C,0,-0.996226,1.804306,0.000006\
 O,0,-1.187731,-1.815313,0.000001\H,0,0.090424,1.796841,0.000004\H,0,-1
 .342727,2.344465,0.887375\H,0,-1.342731,2.34447,-0.887358\C,0,-2.96964
 5,0.303395,0.000007\H,0,-3.395764,0.778422,0.889264\H,0,-3.213749,-0.7

 Normal termination of Gaussian 16 at Tue Apr  8 23:45:52 2025.
