 Gaussian 16, Revision C.01,

 ----------------------------------------------------------------------
 #t hf aug-cc-pvdz symm=none int=(grid=ultrafine) guess=(read,tcheck) s
 table=(opt,rrhf)
 ----------------------------------------------------------------------
 -----
 title
 -----
 Symbolic Z-matrix:
 Charge =  0 Multiplicity = 1

 SCF Done:  E(RHF) =  -1144.90999942     A.U. after   18 cycles
 Normal termination of Gaussian 16 at Tue Apr  8 23:29:20 2025.
 Gaussian 16:  ES64L-G16RevC.01  3-Jul-2019

 ----------------------------------------------------------------------
 #t hf aug-cc-pvdz iop(5/13=1,5/36=2,99/5=2) pseudo=read geom=check gue
 ss=(read,tcheck) scf=(maxcycle=1)
 ----------------------------------------------------------------------
 -----
 title
 -----
 Structure from the checkpoint file:  "BDE49_nonexpt_1379_mol1.chk"
 Charge =  0 Multiplicity = 1

                         Standard orientation:
 ---------------------------------------------------------------------
 Center     Atomic      Atomic             Coordinates (Angstroms)
 Number     Number       Type             X           Y           Z
 ---------------------------------------------------------------------
      1          9           0       -2.405025   -0.840029    0.135347
      2          9           0        1.975060   -0.037502    1.280077
      3          8           0        0.129567   -2.087798   -1.083627
      4          8           0       -1.635720    1.957364   -0.478564
      5         15           0        1.828224    0.023397   -0.366270
      6         15           0       -1.007624   -0.381284    0.805531
      7          6           0        0.262087   -1.120329   -0.397692
      8          6           0        0.745662    1.541645   -0.427268
      9          1           0        1.145646    2.247932    0.309688
     10          1           0        0.808083    2.027742   -1.405733
     11          6           0       -0.731719    1.250998   -0.130732
 ---------------------------------------------------------------------

 SCF Done:  E(RHF) =  -1145.11332392     A.U. after    2 cycles

 The electronic state is 1-A.
 Alpha  occ. eigenvalues --  -81.37615 -81.36851 -26.15373 -26.14893 -20.63506
 Alpha  occ. eigenvalues --  -20.61649 -11.39521 -11.39417 -11.30213  -7.87076
 Alpha  occ. eigenvalues --   -7.86439  -5.01091  -5.00774  -5.00583  -5.00535
 Alpha  occ. eigenvalues --   -5.00162  -4.99972  -1.67299  -1.67099  -1.42011
 Alpha  occ. eigenvalues --   -1.40650  -1.07547  -0.94250  -0.89122  -0.82120
 Alpha  occ. eigenvalues --   -0.80612  -0.77029  -0.76818  -0.76011  -0.75547
 Alpha  occ. eigenvalues --   -0.72328  -0.71194  -0.68376  -0.67037  -0.64111
 Alpha  occ. eigenvalues --   -0.60837  -0.59019  -0.56880  -0.51431  -0.45898
 Alpha  occ. eigenvalues --   -0.40559  -0.37618
 Alpha virt. eigenvalues --    0.01790   0.03024   0.04372   0.05348   0.06292
 Alpha virt. eigenvalues --    0.06908   0.07013   0.08215   0.09176   0.09707
 Alpha virt. eigenvalues --    0.10757   0.11512   0.12389   0.13623   0.14249

 Mulliken charges:
               1
     1  F   -0.634370
     2  F   -0.627199
     3  O   -0.439582
     4  O   -0.479265
     5  P    1.173051
     6  P    1.119172
     7  C   -0.062342
     8  C   -0.108093
     9  H    0.057278
    10  H   -0.019142
    11  C    0.020491
 Sum of Mulliken charges =   0.00000

 Dipole moment (field-independent basis, Debye):
    X=              3.3438    Y=              1.9658    Z=              0.5608  Tot=              3.9191

 Test job not archived.
 1\1\GINC-SE453\SP\RHF\Aug-CC-pVDZ\C3H2F2O2P2\OHZDE\08-Apr-2025\0\\#t h
 f aug-cc-pvdz iop(5/13=1,5/36=2,99/5=2) pseudo=read geom=check guess=(
 read,tcheck) scf=(maxcycle=1)\\title\\0,1\F,0,-2.405025,-0.840029,0.13
 5347\F,0,1.97506,-0.037502,1.280077\O,0,0.129567,-2.087798,-1.083627\O
 ,0,-1.63572,1.957364,-0.478564\P,0,1.828224,0.023397,-0.36627\P,0,-1.0
 07624,-0.381284,0.805531\C,0,0.262087,-1.120329,-0.397692\C,0,0.745662
 ,1.541645,-0.427268\H,0,1.145646,2.247932,0.309688\H,0,0.808083,2.0277
 42,-1.405733\C,0,-0.731719,1.250998,-0.130732\\Version=ES64L-G16RevC.0

 Normal termination of Gaussian 16 at Tue Apr  8 23:29:26 2025.
