 Gaussian 16, Revision C.01,

 ----------------------------------------------------------------------
 #t hf aug-cc-pvdz symm=none int=(grid=ultrafine) guess=(read,tcheck) s
 table=(opt,rrhf)
 ----------------------------------------------------------------------
 -----
 title
 -----
 Symbolic Z-matrix:
 Charge =  0 Multiplicity = 1

 SCF Done:  E(RHF) =  -703.133319364     A.U. after   15 cycles
 Normal termination of Gaussian 16 at Tue Apr  8 23:13:22 2025.
 Gaussian 16:  ES64L-G16RevC.01  3-Jul-2019

 ----------------------------------------------------------------------
 #t hf aug-cc-pvdz iop(5/13=1,5/36=2,99/5=2) pseudo=read geom=check gue
 ss=(read,tcheck) scf=(maxcycle=1)
 ----------------------------------------------------------------------
 -----
 title
 -----
 Structure from the checkpoint file:  "BDE49_expt_860_mol1.chk"
 Charge =  0 Multiplicity = 1

                         Standard orientation:
 ---------------------------------------------------------------------
 Center     Atomic      Atomic             Coordinates (Angstroms)
 Number     Number       Type             X           Y           Z
 ---------------------------------------------------------------------
      1          6           0       -1.842537    0.015792    0.005051
      2          6           0       -1.148576   -1.196119   -0.000573
      3          6           0        0.243288   -1.201046   -0.008411
      4          6           0       -1.135331    1.220797   -0.001895
      5          6           0        0.252849    1.207525   -0.012196
      6          6           0        0.956849   -0.001653   -0.004887
      7          1           0       -1.688369    2.152051   -0.004415
      8          1           0        0.800034    2.142114   -0.026739
      9         16           0        2.753837   -0.013731   -0.073656
     10          1           0        2.984538    0.038943    1.251914
     11          1           0       -1.693703   -2.135601   -0.001378
     12          1           0        0.779001   -2.142235   -0.017029
     13          8           0       -3.203931    0.086988    0.012732
     14          1           0       -3.570703   -0.803264    0.011754
 ---------------------------------------------------------------------

 SCF Done:  E(RHF) =  -703.244780451     A.U. after    2 cycles

 The electronic state is 1-A.
 Alpha  occ. eigenvalues --  -93.54133 -20.61636 -11.32771 -11.27471 -11.26490
 Alpha  occ. eigenvalues --  -11.26284 -11.25446 -11.24851  -8.83812  -6.18014
 Alpha  occ. eigenvalues --   -6.17802  -6.17467  -1.37999  -1.15579  -1.03961
 Alpha  occ. eigenvalues --   -1.02800  -0.93523  -0.86296  -0.82072  -0.75662
 Alpha  occ. eigenvalues --   -0.69131  -0.65490  -0.62427  -0.61746  -0.60689
 Alpha  occ. eigenvalues --   -0.59327  -0.55339  -0.51115  -0.50243  -0.46360
 Alpha  occ. eigenvalues --   -0.36769  -0.35748  -0.32955
 Alpha virt. eigenvalues --    0.02908   0.04130   0.04388   0.05617   0.06268
 Alpha virt. eigenvalues --    0.07079   0.08725   0.09293   0.10356   0.10959
 Alpha virt. eigenvalues --    0.12115   0.12517   0.13057   0.13288   0.13829

 Mulliken charges:
               1
     1  C    0.221966
     2  C    0.662059
     3  C    0.110995
     4  C    0.776013
     5  C    0.229992
     6  C    0.064680
     7  H   -0.485212
     8  H   -0.448262
     9  S    0.226555
    10  H    0.072919
    11  H   -0.567642
    12  H   -0.433117
    13  O   -0.563113
    14  H    0.132168
 Sum of Mulliken charges =  -0.00000

 Dipole moment (field-independent basis, Debye):
    X=             -1.3648    Y=             -1.3752    Z=              0.7912  Tot=              2.0929

 Test job not archived.
 1\1\GINC-SE424\SP\RHF\Aug-CC-pVDZ\C6H6O1S1\OHZDE\08-Apr-2025\0\\#t hf
 aug-cc-pvdz iop(5/13=1,5/36=2,99/5=2) pseudo=read geom=check guess=(re
 ad,tcheck) scf=(maxcycle=1)\\title\\0,1\C,0,-1.842537,0.015792,0.00505
 1\C,0,-1.148576,-1.196119,-0.000573\C,0,0.243288,-1.201046,-0.008411\C
 ,0,-1.135331,1.220797,-0.001895\C,0,0.252849,1.207525,-0.012196\C,0,0.
 956849,-0.001653,-0.004887\H,0,-1.688369,2.152051,-0.004415\H,0,0.8000
 34,2.142114,-0.026739\S,0,2.753837,-0.013731,-0.073656\H,0,2.984538,0.
 038943,1.251914\H,0,-1.693703,-2.135601,-0.001378\H,0,0.779001,-2.1422

 Normal termination of Gaussian 16 at Tue Apr  8 23:13:28 2025.
