 Gaussian 16, Revision C.01,

 ----------------------------------------------------------------------
 #t hf aug-cc-pvdz symm=none int=(grid=ultrafine) guess=(read,tcheck) s
 table=(opt,rrhf)
 ----------------------------------------------------------------------
 -----
 title
 -----
 Symbolic Z-matrix:
 Charge =  0 Multiplicity = 1

 SCF Done:  E(RHF) =  -392.973616686     A.U. after   13 cycles
 Normal termination of Gaussian 16 at Tue Apr  8 23:26:57 2025.
 Gaussian 16:  ES64L-G16RevC.01  3-Jul-2019

 ----------------------------------------------------------------------
 #t hf aug-cc-pvdz iop(5/13=1,5/36=2,99/5=2) pseudo=read geom=check gue
 ss=(read,tcheck) scf=(maxcycle=1)
 ----------------------------------------------------------------------
 -----
 title
 -----
 Structure from the checkpoint file:  "BDE49_nonexpt_132_mol1.chk"
 Charge =  0 Multiplicity = 1

                         Standard orientation:
 ---------------------------------------------------------------------
 Center     Atomic      Atomic             Coordinates (Angstroms)
 Number     Number       Type             X           Y           Z
 ---------------------------------------------------------------------
      1          5           0       -2.034244   -0.240713    0.014884
      2          5           0       -0.642477    0.616286    0.004301
      3         15           0        1.090695   -0.128466   -0.105377
      4          1           0        1.013957   -1.302198    0.676134
      5          1           0        1.817096    0.677661    0.797380
      6          1           0       -0.657872    1.810810   -0.059581
      7          1           0       -2.524088   -0.713000   -0.968043
      8          1           0       -2.625915   -0.424145    1.038836
 ---------------------------------------------------------------------

 SCF Done:  E(RHF) =  -393.009869729     A.U. after    2 cycles

 The electronic state is 1-A.
 Alpha  occ. eigenvalues --  -81.24797  -7.75468  -7.61346  -7.60868  -4.89486
 Alpha  occ. eigenvalues --   -4.89441  -4.89166  -0.81803  -0.71447  -0.61479
 Alpha  occ. eigenvalues --   -0.53668  -0.49834  -0.46642  -0.43907  -0.35054
 Alpha virt. eigenvalues --    0.03259   0.04051   0.04420   0.05131   0.06029
 Alpha virt. eigenvalues --    0.06407   0.07166   0.07826   0.08531   0.09902
 Alpha virt. eigenvalues --    0.10676   0.11291   0.12251   0.13432   0.14790

 Mulliken charges:
               1
     1  B   -0.390818
     2  B   -0.072285
     3  P   -0.452715
     4  H    0.149317
     5  H    0.112191
     6  H    0.207348
     7  H    0.221943
     8  H    0.225019
 Sum of Mulliken charges =  -0.00000

 Dipole moment (field-independent basis, Debye):
    X=             -0.1170    Y=              0.1158    Z=              0.6245  Tot=              0.6459

 Test job not archived.
 1\1\GINC-SE174\SP\RHF\Aug-CC-pVDZ\B2H5P1\OHZDE\08-Apr-2025\0\\#t hf au
 g-cc-pvdz iop(5/13=1,5/36=2,99/5=2) pseudo=read geom=check guess=(read
 ,tcheck) scf=(maxcycle=1)\\title\\0,1\B,0,-2.034244,-0.240713,0.014884
 \B,0,-0.642477,0.616286,0.004301\P,0,1.090695,-0.128466,-0.105377\H,0,
 1.013957,-1.302198,0.676134\H,0,1.817096,0.677661,0.79738\H,0,-0.65787
 2,1.81081,-0.059581\H,0,-2.524088,-0.713,-0.968043\H,0,-2.625915,-0.42
 4145,1.038836\\Version=ES64L-G16RevC.01\State=1-A\HF=-393.0098697\RMSD
 =1.101e-02\Dipole=-0.0460254,0.0455775,0.2457063\Quadrupole=-0.7034091

 Normal termination of Gaussian 16 at Tue Apr  8 23:26:59 2025.
