 Gaussian 16, Revision C.01,

 ----------------------------------------------------------------------
 #t hf aug-cc-pvdz symm=none int=(grid=ultrafine) guess=(read,tcheck) s
 table=(opt,rrhf)
 ----------------------------------------------------------------------
 -----
 title
 -----
 Symbolic Z-matrix:
 Charge =  0 Multiplicity = 1

 SCF Done:  E(RHF) =  -574.411645678     A.U. after   13 cycles
 Normal termination of Gaussian 16 at Wed Apr  9 00:20:36 2025.
 Gaussian 16:  ES64L-G16RevC.01  3-Jul-2019

 ----------------------------------------------------------------------
 #t hf aug-cc-pvdz iop(5/13=1,5/36=2,99/5=2) pseudo=read geom=check gue
 ss=(read,tcheck) scf=(maxcycle=1)
 ----------------------------------------------------------------------
 -----
 title
 -----
 Structure from the checkpoint file:  "BDE49_nonexpt_2652_mol1.chk"
 Charge =  0 Multiplicity = 1

                         Standard orientation:
 ---------------------------------------------------------------------
 Center     Atomic      Atomic             Coordinates (Angstroms)
 Number     Number       Type             X           Y           Z
 ---------------------------------------------------------------------
      1          9           0        1.083707    1.047724   -0.000001
      2         16           0        0.768954   -0.584271    0.000000
      3          6           0       -0.974822   -0.563549    0.000000
      4          6           0       -1.772517    0.500680    0.000000
      5          1           0       -1.349095   -1.585910    0.000001
      6          1           0       -1.375956    1.506947   -0.000001
      7          1           0       -2.847544    0.374994    0.000000
 ---------------------------------------------------------------------

 SCF Done:  E(RHF) =  -574.496488630     A.U. after    2 cycles

 The electronic state is 1-A.
 Alpha  occ. eigenvalues --  -93.63357 -26.13780 -11.29743 -11.25670  -8.92278
 Alpha  occ. eigenvalues --   -6.26492  -6.26096  -6.25654  -1.65016  -1.09435
 Alpha  occ. eigenvalues --   -0.96563  -0.81038  -0.74887  -0.74190  -0.68846
 Alpha  occ. eigenvalues --   -0.64886  -0.57729  -0.50102  -0.47407  -0.34422
 Alpha virt. eigenvalues --    0.03432   0.04409   0.05806   0.07093   0.08270
 Alpha virt. eigenvalues --    0.09266   0.12237   0.12376   0.14253   0.14985
 Alpha virt. eigenvalues --    0.15526   0.16740   0.17739   0.18712   0.19476

 Mulliken charges:
               1
     1  F   -0.629880
     2  S    0.808587
     3  C    0.058089
     4  C    0.597531
     5  H   -0.367774
     6  H   -0.233254
     7  H   -0.233298
 Sum of Mulliken charges =   0.00000

 Dipole moment (field-independent basis, Debye):
    X=             -1.7222    Y=             -1.6989    Z=              0.0000  Tot=              2.4191

 Test job not archived.
 1\1\GINC-SE105\SP\RHF\Aug-CC-pVDZ\C2H3F1S1\OHZDE\09-Apr-2025\0\\#t hf
 aug-cc-pvdz iop(5/13=1,5/36=2,99/5=2) pseudo=read geom=check guess=(re
 ad,tcheck) scf=(maxcycle=1)\\title\\0,1\F,0,1.083707,1.047723,-0.00000
 1\S,0,0.768954,-0.584271,0.\C,0,-0.974822,-0.563549,0.\C,0,-1.772517,0
 .500681,0.\H,0,-1.349096,-1.58591,0.000001\H,0,-1.375955,1.506947,-0.0
 00001\H,0,-2.847544,0.374995,0.\\Version=ES64L-G16RevC.01\State=1-A\HF
 =-574.4964886\RMSD=6.565e-03\Dipole=-0.6775513,-0.6684079,0.0000005\Qu
 adrupole=1.1552373,1.2884544,-2.4436917,-0.6180152,0.0000002,-0.000002

 Normal termination of Gaussian 16 at Wed Apr  9 00:20:38 2025.
