 Gaussian 16, Revision C.01,

 ----------------------------------------------------------------------
 #t hf aug-cc-pvdz symm=none int=(grid=ultrafine) guess=(read,tcheck) s
 table=(opt,rrhf)
 ----------------------------------------------------------------------
 -----
 title
 -----
 Symbolic Z-matrix:
 Charge =  0 Multiplicity = 1

 SCF Done:  E(RHF) =  -476.764635918     A.U. after   11 cycles
 Normal termination of Gaussian 16 at Tue Apr  8 22:44:27 2025.
 Gaussian 16:  ES64L-G16RevC.01  3-Jul-2019

 ----------------------------------------------------------------------
 #t hf aug-cc-pvdz iop(5/13=1,5/36=2,99/5=2) pseudo=read geom=check gue
 ss=(read,tcheck) scf=(maxcycle=1)
 ----------------------------------------------------------------------
 -----
 title
 -----
 Structure from the checkpoint file:  "BDE49_expt_1561_mol1.chk"
 Charge =  0 Multiplicity = 1

                         Standard orientation:
 ---------------------------------------------------------------------
 Center     Atomic      Atomic             Coordinates (Angstroms)
 Number     Number       Type             X           Y           Z
 ---------------------------------------------------------------------
      1         16           0        0.000000   -0.000000    0.659581
      2          6           0        0.000000    1.392501   -0.513148
      3          1           0        0.894060    1.379644   -1.139757
      4          1           0        0.000000    2.306797    0.081752
      5          1           0       -0.894060    1.379644   -1.139757
      6          6           0       -0.000000   -1.392501   -0.513148
      7          1           0       -0.000000   -2.306797    0.081752
      8          1           0        0.894060   -1.379644   -1.139757
      9          1           0       -0.894060   -1.379644   -1.139757
 ---------------------------------------------------------------------

 SCF Done:  E(RHF) =  -476.814030016     A.U. after    2 cycles

 The electronic state is 1-A1.
 Alpha  occ. eigenvalues --  -93.52463 -11.26267 -11.26251  -8.82183  -6.16315
 Alpha  occ. eigenvalues --   -6.16101  -6.15765  -1.04598  -0.94755  -0.80054
 Alpha  occ. eigenvalues --   -0.60436  -0.60299  -0.57930  -0.56827  -0.49291
 Alpha  occ. eigenvalues --   -0.43126  -0.33456
 Alpha virt. eigenvalues --    0.03560   0.04613   0.05553   0.05922   0.07431
 Alpha virt. eigenvalues --    0.07862   0.08986   0.13244   0.14114   0.15318
 Alpha virt. eigenvalues --    0.15356   0.16442   0.17199   0.17229   0.17491

 Mulliken charges:
               1
     1  S    0.321967
     2  C    0.076895
     3  H   -0.069024
     4  H   -0.099832
     5  H   -0.069024
     6  C    0.076895
     7  H   -0.099832
     8  H   -0.069024
     9  H   -0.069024
 Sum of Mulliken charges =  -0.00000

 Dipole moment (field-independent basis, Debye):
    X=              0.0000    Y=              0.0000    Z=             -1.7711  Tot=              1.7711

 Test job not archived.
 1\1\GINC-SE071\SP\RHF\Aug-CC-pVDZ\C2H6S1\OHZDE\08-Apr-2025\0\\#t hf au
 g-cc-pvdz iop(5/13=1,5/36=2,99/5=2) pseudo=read geom=check guess=(read
 ,tcheck) scf=(maxcycle=1)\\title\\0,1\S,0,0.,0.,0.659581\C,0,0.,1.3925
 01,-0.513148\H,0,0.89406,1.379644,-1.139757\H,0,0.,2.306797,0.081752\H
 ,0,-0.89406,1.379644,-1.139757\C,0,0.,-1.392501,-0.513148\H,0,0.,-2.30
 6797,0.081752\H,0,0.89406,-1.379644,-1.139757\H,0,-0.89406,-1.379644,-
 1.139757\\Version=ES64L-G16RevC.01\State=1-A1\HF=-476.81403\RMSD=4.102
 e-03\Dipole=0.,0.,-0.6967999\Quadrupole=-1.301668,2.3982484,-1.0965804

 Normal termination of Gaussian 16 at Tue Apr  8 22:44:29 2025.
