 Gaussian 16, Revision C.01,

 ----------------------------------------------------------------------
 #t hf aug-cc-pvdz symm=none int=(grid=ultrafine) guess=(read,tcheck) s
 table=(opt,rrhf)
 ----------------------------------------------------------------------
 -----
 title
 -----
 Symbolic Z-matrix:
 Charge =  0 Multiplicity = 1

 SCF Done:  E(RHF) =  -412.479813544     A.U. after   12 cycles
 Normal termination of Gaussian 16 at Tue Apr  8 22:28:17 2025.
 Gaussian 16:  ES64L-G16RevC.01  3-Jul-2019

 ----------------------------------------------------------------------
 #t hf aug-cc-pvdz iop(5/13=1,5/36=2,99/5=2) pseudo=read geom=check gue
 ss=(read,tcheck) scf=(maxcycle=1)
 ----------------------------------------------------------------------
 -----
 title
 -----
 Structure from the checkpoint file:  "BDE49_expt_1021_mol1.chk"
 Charge =  0 Multiplicity = 1

                         Standard orientation:
 ---------------------------------------------------------------------
 Center     Atomic      Atomic             Coordinates (Angstroms)
 Number     Number       Type             X           Y           Z
 ---------------------------------------------------------------------
      1          6           0       -0.330927    0.000000   -0.000018
      2          9           0       -0.820081   -1.082414   -0.633921
      3          9           0       -0.820076    1.090236   -0.620375
      4          9           0       -0.819925   -0.007820    1.254388
      5          6           0        1.129440   -0.000003   -0.000078
      6          6           0        2.326580   -0.000000   -0.000040
      7          1           0        3.390189   -0.000002   -0.000002
 ---------------------------------------------------------------------

 SCF Done:  E(RHF) =  -412.627989093     A.U. after    2 cycles

 The electronic state is 1-A.
 Alpha  occ. eigenvalues --  -26.17773 -26.17773 -26.17758 -11.56437 -11.29976
 Alpha  occ. eigenvalues --  -11.28977  -1.77414  -1.70243  -1.70243  -1.11146
 Alpha  occ. eigenvalues --   -1.03071  -0.91291  -0.89243  -0.89243  -0.78349
 Alpha  occ. eigenvalues --   -0.78349  -0.76467  -0.73895  -0.73895  -0.72751
 Alpha  occ. eigenvalues --   -0.68152  -0.45715  -0.45715
 Alpha virt. eigenvalues --    0.02928   0.07536   0.08812   0.08812   0.09305
 Alpha virt. eigenvalues --    0.10050   0.10050   0.14360   0.15696   0.16230
 Alpha virt. eigenvalues --    0.16230   0.18516   0.18516   0.24025   0.24025

 Mulliken charges:
               1
     1  C    0.854136
     2  F   -0.294973
     3  F   -0.294973
     4  F   -0.294967
     5  C   -0.407936
     6  C    0.878482
     7  H   -0.439768
 Sum of Mulliken charges =  -0.00000

 Dipole moment (field-independent basis, Debye):
    X=              2.9888    Y=              0.0000    Z=             -0.0001  Tot=              2.9888

 Test job not archived.
 1\1\GINC-SE365\SP\RHF\Aug-CC-pVDZ\C3H1F3\OHZDE\08-Apr-2025\0\\#t hf au
 g-cc-pvdz iop(5/13=1,5/36=2,99/5=2) pseudo=read geom=check guess=(read
 ,tcheck) scf=(maxcycle=1)\\title\\0,1\C,0,-0.330927,0.,0.000018\F,0,-0
 .820081,1.086159,0.627483\F,0,-0.820076,-1.086533,0.626838\F,0,-0.8199
 25,0.000372,-1.254412\C,0,1.12944,0.000003,0.000078\C,0,2.32658,0.,0.0
 0004\H,0,3.390189,0.000001,0.000002\\Version=ES64L-G16RevC.01\State=1-
 A\HF=-412.6279891\RMSD=1.030e-02\Dipole=1.1758649,-0.0000005,0.0000382
 \Quadrupole=5.2676363,-2.633838,-2.6337983,0.0000029,-0.000084,-0.0000

 Normal termination of Gaussian 16 at Tue Apr  8 22:28:19 2025.
