 Gaussian 16, Revision C.01,

 ----------------------------------------------------------------------
 #t hf aug-cc-pvdz symm=none int=(grid=ultrafine) guess=(read,tcheck) s
 table=(opt,rrhf)
 ----------------------------------------------------------------------
 -----
 title
 -----
 Symbolic Z-matrix:
 Charge =  0 Multiplicity = 1

 SCF Done:  E(RHF) =  -558.082672038     A.U. after   14 cycles
 Normal termination of Gaussian 16 at Wed Apr  9 00:06:58 2025.
 Gaussian 16:  ES64L-G16RevC.01  3-Jul-2019

 ----------------------------------------------------------------------
 #t hf aug-cc-pvdz iop(5/13=1,5/36=2,99/5=2) pseudo=read geom=check gue
 ss=(read,tcheck) scf=(maxcycle=1)
 ----------------------------------------------------------------------
 -----
 title
 -----
 Structure from the checkpoint file:  "BDE49_nonexpt_2291_mol1.chk"
 Charge =  0 Multiplicity = 1

                         Standard orientation:
 ---------------------------------------------------------------------
 Center     Atomic      Atomic             Coordinates (Angstroms)
 Number     Number       Type             X           Y           Z
 ---------------------------------------------------------------------
      1         14           0       -0.357980    0.005956    0.039975
      2          8           0        0.965036   -0.182961   -1.011567
      3          8           0        2.189656    0.057772   -0.238360
      4          1           0        2.683298   -0.739101   -0.472172
      5          6           0       -1.800218   -0.256597   -1.123285
      6          1           0       -1.795772    0.482214   -1.928889
      7          1           0       -2.747001   -0.159179   -0.582328
      8          1           0       -1.772809   -1.251510   -1.575471
      9          6           0       -0.296491   -1.296978    1.384618
     10          1           0       -0.311742   -2.305097    0.960256
     11          1           0       -1.154386   -1.204609    2.058381
     12          1           0        0.611123   -1.194205    1.985201
     13          6           0       -0.351560    1.725927    0.773990
     14          1           0       -0.405105    2.486249   -0.010070
     15          1           0        0.561607    1.899616    1.348885
     16          1           0       -1.205412    1.869635    1.444036
 ---------------------------------------------------------------------

 SCF Done:  E(RHF) =  -558.203092176     A.U. after    2 cycles

 The electronic state is 1-A.
 Alpha  occ. eigenvalues --  -69.07682 -20.63817 -20.61088 -11.21193 -11.21169
 Alpha  occ. eigenvalues --  -11.20877  -6.82533  -3.93460  -3.93305  -3.93263
 Alpha  occ. eigenvalues --   -1.39888  -1.16743  -0.95991  -0.92378  -0.92178
 Alpha  occ. eigenvalues --   -0.72267  -0.69298  -0.62990  -0.58892  -0.57034
 Alpha  occ. eigenvalues --   -0.56446  -0.55198  -0.54560  -0.54409  -0.53490
 Alpha  occ. eigenvalues --   -0.51469  -0.48370  -0.43686  -0.42756
 Alpha virt. eigenvalues --    0.02953   0.04394   0.04954   0.05057   0.06473
 Alpha virt. eigenvalues --    0.06736   0.06950   0.07485   0.07656   0.09315
 Alpha virt. eigenvalues --    0.09782   0.10490   0.12330   0.13143   0.14697

 Mulliken charges:
               1
     1  Si   2.256772
     2  O   -0.819899
     3  O   -0.324757
     4  H    0.235131
     5  C    0.388545
     6  H   -0.266846
     7  H   -0.275361
     8  H   -0.276724
     9  C    0.371114
    10  H   -0.332485
    11  H   -0.228324
    12  H   -0.293151
    13  C    0.399038
    14  H   -0.323184
    15  H   -0.279868
    16  H   -0.230001
 Sum of Mulliken charges =  -0.00000

 Dipole moment (field-independent basis, Debye):
    X=             -0.5954    Y=             -1.1124    Z=              0.8892  Tot=              1.5435

 Test job not archived.
 1\1\GINC-SE071\SP\RHF\Aug-CC-pVDZ\C3H10O2Si1\OHZDE\09-Apr-2025\0\\#t h
 f aug-cc-pvdz iop(5/13=1,5/36=2,99/5=2) pseudo=read geom=check guess=(
 read,tcheck) scf=(maxcycle=1)\\title\\0,1\Si,0,-0.35798,0.005956,0.039
 975\O,0,0.965036,-0.182961,-1.011567\O,0,2.189656,0.057772,-0.23836\H,
 0,2.683298,-0.739101,-0.472172\C,0,-1.800218,-0.256597,-1.123285\H,0,-
 1.795772,0.482214,-1.928889\H,0,-2.747001,-0.159179,-0.582328\H,0,-1.7
 72809,-1.25151,-1.575471\C,0,-0.296491,-1.296978,1.384618\H,0,-0.31174
 2,-2.305097,0.960256\H,0,-1.154386,-1.204609,2.058381\H,0,0.611123,-1.

 Normal termination of Gaussian 16 at Wed Apr  9 00:07:04 2025.
