 Gaussian 16, Revision C.01,

 ----------------------------------------------------------------------
 #t hf aug-cc-pvdz symm=none int=(grid=ultrafine) guess=(read,tcheck) s
 table=opt
 ----------------------------------------------------------------------
 -----
 title
 -----
 Symbolic Z-matrix:
 Charge =  0 Multiplicity = 2

 SCF Done:  E(UHF) =  -156.691448942     A.U. after   14 cycles
 Normal termination of Gaussian 16 at Tue Apr  8 22:31:50 2025.
 Gaussian 16:  ES64L-G16RevC.01  3-Jul-2019

 ----------------------------------------------------------------------
 #t hf aug-cc-pvdz iop(5/13=1,5/36=2,99/5=2) pseudo=read geom=check gue
 ss=(read,tcheck) scf=(maxcycle=1)
 ----------------------------------------------------------------------
 -----
 title
 -----
 Structure from the checkpoint file:  "BDE49_expt_1093_mol2.chk"
 Charge =  0 Multiplicity = 2

                         Standard orientation:
 ---------------------------------------------------------------------
 Center     Atomic      Atomic             Coordinates (Angstroms)
 Number     Number       Type             X           Y           Z
 ---------------------------------------------------------------------
      1          6           0        0.000009   -0.000016   -0.149845
      2          6           0       -0.501854    1.398890    0.014856
      3          1           0       -1.491182    1.530876   -0.434888
      4          1           0        0.178091    2.129717   -0.434610
      5          1           0       -0.602231    1.678115    1.079395
      6          6           0       -0.960557   -1.134059    0.015002
      7          1           0       -1.933456   -0.910630   -0.434446
      8          1           0       -1.152158   -1.360473    1.079572
      9          1           0       -0.580244   -2.056884   -0.434681
     10          6           0        1.462413   -0.264826    0.014911
     11          1           0        2.071388    0.525930   -0.434880
     12          1           0        1.755356   -1.219128   -0.434471
     13          1           0        1.754368   -0.317454    1.079465
 ---------------------------------------------------------------------

 SCF Done:  E(UHF) =  -156.742892090     A.U. after    2 cycles

 The electronic state is 2-A.
 Alpha  occ. eigenvalues --  -11.23414 -11.22246 -11.22246 -11.22236  -1.07947
 Alpha  occ. eigenvalues --   -0.93115  -0.93115  -0.74496  -0.62097  -0.60363
 Alpha  occ. eigenvalues --   -0.60363  -0.53743  -0.53742  -0.51582  -0.48642
 Alpha  occ. eigenvalues --   -0.48642  -0.31184
 Alpha virt. eigenvalues --    0.03540   0.04854   0.04854   0.05547   0.07070
 Alpha virt. eigenvalues --    0.07070   0.07764   0.07764   0.09654   0.10739
 Alpha virt. eigenvalues --    0.14876   0.14876   0.15587   0.16000   0.16000

  Beta  occ. eigenvalues --  -11.22569 -11.22569 -11.22564 -11.20843  -1.04066
  Beta  occ. eigenvalues --   -0.93100  -0.93100  -0.69987  -0.59704  -0.59704
  Beta  occ. eigenvalues --   -0.57327  -0.52739  -0.52739  -0.51469  -0.47938
  Beta  occ. eigenvalues --   -0.47937
  Beta virt. eigenvalues --    0.03531   0.04868   0.04868   0.05422   0.07082
  Beta virt. eigenvalues --    0.07082   0.07773   0.07773   0.09653   0.10564
  Beta virt. eigenvalues --    0.13675   0.14942   0.14942   0.15684   0.16031

 Mulliken charges and spin densities:
               1          2
     1  C   -0.910922   1.534323
     2  C    0.421155  -0.245967
     3  H   -0.084504   0.007586
     4  H   -0.084623   0.007572
     5  H    0.051587   0.052700
     6  C    0.421159  -0.245966
     7  H   -0.084604   0.007574
     8  H    0.051597   0.052700
     9  H   -0.084503   0.007585
    10  C    0.421151  -0.245968
    11  H   -0.084488   0.007585
    12  H   -0.084609   0.007574
    13  H    0.051604   0.052703
 Sum of Mulliken charges =  -0.00000   1.00000

 Dipole moment (field-independent basis, Debye):
    X=              0.0000    Y=              0.0000    Z=              0.1664  Tot=              0.1664
                          Isotropic Fermi Contact Couplings
        Atom                 a.u.       MegaHertz       Gauss      10(-4) cm-1
     1  C(13)              0.26159     294.07664     104.93386      98.09341
     2  C(13)             -0.06009     -67.55792     -24.10635     -22.53490
     3  H(1)               0.00664      29.65773      10.58261       9.89275
     4  H(1)               0.00663      29.62580      10.57122       9.88210
     5  H(1)               0.02486     111.13443      39.65553      37.07046
     6  C(13)             -0.06009     -67.55732     -24.10613     -22.53470
     7  H(1)               0.00663      29.63019      10.57279       9.88357
     8  H(1)               0.02486     111.13476      39.65565      37.07057

 Normal termination of Gaussian 16 at Tue Apr  8 22:31:53 2025.
