 Gaussian 16, Revision C.01,

 ----------------------------------------------------------------------
 #t hf aug-cc-pvdz symm=none int=(grid=ultrafine) guess=(read,tcheck) s
 table=(opt,rrhf)
 ----------------------------------------------------------------------
 -----
 title
 -----
 Symbolic Z-matrix:
 Charge =  0 Multiplicity = 1

 SCF Done:  E(RHF) =  -731.359471730     A.U. after   12 cycles
 Normal termination of Gaussian 16 at Wed Apr  9 00:18:59 2025.
 Gaussian 16:  ES64L-G16RevC.01  3-Jul-2019

 ----------------------------------------------------------------------
 #t hf aug-cc-pvdz iop(5/13=1,5/36=2,99/5=2) pseudo=read geom=check gue
 ss=(read,tcheck) scf=(maxcycle=1)
 ----------------------------------------------------------------------
 -----
 title
 -----
 Structure from the checkpoint file:  "BDE49_nonexpt_260_mol1.chk"
 Charge =  0 Multiplicity = 1

                         Standard orientation:
 ---------------------------------------------------------------------
 Center     Atomic      Atomic             Coordinates (Angstroms)
 Number     Number       Type             X           Y           Z
 ---------------------------------------------------------------------
      1         17           0        2.394170    0.003225    0.067491
      2          8           0       -0.015449   -1.226566   -0.039862
      3          7           0       -0.101985    1.196405   -0.109383
      4          6           0       -2.128136   -0.058336    0.414135
      5          6           0       -1.563851    1.251905   -0.141388
      6          6           0       -1.439941   -1.263932   -0.220787
      7          5           0        0.600096   -0.014042   -0.037849
      8          1           0       -1.787049   -2.195406    0.229380
      9          1           0       -1.650746   -1.307659   -1.295777
     10          1           0       -3.205037   -0.113414    0.230168
     11          1           0       -1.975131   -0.090963    1.497649
     12          1           0        0.388441    2.075341   -0.143013
     13          1           0       -1.916760    2.093774    0.461935
     14          1           0       -1.926031    1.413583   -1.165636
 ---------------------------------------------------------------------

 SCF Done:  E(RHF) =  -731.464613352     A.U. after    2 cycles

 The electronic state is 1-A.
 Alpha  occ. eigenvalues -- -103.63299 -20.57863 -15.62240 -11.30437 -11.28562
 Alpha  occ. eigenvalues --  -11.25196 -10.66741  -8.32440  -8.32229  -8.32222
 Alpha  occ. eigenvalues --   -7.68486  -1.34054  -1.17465  -1.12306  -1.04005
 Alpha  occ. eigenvalues --   -0.92467  -0.83913  -0.73823  -0.70100  -0.65789
 Alpha  occ. eigenvalues --   -0.63995  -0.62239  -0.60802  -0.56290  -0.55560
 Alpha  occ. eigenvalues --   -0.51480  -0.49039  -0.47747  -0.45624  -0.45401
 Alpha  occ. eigenvalues --   -0.39645
 Alpha virt. eigenvalues --    0.02761   0.03984   0.04220   0.04804   0.06533
 Alpha virt. eigenvalues --    0.06698   0.06904   0.07463   0.07651   0.09378
 Alpha virt. eigenvalues --    0.11553   0.12816   0.13525   0.14184   0.14456

 Mulliken charges:
               1
     1  Cl  -0.447063
     2  O   -0.481584
     3  N   -0.250180
     4  C   -0.037747
     5  C    0.749276
     6  C    0.883652
     7  B    0.449848
     8  H   -0.186260
     9  H   -0.146798
    10  H   -0.043845
    11  H   -0.081409
    12  H   -0.120907
    13  H   -0.157857
    14  H   -0.129124
 Sum of Mulliken charges =  -0.00000

 Dipole moment (field-independent basis, Debye):
    X=             -4.2107    Y=              1.7445    Z=             -0.2631  Tot=              4.5653

 Test job not archived.
 1\1\GINC-SE253\SP\RHF\Aug-CC-pVDZ\C3H7B1Cl1N1O1\OHZDE\09-Apr-2025\0\\#
 t hf aug-cc-pvdz iop(5/13=1,5/36=2,99/5=2) pseudo=read geom=check gues
 s=(read,tcheck) scf=(maxcycle=1)\\title\\0,1\Cl,0,2.39417,0.003225,0.0
 67491\O,0,-0.015449,-1.226566,-0.039862\N,0,-0.101985,1.196405,-0.1093
 83\C,0,-2.128136,-0.058336,0.414135\C,0,-1.563851,1.251905,-0.141388\C
 ,0,-1.439941,-1.263932,-0.220787\B,0,0.600096,-0.014042,-0.037849\H,0,
 -1.787049,-2.195406,0.22938\H,0,-1.650746,-1.307659,-1.295777\H,0,-3.2
 05037,-0.113414,0.230168\H,0,-1.975131,-0.090963,1.497649\H,0,0.388441

 Normal termination of Gaussian 16 at Wed Apr  9 00:19:04 2025.
