 Gaussian 16, Revision C.01,

 ----------------------------------------------------------------------
 #t hf aug-cc-pvdz symm=none int=(grid=ultrafine) guess=(read,tcheck) s
 table=(opt,rrhf)
 ----------------------------------------------------------------------
 -----
 title
 -----
 Symbolic Z-matrix:
 Charge =  0 Multiplicity = 1

 SCF Done:  E(RHF) =  -609.649661306     A.U. after   15 cycles

 1\1\GINC-SE070\Stability\RHF\Aug-CC-pVDZ\Cl1H1O2\OHZDE\08-Apr-2025\0\\
 #t hf aug-cc-pvdz symm=none int=(grid=ultrafine) guess=(read,tcheck) s
 table=(opt,rrhf)\\title\\0,1\O,0,-1.539502,-0.31872,-0.123923\O,0,-0.5
 42198,0.646129,0.031523\H,0,-1.693656,-0.61456,0.788804\Cl,0,1.079251,
 -0.117924,-0.002918\\Version=ES64L-G16RevC.01\HF=-609.6496613\RMSD=6.6
 81e-09\Dipole=-0.1419494,-0.3844984,0.6110589\Quadrupole=1.1023211,-0.
 8537583,-0.2485628,0.7179839,-2.2824827,-0.9018216\PG=Unknown\\@
 The archive entry for this job was punched.

 Normal termination of Gaussian 16 at Tue Apr  8 22:52:31 2025.
 Gaussian 16:  ES64L-G16RevC.01  3-Jul-2019

 ----------------------------------------------------------------------
 #t hf aug-cc-pvdz iop(5/13=1,5/36=2,99/5=2) pseudo=read geom=check gue
 ss=(read,tcheck) scf=(maxcycle=1)
 ----------------------------------------------------------------------
 -----
 title
 -----
 Structure from the checkpoint file:  "BDE49_expt_1842_mol1.chk"
 Charge =  0 Multiplicity = 1

                         Standard orientation:
 ---------------------------------------------------------------------
 Center     Atomic      Atomic             Coordinates (Angstroms)
 Number     Number       Type             X           Y           Z
 ---------------------------------------------------------------------
      1          8           0       -1.539502   -0.318720   -0.123923
      2          8           0       -0.542198    0.646129    0.031523
      3          1           0       -1.693656   -0.614560    0.788804
      4         17           0        1.079251   -0.117924   -0.002918
 ---------------------------------------------------------------------

 SCF Done:  E(RHF) =  -609.716683456     A.U. after    2 cycles

 The electronic state is 1-A.
 Alpha  occ. eigenvalues -- -103.72604 -20.72983 -20.68327 -10.75301  -8.41034
 Alpha  occ. eigenvalues --   -8.40628  -8.40605  -1.48676  -1.24455  -1.09108
 Alpha  occ. eigenvalues --   -0.78495  -0.70228  -0.69090  -0.59041  -0.52475
 Alpha  occ. eigenvalues --   -0.49984  -0.47992
 Alpha virt. eigenvalues --    0.02317   0.03624   0.11578   0.13343   0.13476
 Alpha virt. eigenvalues --    0.15723   0.17300   0.18884   0.21419   0.23131
 Alpha virt. eigenvalues --    0.24952   0.26846   0.28742   0.31899   0.37509

 Mulliken charges:
               1
     1  O   -0.191322
     2  O   -0.333893
     3  H    0.225399
     4  Cl   0.299817
 Sum of Mulliken charges =  -0.00000

 Dipole moment (field-independent basis, Debye):
    X=             -0.2255    Y=             -1.0663    Z=              1.6130  Tot=              1.9467

 Test job not archived.
 1\1\GINC-SE070\SP\RHF\Aug-CC-pVDZ\Cl1H1O2\OHZDE\08-Apr-2025\0\\#t hf a
 ug-cc-pvdz iop(5/13=1,5/36=2,99/5=2) pseudo=read geom=check guess=(rea
 d,tcheck) scf=(maxcycle=1)\\title\\0,1\O,0,-1.539502,-0.31872,-0.12392
 3\O,0,-0.542198,0.646129,0.031523\H,0,-1.693656,-0.61456,0.788804\Cl,0
 ,1.079251,-0.117924,-0.002918\\Version=ES64L-G16RevC.01\State=1-A\HF=-
 609.7166835\RMSD=2.914e-03\Dipole=-0.0887009,-0.4194961,0.6346086\Quad
 rupole=1.1822202,-0.9106983,-0.2715219,0.7228219,-2.3520801,-0.923172\
 PG=C01 [X(Cl1H1O2)]\\@

 Normal termination of Gaussian 16 at Tue Apr  8 22:52:33 2025.
