 Gaussian 16, Revision C.01,

 ----------------------------------------------------------------------
 #t hf aug-cc-pvdz symm=none int=(grid=ultrafine) guess=(read,tcheck) s
 table=(opt,rrhf)
 ----------------------------------------------------------------------
 -----
 title
 -----
 Symbolic Z-matrix:
 Charge =  0 Multiplicity = 1

 SCF Done:  E(RHF) =  -1229.11813620     A.U. after   16 cycles
 Normal termination of Gaussian 16 at Tue Apr  8 23:40:21 2025.
 Gaussian 16:  ES64L-G16RevC.01  3-Jul-2019

 ----------------------------------------------------------------------
 #t hf aug-cc-pvdz iop(5/13=1,5/36=2,99/5=2) pseudo=read geom=check gue
 ss=(read,tcheck) scf=(maxcycle=1)
 ----------------------------------------------------------------------
 -----
 title
 -----
 Structure from the checkpoint file:  "BDE49_nonexpt_1617_mol1.chk"
 Charge =  0 Multiplicity = 1

                         Standard orientation:
 ---------------------------------------------------------------------
 Center     Atomic      Atomic             Coordinates (Angstroms)
 Number     Number       Type             X           Y           Z
 ---------------------------------------------------------------------
      1         15           0        0.178552    0.145129   -0.877956
      2          7           0        0.100272    1.803930    0.018126
      3         15           0       -1.600410   -0.690326    0.195063
      4          6           0        1.528109   -0.664667    0.097625
      5          6           0        2.937787   -0.351432   -0.427978
      6          1           0        1.321943   -1.738916    0.003950
      7          1           0        1.416875   -0.413005    1.154460
      8          8           0        1.133375    2.273762    0.447908
      9          8           0       -0.989270    2.382425    0.042044
     10          8           0       -1.407765   -0.951774    1.627064
     11          8           0       -2.778439    0.266519   -0.272158
     12          6           0        4.018310   -1.104423    0.354003
     13          1           0        3.114591    0.724235   -0.358439
     14          1           0        2.998016   -0.614540   -1.489665
     15          1           0        3.998084   -0.834997    1.413727
     16          1           0        5.013086   -0.867420   -0.031201
     17          1           0        3.881301   -2.187714    0.281854
     18          1           0       -2.528034    1.201743   -0.141274
     19          8           0       -1.898885   -1.997449   -0.686030
     20          1           0       -1.967276   -2.783675   -0.129424
 ---------------------------------------------------------------------

 SCF Done:  E(RHF) =  -1229.37607284     A.U. after    2 cycles

 The electronic state is 1-A.
 Alpha  occ. eigenvalues --  -81.44343 -81.34536 -20.64786 -20.64018 -20.63755
 Alpha  occ. eigenvalues --  -20.62550 -20.54966 -15.92247 -11.28323 -11.26060
 Alpha  occ. eigenvalues --  -11.24393  -7.92678  -7.84644  -5.07303  -5.07226
 Alpha  occ. eigenvalues --   -5.06875  -4.98660  -4.98430  -4.98121  -1.56355
 Alpha  occ. eigenvalues --   -1.40016  -1.38515  -1.36408  -1.28108  -1.08637
 Alpha  occ. eigenvalues --   -0.99607  -0.94775  -0.87339  -0.84743  -0.82825
 Alpha  occ. eigenvalues --   -0.76529  -0.75602  -0.74063  -0.72521  -0.69383
 Alpha  occ. eigenvalues --   -0.67500  -0.66275  -0.63024  -0.61705  -0.60193
 Alpha  occ. eigenvalues --   -0.59577  -0.57696  -0.56873  -0.54152  -0.53233
 Alpha  occ. eigenvalues --   -0.51386  -0.50757  -0.50659  -0.49808  -0.48692
 Alpha  occ. eigenvalues --   -0.46293  -0.40148
 Alpha virt. eigenvalues --    0.02495   0.03606   0.04214   0.04922   0.05317
 Alpha virt. eigenvalues --    0.05845   0.06286   0.06810   0.07549   0.07958
 Alpha virt. eigenvalues --    0.08791   0.09539   0.10348   0.10586   0.11360

 Mulliken charges:
               1
     1  P    0.614917
     2  N    0.466370
     3  P    2.276482
     4  C   -0.065880
     5  C    0.157934
     6  H   -0.137986
     7  H   -0.153046
     8  O   -0.534170
     9  O   -0.672879
    10  O   -0.989809
    11  O   -0.776356
    12  C    0.543826
    13  H   -0.103042
    14  H   -0.112560
    15  H   -0.069433
    16  H   -0.064084
    17  H   -0.080987
    18  H    0.247534
    19  O   -0.673149
    20  H    0.126318
 Sum of Mulliken charges =  -0.00000

 Dipole moment (field-independent basis, Debye):
    X=              2.5408    Y=             -3.5266    Z=             -2.5844  Tot=              5.0568

 Test job not archived.
 1\1\GINC-SE069\SP\RHF\Aug-CC-pVDZ\C3H9N1O5P2\OHZDE\08-Apr-2025\0\\#t h
 f aug-cc-pvdz iop(5/13=1,5/36=2,99/5=2) pseudo=read geom=check guess=(
 read,tcheck) scf=(maxcycle=1)\\title\\0,1\P,0,0.178552,0.145129,-0.877
 956\N,0,0.100272,1.80393,0.018126\P,0,-1.60041,-0.690326,0.195063\C,0,
 1.528109,-0.664667,0.097625\C,0,2.937787,-0.351432,-0.427978\H,0,1.321
 943,-1.738916,0.00395\H,0,1.416875,-0.413005,1.15446\O,0,1.133375,2.27
 3762,0.447908\O,0,-0.98927,2.382425,0.042044\O,0,-1.407765,-0.951774,1
 .627064\O,0,-2.778439,0.266519,-0.272158\C,0,4.01831,-1.104422,0.35400

 Normal termination of Gaussian 16 at Tue Apr  8 23:40:34 2025.
