 Gaussian 16, Revision C.01,

 ----------------------------------------------------------------------
 #t hf aug-cc-pvdz symm=none int=(grid=ultrafine) guess=(read,tcheck) s
 table=(opt,rrhf)
 ----------------------------------------------------------------------
 -----
 title
 -----
 Symbolic Z-matrix:
 Charge =  0 Multiplicity = 1

 SCF Done:  E(RHF) =  -664.377528425     A.U. after   13 cycles
 Normal termination of Gaussian 16 at Tue Apr  8 23:21:57 2025.
 Gaussian 16:  ES64L-G16RevC.01  3-Jul-2019

 ----------------------------------------------------------------------
 #t hf aug-cc-pvdz iop(5/13=1,5/36=2,99/5=2) pseudo=read geom=check gue
 ss=(read,tcheck) scf=(maxcycle=1)
 ----------------------------------------------------------------------
 -----
 title
 -----
 Structure from the checkpoint file:  "BDE49_nonexpt_1217_mol1.chk"
 Charge =  0 Multiplicity = 1

                         Standard orientation:
 ---------------------------------------------------------------------
 Center     Atomic      Atomic             Coordinates (Angstroms)
 Number     Number       Type             X           Y           Z
 ---------------------------------------------------------------------
      1         16           0       -2.299315   -0.044102   -0.000034
      2          8           0       -0.718294   -0.745879    0.000001
      3          6           0        0.359529    0.082606    0.000042
      4          8           0        0.280272    1.283156    0.000015
      5          6           0        1.635431   -0.733206    0.000016
      6          6           0        2.892162    0.133979    0.000006
      7          1           0        1.601366   -1.393265   -0.872268
      8          1           0        1.601389   -1.393279    0.872289
      9          1           0        2.925068    0.777830   -0.880481
     10          1           0        3.784090   -0.496337   -0.000012
     11          1           0        2.925092    0.777814    0.880504
     12          1           0       -1.866516    1.234380    0.000009
 ---------------------------------------------------------------------

 SCF Done:  E(RHF) =  -664.486258834     A.U. after    2 cycles

 The electronic state is 1-A.
 Alpha  occ. eigenvalues --  -93.60379 -20.64268 -20.57840 -11.41002 -11.26618
 Alpha  occ. eigenvalues --  -11.23953  -8.89483  -6.23709  -6.23363  -6.22926
 Alpha  occ. eigenvalues --   -1.42828  -1.33640  -1.06776  -0.98023  -0.88621
 Alpha  occ. eigenvalues --   -0.79047  -0.72586  -0.68589  -0.68487  -0.61554
 Alpha  occ. eigenvalues --   -0.59168  -0.54304  -0.53688  -0.52799  -0.51233
 Alpha  occ. eigenvalues --   -0.51125  -0.47895  -0.37837
 Alpha virt. eigenvalues --    0.03327   0.04751   0.05085   0.05140   0.05993
 Alpha virt. eigenvalues --    0.07798   0.08643   0.09309   0.11407   0.11435
 Alpha virt. eigenvalues --    0.12957   0.14806   0.15039   0.15568   0.15867

 Mulliken charges:
               1
     1  S    0.410209
     2  O   -0.742236
     3  C    0.325612
     4  O   -0.464192
     5  C    0.010207
     6  C    0.441272
     7  H    0.009670
     8  H    0.009667
     9  H   -0.047603
    10  H   -0.052573
    11  H   -0.047606
    12  H    0.147574
 Sum of Mulliken charges =  -0.00000

 Dipole moment (field-independent basis, Debye):
    X=              1.0400    Y=             -1.1508    Z=              0.0001  Tot=              1.5511

 Test job not archived.
 1\1\GINC-SE094\SP\RHF\Aug-CC-pVDZ\C3H6O2S1\OHZDE\08-Apr-2025\0\\#t hf
 aug-cc-pvdz iop(5/13=1,5/36=2,99/5=2) pseudo=read geom=check guess=(re
 ad,tcheck) scf=(maxcycle=1)\\title\\0,1\S,0,-2.299315,-0.044102,-0.000
 034\O,0,-0.718294,-0.745879,0.000001\C,0,0.359529,0.082606,0.000042\O,
 0,0.280272,1.283156,0.000015\C,0,1.635431,-0.733206,0.000016\C,0,2.892
 162,0.133979,0.000006\H,0,1.601366,-1.393265,-0.872268\H,0,1.601389,-1
 .393279,0.872289\H,0,2.925068,0.77783,-0.880481\H,0,3.78409,-0.496337,
 -0.000012\H,0,2.925092,0.777814,0.880504\H,0,-1.866516,1.23438,0.00000

 Normal termination of Gaussian 16 at Tue Apr  8 23:22:01 2025.
