 Gaussian 16, Revision C.01,

 ----------------------------------------------------------------------
 #t hf aug-cc-pvdz symm=none int=(grid=ultrafine) guess=(read,tcheck) s
 table=opt
 ----------------------------------------------------------------------
 -----
 title
 -----
 Symbolic Z-matrix:
 Charge =  0 Multiplicity = 2

 SCF Done:  E(UHF) =  -536.546239533     A.U. after   16 cycles
 Normal termination of Gaussian 16 at Tue Apr  8 23:58:52 2025.
 Gaussian 16:  ES64L-G16RevC.01  3-Jul-2019

 ----------------------------------------------------------------------
 #t hf aug-cc-pvdz iop(5/13=1,5/36=2,99/5=2) pseudo=read geom=check gue
 ss=(read,tcheck) scf=(maxcycle=1)
 ----------------------------------------------------------------------
 -----
 title
 -----
 Structure from the checkpoint file:  "BDE49_nonexpt_2091_mol2.chk"
 Charge =  0 Multiplicity = 2

                         Standard orientation:
 ---------------------------------------------------------------------
 Center     Atomic      Atomic             Coordinates (Angstroms)
 Number     Number       Type             X           Y           Z
 ---------------------------------------------------------------------
      1          8           0        0.532449   -1.322648   -0.032217
      2          7           0        0.366205    1.343641    0.081993
      3          6           0       -1.586482   -0.125002   -0.354680
      4          6           0       -1.092823    1.233503    0.154882
      5          6           0       -0.859488   -1.304458    0.290288
      6         14           0        1.467381    0.038694   -0.172823
      7          1           0       -0.975811   -1.270930    1.382442
      8          1           0       -1.281447   -2.249286   -0.061490
      9          1           0       -1.452418   -0.184470   -1.440536
     10          1           0       -2.659542   -0.210000   -0.153978
     11          1           0        0.714112    2.288151    0.163594
     12          1           0       -1.429630    1.365966    1.194562
     13          1           0       -1.564107    2.027671   -0.435485
     14          1           0        2.515240    0.042615    0.911265
 ---------------------------------------------------------------------

 SCF Done:  E(UHF) =  -536.658058561     A.U. after    2 cycles

 The electronic state is 2-A.
 Alpha  occ. eigenvalues --  -69.09852 -20.55569 -15.60398 -11.29386 -11.27470
 Alpha  occ. eigenvalues --  -11.24065  -6.84482  -3.95592  -3.95136  -3.94891
 Alpha  occ. eigenvalues --   -1.30498  -1.14804  -1.02729  -0.90158  -0.82173
 Alpha  occ. eigenvalues --   -0.71258  -0.68037  -0.63352  -0.62049  -0.60368
 Alpha  occ. eigenvalues --   -0.59196  -0.54968  -0.52658  -0.50139  -0.46483
 Alpha  occ. eigenvalues --   -0.45450  -0.40723  -0.29602
 Alpha virt. eigenvalues --    0.03152   0.04171   0.04663   0.04772   0.06406
 Alpha virt. eigenvalues --    0.06573   0.07247   0.07305   0.08191   0.09313
 Alpha virt. eigenvalues --    0.10389   0.13206   0.13593   0.14574   0.14964

  Beta  occ. eigenvalues --  -69.09361 -20.55299 -15.59904 -11.29371 -11.27497
  Beta  occ. eigenvalues --  -11.24060  -6.83675  -3.94814  -3.94668  -3.93837
  Beta  occ. eigenvalues --   -1.29810  -1.13920  -1.02389  -0.89861  -0.81594
  Beta  occ. eigenvalues --   -0.70693  -0.67676  -0.62439  -0.61043  -0.59708
  Beta  occ. eigenvalues --   -0.58622  -0.53493  -0.52234  -0.48585  -0.45583
  Beta  occ. eigenvalues --   -0.44470  -0.37098
  Beta virt. eigenvalues --    0.03160   0.03930   0.04321   0.04743   0.06419
  Beta virt. eigenvalues --    0.06562   0.07047   0.07313   0.07396   0.09224
  Beta virt. eigenvalues --    0.10151   0.11169   0.13308   0.13788   0.14812

 Mulliken charges and spin densities:
               1          2
     1  O   -0.828251  -0.057984
     2  N   -0.550264   0.049969
     3  C   -0.025198  -0.017344
     4  C    0.625381  -0.011753
     5  C    0.843931   0.010390
     6  Si   0.669980   0.864170
     7  H   -0.153166   0.002757
     8  H   -0.189141   0.001581
     9  H   -0.103787  -0.003323
    10  H   -0.015126  -0.001282
    11  H   -0.187088  -0.009033
    12  H   -0.117279   0.008101
    13  H   -0.118657   0.001828
    14  H    0.148666   0.161923
 Sum of Mulliken charges =   0.00000   1.00000

 Dipole moment (field-independent basis, Debye):
    X=             -2.0528    Y=              1.6926    Z=              0.2742  Tot=              2.6747
                          Isotropic Fermi Contact Couplings
        Atom                 a.u.       MegaHertz       Gauss      10(-4) cm-1
     1  O(17)              0.07033     -42.63103     -15.21181     -14.22018
     2  N(14)              0.08070      26.07334       9.30361       8.69713
     3  C(13)              0.00122       1.36729       0.48788       0.45608
     4  C(13)             -0.00419      -4.71586      -1.68274      -1.57304
     5  C(13)              0.00301       3.38220       1.20685       1.12818
     6  Si(29)             0.67382    -598.84016    -213.68106    -199.75157
     7  H(1)               0.00086       3.82990       1.36660       1.27752
     8  H(1)              -0.00025      -1.09577      -0.39100      -0.36551

 1\1\GINC-SE331\SP\UHF\Aug-CC-pVDZ\C3H8N1O1Si1(2)\OHZDE\08-Apr-2025\0\\
 #t hf aug-cc-pvdz iop(5/13=1,5/36=2,99/5=2) pseudo=read geom=check gue
 ss=(read,tcheck) scf=(maxcycle=1)\\title\\0,2\O,0,0.532448,-1.322648,-
 0.032217\N,0,0.366206,1.343641,0.081993\C,0,-1.586482,-0.125001,-0.354
 68\C,0,-1.092822,1.233504,0.154882\C,0,-0.859489,-1.304458,0.290288\Si
 ,0,1.467381,0.038693,-0.172823\H,0,-0.975812,-1.27093,1.382442\H,0,-1.
 281448,-2.249285,-0.06149\H,0,-1.452418,-0.184469,-1.440536\H,0,-2.659
 542,-0.209999,-0.153978\H,0,0.714113,2.28815,0.163594\H,0,-1.429629,1.

 Normal termination of Gaussian 16 at Tue Apr  8 23:58:57 2025.
