 Gaussian 16, Revision C.01,

 ----------------------------------------------------------------------
 #t hf aug-cc-pvdz symm=none int=(grid=ultrafine) guess=(read,tcheck) s
 table=(opt,rrhf)
 ----------------------------------------------------------------------
 -----
 title
 -----
 Symbolic Z-matrix:
 Charge =  0 Multiplicity = 1

 SCF Done:  E(RHF) =  -408.363730348     A.U. after   11 cycles
 Normal termination of Gaussian 16 at Tue Apr  8 23:56:04 2025.
 Gaussian 16:  ES64L-G16RevC.01  3-Jul-2019

 ----------------------------------------------------------------------
 #t hf aug-cc-pvdz iop(5/13=1,5/36=2,99/5=2) pseudo=read geom=check gue
 ss=(read,tcheck) scf=(maxcycle=1)
 ----------------------------------------------------------------------
 -----
 title
 -----
 Structure from the checkpoint file:  "BDE49_nonexpt_2029_mol1.chk"
 Charge =  0 Multiplicity = 1

                         Standard orientation:
 ---------------------------------------------------------------------
 Center     Atomic      Atomic             Coordinates (Angstroms)
 Number     Number       Type             X           Y           Z
 ---------------------------------------------------------------------
      1         14           0        1.391847   -0.000000    0.044542
      2          6           0       -0.451836   -0.000000   -0.397214
      3          6           0       -1.157705   -1.271841    0.108417
      4          1           0       -0.696740   -2.181407   -0.286842
      5          1           0       -2.211477   -1.277810   -0.191185
      6          1           0       -1.129779   -1.333531    1.201386
      7          6           0       -1.157705    1.271841    0.108416
      8          1           0       -0.496202   -0.000000   -1.494766
      9          1           0       -1.129779    1.333531    1.201386
     10          1           0       -2.211476    1.277811   -0.191185
     11          1           0       -0.696740    2.181407   -0.286842
     12          1           0        1.567458    0.000001    1.519179
     13          1           0        2.061177    1.204786   -0.506218
     14          1           0        2.061177   -1.204786   -0.506217
 ---------------------------------------------------------------------

 SCF Done:  E(RHF) =  -408.426242031     A.U. after    2 cycles

 The electronic state is 1-A.
 Alpha  occ. eigenvalues --  -69.05289 -11.23074 -11.23068 -11.22935  -6.80659
 Alpha  occ. eigenvalues --   -3.91428  -3.91419  -3.91400  -1.04761  -0.92887
 Alpha  occ. eigenvalues --   -0.80489  -0.68870  -0.61792  -0.58665  -0.56501
 Alpha  occ. eigenvalues --   -0.54076  -0.49091  -0.48850  -0.46566  -0.46391
 Alpha  occ. eigenvalues --   -0.41203
 Alpha virt. eigenvalues --    0.03335   0.04851   0.04915   0.04926   0.06490
 Alpha virt. eigenvalues --    0.06923   0.07154   0.07557   0.07987   0.09897
 Alpha virt. eigenvalues --    0.10075   0.10967   0.10986   0.14425   0.15398

 Mulliken charges:
               1
     1  Si  -0.112694
     2  C   -0.391494
     3  C    0.428838
     4  H   -0.124501
     5  H   -0.081205
     6  H   -0.066624
     7  C    0.428841
     8  H   -0.083387
     9  H   -0.066621
    10  H   -0.081209
    11  H   -0.124503
    12  H    0.122795
    13  H    0.075883
    14  H    0.075883
 Sum of Mulliken charges =  -0.00000

 Dipole moment (field-independent basis, Debye):
    X=             -0.7820    Y=             -0.0000    Z=             -0.2745  Tot=              0.8287

 Test job not archived.
 1\1\GINC-SE109\SP\RHF\Aug-CC-pVDZ\C3H10Si1\OHZDE\08-Apr-2025\0\\#t hf
 aug-cc-pvdz iop(5/13=1,5/36=2,99/5=2) pseudo=read geom=check guess=(re
 ad,tcheck) scf=(maxcycle=1)\\title\\0,1\Si,0,1.391847,0.,0.044542\C,0,
 -0.451836,0.,-0.397214\C,0,-1.157705,-1.271841,0.108417\H,0,-0.69674,-
 2.181407,-0.286842\H,0,-2.211477,-1.27781,-0.191185\H,0,-1.129779,-1.3
 33531,1.201386\C,0,-1.157705,1.271841,0.108416\H,0,-0.496202,0.,-1.494
 766\H,0,-1.129779,1.333531,1.201386\H,0,-2.211476,1.277811,-0.191185\H
 ,0,-0.69674,2.181407,-0.286842\H,0,1.567458,0.000001,1.519179\H,0,2.06

 Normal termination of Gaussian 16 at Tue Apr  8 23:56:08 2025.
