 Gaussian 16, Revision C.01,

 ----------------------------------------------------------------------
 #t hf aug-cc-pvdz symm=none int=(grid=ultrafine) guess=(read,tcheck) s
 table=(opt,rrhf)
 ----------------------------------------------------------------------
 -----
 title
 -----
 Symbolic Z-matrix:
 Charge =  0 Multiplicity = 1

 SCF Done:  E(RHF) =  -650.120933479     A.U. after   16 cycles

 1\1\GINC-SE338\Stability\RHF\Aug-CC-pVDZ\C8H11P1\OHZDE\08-Apr-2025\0\\
 #t hf aug-cc-pvdz symm=none int=(grid=ultrafine) guess=(read,tcheck) s
 table=(opt,rrhf)\\title\\0,1\C,0,1.070273,1.231218,0.00122\C,0,-0.3216
 54,1.203039,0.00183\C,0,-1.021048,-0.013131,-0.000469\C,0,1.764475,0.0
 12374,-0.000619\C,0,1.101115,-1.211066,-0.002258\C,0,-0.30155,-1.20728
 ,-0.003084\H,0,-0.870608,2.138893,0.003495\P,0,-2.868006,-0.127871,-0.
 001381\C,0,1.860539,-2.516395,0.001892\H,0,2.937842,-2.350674,-0.05946
 6\H,0,1.568431,-3.147155,-0.842987\H,0,1.66098,-3.086287,0.914852\H,0,

 Normal termination of Gaussian 16 at Tue Apr  8 23:32:23 2025.
 Gaussian 16:  ES64L-G16RevC.01  3-Jul-2019

 ----------------------------------------------------------------------
 #t hf aug-cc-pvdz iop(5/13=1,5/36=2,99/5=2) pseudo=read geom=check gue
 ss=(read,tcheck) scf=(maxcycle=1)
 ----------------------------------------------------------------------
 -----
 title
 -----
 Structure from the checkpoint file:  "BDE49_nonexpt_1434_mol1.chk"
 Charge =  0 Multiplicity = 1

                         Standard orientation:
 ---------------------------------------------------------------------
 Center     Atomic      Atomic             Coordinates (Angstroms)
 Number     Number       Type             X           Y           Z
 ---------------------------------------------------------------------
      1          6           0        1.070273    1.231218    0.001220
      2          6           0       -0.321654    1.203039    0.001830
      3          6           0       -1.021048   -0.013131   -0.000469
      4          6           0        1.764475    0.012373   -0.000619
      5          6           0        1.101114   -1.211066   -0.002258
      6          6           0       -0.301551   -1.207280   -0.003084
      7          1           0       -0.870607    2.138893    0.003495
      8         15           0       -2.868006   -0.127870   -0.001381
      9          6           0        1.860538   -2.516396    0.001892
     10          1           0        2.937841   -2.350675   -0.059466
     11          1           0        1.568430   -3.147156   -0.842987
     12          1           0        1.660979   -3.086288    0.914852
     13          1           0       -0.835823   -2.152581   -0.006113
     14          1           0        2.851015    0.024794   -0.001191
     15          6           0        1.826728    2.538365   -0.000332
     16          1           0        1.146547    3.391701    0.027153
     17          1           0        2.448491    2.634258   -0.896014
     18          1           0        2.492459    2.611619    0.865120
     19          1           0       -3.126593    0.831323   -1.016233
     20          1           0       -3.125901    0.799420    1.043022
 ---------------------------------------------------------------------

 SCF Done:  E(RHF) =  -650.233496554     A.U. after    2 cycles

 The electronic state is 1-A.
 Alpha  occ. eigenvalues --  -81.25503 -11.25370 -11.25351 -11.25147 -11.24061
 Alpha  occ. eigenvalues --  -11.24008 -11.23929 -11.23747 -11.23697  -7.75845
 Alpha  occ. eigenvalues --   -4.89908  -4.89752  -4.89582  -1.14919  -1.05267
 Alpha  occ. eigenvalues --   -1.02826  -0.94111  -0.92818  -0.84023  -0.78980
 Alpha  occ. eigenvalues --   -0.75343  -0.68408  -0.65660  -0.59345  -0.58674
 Alpha  occ. eigenvalues --   -0.57341  -0.56835  -0.55747  -0.55325  -0.53321
 Alpha  occ. eigenvalues --   -0.52597  -0.48908  -0.47308  -0.46355  -0.35553
 Alpha  occ. eigenvalues --   -0.33496  -0.32649
 Alpha virt. eigenvalues --    0.03237   0.03863   0.04296   0.05429   0.05600
 Alpha virt. eigenvalues --    0.05882   0.06359   0.07196   0.07208   0.07917
 Alpha virt. eigenvalues --    0.09486   0.09844   0.10072   0.10406   0.10477

 Mulliken charges:
               1
     1  C   -0.163852
     2  C    0.988648
     3  C   -0.823661
     4  C    0.585544
     5  C   -0.314388
     6  C    0.524929
     7  H   -0.596299
     8  P   -0.201361
     9  C    0.509471
    10  H   -0.194530
    11  H    0.087874
    12  H    0.114302
    13  H   -0.609163
    14  H   -0.623744
    15  C    0.481915
    16  H   -0.207357
    17  H    0.099965
    18  H    0.089362
    19  H    0.124672
    20  H    0.127673
 Sum of Mulliken charges =  -0.00000

 Dipole moment (field-independent basis, Debye):
    X=              1.5782    Y=              0.5575    Z=              0.0121  Tot=              1.6739

 Test job not archived.
 1\1\GINC-SE338\SP\RHF\Aug-CC-pVDZ\C8H11P1\OHZDE\08-Apr-2025\0\\#t hf a
 ug-cc-pvdz iop(5/13=1,5/36=2,99/5=2) pseudo=read geom=check guess=(rea
 d,tcheck) scf=(maxcycle=1)\\title\\0,1\C,0,1.070273,1.231218,0.00122\C
 ,0,-0.321654,1.203039,0.00183\C,0,-1.021048,-0.013131,-0.000469\C,0,1.
 764475,0.012374,-0.000619\C,0,1.101115,-1.211066,-0.002258\C,0,-0.3015
 5,-1.20728,-0.003084\H,0,-0.870608,2.138893,0.003495\P,0,-2.868006,-0.
 127871,-0.001381\C,0,1.860539,-2.516395,0.001892\H,0,2.937842,-2.35067
 4,-0.059466\H,0,1.568431,-3.147155,-0.842987\H,0,1.66098,-3.086287,0.9

 Normal termination of Gaussian 16 at Tue Apr  8 23:32:32 2025.
