 Gaussian 16, Revision C.01,

 ----------------------------------------------------------------------
 #t hf aug-cc-pvdz symm=none int=(grid=ultrafine) guess=(read,tcheck) s
 table=opt
 ----------------------------------------------------------------------
 -----
 title
 -----
 Symbolic Z-matrix:
 Charge =  0 Multiplicity = 2

 SCF Done:  E(UHF) =  -192.527587721     A.U. after   16 cycles
 Normal termination of Gaussian 16 at Tue Apr  8 22:30:44 2025.
 Gaussian 16:  ES64L-G16RevC.01  3-Jul-2019

 ----------------------------------------------------------------------
 #t hf aug-cc-pvdz iop(5/13=1,5/36=2,99/5=2) pseudo=read geom=check gue
 ss=(read,tcheck) scf=(maxcycle=1)
 ----------------------------------------------------------------------
 -----
 title
 -----
 Structure from the checkpoint file:  "BDE49_expt_1066_mol2.chk"
 Charge =  0 Multiplicity = 2

                         Standard orientation:
 ---------------------------------------------------------------------
 Center     Atomic      Atomic             Coordinates (Angstroms)
 Number     Number       Type             X           Y           Z
 ---------------------------------------------------------------------
      1          6           0        0.008761    0.026952   -0.226503
      2          8           0       -0.041024    1.379416    0.059460
      3          1           0       -0.943066    1.690668   -0.067417
      4          6           0       -1.232750   -0.763974    0.033051
      5          1           0       -1.145311   -1.774867   -0.371361
      6          1           0       -2.111666   -0.299583   -0.430902
      7          1           0       -1.448329   -0.856475    1.112878
      8          6           0        1.360191   -0.547332    0.025694
      9          1           0        1.575665   -0.637199    1.104768
     10          1           0        2.134800    0.092451   -0.404816
     11          1           0        1.448893   -1.544197   -0.412286
 ---------------------------------------------------------------------

 SCF Done:  E(UHF) =  -192.590332506     A.U. after    2 cycles

 The electronic state is 2-A.
 Alpha  occ. eigenvalues --  -20.58747 -11.28680 -11.23691 -11.22518  -1.34872
 Alpha  occ. eigenvalues --   -1.04256  -0.94783  -0.80455  -0.69248  -0.64704
 Alpha  occ. eigenvalues --   -0.63063  -0.55693  -0.54849  -0.54229  -0.53042
 Alpha  occ. eigenvalues --   -0.49963  -0.31558
 Alpha virt. eigenvalues --    0.03333   0.04735   0.05161   0.05653   0.07214
 Alpha virt. eigenvalues --    0.07371   0.08056   0.10271   0.13052   0.14952
 Alpha virt. eigenvalues --    0.15250   0.15806   0.16351   0.16754   0.17420

  Beta  occ. eigenvalues --  -20.58291 -11.26089 -11.23924 -11.22776  -1.33144
  Beta  occ. eigenvalues --   -1.01431  -0.94650  -0.78199  -0.66980  -0.62027
  Beta  occ. eigenvalues --   -0.58806  -0.54370  -0.53912  -0.53351  -0.51262
  Beta  occ. eigenvalues --   -0.48997
  Beta virt. eigenvalues --    0.03280   0.04730   0.05170   0.05614   0.07222
  Beta virt. eigenvalues --    0.07387   0.08061   0.09996   0.13125   0.14496
  Beta virt. eigenvalues --    0.15039   0.15329   0.16086   0.16526   0.17396

 Mulliken charges and spin densities:
               1          2
     1  C   -0.164733   1.249655
     2  O   -0.579907   0.050016
     3  H    0.142359  -0.008196
     4  C    0.341589  -0.198993
     5  H   -0.046313  -0.001380
     6  H   -0.125988   0.004518
     7  H    0.079236   0.057368
     8  C    0.377708  -0.213112
     9  H    0.068114   0.054944
    10  H   -0.061550   0.004266
    11  H   -0.030515   0.000914
 Sum of Mulliken charges =  -0.00000   1.00000

 Dipole moment (field-independent basis, Debye):
    X=             -1.4185    Y=             -0.9528    Z=             -0.0906  Tot=              1.7112
                          Isotropic Fermi Contact Couplings
        Atom                 a.u.       MegaHertz       Gauss      10(-4) cm-1
     1  C(13)              0.30682     344.92602     123.07818     115.05494
     2  O(17)              0.04230     -25.64423      -9.15050      -8.55399
     3  H(1)              -0.00155      -6.93467      -2.47446      -2.31316
     4  C(13)             -0.03698     -41.57729     -14.83581     -13.86869
     5  H(1)               0.00297      13.28244       4.73950       4.43054
     6  H(1)               0.00726      32.44453      11.57701      10.82233
     7  H(1)               0.02243     100.24972      35.77159      33.43971
     8  C(13)             -0.04314     -48.49256     -17.30335     -16.17538

 Normal termination of Gaussian 16 at Tue Apr  8 22:30:47 2025.
