 Gaussian 16, Revision C.01,

 ----------------------------------------------------------------------
 #t hf aug-cc-pvdz symm=none int=(grid=ultrafine) guess=(read,tcheck) s
 table=(opt,rrhf)
 ----------------------------------------------------------------------
 -----
 title
 -----
 Symbolic Z-matrix:
 Charge =  0 Multiplicity = 1

 SCF Done:  E(RHF) =  -1061.49071662     A.U. after   12 cycles
 Normal termination of Gaussian 16 at Tue Apr  8 23:48:30 2025.
 Gaussian 16:  ES64L-G16RevC.01  3-Jul-2019

 ----------------------------------------------------------------------
 #t hf aug-cc-pvdz iop(5/13=1,5/36=2,99/5=2) pseudo=read geom=check gue
 ss=(read,tcheck) scf=(maxcycle=1)
 ----------------------------------------------------------------------
 -----
 title
 -----
 Structure from the checkpoint file:  "BDE49_nonexpt_183_mol1.chk"
 Charge =  0 Multiplicity = 1

                         Standard orientation:
 ---------------------------------------------------------------------
 Center     Atomic      Atomic             Coordinates (Angstroms)
 Number     Number       Type             X           Y           Z
 ---------------------------------------------------------------------
      1         17           0       -0.951898    1.650787   -0.000173
      2         17           0       -2.029938   -1.168446   -0.000249
      3          5           0       -0.627901   -0.085536    0.000476
      4          6           0        0.813740   -0.682474    0.000309
      5          6           0        2.008224    0.283556    0.000223
      6          1           0        0.875205   -1.361491    0.864376
      7          6           0        3.356905   -0.441289    0.000073
      8          1           0        1.945518    0.940677    0.873512
      9          1           0        1.945352    0.940730   -0.873015
     10          1           0        3.464299   -1.079165    0.882998
     11          1           0        4.187966    0.268929    0.000016
     12          1           0        0.875047   -1.361444   -0.863807
     13          1           0        3.464132   -1.079111   -0.882913
 ---------------------------------------------------------------------

 SCF Done:  E(RHF) =  -1061.57037699     A.U. after    2 cycles

 The electronic state is 1-A.
 Alpha  occ. eigenvalues -- -103.66790-103.66565 -11.24231 -11.23470 -11.23128
 Alpha  occ. eigenvalues --  -10.70278 -10.70043  -8.35968  -8.35755  -8.35737
 Alpha  occ. eigenvalues --   -8.35720  -8.35521  -8.35490  -7.72794  -1.18043
 Alpha  occ. eigenvalues --   -1.14212  -1.05899  -0.94259  -0.82198  -0.68597
 Alpha  occ. eigenvalues --   -0.64306  -0.60788  -0.59815  -0.55870  -0.55326
 Alpha  occ. eigenvalues --   -0.51551  -0.51368  -0.48887  -0.48767  -0.47439
 Alpha  occ. eigenvalues --   -0.46505  -0.45594
 Alpha virt. eigenvalues --    0.03342   0.04481   0.04612   0.04690   0.06662
 Alpha virt. eigenvalues --    0.06925   0.06971   0.07346   0.08950   0.09181
 Alpha virt. eigenvalues --    0.10027   0.10218   0.12036   0.14178   0.14558

 Mulliken charges:
               1
     1  Cl  -0.311276
     2  Cl  -0.375443
     3  B    0.611211
     4  C    0.394270
     5  C    0.002700
     6  H   -0.136888
     7  C    0.430224
     8  H   -0.143187
     9  H   -0.143152
    10  H   -0.064667
    11  H   -0.062172
    12  H   -0.136968
    13  H   -0.064654
 Sum of Mulliken charges =  -0.00000

 Dipole moment (field-independent basis, Debye):
    X=              1.8559    Y=             -0.5178    Z=              0.0012  Tot=              1.9267

 Test job not archived.
 1\1\GINC-SE362\SP\RHF\Aug-CC-pVDZ\C3H7B1Cl2\OHZDE\08-Apr-2025\0\\#t hf
  aug-cc-pvdz iop(5/13=1,5/36=2,99/5=2) pseudo=read geom=check guess=(r
 ead,tcheck) scf=(maxcycle=1)\\title\\0,1\Cl,0,0.951898,1.650787,0.0001
 73\Cl,0,2.029938,-1.168446,0.000249\B,0,0.627901,-0.085536,-0.000476\C
 ,0,-0.81374,-0.682474,-0.000309\C,0,-2.008224,0.283556,-0.000223\H,0,-
 0.875205,-1.361491,-0.864376\C,0,-3.356905,-0.441289,-0.000073\H,0,-1.
 945518,0.940677,-0.873512\H,0,-1.945352,0.94073,0.873015\H,0,-3.464299
 ,-1.079165,-0.882998\H,0,-4.187966,0.268929,-0.000016\H,0,-0.875047,-1

 Normal termination of Gaussian 16 at Tue Apr  8 23:48:34 2025.
