 Gaussian 16, Revision C.01,

 ----------------------------------------------------------------------
 #t hf aug-cc-pvdz symm=none int=(grid=ultrafine) guess=(read,tcheck) s
 table=(opt,rrhf)
 ----------------------------------------------------------------------
 -----
 title
 -----
 Symbolic Z-matrix:
 Charge =  0 Multiplicity = 1

 SCF Done:  E(RHF) =  -924.439603439     A.U. after   15 cycles
 Normal termination of Gaussian 16 at Wed Apr  9 00:02:56 2025.
 Gaussian 16:  ES64L-G16RevC.01  3-Jul-2019

 ----------------------------------------------------------------------
 #t hf aug-cc-pvdz iop(5/13=1,5/36=2,99/5=2) pseudo=read geom=check gue
 ss=(read,tcheck) scf=(maxcycle=1)
 ----------------------------------------------------------------------
 -----
 title
 -----
 Structure from the checkpoint file:  "BDE49_nonexpt_2122_mol1.chk"
 Charge =  0 Multiplicity = 1

                         Standard orientation:
 ---------------------------------------------------------------------
 Center     Atomic      Atomic             Coordinates (Angstroms)
 Number     Number       Type             X           Y           Z
 ---------------------------------------------------------------------
      1          7           0       -0.786542   -0.847111   -0.813630
      2          7           0        0.439460   -0.874252   -0.995692
      3          6           0        3.010121    0.406103   -0.379248
      4          6           0        4.360238    0.294083    0.353967
      5          1           0        4.239921    0.405774    1.436490
      6          1           0        5.045703    1.080788    0.020782
      7          1           0        4.848448   -0.667404    0.170883
      8          6           0        2.371161    1.792569   -0.179880
      9          1           0        2.142091    1.979530    0.874788
     10          1           0        1.444266    1.898348   -0.749905
     11          6           0       -3.109682    0.446182    0.421912
     12          6           0       -2.470954    1.846348    0.340232
     13          1           0       -1.863972    2.074482    1.221612
     14          1           0       -3.242771    2.619397    0.263210
     15          1           0       -1.830116    1.935825   -0.542238
     16          6           0       -4.014381    0.164024   -0.792028
     17          1           0       -4.528312   -0.796827   -0.701069
     18          1           0       -3.433935    0.142691   -1.717571
     19          1           0        3.052875    2.583979   -0.509521
     20          1           0       -4.779080    0.942268   -0.890891
     21         14           0       -1.805319   -0.894711    0.675416
     22         14           0        1.843466   -0.986361    0.133388
     23          1           0        3.185277    0.260330   -1.452213
     24          1           0       -3.728974    0.409487    1.329517
     25          1           0        2.408557   -2.315490   -0.194801
     26          1           0        1.554397   -0.916404    1.593081
     27          1           0       -2.398343   -2.251588    0.629066
     28          1           0       -1.099528   -0.696486    1.971041
 ---------------------------------------------------------------------

 SCF Done:  E(RHF) =  -924.598520953     A.U. after    2 cycles

 The electronic state is 1-A.
 Alpha  occ. eigenvalues --  -69.07690 -69.07634 -15.66938 -15.66795 -11.23488
 Alpha  occ. eigenvalues --  -11.23335 -11.23305 -11.23246 -11.23222 -11.22702
 Alpha  occ. eigenvalues --   -6.82878  -6.82818  -3.93710  -3.93655  -3.93606
 Alpha  occ. eigenvalues --   -3.93571  -3.93543  -3.93519  -1.26611  -1.05244
 Alpha  occ. eigenvalues --   -1.04972  -0.93275  -0.92874  -0.87610  -0.81232
 Alpha  occ. eigenvalues --   -0.79670  -0.73377  -0.64863  -0.62390  -0.61970
 Alpha  occ. eigenvalues --   -0.60819  -0.58223  -0.57996  -0.57261  -0.56157
 Alpha  occ. eigenvalues --   -0.55576  -0.54350  -0.53979  -0.51361  -0.49259
 Alpha  occ. eigenvalues --   -0.48840  -0.48689  -0.48368  -0.46867  -0.46232
 Alpha  occ. eigenvalues --   -0.41826  -0.41222  -0.30363
 Alpha virt. eigenvalues --    0.03058   0.03483   0.04264   0.04637   0.05377
 Alpha virt. eigenvalues --    0.05508   0.05698   0.06526   0.06789   0.07170
 Alpha virt. eigenvalues --    0.07261   0.07812   0.08197   0.08332   0.09460

 Mulliken charges:
               1
     1  N   -0.606527
     2  N   -0.521667
     3  C   -0.253262
     4  C    0.523603
     5  H   -0.073624
     6  H   -0.084767
     7  H   -0.112623
     8  C    0.405117
     9  H   -0.078366
    10  H   -0.151760
    11  C   -0.383246
    12  C    0.518529
    13  H   -0.134363
    14  H   -0.113331
    15  H   -0.060365
    16  C    0.470599
    17  H   -0.127020
    18  H   -0.076354
    19  H   -0.095769
    20  H   -0.076541
    21  Si   0.345800
    22  Si   0.401463
    23  H   -0.142773
    24  H   -0.167941
    25  H    0.096255
    26  H    0.187446
    27  H    0.175580
    28  H    0.135907
 Sum of Mulliken charges =  -0.00000

 Dipole moment (field-independent basis, Debye):
    X=              0.2707    Y=              1.1038    Z=              1.8526  Tot=              2.1734

 Test job not archived.
 1\1\GINC-SE252\SP\RHF\Aug-CC-pVDZ\C6H18N2Si2\OHZDE\09-Apr-2025\0\\#t h
 f aug-cc-pvdz iop(5/13=1,5/36=2,99/5=2) pseudo=read geom=check guess=(
 read,tcheck) scf=(maxcycle=1)\\title\\0,1\N,0,-0.786542,-0.847111,-0.8
 1363\N,0,0.43946,-0.874252,-0.995692\C,0,3.010121,0.406103,-0.379248\C
 ,0,4.360238,0.294083,0.353967\H,0,4.239921,0.405774,1.43649\H,0,5.0457
 03,1.080788,0.020782\H,0,4.848448,-0.667404,0.170883\C,0,2.371161,1.79
 2569,-0.17988\H,0,2.142091,1.97953,0.874788\H,0,1.444266,1.898348,-0.7
 49905\C,0,-3.109682,0.446182,0.421912\C,0,-2.470954,1.846348,0.340232\

 Normal termination of Gaussian 16 at Wed Apr  9 00:03:16 2025.
