 Gaussian 16, Revision C.01,

 ----------------------------------------------------------------------
 #t hf aug-cc-pvdz symm=none int=(grid=ultrafine) guess=(read,tcheck) s
 table=opt
 ----------------------------------------------------------------------
 -----
 title
 -----
 Symbolic Z-matrix:
 Charge =  0 Multiplicity = 2

 SCF Done:  E(UHF) =  -269.430408864     A.U. after   16 cycles
 Normal termination of Gaussian 16 at Tue Apr  8 22:59:10 2025.
 Gaussian 16:  ES64L-G16RevC.01  3-Jul-2019

 ----------------------------------------------------------------------
 #t hf aug-cc-pvdz iop(5/13=1,5/36=2,99/5=2) pseudo=read geom=check gue
 ss=(read,tcheck) scf=(maxcycle=1)
 ----------------------------------------------------------------------
 -----
 title
 -----
 Structure from the checkpoint file:  "BDE49_expt_197_mol2.chk"
 Charge =  0 Multiplicity = 2

                         Standard orientation:
 ---------------------------------------------------------------------
 Center     Atomic      Atomic             Coordinates (Angstroms)
 Number     Number       Type             X           Y           Z
 ---------------------------------------------------------------------
      1          8           0       -0.050688   -1.125557   -0.082544
      2          6           0        1.342614   -0.851062    0.161860
      3          6           0        1.543704    0.634069   -0.162170
      4          1           0        1.938076   -1.524254   -0.457411
      5          1           0        1.553166   -1.066494    1.215743
      6          6           0        0.150145    1.215393    0.136494
      7          1           0        1.783424    0.762945   -1.220591
      8          1           0        2.342376    1.085423    0.429236
      9          6           0       -0.740126    0.065805   -0.227291
     10          1           0       -0.069307    2.122442   -0.432323
     11          1           0        0.061271    1.477127    1.207073
     12          6           0       -2.201250   -0.018476    0.028533
     13          1           0       -2.430638   -0.122110    1.104047
     14          1           0       -2.634137   -0.884785   -0.478577
     15          1           0       -2.709240    0.879788   -0.331406
 ---------------------------------------------------------------------

 SCF Done:  E(UHF) =  -269.514706658     A.U. after    2 cycles

 The electronic state is 2-A.
 Alpha  occ. eigenvalues --  -20.57750 -11.28655 -11.27680 -11.23852 -11.23669
 Alpha  occ. eigenvalues --  -11.22519  -1.35320  -1.05745  -1.03051  -0.92075
 Alpha  occ. eigenvalues --   -0.82186  -0.76698  -0.69369  -0.67404  -0.61556
 Alpha  occ. eigenvalues --   -0.59261  -0.58238  -0.54267  -0.52275  -0.51807
 Alpha  occ. eigenvalues --   -0.50163  -0.47720  -0.46807  -0.30470
 Alpha virt. eigenvalues --    0.03525   0.04389   0.04753   0.04863   0.06537
 Alpha virt. eigenvalues --    0.06677   0.07018   0.07359   0.08225   0.11154
 Alpha virt. eigenvalues --    0.12327   0.13345   0.13895   0.14990   0.15201

  Beta  occ. eigenvalues --  -20.57166 -11.28683 -11.25126 -11.23923 -11.23810
  Beta  occ. eigenvalues --  -11.22760  -1.33515  -1.05056  -1.00715  -0.91941
  Beta  occ. eigenvalues --   -0.81872  -0.73745  -0.67387  -0.66177  -0.59603
  Beta  occ. eigenvalues --   -0.57451  -0.55832  -0.53680  -0.51548  -0.50561
  Beta  occ. eigenvalues --   -0.49628  -0.47247  -0.44556
  Beta virt. eigenvalues --    0.03474   0.04388   0.04762   0.04874   0.06538
  Beta virt. eigenvalues --    0.06608   0.07026   0.07371   0.08225   0.10884
  Beta virt. eigenvalues --    0.12341   0.13174   0.13921   0.14885   0.15109

 Mulliken charges and spin densities:
               1          2
     1  O   -0.730588   0.052989
     2  C    0.837164  -0.007989
     3  C    0.263980  -0.018557
     4  H   -0.200857  -0.000254
     5  H   -0.202849   0.002920
     6  C    0.049415  -0.205837
     7  H   -0.160491  -0.001706
     8  H   -0.051131  -0.002526
     9  C   -0.117898   1.265193
    10  H   -0.037939   0.009206
    11  H   -0.065135   0.048357
    12  C    0.424799  -0.203167
    13  H    0.072886   0.055765
    14  H   -0.066958   0.004533
    15  H   -0.014397   0.001072
 Sum of Mulliken charges =  -0.00000   1.00000

 Dipole moment (field-independent basis, Debye):
    X=              1.0168    Y=              1.4975    Z=              0.4709  Tot=              1.8703
                          Isotropic Fermi Contact Couplings
        Atom                 a.u.       MegaHertz       Gauss      10(-4) cm-1
     1  O(17)              0.06928     -41.99895     -14.98627     -14.00934
     2  C(13)             -0.00478      -5.36883      -1.91573      -1.79085
     3  C(13)              0.00526       5.90986       2.10879       1.97132
     4  H(1)              -0.00040      -1.78932      -0.63847      -0.59685
     5  H(1)               0.00106       4.73797       1.69063       1.58042
     6  C(13)             -0.03975     -44.69004     -15.94652     -14.90699
     7  H(1)              -0.00053      -2.36845      -0.84512      -0.79003
     8  H(1)              -0.00091      -4.06172      -1.44932      -1.35485

 Normal termination of Gaussian 16 at Tue Apr  8 22:59:15 2025.
