 Gaussian 16, Revision C.01,

 ----------------------------------------------------------------------
 #t hf aug-cc-pvdz symm=none int=(grid=ultrafine) guess=(read,tcheck) s
 table=opt
 ----------------------------------------------------------------------
 -----
 title
 -----
 Symbolic Z-matrix:
 Charge =  0 Multiplicity = 2

 SCF Done:  E(UHF) =  -192.521240887     A.U. after   24 cycles
 Normal termination of Gaussian 16 at Tue Apr  8 22:40:34 2025.
 Gaussian 16:  ES64L-G16RevC.01  3-Jul-2019

 ----------------------------------------------------------------------
 #t hf aug-cc-pvdz iop(5/13=1,5/36=2,99/5=2) pseudo=read geom=check gue
 ss=(read,tcheck) scf=(maxcycle=1)
 ----------------------------------------------------------------------
 -----
 title
 -----
 Structure from the checkpoint file:  "BDE49_expt_1382_mol2.chk"
 Charge =  0 Multiplicity = 2

                         Standard orientation:
 ---------------------------------------------------------------------
 Center     Atomic      Atomic             Coordinates (Angstroms)
 Number     Number       Type             X           Y           Z
 ---------------------------------------------------------------------
      1          8           0       -1.470194   -0.688541   -0.191119
      2          6           0       -0.854841    0.445313    0.258301
      3          6           0        0.573179    0.667724   -0.251980
      4          1           0       -0.857204    0.346972    1.366202
      5          1           0       -1.505492    1.320766    0.074949
      6          6           0        1.514019   -0.483713    0.106092
      7          1           0        0.945910    1.613802    0.157833
      8          1           0        0.530604    0.792652   -1.339367
      9          1           0        1.641418   -0.569321    1.190145
     10          1           0        2.503152   -0.342560   -0.335842
     11          1           0        1.109022   -1.429927   -0.259439
 ---------------------------------------------------------------------

 SCF Done:  E(UHF) =  -192.583727545     A.U. after    2 cycles

 The electronic state is 2-A.
 Alpha  occ. eigenvalues --  -20.63070 -11.29250 -11.23806 -11.22640  -1.37195
 Alpha  occ. eigenvalues --   -1.04383  -0.91793  -0.81197  -0.72130  -0.67208
 Alpha  occ. eigenvalues --   -0.63545  -0.59978  -0.55392  -0.53726  -0.49672
 Alpha  occ. eigenvalues --   -0.47964  -0.46298
 Alpha virt. eigenvalues --    0.03511   0.04607   0.04773   0.05468   0.07134
 Alpha virt. eigenvalues --    0.07405   0.07919   0.11097   0.12230   0.14278
 Alpha virt. eigenvalues --    0.14826   0.15508   0.16636   0.17043   0.17591

  Beta  occ. eigenvalues --  -20.59028 -11.29558 -11.23793 -11.22645  -1.24516
  Beta  occ. eigenvalues --   -1.03370  -0.90176  -0.79653  -0.65286  -0.63526
  Beta  occ. eigenvalues --   -0.59553  -0.56644  -0.53562  -0.50021  -0.48814
  Beta  occ. eigenvalues --   -0.44171
  Beta virt. eigenvalues --    0.03491   0.04610   0.04776   0.05478   0.06695
  Beta virt. eigenvalues --    0.07407   0.07891   0.08388   0.11209   0.13074
  Beta virt. eigenvalues --    0.14310   0.14845   0.15598   0.16723   0.17135

 Mulliken charges and spin densities:
               1          2
     1  O   -0.439324   1.039128
     2  C    0.626134  -0.178219
     3  C   -0.038799  -0.000860
     4  H   -0.085134   0.091307
     5  H   -0.100781   0.044824
     6  C    0.334107   0.002875
     7  H   -0.027418   0.000756
     8  H   -0.081294   0.001239
     9  H   -0.080914   0.000122
    10  H   -0.077988  -0.000204
    11  H   -0.028589  -0.000967
 Sum of Mulliken charges =   0.00000   1.00000

 Dipole moment (field-independent basis, Debye):
    X=              1.0114    Y=              1.5882    Z=              0.6131  Tot=              1.9802
                          Isotropic Fermi Contact Couplings
        Atom                 a.u.       MegaHertz       Gauss      10(-4) cm-1
     1  O(17)              0.28727    -174.14400     -62.13891     -58.08819
     2  C(13)             -0.05433     -61.08160     -21.79543     -20.37463
     3  C(13)              0.00158       1.77381       0.63294       0.59168
     4  H(1)               0.03448     154.13185      54.99808      51.41285
     5  H(1)               0.01735      77.53282      27.66564      25.86217
     6  C(13)             -0.00120      -1.34349      -0.47939      -0.44814
     7  H(1)              -0.00071      -3.15538      -1.12592      -1.05252
     8  H(1)              -0.00055      -2.45035      -0.87435      -0.81735

 Normal termination of Gaussian 16 at Tue Apr  8 22:40:37 2025.
