 Gaussian 16, Revision C.01,

 ----------------------------------------------------------------------
 #t hf aug-cc-pvdz symm=none int=(grid=ultrafine) guess=(read,tcheck) s
 table=(opt,rrhf)
 ----------------------------------------------------------------------
 -----
 title
 -----
 Symbolic Z-matrix:
 Charge =  0 Multiplicity = 1

 SCF Done:  E(RHF) =  -2975.17796603     A.U. after   11 cycles
 Normal termination of Gaussian 16 at Wed Apr  9 00:08:11 2025.
 Gaussian 16:  ES64L-G16RevC.01  3-Jul-2019

 ----------------------------------------------------------------------
 #t hf aug-cc-pvdz iop(5/13=1,5/36=2,99/5=2) pseudo=read geom=check gue
 ss=(read,tcheck) scf=(maxcycle=1)
 ----------------------------------------------------------------------
 -----
 title
 -----
 Structure from the checkpoint file:  "BDE49_nonexpt_2329_mol1.chk"
 Charge =  0 Multiplicity = 1

                         Standard orientation:
 ---------------------------------------------------------------------
 Center     Atomic      Atomic             Coordinates (Angstroms)
 Number     Number       Type             X           Y           Z
 ---------------------------------------------------------------------
      1         14           0        0.712062    1.093749    0.000000
      2         14           0       -0.341030   -1.003307   -0.000000
      3         17           0        0.214780   -2.052486    1.676733
      4         17           0        0.214780   -2.052486   -1.676733
      5         17           0        0.214780    2.153572   -1.679772
      6         17           0        0.214780    2.153572    1.679772
      7         17           0       -2.378959   -0.743812   -0.000000
      8          9           0        2.293649    0.882409    0.000000
 ---------------------------------------------------------------------

 SCF Done:  E(RHF) =  -2975.36509845     A.U. after    2 cycles

 The electronic state is 1-A'.
 Alpha  occ. eigenvalues -- -103.69266-103.69245-103.69244-103.69207-103.69207
 Alpha  occ. eigenvalues --  -69.23120 -69.22693 -26.15366 -10.72712 -10.72689
 Alpha  occ. eigenvalues --  -10.72681 -10.72677 -10.72665  -8.38405  -8.38382
 Alpha  occ. eigenvalues --   -8.38378  -8.38367  -8.38361  -8.38158  -8.38155
 Alpha  occ. eigenvalues --   -8.38134  -8.38134  -8.38131  -8.38127  -8.38122
 Alpha  occ. eigenvalues --   -8.38121  -8.38118  -8.38115  -6.96898  -6.96625
 Alpha  occ. eigenvalues --   -4.07808  -4.07760  -4.07580  -4.07451  -4.07451
 Alpha  occ. eigenvalues --   -4.07253  -1.68217  -1.20014  -1.18818  -1.16752
 Alpha  occ. eigenvalues --   -1.16669  -1.16634  -0.84481  -0.77002  -0.76548
 Alpha  occ. eigenvalues --   -0.73691  -0.67049  -0.60538  -0.60250  -0.58636
 Alpha  occ. eigenvalues --   -0.58429  -0.53783  -0.53197  -0.53030  -0.52654
 Alpha  occ. eigenvalues --   -0.51597  -0.50524  -0.50453  -0.49753  -0.49084
 Alpha  occ. eigenvalues --   -0.44776
 Alpha virt. eigenvalues --    0.04700   0.04860   0.05412   0.05454   0.07564
 Alpha virt. eigenvalues --    0.07691   0.07711   0.08449   0.08575   0.08736
 Alpha virt. eigenvalues --    0.11555   0.11660   0.13343   0.15060   0.15122

 Mulliken charges:
               1
     1  Si   1.801889
     2  Si   1.225028
     3  Cl  -0.462045
     4  Cl  -0.462045
     5  Cl  -0.463596
     6  Cl  -0.463596
     7  Cl  -0.453312
     8  F   -0.722323
 Sum of Mulliken charges =  -0.00000

 Dipole moment (field-independent basis, Debye):
    X=             -0.6507    Y=             -0.0172    Z=              0.0000  Tot=              0.6509

 Test job not archived.
 1\1\GINC-SE150\SP\RHF\Aug-CC-pVDZ\Cl5F1Si2\OHZDE\09-Apr-2025\0\\#t hf
 aug-cc-pvdz iop(5/13=1,5/36=2,99/5=2) pseudo=read geom=check guess=(re
 ad,tcheck) scf=(maxcycle=1)\\title\\0,1\Si,0,1.253786,0.,-0.36241\Si,0
 ,-1.059142,0.,0.03384\Cl,0,-1.900804,-1.676733,-0.8036\Cl,0,-1.900804,
 1.676733,-0.8036\Cl,0,2.122686,1.679772,0.422145\Cl,0,2.122686,-1.6797
 72,0.422145\Cl,0,-1.404811,0.,2.058934\F,0,1.512531,0.,-1.936936\\Vers
 ion=ES64L-G16RevC.01\State=1-A'\HF=-2975.3650985\RMSD=3.980e-03\Dipole
 =-0.0810775,0.,0.2429171\Quadrupole=-0.1820085,1.0867315,-0.904723,0.,

 Normal termination of Gaussian 16 at Wed Apr  9 00:08:15 2025.
