 Gaussian 16, Revision C.01,

 ----------------------------------------------------------------------
 #t hf aug-cc-pvdz symm=none int=(grid=ultrafine) guess=(read,tcheck) s
 table=(opt,rrhf)
 ----------------------------------------------------------------------
 -----
 title
 -----
 Symbolic Z-matrix:
 Charge =  0 Multiplicity = 1

 SCF Done:  E(RHF) =  -805.937508549     A.U. after   12 cycles
 Normal termination of Gaussian 16 at Wed Apr  9 00:13:51 2025.
 Gaussian 16:  ES64L-G16RevC.01  3-Jul-2019

 ----------------------------------------------------------------------
 #t hf aug-cc-pvdz iop(5/13=1,5/36=2,99/5=2) pseudo=read geom=check gue
 ss=(read,tcheck) scf=(maxcycle=1)
 ----------------------------------------------------------------------
 -----
 title
 -----
 Structure from the checkpoint file:  "BDE49_nonexpt_2485_mol1.chk"
 Charge =  0 Multiplicity = 1

                         Standard orientation:
 ---------------------------------------------------------------------
 Center     Atomic      Atomic             Coordinates (Angstroms)
 Number     Number       Type             X           Y           Z
 ---------------------------------------------------------------------
      1          6           0        1.870749   -0.212958    0.529998
      2          6           0        2.569599    0.732386   -0.441674
      3          1           0        1.950657    1.602116   -0.672185
      4          1           0        2.799842    0.226535   -1.381626
      5         16           0        0.312362   -0.969360   -0.130778
      6          1           0        1.640843    0.280421    1.476343
      7         14           0       -1.125326    0.606510    0.198056
      8          1           0        2.505979   -1.070380    0.760209
      9          6           0       -2.817497   -0.072754   -0.234041
     10          1           0       -2.857315   -0.390679   -1.278850
     11          1           0       -3.579059    0.698377   -0.085824
     12          1           0       -3.070028   -0.928869    0.395853
     13          1           0        3.508297    1.092117   -0.006845
     14          1           0       -0.822339    1.798573   -0.632526
     15          1           0       -1.057201    1.030364    1.619417
 ---------------------------------------------------------------------

 SCF Done:  E(RHF) =  -806.020136958     A.U. after    2 cycles

 The electronic state is 1-A.
 Alpha  occ. eigenvalues --  -93.51169 -69.08094 -11.27498 -11.23536 -11.22344
 Alpha  occ. eigenvalues --   -8.81094  -6.83116  -6.15221  -6.15020  -6.14764
 Alpha  occ. eigenvalues --   -3.93935  -3.93865  -3.93839  -1.05209  -0.95066
 Alpha  occ. eigenvalues --   -0.91866  -0.81241  -0.67065  -0.62467  -0.59095
 Alpha  occ. eigenvalues --   -0.57004  -0.56480  -0.54131  -0.51781  -0.47968
 Alpha  occ. eigenvalues --   -0.47492  -0.44494  -0.40676  -0.34713
 Alpha virt. eigenvalues --    0.03471   0.04104   0.05024   0.05155   0.06336
 Alpha virt. eigenvalues --    0.06491   0.06627   0.08001   0.08322   0.08742
 Alpha virt. eigenvalues --    0.10065   0.11001   0.11523   0.11939   0.13699

 Mulliken charges:
               1
     1  C   -0.054202
     2  C    0.287499
     3  H   -0.128315
     4  H   -0.059385
     5  S   -0.165392
     6  H   -0.160788
     7  Si   0.786766
     8  H   -0.042143
     9  C    0.236365
    10  H   -0.181502
    11  H   -0.291558
    12  H   -0.177140
    13  H   -0.048297
    14  H   -0.013346
    15  H    0.011436
 Sum of Mulliken charges =  -0.00000

 Dipole moment (field-independent basis, Debye):
    X=              0.2580    Y=              1.0438    Z=              0.4547  Tot=              1.1674

 Test job not archived.
 1\1\GINC-SE398\SP\RHF\Aug-CC-pVDZ\C3H10S1Si1\OHZDE\09-Apr-2025\0\\#t h
 f aug-cc-pvdz iop(5/13=1,5/36=2,99/5=2) pseudo=read geom=check guess=(
 read,tcheck) scf=(maxcycle=1)\\title\\0,1\C,0,1.870749,-0.212958,0.529
 998\C,0,2.569599,0.732386,-0.441674\H,0,1.950657,1.602116,-0.672185\H,
 0,2.799842,0.226535,-1.381626\S,0,0.312362,-0.96936,-0.130778\H,0,1.64
 0843,0.280421,1.476343\Si,0,-1.125326,0.60651,0.198056\H,0,2.505979,-1
 .07038,0.760209\C,0,-2.817497,-0.072754,-0.234041\H,0,-2.857315,-0.390
 679,-1.27885\H,0,-3.579059,0.698377,-0.085824\H,0,-3.070028,-0.928869,

 Normal termination of Gaussian 16 at Wed Apr  9 00:13:55 2025.
