 Gaussian 16, Revision C.01,

 ----------------------------------------------------------------------
 #t hf aug-cc-pvdz symm=none int=(grid=ultrafine) guess=(read,tcheck) s
 table=(opt,rrhf)
 ----------------------------------------------------------------------
 -----
 title
 -----
 Symbolic Z-matrix:
 Charge =  0 Multiplicity = 1

 SCF Done:  E(RHF) =  -479.975393239     A.U. after   13 cycles
 Normal termination of Gaussian 16 at Wed Apr  9 00:04:27 2025.
 Gaussian 16:  ES64L-G16RevC.01  3-Jul-2019

 ----------------------------------------------------------------------
 #t hf aug-cc-pvdz iop(5/13=1,5/36=2,99/5=2) pseudo=read geom=check gue
 ss=(read,tcheck) scf=(maxcycle=1)
 ----------------------------------------------------------------------
 -----
 title
 -----
 Structure from the checkpoint file:  "BDE49_nonexpt_2237_mol1.chk"
 Charge =  0 Multiplicity = 1

                         Standard orientation:
 ---------------------------------------------------------------------
 Center     Atomic      Atomic             Coordinates (Angstroms)
 Number     Number       Type             X           Y           Z
 ---------------------------------------------------------------------
      1         14           0       -0.404051    0.524850    0.013806
      2          8           0        0.778731   -0.679801   -0.023372
      3          8           0        2.072699    0.007879   -0.093626
      4          1           0        2.496919   -0.363667    0.691677
      5          6           0       -2.012712   -0.420541   -0.001785
      6          1           0       -2.103639   -1.024091   -0.907981
      7          1           0       -2.853609    0.279402    0.026775
      8          1           0       -2.093115   -1.082698    0.863626
      9          1           0       -0.271795    1.406820   -1.165873
     10          1           0       -0.253224    1.334952    1.245191
 ---------------------------------------------------------------------

 SCF Done:  E(RHF) =  -480.069842398     A.U. after    2 cycles

 The electronic state is 1-A.
 Alpha  occ. eigenvalues --  -69.09342 -20.64783 -20.62253 -11.22410  -6.84193
 Alpha  occ. eigenvalues --   -3.95110  -3.94965  -3.94922  -1.41018  -1.17806
 Alpha  occ. eigenvalues --   -0.94832  -0.73387  -0.71982  -0.63806  -0.61408
 Alpha  occ. eigenvalues --   -0.57452  -0.55777  -0.53329  -0.50083  -0.46286
 Alpha  occ. eigenvalues --   -0.45854
 Alpha virt. eigenvalues --    0.03402   0.04452   0.05290   0.05792   0.07007
 Alpha virt. eigenvalues --    0.07753   0.08687   0.09462   0.10351   0.13745
 Alpha virt. eigenvalues --    0.15024   0.15926   0.16089   0.16578   0.17806

 Mulliken charges:
               1
     1  Si   1.233243
     2  O   -0.659180
     3  O   -0.292793
     4  H    0.233784
     5  C    0.222232
     6  H   -0.166535
     7  H   -0.237816
     8  H   -0.175199
     9  H   -0.072882
    10  H   -0.084855
 Sum of Mulliken charges =   0.00000

 Dipole moment (field-independent basis, Debye):
    X=             -0.7610    Y=              0.1162    Z=              1.3897  Tot=              1.5886

 Test job not archived.
 1\1\GINC-SE329\SP\RHF\Aug-CC-pVDZ\C1H6O2Si1\OHZDE\09-Apr-2025\0\\#t hf
  aug-cc-pvdz iop(5/13=1,5/36=2,99/5=2) pseudo=read geom=check guess=(r
 ead,tcheck) scf=(maxcycle=1)\\title\\0,1\Si,0,-0.404051,0.52485,0.0138
 06\O,0,0.778731,-0.679801,-0.023372\O,0,2.072699,0.007879,-0.093626\H,
 0,2.496919,-0.363667,0.691677\C,0,-2.012712,-0.420541,-0.001785\H,0,-2
 .103639,-1.024091,-0.907981\H,0,-2.853609,0.279402,0.026775\H,0,-2.093
 115,-1.082698,0.863626\H,0,-0.271795,1.40682,-1.165873\H,0,-0.253224,1
 .334952,1.245191\\Version=ES64L-G16RevC.01\State=1-A\HF=-480.0698424\R

 Normal termination of Gaussian 16 at Wed Apr  9 00:04:30 2025.
