 Gaussian 16, Revision C.01,

 ----------------------------------------------------------------------
 #t hf aug-cc-pvdz symm=none int=(grid=ultrafine) guess=(read,tcheck) s
 table=(opt,rrhf)
 ----------------------------------------------------------------------
 -----
 title
 -----
 Symbolic Z-matrix:
 Charge =  0 Multiplicity = 1

 SCF Done:  E(RHF) =  -765.677052806     A.U. after   14 cycles
 Normal termination of Gaussian 16 at Tue Apr  8 23:51:56 2025.
 Gaussian 16:  ES64L-G16RevC.01  3-Jul-2019

 ----------------------------------------------------------------------
 #t hf aug-cc-pvdz iop(5/13=1,5/36=2,99/5=2) pseudo=read geom=check gue
 ss=(read,tcheck) scf=(maxcycle=1)
 ----------------------------------------------------------------------
 -----
 title
 -----
 Structure from the checkpoint file:  "BDE49_nonexpt_1937_mol1.chk"
 Charge =  0 Multiplicity = 1

                         Standard orientation:
 ---------------------------------------------------------------------
 Center     Atomic      Atomic             Coordinates (Angstroms)
 Number     Number       Type             X           Y           Z
 ---------------------------------------------------------------------
      1         14           0        1.914909   -0.333902    0.033277
      2          6           0        0.470133    0.865233   -0.334265
      3          1           0        3.115409    0.155183   -0.682139
      4          1           0        1.562874   -1.691679   -0.430731
      5          1           0        2.184286   -0.356806    1.488798
      6          6           0       -0.739694    0.508830    0.443322
      7         16           0       -2.027402   -0.324609   -0.094921
      8          1           0       -0.721372    0.824585    1.489880
      9          1           0        0.277820    0.828340   -1.409098
     10          1           0        0.828050    1.864379   -0.058193
 ---------------------------------------------------------------------

 SCF Done:  E(RHF) =  -765.742731609     A.U. after    2 cycles

 The electronic state is 1-A.
 Alpha  occ. eigenvalues --  -93.51779 -69.08391 -11.33594 -11.25634  -8.81665
 Alpha  occ. eigenvalues --   -6.83645  -6.15816  -6.15473  -6.15196  -3.94431
 Alpha  occ. eigenvalues --   -3.94410  -3.94397  -1.08895  -0.95003  -0.77505
 Alpha  occ. eigenvalues --   -0.70990  -0.63965  -0.58337  -0.52598  -0.50016
 Alpha  occ. eigenvalues --   -0.49227  -0.48814  -0.38105  -0.33867
 Alpha virt. eigenvalues --    0.02857   0.04215   0.04720   0.05140   0.05411
 Alpha virt. eigenvalues --    0.07077   0.07501   0.08420   0.08622   0.09140
 Alpha virt. eigenvalues --    0.10534   0.12798   0.14713   0.15136   0.15525

 Mulliken charges:
               1
     1  Si   0.449015
     2  C   -0.035736
     3  H   -0.028472
     4  H    0.003170
     5  H   -0.008004
     6  C    0.092191
     7  S    0.033214
     8  H   -0.313034
     9  H   -0.134025
    10  H   -0.058319
 Sum of Mulliken charges =   0.00000

 Dipole moment (field-independent basis, Debye):
    X=              2.5479    Y=              1.5136    Z=              0.4121  Tot=              2.9921

 Test job not archived.
 1\1\GINC-SE060\SP\RHF\Aug-CC-pVDZ\C2H6S1Si1\OHZDE\08-Apr-2025\0\\#t hf
  aug-cc-pvdz iop(5/13=1,5/36=2,99/5=2) pseudo=read geom=check guess=(r
 ead,tcheck) scf=(maxcycle=1)\\title\\0,1\Si,0,1.914909,-0.333902,0.033
 277\C,0,0.470133,0.865233,-0.334265\H,0,3.115409,0.155183,-0.682139\H,
 0,1.562874,-1.691679,-0.430731\H,0,2.184286,-0.356806,1.488798\C,0,-0.
 739694,0.50883,0.443322\S,0,-2.027402,-0.324609,-0.094921\H,0,-0.72137
 2,0.824585,1.48988\H,0,0.27782,0.82834,-1.409098\H,0,0.82805,1.864379,
 -0.058193\\Version=ES64L-G16RevC.01\State=1-A\HF=-765.7427316\RMSD=6.6

 Normal termination of Gaussian 16 at Tue Apr  8 23:51:59 2025.
