 Gaussian 16, Revision C.01,

 ----------------------------------------------------------------------
 #t hf aug-cc-pvdz symm=none int=(grid=ultrafine) guess=(read,tcheck) s
 table=(opt,rrhf)
 ----------------------------------------------------------------------
 -----
 title
 -----
 Symbolic Z-matrix:
 Charge =  0 Multiplicity = 1

 SCF Done:  E(RHF) =  -918.376779821     A.U. after   14 cycles
 Normal termination of Gaussian 16 at Wed Apr  9 00:14:45 2025.
 Gaussian 16:  ES64L-G16RevC.01  3-Jul-2019

 ----------------------------------------------------------------------
 #t hf aug-cc-pvdz iop(5/13=1,5/36=2,99/5=2) pseudo=read geom=check gue
 ss=(read,tcheck) scf=(maxcycle=1)
 ----------------------------------------------------------------------
 -----
 title
 -----
 Structure from the checkpoint file:  "BDE49_nonexpt_2508_mol1.chk"
 Charge =  0 Multiplicity = 1

                         Standard orientation:
 ---------------------------------------------------------------------
 Center     Atomic      Atomic             Coordinates (Angstroms)
 Number     Number       Type             X           Y           Z
 ---------------------------------------------------------------------
      1         14           0        1.575401   -2.142341    0.000000
      2         16           0       -0.539737   -1.700903    0.000000
      3          6           0       -0.472589    0.103951    0.000000
      4          6           0       -0.477205    0.804899    1.209229
      5          6           0       -0.477205    2.197928    1.205363
      6          6           0       -0.477205    0.804899   -1.209229
      7          6           0       -0.477205    2.197928   -1.205363
      8          6           0       -0.476154    2.896857   -0.000000
      9          1           0       -0.478029    3.980822   -0.000000
     10          1           0       -0.480875    2.735812    2.146728
     11          1           0       -0.484964    0.258430    2.144371
     12          1           0       -0.484964    0.258430   -2.144371
     13          1           0       -0.480875    2.735812   -2.146728
     14          1           0        1.666161   -3.618926    0.000000
     15          1           0        2.234554   -1.590961    1.204767
     16          1           0        2.234554   -1.590961   -1.204767
 ---------------------------------------------------------------------

 SCF Done:  E(RHF) =  -918.485426614     A.U. after    2 cycles

 The electronic state is 1-A'.
 Alpha  occ. eigenvalues --  -93.53002 -69.09137 -11.28604 -11.25696 -11.25690
 Alpha  occ. eigenvalues --  -11.25583 -11.25484 -11.25427  -8.82880  -6.84180
 Alpha  occ. eigenvalues --   -6.17049  -6.16819  -6.16569  -3.94997  -3.94924
 Alpha  occ. eigenvalues --   -3.94889  -1.15725  -1.04366  -1.02149  -0.93111
 Alpha  occ. eigenvalues --   -0.84063  -0.81126  -0.71600  -0.69090  -0.64431
 Alpha  occ. eigenvalues --   -0.63836  -0.60265  -0.56877  -0.53171  -0.51139
 Alpha  occ. eigenvalues --   -0.50498  -0.49814  -0.47448  -0.44414  -0.36553
 Alpha  occ. eigenvalues --   -0.35064  -0.33904
 Alpha virt. eigenvalues --    0.03176   0.04011   0.04155   0.05125   0.05945
 Alpha virt. eigenvalues --    0.05962   0.07303   0.07736   0.07900   0.08499
 Alpha virt. eigenvalues --    0.09510   0.09860   0.10266   0.10801   0.12764

 Mulliken charges:
               1
     1  Si   0.371781
     2  S   -0.237457
     3  C    0.409694
     4  C    0.087811
     5  C    0.612640
     6  C    0.087811
     7  C    0.612640
     8  C    0.353285
     9  H   -0.434788
    10  H   -0.440776
    11  H   -0.482641
    12  H   -0.482641
    13  H   -0.440776
    14  H   -0.015473
    15  H   -0.000556
    16  H   -0.000556
 Sum of Mulliken charges =  -0.00000

 Dipole moment (field-independent basis, Debye):
    X=              0.8612    Y=              1.4983    Z=             -0.0000  Tot=              1.7282

 Test job not archived.
 1\1\GINC-SE094\SP\RHF\Aug-CC-pVDZ\C6H8S1Si1\OHZDE\09-Apr-2025\0\\#t hf
  aug-cc-pvdz iop(5/13=1,5/36=2,99/5=2) pseudo=read geom=check guess=(r
 ead,tcheck) scf=(maxcycle=1)\\title\\0,1\Si,0,-1.575401,-2.142341,0.\S
 ,0,0.539737,-1.700903,0.\C,0,0.472589,0.103951,0.\C,0,0.477205,0.80489
 9,-1.209229\C,0,0.477205,2.197928,-1.205363\C,0,0.477205,0.804899,1.20
 9229\C,0,0.477205,2.197928,1.205363\C,0,0.476154,2.896857,0.\H,0,0.478
 029,3.980822,0.\H,0,0.480875,2.735812,-2.146728\H,0,0.484964,0.25843,-
 2.144371\H,0,0.484964,0.25843,2.144371\H,0,0.480875,2.735812,2.146728\

 Normal termination of Gaussian 16 at Wed Apr  9 00:14:51 2025.
