 Gaussian 16, Revision C.01,

 ----------------------------------------------------------------------
 #t hf aug-cc-pvdz symm=none int=(grid=ultrafine) guess=(read,tcheck) s
 table=(opt,rrhf)
 ----------------------------------------------------------------------
 -----
 title
 -----
 Symbolic Z-matrix:
 Charge =  0 Multiplicity = 1

 SCF Done:  E(RHF) =  -867.350813381     A.U. after   12 cycles
 Normal termination of Gaussian 16 at Tue Apr  8 23:43:25 2025.
 Gaussian 16:  ES64L-G16RevC.01  3-Jul-2019

 ----------------------------------------------------------------------
 #t hf aug-cc-pvdz iop(5/13=1,5/36=2,99/5=2) pseudo=read geom=check gue
 ss=(read,tcheck) scf=(maxcycle=1)
 ----------------------------------------------------------------------
 -----
 title
 -----
 Structure from the checkpoint file:  "BDE49_nonexpt_1735_mol1.chk"
 Charge =  0 Multiplicity = 1

                         Standard orientation:
 ---------------------------------------------------------------------
 Center     Atomic      Atomic             Coordinates (Angstroms)
 Number     Number       Type             X           Y           Z
 ---------------------------------------------------------------------
      1         14           0        0.485583   -0.000003    0.963098
      2          6           0       -1.289119   -0.000001    0.333602
      3         17           0        1.839652    0.000002   -0.633848
      4          6           0       -1.635199    1.274809   -0.457844
      5          1           0       -1.441347    2.182830    0.120009
      6          1           0       -2.694310    1.277946   -0.735448
      7          1           0       -1.052559    1.336184   -1.381370
      8          6           0       -1.635200   -1.274806   -0.457850
      9          1           0       -2.694310   -1.277941   -0.735455
     10          1           0       -1.441348   -2.182830    0.119998
     11          1           0       -1.052560   -1.336177   -1.381377
     12          1           0       -1.885366   -0.000003    1.259370
     13          1           0        0.773333   -1.211731    1.759430
     14          1           0        0.773333    1.211720    1.759437
 ---------------------------------------------------------------------

 SCF Done:  E(RHF) =  -867.431654911     A.U. after    2 cycles

 The electronic state is 1-A.
 Alpha  occ. eigenvalues -- -103.64411 -69.10410 -11.24220 -11.23695 -11.23688
 Alpha  occ. eigenvalues --  -10.67838  -8.33530  -8.33317  -8.33310  -6.85342
 Alpha  occ. eigenvalues --   -3.96183  -3.96034  -3.96010  -1.12745  -1.05604
 Alpha  occ. eigenvalues --   -0.93615  -0.81675  -0.69297  -0.62872  -0.59882
 Alpha  occ. eigenvalues --   -0.57525  -0.54888  -0.52509  -0.51608  -0.49186
 Alpha  occ. eigenvalues --   -0.49154  -0.47867  -0.44951  -0.41922
 Alpha virt. eigenvalues --    0.03166   0.04641   0.04786   0.05108   0.06482
 Alpha virt. eigenvalues --    0.06806   0.07198   0.07417   0.07805   0.09850
 Alpha virt. eigenvalues --    0.09893   0.11251   0.13311   0.13772   0.14635

 Mulliken charges:
               1
     1  Si   0.360492
     2  C   -0.430571
     3  Cl  -0.572021
     4  C    0.471270
     5  H   -0.130727
     6  H   -0.069982
     7  H   -0.060245
     8  C    0.471271
     9  H   -0.069984
    10  H   -0.130728
    11  H   -0.060244
    12  H   -0.060151
    13  H    0.140810
    14  H    0.140811
 Sum of Mulliken charges =  -0.00000

 Dipole moment (field-independent basis, Debye):
    X=             -2.1119    Y=             -0.0000    Z=              1.0395  Tot=              2.3539

 Test job not archived.
 1\1\GINC-SE362\SP\RHF\Aug-CC-pVDZ\C3H9Cl1Si1\OHZDE\08-Apr-2025\0\\#t h
 f aug-cc-pvdz iop(5/13=1,5/36=2,99/5=2) pseudo=read geom=check guess=(
 read,tcheck) scf=(maxcycle=1)\\title\\0,1\Si,0,0.485583,-0.000003,0.96
 3098\C,0,-1.289119,-0.000001,0.333602\Cl,0,1.839652,0.000002,-0.633848
 \C,0,-1.635199,1.274809,-0.457844\H,0,-1.441347,2.18283,0.120009\H,0,-
 2.69431,1.277946,-0.735448\H,0,-1.052559,1.336184,-1.38137\C,0,-1.6352
 ,-1.274806,-0.45785\H,0,-2.69431,-1.277941,-0.735455\H,0,-1.441348,-2.
 18283,0.119998\H,0,-1.05256,-1.336177,-1.381377\H,0,-1.885366,-0.00000

 Normal termination of Gaussian 16 at Tue Apr  8 23:43:29 2025.
