 Gaussian 16, Revision C.01,

 ----------------------------------------------------------------------
 #t hf aug-cc-pvdz symm=none int=(grid=ultrafine) guess=(read,tcheck) s
 table=(opt,rrhf)
 ----------------------------------------------------------------------
 -----
 title
 -----
 Symbolic Z-matrix:
 Charge =  0 Multiplicity = 1

 SCF Done:  E(RHF) =  -737.317352944     A.U. after   15 cycles
 Normal termination of Gaussian 16 at Tue Apr  8 23:51:33 2025.
 Gaussian 16:  ES64L-G16RevC.01  3-Jul-2019

 ----------------------------------------------------------------------
 #t hf aug-cc-pvdz iop(5/13=1,5/36=2,99/5=2) pseudo=read geom=check gue
 ss=(read,tcheck) scf=(maxcycle=1)
 ----------------------------------------------------------------------
 -----
 title
 -----
 Structure from the checkpoint file:  "BDE49_nonexpt_1920_mol1.chk"
 Charge =  0 Multiplicity = 1

                         Standard orientation:
 ---------------------------------------------------------------------
 Center     Atomic      Atomic             Coordinates (Angstroms)
 Number     Number       Type             X           Y           Z
 ---------------------------------------------------------------------
      1          6           0        0.792465    0.738030    0.000079
      2         14           0       -0.436316   -0.703679    0.000115
      3          7           0       -2.097269    0.168518    0.000254
      4          8           0       -2.121832    1.399661   -0.000179
      5          1           0       -0.462478   -1.481114    1.242421
      6          1           0       -0.462619   -1.481058   -1.242226
      7          8           0       -3.089752   -0.550993   -0.000216
      8          7           0        2.149353    0.093013   -0.000013
      9          8           0        3.149404    0.770224   -0.000071
     10          8           0        2.117989   -1.144734   -0.000054
     11          1           0        0.733885    1.380730    0.879249
     12          1           0        0.733785    1.380771   -0.879054
 ---------------------------------------------------------------------

 SCF Done:  E(RHF) =  -737.478908591     A.U. after    2 cycles

 The electronic state is 1-A.
 Alpha  occ. eigenvalues --  -69.15969 -20.66436 -20.65561 -20.63267 -20.63182
 Alpha  occ. eigenvalues --  -15.95239 -15.89470 -11.33950  -6.90885  -4.01768
 Alpha  occ. eigenvalues --   -4.01594  -4.01549  -1.58893  -1.54459  -1.40720
 Alpha  occ. eigenvalues --   -1.36878  -1.11534  -0.95622  -0.89423  -0.81187
 Alpha  occ. eigenvalues --   -0.79071  -0.77658  -0.77655  -0.74268  -0.72114
 Alpha  occ. eigenvalues --   -0.69866  -0.63408  -0.57958  -0.54945  -0.54707
 Alpha  occ. eigenvalues --   -0.54387  -0.51747  -0.51097  -0.48715  -0.48291
 Alpha virt. eigenvalues --    0.02816   0.03059   0.04007   0.04905   0.05620
 Alpha virt. eigenvalues --    0.05933   0.06536   0.07683   0.09852   0.10681
 Alpha virt. eigenvalues --    0.12517   0.12922   0.13293   0.14482   0.14555

 Mulliken charges:
               1
     1  C    0.638646
     2  Si   0.750066
     3  N    0.352320
     4  O   -0.517076
     5  H    0.130230
     6  H    0.130189
     7  O   -0.585758
     8  N    0.438144
     9  O   -0.524683
    10  O   -0.562537
    11  H   -0.124758
    12  H   -0.124782
 Sum of Mulliken charges =  -0.00000

 Dipole moment (field-independent basis, Debye):
    X=              1.3732    Y=             -0.0131    Z=              0.0014  Tot=              1.3732

 Test job not archived.
 1\1\GINC-SE249\SP\RHF\Aug-CC-pVDZ\C1H4N2O4Si1\OHZDE\08-Apr-2025\0\\#t
 hf aug-cc-pvdz iop(5/13=1,5/36=2,99/5=2) pseudo=read geom=check guess=
 (read,tcheck) scf=(maxcycle=1)\\title\\0,1\C,0,-0.792465,0.73803,-0.00
 0079\Si,0,0.436316,-0.703679,-0.000115\N,0,2.097269,0.168518,-0.000254
 \O,0,2.121832,1.399661,0.000179\H,0,0.462478,-1.481114,-1.242421\H,0,0
 .462619,-1.481058,1.242226\O,0,3.089752,-0.550993,0.000216\N,0,-2.1493
 53,0.093013,0.000013\O,0,-3.149404,0.770224,0.000071\O,0,-2.117989,-1.
 144734,0.000054\H,0,-0.733885,1.38073,-0.879249\H,0,-0.733785,1.380771

 Normal termination of Gaussian 16 at Tue Apr  8 23:51:39 2025.
