 Gaussian 16, Revision C.01,

 ----------------------------------------------------------------------
 #t hf aug-cc-pvdz symm=none int=(grid=ultrafine) guess=(read,tcheck) s
 table=(opt,rrhf)
 ----------------------------------------------------------------------
 -----
 title
 -----
 Symbolic Z-matrix:
 Charge =  0 Multiplicity = 1

 SCF Done:  E(RHF) =  -1512.90534357     A.U. after   17 cycles
 Normal termination of Gaussian 16 at Wed Apr  9 00:51:53 2025.
 Gaussian 16:  ES64L-G16RevC.01  3-Jul-2019

 ----------------------------------------------------------------------
 #t hf aug-cc-pvdz iop(5/13=1,5/36=2,99/5=2) pseudo=read geom=check gue
 ss=(read,tcheck) scf=(maxcycle=1)
 ----------------------------------------------------------------------
 -----
 title
 -----
 Structure from the checkpoint file:  "BDE49_nonexpt_939_mol1.chk"
 Charge =  0 Multiplicity = 1

                         Standard orientation:
 ---------------------------------------------------------------------
 Center     Atomic      Atomic             Coordinates (Angstroms)
 Number     Number       Type             X           Y           Z
 ---------------------------------------------------------------------
      1         17           0        3.412217    0.087915    0.010449
      2          7           0        1.763301    0.634984   -0.212575
      3          6           0        0.886078   -0.222028    0.179469
      4          7           0        1.061948   -1.416160    0.786843
      5          1           0        2.002035   -1.783561    0.799834
      6          1           0        0.297371   -2.069418    0.853962
      7          6           0       -0.560876    0.226711   -0.055795
      8         17           0       -0.750167    1.901174   -0.463844
      9          7           0       -1.234548   -0.640155   -1.196989
     10          8           0       -0.517714   -1.436619   -1.761079
     11          8           0       -2.401746   -0.409342   -1.401619
     12          7           0       -1.428237   -0.126939    1.221866
     13          8           0       -1.713179    0.763653    1.974088
     14          8           0       -1.697701   -1.311661    1.328343
 ---------------------------------------------------------------------

 SCF Done:  E(RHF) =  -1513.11947262     A.U. after    2 cycles

 The electronic state is 1-A.
 Alpha  occ. eigenvalues -- -103.73423-103.70668 -20.68825 -20.67565 -20.67385
 Alpha  occ. eigenvalues --  -20.67274 -15.98113 -15.97638 -15.71709 -15.69826
 Alpha  occ. eigenvalues --  -11.50099 -11.42076 -10.76692 -10.73669  -8.42438
 Alpha  occ. eigenvalues --   -8.42065  -8.42057  -8.39414  -8.39054  -8.39030
 Alpha  occ. eigenvalues --   -1.62268  -1.60626  -1.43855  -1.43236  -1.33504
 Alpha  occ. eigenvalues --   -1.26754  -1.22222  -1.12251  -1.09898  -0.98845
 Alpha  occ. eigenvalues --   -0.91161  -0.86069  -0.85104  -0.81232  -0.79845
 Alpha  occ. eigenvalues --   -0.78996  -0.77953  -0.77008  -0.74872  -0.69072
 Alpha  occ. eigenvalues --   -0.65327  -0.62498  -0.59937  -0.58157  -0.57094
 Alpha  occ. eigenvalues --   -0.55742  -0.53611  -0.53532  -0.52509  -0.51843
 Alpha  occ. eigenvalues --   -0.51552  -0.50816  -0.45694  -0.40769
 Alpha virt. eigenvalues --    0.02044   0.02520   0.02813   0.05817   0.06038
 Alpha virt. eigenvalues --    0.08195   0.08655   0.09266   0.09519   0.10501
 Alpha virt. eigenvalues --    0.12391   0.12629   0.13837   0.14172   0.14368

 Mulliken charges:
               1
     1  Cl   0.113308
     2  N   -0.728737
     3  C    0.994087
     4  N   -0.129955
     5  H   -0.002591
     6  H    0.082409
     7  C    1.043603
     8  Cl   0.087252
     9  N    0.428672
    10  O   -0.552901
    11  O   -0.557927
    12  N    0.320598
    13  O   -0.522760
    14  O   -0.575058
 Sum of Mulliken charges =  -0.00000

 Dipole moment (field-independent basis, Debye):
    X=              1.5496    Y=             -0.9332    Z=              0.8428  Tot=              1.9956

 Test job not archived.
 1\1\GINC-SE184\SP\RHF\Aug-CC-pVDZ\C2H2Cl2N4O4\OHZDE\09-Apr-2025\0\\#t
 hf aug-cc-pvdz iop(5/13=1,5/36=2,99/5=2) pseudo=read geom=check guess=
 (read,tcheck) scf=(maxcycle=1)\\title\\0,1\Cl,0,-3.412217,0.087915,-0.
 010449\N,0,-1.763301,0.634984,0.212575\C,0,-0.886078,-0.222028,-0.1794
 69\N,0,-1.061948,-1.41616,-0.786843\H,0,-2.002035,-1.783561,-0.799834\
 H,0,-0.297371,-2.069418,-0.853962\C,0,0.560876,0.226711,0.055795\Cl,0,
 0.750167,1.901174,0.463844\N,0,1.234548,-0.640155,1.196989\O,0,0.51771
 4,-1.436619,1.761079\O,0,2.401746,-0.409342,1.401619\N,0,1.428237,-0.1

 Normal termination of Gaussian 16 at Wed Apr  9 00:52:02 2025.
