 Gaussian 16, Revision C.01,

 ----------------------------------------------------------------------
 #t hf aug-cc-pvdz symm=none int=(grid=ultrafine) guess=(read,tcheck) s
 table=(opt,rrhf)
 ----------------------------------------------------------------------
 -----
 title
 -----
 Symbolic Z-matrix:
 Charge =  0 Multiplicity = 1

 SCF Done:  E(RHF) =  -793.051888819     A.U. after   17 cycles
 Normal termination of Gaussian 16 at Tue Apr  8 22:52:01 2025.
 Gaussian 16:  ES64L-G16RevC.01  3-Jul-2019

 ----------------------------------------------------------------------
 #t hf aug-cc-pvdz iop(5/13=1,5/36=2,99/5=2) pseudo=read geom=check gue
 ss=(read,tcheck) scf=(maxcycle=1)
 ----------------------------------------------------------------------
 -----
 title
 -----
 Structure from the checkpoint file:  "BDE49_expt_1818_mol1.chk"
 Charge =  0 Multiplicity = 1

                         Standard orientation:
 ---------------------------------------------------------------------
 Center     Atomic      Atomic             Coordinates (Angstroms)
 Number     Number       Type             X           Y           Z
 ---------------------------------------------------------------------
      1          7           0        2.705032   -0.202492   -0.515980
      2          8           0        2.714380   -1.174646    0.139827
      3         16           0        1.218774    0.953181   -0.316124
      4          6           0        0.248931    0.041207    0.908061
      5          8           0       -0.830394   -0.705692    0.343498
      6          1           0       -0.116933    0.748560    1.649932
      7          1           0        0.916469   -0.700688    1.351223
      8          6           0       -1.949215    0.008666    0.027884
      9          8           0       -2.037401    1.195389    0.198905
     10          6           0       -3.006401   -0.891191   -0.551679
     11          1           0       -2.653676   -1.301608   -1.500969
     12          1           0       -3.918264   -0.320451   -0.712295
     13          1           0       -3.195781   -1.731766    0.118514
 ---------------------------------------------------------------------

 SCF Done:  E(RHF) =  -793.196831831     A.U. after    2 cycles

 The electronic state is 1-A.
 Alpha  occ. eigenvalues --  -93.57773 -20.69178 -20.63589 -20.57822 -15.83434
 Alpha  occ. eigenvalues --  -11.41136 -11.34845 -11.26328  -8.87399  -6.21457
 Alpha  occ. eigenvalues --   -6.21230  -6.20911  -1.53679  -1.43750  -1.34448
 Alpha  occ. eigenvalues --   -1.07652  -1.02554  -0.96168  -0.86645  -0.79632
 Alpha  occ. eigenvalues --   -0.74078  -0.71875  -0.71403  -0.70491  -0.66396
 Alpha  occ. eigenvalues --   -0.66037  -0.61896  -0.59255  -0.57940  -0.56006
 Alpha  occ. eigenvalues --   -0.52856  -0.48649  -0.46857  -0.39911  -0.39319
 Alpha virt. eigenvalues --    0.03274   0.04546   0.05530   0.05613   0.06305
 Alpha virt. eigenvalues --    0.06619   0.07737   0.08922   0.09370   0.11741
 Alpha virt. eigenvalues --    0.12381   0.13315   0.13932   0.14224   0.15262

 Mulliken charges:
               1
     1  N   -0.136310
     2  O   -0.347589
     3  S    0.642338
     4  C    0.435348
     5  O   -0.537846
     6  H   -0.009037
     7  H   -0.246845
     8  C    0.231479
     9  O   -0.418873
    10  C    0.312036
    11  H    0.051511
    12  H   -0.002409
    13  H    0.026198
 Sum of Mulliken charges =  -0.00000

 Dipole moment (field-independent basis, Debye):
    X=             -1.3183    Y=             -1.7031    Z=              0.4104  Tot=              2.1925

 Test job not archived.
 1\1\GINC-SE340\SP\RHF\Aug-CC-pVDZ\C3H5N1O3S1\OHZDE\08-Apr-2025\0\\#t h
 f aug-cc-pvdz iop(5/13=1,5/36=2,99/5=2) pseudo=read geom=check guess=(
 read,tcheck) scf=(maxcycle=1)\\title\\0,1\N,0,-2.705032,0.202492,-0.51
 598\O,0,-2.71438,1.174646,0.139827\S,0,-1.218774,-0.953181,-0.316124\C
 ,0,-0.248931,-0.041207,0.908061\O,0,0.830394,0.705692,0.343498\H,0,0.1
 16933,-0.74856,1.649932\H,0,-0.916469,0.700688,1.351223\C,0,1.949215,-
 0.008666,0.027884\O,0,2.037401,-1.195389,0.198905\C,0,3.006401,0.89119
 1,-0.551679\H,0,2.653676,1.301608,-1.500969\H,0,3.918264,0.320451,-0.7

 Normal termination of Gaussian 16 at Tue Apr  8 22:52:05 2025.
