 Gaussian 16, Revision C.01,

 ----------------------------------------------------------------------
 #t hf aug-cc-pvdz symm=none int=(grid=ultrafine) guess=(read,tcheck) s
 table=(opt,rrhf)
 ----------------------------------------------------------------------
 -----
 title
 -----
 Symbolic Z-matrix:
 Charge =  0 Multiplicity = 1

 SCF Done:  E(RHF) =  -510.620459228     A.U. after   12 cycles

 1\1\GINC-SE059\Stability\RHF\Aug-CC-pVDZ\B2Cl1H3\OHZDE\08-Apr-2025\0\\
 #t hf aug-cc-pvdz symm=none int=(grid=ultrafine) guess=(read,tcheck) s
 table=(opt,rrhf)\\title\\0,1\B,0,1.905791,-0.26085,-0.000034\B,0,0.537
 251,0.668237,0.000203\Cl,0,-1.03255,-0.156835,-0.00006\H,0,2.422436,-0
 .615314,1.016735\H,0,2.423299,-0.613535,-1.016982\H,0,0.492404,1.85810
 4,0.000417\\Version=ES64L-G16RevC.01\HF=-510.6204592\RMSD=9.259e-09\Di
 pole=0.4666388,0.21742,0.0001055\Quadrupole=-0.4661074,0.2559188,0.210
 1885,1.0024806,0.0008107,0.0009683\PG=Unknown\\@

 Normal termination of Gaussian 16 at Tue Apr  8 23:38:05 2025.
 Gaussian 16:  ES64L-G16RevC.01  3-Jul-2019

 ----------------------------------------------------------------------
 #t hf aug-cc-pvdz iop(5/13=1,5/36=2,99/5=2) pseudo=read geom=check gue
 ss=(read,tcheck) scf=(maxcycle=1)
 ----------------------------------------------------------------------
 -----
 title
 -----
 Structure from the checkpoint file:  "BDE49_nonexpt_15_mol1.chk"
 Charge =  0 Multiplicity = 1

                         Standard orientation:
 ---------------------------------------------------------------------
 Center     Atomic      Atomic             Coordinates (Angstroms)
 Number     Number       Type             X           Y           Z
 ---------------------------------------------------------------------
      1          5           0       -1.905791   -0.260850    0.000034
      2          5           0       -0.537251    0.668237   -0.000203
      3         17           0        1.032550   -0.156835    0.000060
      4          1           0       -2.422436   -0.615314   -1.016735
      5          1           0       -2.423299   -0.613535    1.016982
      6          1           0       -0.492404    1.858104   -0.000417
 ---------------------------------------------------------------------

 SCF Done:  E(RHF) =  -510.655087247     A.U. after    2 cycles

 The electronic state is 1-A.
 Alpha  occ. eigenvalues -- -103.66188 -10.69640  -8.35324  -8.35125  -8.35077
 Alpha  occ. eigenvalues --   -7.66397  -7.62117  -1.15193  -0.74327  -0.64773
 Alpha  occ. eigenvalues --   -0.55536  -0.51507  -0.51055  -0.48484  -0.42545
 Alpha virt. eigenvalues --    0.03419   0.04237   0.04456   0.04820   0.06140
 Alpha virt. eigenvalues --    0.06857   0.07380   0.09212   0.09622   0.10030
 Alpha virt. eigenvalues --    0.13549   0.14390   0.15025   0.15987   0.16891

 Mulliken charges:
               1
     1  B   -0.265368
     2  B    0.084719
     3  Cl  -0.375213
     4  H    0.186191
     5  H    0.186269
     6  H    0.183402
 Sum of Mulliken charges =  -0.00000

 Dipole moment (field-independent basis, Debye):
    X=             -1.2582    Y=              0.5866    Z=             -0.0003  Tot=              1.3882

 Test job not archived.
 1\1\GINC-SE059\SP\RHF\Aug-CC-pVDZ\B2Cl1H3\OHZDE\08-Apr-2025\0\\#t hf a
 ug-cc-pvdz iop(5/13=1,5/36=2,99/5=2) pseudo=read geom=check guess=(rea
 d,tcheck) scf=(maxcycle=1)\\title\\0,1\B,0,1.905791,-0.26085,-0.000034
 \B,0,0.537251,0.668237,0.000203\Cl,0,-1.03255,-0.156835,-0.00006\H,0,2
 .422436,-0.615314,1.016735\H,0,2.423299,-0.613535,-1.016982\H,0,0.4924
 04,1.858104,0.000417\\Version=ES64L-G16RevC.01\State=1-A\HF=-510.65508
 72\RMSD=3.662e-03\Dipole=0.4950281,0.2307675,0.0001103\Quadrupole=-0.4
 76567,0.2704912,0.2060758,1.0288323,0.0008229,0.0009813\PG=C01 [X(B2Cl

 Normal termination of Gaussian 16 at Tue Apr  8 23:38:07 2025.
