 Gaussian 16, Revision C.01,

 ----------------------------------------------------------------------
 #t hf aug-cc-pvdz symm=none int=(grid=ultrafine) guess=(read,tcheck) s
 table=opt
 ----------------------------------------------------------------------
 -----
 title
 -----
 Symbolic Z-matrix:
 Charge =  0 Multiplicity = 2

 SCF Done:  E(UHF) =  -364.329368857     A.U. after   19 cycles

 1\1\GINC-SE344\Stability\UHF\Aug-CC-pVDZ\H1O1Si1\OHZDE\08-Apr-2025\0\\
 #t hf aug-cc-pvdz symm=none int=(grid=ultrafine) guess=(read,tcheck) s
 table=opt\\title\\0,2\Si,0,0.058933,-0.501463,0.\O,0,0.058933,1.028698
 ,0.\H,0,-1.296519,-1.20911,0.\\Version=ES64L-G16RevC.01\HF=-364.329368
 9\S2=0.775565\S2-1=0.\S2A=0.750381\RMSD=8.724e-09\Dipole=-0.079127,-1.
 6177037,0.\Quadrupole=0.1137842,-1.9407489,1.8269647,-0.1380063,0.,0.\
 PG=Unknown\\@
 The archive entry for this job was punched.

 Normal termination of Gaussian 16 at Tue Apr  8 23:54:17 2025.
 Gaussian 16:  ES64L-G16RevC.01  3-Jul-2019

 ----------------------------------------------------------------------
 #t hf aug-cc-pvdz iop(5/13=1,5/36=2,99/5=2) pseudo=read geom=check gue
 ss=(read,tcheck) scf=(maxcycle=1)
 ----------------------------------------------------------------------
 -----
 title
 -----
 Structure from the checkpoint file:  "BDE49_nonexpt_1993_mol2.chk"
 Charge =  0 Multiplicity = 2

                         Standard orientation:
 ---------------------------------------------------------------------
 Center     Atomic      Atomic             Coordinates (Angstroms)
 Number     Number       Type             X           Y           Z
 ---------------------------------------------------------------------
      1         14           0        0.058933   -0.501463    0.000000
      2          8           0        0.058933    1.028698    0.000000
      3          1           0       -1.296519   -1.209110    0.000000
 ---------------------------------------------------------------------

 SCF Done:  E(UHF) =  -364.383626819     A.U. after    2 cycles

 The electronic state is 2-A'.
 Alpha  occ. eigenvalues --  -69.13605 -20.55212  -6.88707  -3.99621  -3.99168
 Alpha  occ. eigenvalues --   -3.98867  -1.23949  -0.68115  -0.57937  -0.52251
 Alpha  occ. eigenvalues --   -0.48952  -0.39443
 Alpha virt. eigenvalues --    0.00755   0.04052   0.05798   0.06373   0.08707
 Alpha virt. eigenvalues --    0.10732   0.15445   0.18033   0.19728   0.23414
 Alpha virt. eigenvalues --    0.25827   0.26160   0.28392   0.30421   0.32490

  Beta  occ. eigenvalues --  -69.13239 -20.54008  -6.88090  -3.98934  -3.98899
  Beta  occ. eigenvalues --   -3.98116  -1.20152  -0.62980  -0.51602  -0.48069
  Beta  occ. eigenvalues --   -0.45234
  Beta virt. eigenvalues --   -0.01137   0.02394   0.04419   0.06054   0.07060
  Beta virt. eigenvalues --    0.09889   0.12454   0.16949   0.20615   0.20943
  Beta virt. eigenvalues --    0.23666   0.26272   0.27129   0.29335   0.30752

 Mulliken charges and spin densities:
               1          2
     1  Si   1.112715   0.489940
     2  O   -1.004827   0.217625
     3  H   -0.107888   0.292435
 Sum of Mulliken charges =  -0.00000   1.00000

 Dipole moment (field-independent basis, Debye):
    X=             -0.1280    Y=             -4.4583    Z=              0.0000  Tot=              4.4601
                          Isotropic Fermi Contact Couplings
        Atom                 a.u.       MegaHertz       Gauss      10(-4) cm-1
     1  Si(29)             0.55880    -496.62101    -177.20673    -165.65494
     2  O(17)              0.09015     -54.65129     -19.50094     -18.22971
     3  H(1)               0.08678     387.88639     138.40751     129.38497
 --------------------------------------------------------
       Center         ----  Spin Dipole Couplings  ----
                      3XX-RR        3YY-RR        3ZZ-RR
 --------------------------------------------------------
     1   Atom        0.344452      0.042705     -0.387157

 Normal termination of Gaussian 16 at Tue Apr  8 23:54:19 2025.
