 Gaussian 16, Revision C.01,

 ----------------------------------------------------------------------
 #t hf aug-cc-pvdz symm=none int=(grid=ultrafine) guess=(read,tcheck) s
 table=(opt,rrhf)
 ----------------------------------------------------------------------
 -----
 title
 -----
 Symbolic Z-matrix:
 Charge =  0 Multiplicity = 1

 SCF Done:  E(RHF) =  -1112.58033573     A.U. after   14 cycles
 Normal termination of Gaussian 16 at Tue Apr  8 23:27:15 2025.
 Gaussian 16:  ES64L-G16RevC.01  3-Jul-2019

 ----------------------------------------------------------------------
 #t hf aug-cc-pvdz iop(5/13=1,5/36=2,99/5=2) pseudo=read geom=check gue
 ss=(read,tcheck) scf=(maxcycle=1)
 ----------------------------------------------------------------------
 -----
 title
 -----
 Structure from the checkpoint file:  "BDE49_nonexpt_1255_mol1.chk"
 Charge =  0 Multiplicity = 1

                         Standard orientation:
 ---------------------------------------------------------------------
 Center     Atomic      Atomic             Coordinates (Angstroms)
 Number     Number       Type             X           Y           Z
 ---------------------------------------------------------------------
      1         17           0       -0.812658    2.092392    0.000000
      2         15           0        1.031974    1.017552    0.000000
      3          6           0        0.747606   -0.162475    1.423172
      4          6           0       -0.462835   -1.095075    1.274517
      5          6           0       -0.462995   -1.954621   -0.000000
      6          6           0        0.747606    0.585405    2.763213
      7          6           0       -1.650978   -2.924426   -0.000000
      8          1           0        1.632560    1.217724    2.873244
      9          1           0       -0.134686    1.223720    2.854613
     10          1           0        0.734775   -0.125380    3.595031
     11          1           0       -1.637252   -3.568586    0.883913
     12          1           0       -1.637252   -3.568586   -0.883913
     13          6           0       -0.462835   -1.095075   -1.274517
     14          6           0        0.747606   -0.162475   -1.423172
     15          6           0        0.747606    0.585405   -2.763213
     16          1           0        1.632560    1.217724   -2.873244
     17          1           0       -0.134686    1.223720   -2.854613
     18          1           0        0.734775   -0.125380   -3.595031
     19          1           0       -2.600336   -2.378860   -0.000000
     20          1           0        1.664145   -0.772193    1.373503
     21          1           0       -1.382250   -0.499043    1.311068
     22          1           0       -0.491456   -1.756818    2.149575
     23          1           0        0.459563   -2.553912   -0.000000
     24          1           0       -1.382250   -0.499043   -1.311068
     25          1           0       -0.491456   -1.756818   -2.149575
     26          1           0        1.664145   -0.772193   -1.373503
 ---------------------------------------------------------------------

 SCF Done:  E(RHF) =  -1112.71336534     A.U. after    2 cycles

 The electronic state is 1-A'.
 Alpha  occ. eigenvalues -- -103.63837 -81.29542 -11.25458 -11.25454 -11.24197
 Alpha  occ. eigenvalues --  -11.23527 -11.23516 -11.23288 -11.23288 -11.22731
 Alpha  occ. eigenvalues --  -10.67150  -8.32844  -8.32604  -8.32590  -7.79432
 Alpha  occ. eigenvalues --   -4.93382  -4.93275  -4.92965  -1.12741  -1.10144
 Alpha  occ. eigenvalues --   -1.05143  -1.02642  -0.92958  -0.92666  -0.85920
 Alpha  occ. eigenvalues --   -0.80031  -0.78229  -0.71339  -0.63815  -0.62763
 Alpha  occ. eigenvalues --   -0.61200  -0.60868  -0.58064  -0.56069  -0.56057
 Alpha  occ. eigenvalues --   -0.54279  -0.54165  -0.52770  -0.52380  -0.48708
 Alpha  occ. eigenvalues --   -0.48659  -0.47230  -0.47102  -0.46511  -0.45803
 Alpha  occ. eigenvalues --   -0.45189  -0.40800  -0.33790
 Alpha virt. eigenvalues --    0.03048   0.03853   0.04008   0.04657   0.05645
 Alpha virt. eigenvalues --    0.05953   0.06362   0.06443   0.06749   0.07643
 Alpha virt. eigenvalues --    0.08463   0.08528   0.08989   0.09262   0.09937

 Mulliken charges:
               1
     1  Cl  -0.506268
     2  P    0.521467
     3  C   -0.470369
     4  C    0.543680
     5  C   -1.036910
     6  C    0.722094
     7  C    0.969052
     8  H   -0.075110
     9  H   -0.029523
    10  H   -0.048857
    11  H   -0.046435
    12  H   -0.046435
    13  C    0.543680
    14  C   -0.470369
    15  C    0.722094
    16  H   -0.075110
    17  H   -0.029523
    18  H   -0.048857
    19  H   -0.021790
    20  H   -0.142477
    21  H   -0.108493
    22  H   -0.171741
    23  H   -0.271089
    24  H   -0.108493
    25  H   -0.171741
    26  H   -0.142477
 Sum of Mulliken charges =  -0.00000

 Dipole moment (field-independent basis, Debye):
    X=              1.0347    Y=             -2.8613    Z=              0.0000  Tot=              3.0427

 Test job not archived.
 1\1\GINC-SE132\SP\RHF\Aug-CC-pVDZ\C8H16Cl1P1\OHZDE\08-Apr-2025\0\\#t h
 f aug-cc-pvdz iop(5/13=1,5/36=2,99/5=2) pseudo=read geom=check guess=(
 read,tcheck) scf=(maxcycle=1)\\title\\0,1\Cl,0,-0.812658,-2.092392,0.\
 P,0,1.031974,-1.017552,0.\C,0,0.747606,0.162475,-1.423172\C,0,-0.46283
 5,1.095075,-1.274517\C,0,-0.462995,1.954621,0.\C,0,0.747606,-0.585405,
 -2.763213\C,0,-1.650978,2.924426,0.\H,0,1.63256,-1.217724,-2.873244\H,
 0,-0.134686,-1.22372,-2.854613\H,0,0.734775,0.12538,-3.595031\H,0,-1.6
 37252,3.568586,-0.883913\H,0,-1.637252,3.568586,0.883913\C,0,-0.462835

 Normal termination of Gaussian 16 at Tue Apr  8 23:27:29 2025.
