 Gaussian 16, Revision C.01,

 ----------------------------------------------------------------------
 #t hf aug-cc-pvdz symm=none int=(grid=ultrafine) guess=(read,tcheck) s
 table=(opt,rrhf)
 ----------------------------------------------------------------------
 -----
 title
 -----
 Symbolic Z-matrix:
 Charge =  0 Multiplicity = 1

 SCF Done:  E(RHF) =  -1438.78958099     A.U. after   15 cycles
 Normal termination of Gaussian 16 at Tue Apr  8 23:47:55 2025.
 Gaussian 16:  ES64L-G16RevC.01  3-Jul-2019

 ----------------------------------------------------------------------
 #t hf aug-cc-pvdz iop(5/13=1,5/36=2,99/5=2) pseudo=read geom=check gue
 ss=(read,tcheck) scf=(maxcycle=1)
 ----------------------------------------------------------------------
 -----
 title
 -----
 Structure from the checkpoint file:  "BDE49_nonexpt_1810_mol1.chk"
 Charge =  0 Multiplicity = 1

                         Standard orientation:
 ---------------------------------------------------------------------
 Center     Atomic      Atomic             Coordinates (Angstroms)
 Number     Number       Type             X           Y           Z
 ---------------------------------------------------------------------
      1          6           0       -1.588368   -0.646043   -1.079701
      2          6           0       -2.960472   -0.577879   -0.847713
      3          6           0       -3.443006    0.103586    0.266570
      4          6           0       -2.554266    0.718576    1.148505
      5          6           0       -1.184554    0.651411    0.917211
      6          6           0       -0.682315   -0.033749   -0.200399
      7          1           0       -1.224821   -1.177448   -1.953670
      8          1           0       -3.649568   -1.053707   -1.536132
      9         14           0        1.132434   -0.180101   -0.544832
     10          1           0       -0.503929    1.138860    1.606939
     11         17           0        2.033686   -1.549895    0.728196
     12         17           0        2.087176    1.640502   -0.272842
     13          1           0       -2.930253    1.251660    2.014333
     14          1           0       -4.510582    0.158518    0.447759
     15          1           0        1.388317   -0.632199   -1.919432
 ---------------------------------------------------------------------

 SCF Done:  E(RHF) =  -1438.91831186     A.U. after    2 cycles

 The electronic state is 1-A.
 Alpha  occ. eigenvalues -- -103.66022-103.65770 -69.15952 -11.27081 -11.26811
 Alpha  occ. eigenvalues --  -11.26680 -11.26104 -11.26049 -11.25535 -10.69471
 Alpha  occ. eigenvalues --  -10.69209  -8.35163  -8.34934  -8.34932  -8.34902
 Alpha  occ. eigenvalues --   -8.34674  -8.34671  -6.90381  -4.01189  -4.01120
 Alpha  occ. eigenvalues --   -4.01019  -1.16247  -1.15143  -1.13187  -1.02874
 Alpha  occ. eigenvalues --   -1.02636  -0.84593  -0.84360  -0.74126  -0.69345
 Alpha  occ. eigenvalues --   -0.64923  -0.64662  -0.61051  -0.58346  -0.56212
 Alpha  occ. eigenvalues --   -0.55521  -0.52184  -0.51663  -0.51529  -0.48415
 Alpha  occ. eigenvalues --   -0.47980  -0.46760  -0.45354  -0.36112  -0.35734
 Alpha virt. eigenvalues --    0.02963   0.03770   0.04299   0.05668   0.05913
 Alpha virt. eigenvalues --    0.05997   0.07118   0.07453   0.08576   0.09056
 Alpha virt. eigenvalues --    0.09517   0.10565   0.11595   0.12880   0.13257

 Mulliken charges:
               1
     1  C    0.318389
     2  C    0.711293
     3  C    0.576932
     4  C    0.766968
     5  C    0.683447
     6  C   -0.644028
     7  H   -0.620657
     8  H   -0.436826
     9  Si   1.154556
    10  H   -0.600096
    11  Cl  -0.551528
    12  Cl  -0.519166
    13  H   -0.436075
    14  H   -0.434572
    15  H    0.031362
 Sum of Mulliken charges =   0.00000

 Dipole moment (field-independent basis, Debye):
    X=             -2.9976    Y=             -0.1395    Z=             -0.7274  Tot=              3.0878

 Test job not archived.
 1\1\GINC-SE227\SP\RHF\Aug-CC-pVDZ\C6H6Cl2Si1\OHZDE\08-Apr-2025\0\\#t h
 f aug-cc-pvdz iop(5/13=1,5/36=2,99/5=2) pseudo=read geom=check guess=(
 read,tcheck) scf=(maxcycle=1)\\title\\0,1\C,0,-1.588368,-0.646043,-1.0
 79701\C,0,-2.960472,-0.577879,-0.847713\C,0,-3.443006,0.103586,0.26657
 \C,0,-2.554266,0.718576,1.148505\C,0,-1.184554,0.651411,0.917211\C,0,-
 0.682315,-0.033749,-0.200399\H,0,-1.224821,-1.177448,-1.95367\H,0,-3.6
 49568,-1.053707,-1.536132\Si,0,1.132434,-0.180101,-0.544832\H,0,-0.503
 929,1.13886,1.606939\Cl,0,2.033686,-1.549895,0.728196\Cl,0,2.087176,1.

 Normal termination of Gaussian 16 at Tue Apr  8 23:48:02 2025.
