 Gaussian 16, Revision C.01,

 ----------------------------------------------------------------------
 #t hf aug-cc-pvdz symm=none int=(grid=ultrafine) guess=(read,tcheck) s
 table=(opt,rrhf)
 ----------------------------------------------------------------------
 -----
 title
 -----
 Symbolic Z-matrix:
 Charge =  0 Multiplicity = 1

 SCF Done:  E(RHF) =  -552.477192499     A.U. after   12 cycles
 Normal termination of Gaussian 16 at Tue Apr  8 23:35:26 2025.
 Gaussian 16:  ES64L-G16RevC.01  3-Jul-2019

 ----------------------------------------------------------------------
 #t hf aug-cc-pvdz iop(5/13=1,5/36=2,99/5=2) pseudo=read geom=check gue
 ss=(read,tcheck) scf=(maxcycle=1)
 ----------------------------------------------------------------------
 -----
 title
 -----
 Structure from the checkpoint file:  "BDE49_nonexpt_1529_mol1.chk"
 Charge =  0 Multiplicity = 1

                         Standard orientation:
 ---------------------------------------------------------------------
 Center     Atomic      Atomic             Coordinates (Angstroms)
 Number     Number       Type             X           Y           Z
 ---------------------------------------------------------------------
      1          7           0       -1.763164    0.928617   -0.614016
      2          6           0        0.352429   -0.534160    0.421309
      3          6           0        1.150638    0.751993    0.790927
      4          6           0        1.234112   -0.663762   -0.855666
      5          6           0        2.257798    0.300841   -0.199131
      6          1           0        0.745488   -0.202384   -1.717362
      7          1           0        1.574014   -1.663552   -1.131856
      8          1           0        2.704947    1.067205   -0.835571
      9          1           0        3.057550   -0.242555    0.310077
     10          1           0        1.421790    0.887452    1.839940
     11          1           0        0.649626    1.655174    0.434021
     12         15           0       -1.487385   -0.553648    0.207255
     13          1           0        0.580902   -1.340762    1.127466
     14          1           0       -1.790553   -0.209181    1.558512
     15          1           0       -1.699281    1.802303   -0.109285
     16          1           0       -2.561422    0.921225   -1.231296
 ---------------------------------------------------------------------

 SCF Done:  E(RHF) =  -552.568707953     A.U. after    2 cycles

 The electronic state is 1-A.
 Alpha  occ. eigenvalues --  -81.26433 -15.61293 -11.23467 -11.23087 -11.22812
 Alpha  occ. eigenvalues --  -11.22701  -7.76428  -4.90544  -4.90371  -4.90085
 Alpha  occ. eigenvalues --   -1.12245  -1.10488  -0.90028  -0.89273  -0.77264
 Alpha  occ. eigenvalues --   -0.72676  -0.66452  -0.65185  -0.61588  -0.56700
 Alpha  occ. eigenvalues --   -0.54072  -0.52122  -0.49929  -0.45263  -0.44639
 Alpha  occ. eigenvalues --   -0.43700  -0.38959  -0.32961
 Alpha virt. eigenvalues --    0.03443   0.04189   0.04676   0.04883   0.06271
 Alpha virt. eigenvalues --    0.06729   0.06957   0.07180   0.08539   0.09343
 Alpha virt. eigenvalues --    0.10829   0.11339   0.12017   0.13878   0.14195

 Mulliken charges:
               1
     1  N   -0.474897
     2  C    0.170099
     3  C    0.338070
     4  C    0.296364
     5  C    0.557423
     6  H   -0.232204
     7  H   -0.172150
     8  H   -0.176690
     9  H   -0.233390
    10  H   -0.188155
    11  H   -0.299375
    12  P    0.676757
    13  H   -0.288384
    14  H    0.060239
    15  H   -0.008169
    16  H   -0.025537
 Sum of Mulliken charges =  -0.00000

 Dipole moment (field-independent basis, Debye):
    X=              0.0980    Y=              1.3199    Z=              0.4259  Tot=              1.3904

 Test job not archived.
 1\1\GINC-SE362\SP\RHF\Aug-CC-pVDZ\C4H10N1P1\OHZDE\08-Apr-2025\0\\#t hf
  aug-cc-pvdz iop(5/13=1,5/36=2,99/5=2) pseudo=read geom=check guess=(r
 ead,tcheck) scf=(maxcycle=1)\\title\\0,1\N,0,-1.763164,0.928617,-0.614
 016\C,0,0.352429,-0.53416,0.421309\C,0,1.150638,0.751993,0.790927\C,0,
 1.234112,-0.663762,-0.855666\C,0,2.257798,0.300841,-0.199131\H,0,0.745
 488,-0.202384,-1.717362\H,0,1.574014,-1.663552,-1.131856\H,0,2.704947,
 1.067205,-0.835571\H,0,3.05755,-0.242555,0.310077\H,0,1.42179,0.887452
 ,1.83994\H,0,0.649626,1.655174,0.434021\P,0,-1.487385,-0.553648,0.2072

 Normal termination of Gaussian 16 at Tue Apr  8 23:35:32 2025.
