 Gaussian 16, Revision C.01,

 ----------------------------------------------------------------------
 #t hf aug-cc-pvdz symm=none int=(grid=ultrafine) guess=(read,tcheck) s
 table=(opt,rrhf)
 ----------------------------------------------------------------------
 -----
 title
 -----
 Symbolic Z-matrix:
 Charge =  0 Multiplicity = 1

 SCF Done:  E(RHF) =  -575.543363142     A.U. after   12 cycles

 1\1\GINC-SE247\Stability\RHF\Aug-CC-pVDZ\C6H13P1\OHZDE\08-Apr-2025\0\\
 #t hf aug-cc-pvdz symm=none int=(grid=ultrafine) guess=(read,tcheck) s
 table=(opt,rrhf)\\title\\0,1\C,0,0.615812,0.000181,-0.364552\C,0,-0.09
 6129,-1.270091,0.144027\C,0,-1.593284,-1.261311,-0.203305\C,0,-2.28809
 6,0.006746,0.310994\C,0,-1.585215,1.273388,-0.195788\C,0,-0.087167,1.2
 67529,0.151553\P,0,2.454163,-0.103759,0.009106\H,0,0.018456,-1.332812,
 1.234531\H,0,0.381896,-2.16293,-0.271013\H,0,-2.074877,-2.153427,0.210
 023\H,0,-1.709095,-1.321068,-1.293132\H,0,-2.278524,0.003429,1.408719\

 Normal termination of Gaussian 16 at Tue Apr  8 23:25:53 2025.
 Gaussian 16:  ES64L-G16RevC.01  3-Jul-2019

 ----------------------------------------------------------------------
 #t hf aug-cc-pvdz iop(5/13=1,5/36=2,99/5=2) pseudo=read geom=check gue
 ss=(read,tcheck) scf=(maxcycle=1)
 ----------------------------------------------------------------------
 -----
 title
 -----
 Structure from the checkpoint file:  "BDE49_nonexpt_1298_mol1.chk"
 Charge =  0 Multiplicity = 1

                         Standard orientation:
 ---------------------------------------------------------------------
 Center     Atomic      Atomic             Coordinates (Angstroms)
 Number     Number       Type             X           Y           Z
 ---------------------------------------------------------------------
      1          6           0        0.615812    0.000181   -0.364552
      2          6           0       -0.096129   -1.270091    0.144027
      3          6           0       -1.593284   -1.261311   -0.203305
      4          6           0       -2.288096    0.006746    0.310994
      5          6           0       -1.585215    1.273388   -0.195788
      6          6           0       -0.087167    1.267529    0.151553
      7         15           0        2.454163   -0.103759    0.009106
      8          1           0        0.018456   -1.332812    1.234531
      9          1           0        0.381896   -2.162930   -0.271013
     10          1           0       -2.074877   -2.153427    0.210023
     11          1           0       -1.709095   -1.321068   -1.293132
     12          1           0       -2.278524    0.003429    1.408719
     13          1           0       -3.340332    0.010332    0.009105
     14          1           0       -2.060163    2.166166    0.224036
     15          1           0       -1.702833    1.341379   -1.285019
     16          1           0        0.397864    2.159038   -0.257517
     17          1           0        0.032455    1.320546    1.241288
     18          1           0        0.561239   -0.003421   -1.462328
     19          1           0        2.374210    0.201194    1.395335
     20          1           0        2.791740    1.229314   -0.348188
 ---------------------------------------------------------------------

 SCF Done:  E(RHF) =  -575.634274890     A.U. after    2 cycles

 The electronic state is 1-A.
 Alpha  occ. eigenvalues --  -81.24595 -11.24388 -11.23326 -11.23186 -11.22930
 Alpha  occ. eigenvalues --  -11.22892 -11.22789  -7.74958  -4.88978  -4.88912
 Alpha  occ. eigenvalues --   -4.88645  -1.10747  -1.00287  -0.99933  -0.84437
 Alpha  occ. eigenvalues --   -0.83535  -0.76466  -0.74650  -0.64645  -0.61014
 Alpha  occ. eigenvalues --   -0.60505  -0.59188  -0.53613  -0.53115  -0.51368
 Alpha  occ. eigenvalues --   -0.49708  -0.48918  -0.47734  -0.45710  -0.43906
 Alpha  occ. eigenvalues --   -0.41887  -0.34238
 Alpha virt. eigenvalues --    0.03453   0.04296   0.04464   0.04576   0.06118
 Alpha virt. eigenvalues --    0.06489   0.06610   0.06839   0.07030   0.08585
 Alpha virt. eigenvalues --    0.08902   0.09062   0.09879   0.11095   0.12483

 Mulliken charges:
               1
     1  C   -0.426643
     2  C    0.294753
     3  C    0.306972
     4  C    0.226405
     5  C    0.318937
     6  C    0.318919
     7  P    0.047176
     8  H   -0.107201
     9  H   -0.158583
    10  H   -0.106689
    11  H   -0.089610
    12  H   -0.096236
    13  H   -0.105419
    14  H   -0.114181
    15  H   -0.096785
    16  H   -0.166414
    17  H   -0.101187
    18  H   -0.213254
    19  H    0.134788
    20  H    0.134251
 Sum of Mulliken charges =  -0.00000

 Dipole moment (field-independent basis, Debye):
    X=             -1.3457    Y=              0.4987    Z=              0.0175  Tot=              1.4352

 Test job not archived.
 1\1\GINC-SE247\SP\RHF\Aug-CC-pVDZ\C6H13P1\OHZDE\08-Apr-2025\0\\#t hf a
 ug-cc-pvdz iop(5/13=1,5/36=2,99/5=2) pseudo=read geom=check guess=(rea
 d,tcheck) scf=(maxcycle=1)\\title\\0,1\C,0,0.615812,0.000181,-0.364552
 \C,0,-0.096129,-1.270091,0.144027\C,0,-1.593284,-1.261311,-0.203305\C,
 0,-2.288096,0.006746,0.310994\C,0,-1.585215,1.273388,-0.195788\C,0,-0.
 087167,1.267529,0.151553\P,0,2.454163,-0.103759,0.009106\H,0,0.018456,
 -1.332812,1.234531\H,0,0.381896,-2.16293,-0.271013\H,0,-2.074877,-2.15
 3427,0.210023\H,0,-1.709095,-1.321068,-1.293132\H,0,-2.278524,0.003429

 Normal termination of Gaussian 16 at Tue Apr  8 23:26:02 2025.
