 Gaussian 16, Revision C.01,

 ----------------------------------------------------------------------
 #t hf aug-cc-pvdz symm=none int=(grid=ultrafine) guess=(read,tcheck) s
 table=(opt,rrhf)
 ----------------------------------------------------------------------
 -----
 title
 -----
 Symbolic Z-matrix:
 Charge =  0 Multiplicity = 1

 SCF Done:  E(RHF) =  -839.992873718     A.U. after   14 cycles
 Normal termination of Gaussian 16 at Wed Apr  9 00:51:08 2025.
 Gaussian 16:  ES64L-G16RevC.01  3-Jul-2019

 ----------------------------------------------------------------------
 #t hf aug-cc-pvdz iop(5/13=1,5/36=2,99/5=2) pseudo=read geom=check gue
 ss=(read,tcheck) scf=(maxcycle=1)
 ----------------------------------------------------------------------
 -----
 title
 -----
 Structure from the checkpoint file:  "BDE49_nonexpt_967_mol1.chk"
 Charge =  0 Multiplicity = 1

                         Standard orientation:
 ---------------------------------------------------------------------
 Center     Atomic      Atomic             Coordinates (Angstroms)
 Number     Number       Type             X           Y           Z
 ---------------------------------------------------------------------
      1          9           0       -1.602442    1.091113    0.033832
      2         16           0        0.720707    0.000104   -0.135009
      3          8           0        1.210086    1.262511   -0.605396
      4          7           0       -1.056644    0.000154   -0.651376
      5          6           0        0.595758   -0.000925    1.648919
      6          1           0        1.624326   -0.000994    2.010618
      7          1           0        0.072371    0.901730    1.955313
      8          9           0       -1.602330   -1.091215    0.033263
      9          8           0        1.210449   -1.261628   -0.606828
     10          1           0        0.072613   -0.904072    1.954281
 ---------------------------------------------------------------------

 SCF Done:  E(RHF) =  -840.216596515     A.U. after    2 cycles

 The electronic state is 1-A.
 Alpha  occ. eigenvalues --  -93.84678 -26.20195 -26.20189 -20.61114 -20.61113
 Alpha  occ. eigenvalues --  -15.88134 -11.32531  -9.11165  -6.45782  -6.45609
 Alpha  occ. eigenvalues --   -6.45454  -1.75285  -1.69379  -1.47735  -1.36317
 Alpha  occ. eigenvalues --   -1.15731  -1.07213  -0.90276  -0.84405  -0.84043
 Alpha  occ. eigenvalues --   -0.82316  -0.78318  -0.74148  -0.73574  -0.71498
 Alpha  occ. eigenvalues --   -0.70727  -0.64703  -0.64702  -0.59453  -0.56688
 Alpha  occ. eigenvalues --   -0.55246  -0.54470  -0.49008
 Alpha virt. eigenvalues --    0.02638   0.05014   0.05202   0.08307   0.10152
 Alpha virt. eigenvalues --    0.10750   0.11035   0.12486   0.13388   0.13864
 Alpha virt. eigenvalues --    0.15005   0.16048   0.16280   0.17898   0.18438

 Mulliken charges:
               1
     1  F   -0.351241
     2  S    2.548143
     3  O   -0.971919
     4  N   -0.007621
     5  C   -0.051390
     6  H    0.070172
     7  H    0.043505
     8  F   -0.351234
     9  O   -0.971912
    10  H    0.043497
 Sum of Mulliken charges =  -0.00000

 Dipole moment (field-independent basis, Debye):
    X=              0.0517    Y=             -0.0026    Z=              4.0228  Tot=              4.0232

 Test job not archived.
 1\1\GINC-SE083\SP\RHF\Aug-CC-pVDZ\C1H3F2N1O2S1\OHZDE\09-Apr-2025\0\\#t
  hf aug-cc-pvdz iop(5/13=1,5/36=2,99/5=2) pseudo=read geom=check guess
 =(read,tcheck) scf=(maxcycle=1)\\title\\0,1\F,0,-1.602442,1.091113,0.0
 33832\S,0,0.720707,0.000104,-0.135009\O,0,1.210086,1.262511,-0.605396\
 N,0,-1.056644,0.000154,-0.651376\C,0,0.595758,-0.000925,1.648919\H,0,1
 .624326,-0.000994,2.010618\H,0,0.072371,0.90173,1.955313\F,0,-1.60233,
 -1.091215,0.033263\O,0,1.210449,-1.261628,-0.606828\H,0,0.072613,-0.90
 4072,1.954281\\Version=ES64L-G16RevC.01\State=1-A\HF=-840.2165965\RMSD

 Normal termination of Gaussian 16 at Wed Apr  9 00:51:14 2025.
