 Gaussian 16, Revision C.01,

 ----------------------------------------------------------------------
 #t hf aug-cc-pvdz symm=none int=(grid=ultrafine) guess=(read,tcheck) s
 table=opt
 ----------------------------------------------------------------------
 -----
 title
 -----
 Symbolic Z-matrix:
 Charge =  0 Multiplicity = 2

 SCF Done:  E(UHF) =  -458.455416128     A.U. after   18 cycles
 Normal termination of Gaussian 16 at Wed Apr  9 00:10:24 2025.
 Gaussian 16:  ES64L-G16RevC.01  3-Jul-2019

 ----------------------------------------------------------------------
 #t hf aug-cc-pvdz iop(5/13=1,5/36=2,99/5=2) pseudo=read geom=check gue
 ss=(read,tcheck) scf=(maxcycle=1)
 ----------------------------------------------------------------------
 -----
 title
 -----
 Structure from the checkpoint file:  "BDE49_nonexpt_2387_mol2.chk"
 Charge =  0 Multiplicity = 2

                         Standard orientation:
 ---------------------------------------------------------------------
 Center     Atomic      Atomic             Coordinates (Angstroms)
 Number     Number       Type             X           Y           Z
 ---------------------------------------------------------------------
      1         14           0       -1.361303   -0.266922   -0.090754
      2          7           0        0.022757    0.822570    0.039486
      3          1           0       -1.295072   -1.312230    0.957524
      4          1           0       -2.530626    0.627693    0.110510
      5          6           0        1.316614    0.361703    0.028637
      6          8           0        1.605176   -0.811846   -0.051036
      7          1           0        2.077578    1.160339    0.105104
      8          1           0       -0.094030    1.827661    0.057480
 ---------------------------------------------------------------------

 SCF Done:  E(UHF) =  -458.533785063     A.U. after    2 cycles

 The electronic state is 2-A.
 Alpha  occ. eigenvalues --  -69.10376 -20.55775 -15.65355 -11.37792  -6.85439
 Alpha  occ. eigenvalues --   -3.96685  -3.95975  -3.95835  -1.36386  -1.17851
 Alpha  occ. eigenvalues --   -0.84536  -0.75681  -0.70843  -0.64570  -0.59494
 Alpha  occ. eigenvalues --   -0.56604  -0.49926  -0.46123  -0.44837  -0.33006
 Alpha virt. eigenvalues --    0.02655   0.04305   0.05296   0.05873   0.07441
 Alpha virt. eigenvalues --    0.07879   0.09329   0.10334   0.12159   0.13217
 Alpha virt. eigenvalues --    0.14781   0.15816   0.16217   0.17348   0.18233

  Beta  occ. eigenvalues --  -69.09807 -20.55712 -15.65162 -11.37801  -6.84550
  Beta  occ. eigenvalues --   -3.95599  -3.95467  -3.94599  -1.36235  -1.17285
  Beta  occ. eigenvalues --   -0.84010  -0.75216  -0.68873  -0.63718  -0.58558
  Beta  occ. eigenvalues --   -0.55395  -0.48577  -0.45708  -0.43065
  Beta virt. eigenvalues --    0.02672   0.03004   0.04613   0.05418   0.07066
  Beta virt. eigenvalues --    0.07625   0.08492   0.09632   0.11200   0.12413
  Beta virt. eigenvalues --    0.14065   0.15496   0.16028   0.17184   0.17641

 Mulliken charges and spin densities:
               1          2
     1  Si   0.453135   0.899751
     2  N   -0.458704  -0.012494
     3  H    0.015555   0.056922
     4  H   -0.036037   0.028294
     5  C    0.707491   0.016056
     6  O   -0.428525   0.012728
     7  H   -0.182614   0.001824
     8  H   -0.070301  -0.003080
 Sum of Mulliken charges =   0.00000   1.00000

 Dipole moment (field-independent basis, Debye):
    X=             -1.4021    Y=              3.7278    Z=              0.1221  Tot=              3.9846
                          Isotropic Fermi Contact Couplings
        Atom                 a.u.       MegaHertz       Gauss      10(-4) cm-1
     1  Si(29)             0.64751    -575.45598    -205.33700    -191.95145
     2  N(14)              0.02718       8.78102       3.13329       2.92903
     3  H(1)               0.01455      65.05243      23.21232      21.69915
     4  H(1)               0.00846      37.82897      13.49832      12.61839
     5  C(13)             -0.00257      -2.89051      -1.03141      -0.96417
     6  O(17)              0.00523      -3.16777      -1.13034      -1.05665
     7  H(1)              -0.00012      -0.55080      -0.19654      -0.18373
     8  H(1)              -0.00006      -0.27951      -0.09974      -0.09323

 1\1\GINC-SE097\SP\UHF\Aug-CC-pVDZ\C1H4N1O1Si1(2)\OHZDE\09-Apr-2025\0\\
 #t hf aug-cc-pvdz iop(5/13=1,5/36=2,99/5=2) pseudo=read geom=check gue
 ss=(read,tcheck) scf=(maxcycle=1)\\title\\0,2\Si,0,-1.361303,-0.266922
 ,-0.090754\N,0,0.022757,0.82257,0.039486\H,0,-1.295072,-1.31223,0.9575
 24\H,0,-2.530626,0.627692,0.11051\C,0,1.316614,0.361703,0.028637\O,0,1
 .605176,-0.811846,-0.051036\H,0,2.077578,1.160339,0.105104\H,0,-0.0940
 3,1.827661,0.05748\\Version=ES64L-G16RevC.01\State=2-A\HF=-458.5337851
 \S2=0.753918\S2-1=0.\S2A=0.750007\RMSD=4.111e-03\Dipole=-0.5516416,1.4

 Normal termination of Gaussian 16 at Wed Apr  9 00:10:27 2025.
