 Gaussian 16, Revision C.01,

 ----------------------------------------------------------------------
 #t hf aug-cc-pvdz symm=none int=(grid=ultrafine) guess=(read,tcheck) s
 table=(opt,rrhf)
 ----------------------------------------------------------------------
 -----
 title
 -----
 Symbolic Z-matrix:
 Charge =  0 Multiplicity = 1

 SCF Done:  E(RHF) =  -845.184565204     A.U. after   14 cycles
 Normal termination of Gaussian 16 at Wed Apr  9 00:11:44 2025.
 Gaussian 16:  ES64L-G16RevC.01  3-Jul-2019

 ----------------------------------------------------------------------
 #t hf aug-cc-pvdz iop(5/13=1,5/36=2,99/5=2) pseudo=read geom=check gue
 ss=(read,tcheck) scf=(maxcycle=1)
 ----------------------------------------------------------------------
 -----
 title
 -----
 Structure from the checkpoint file:  "BDE49_nonexpt_2386_mol1.chk"
 Charge =  0 Multiplicity = 1

                         Standard orientation:
 ---------------------------------------------------------------------
 Center     Atomic      Atomic             Coordinates (Angstroms)
 Number     Number       Type             X           Y           Z
 ---------------------------------------------------------------------
      1         14           0       -1.183688    1.449006   -0.028846
      2         14           0        1.183687    1.449007    0.028846
      3          6           0        1.884732   -0.101638   -0.851807
      4          1           0        1.645664    1.580737    1.431632
      5          1           0        1.689063    2.615201   -0.737144
      6          7           0        2.130603   -1.274437   -0.426492
      7          6           0       -1.884733   -0.101639    0.851807
      8          1           0       -1.645665    1.580736   -1.431632
      9          1           0       -1.689065    2.615200    0.737144
     10          7           0       -2.130602   -1.274437    0.426492
     11          6           0        1.891820   -1.624616    0.961335
     12          1           0        2.821141   -2.014568    1.386757
     13          1           0        1.163315   -2.439957    0.993983
     14          1           0        1.528785   -0.803242    1.593434
     15          6           0       -1.891818   -1.624618   -0.961334
     16          1           0       -1.163314   -2.439958   -0.993982
     17          1           0       -1.528782   -0.803244   -1.593434
     18          1           0       -2.821138   -2.014570   -1.386758
     19          1           0        2.091091    0.054334   -1.918693
     20          1           0       -2.091091    0.054333    1.918693
 ---------------------------------------------------------------------

 SCF Done:  E(RHF) =  -845.305661638     A.U. after    2 cycles

 The electronic state is 1-A.
 Alpha  occ. eigenvalues --  -69.07581 -69.07581 -15.63999 -15.63999 -11.28027
 Alpha  occ. eigenvalues --  -11.28027 -11.26296 -11.26296  -6.82963  -6.82960
 Alpha  occ. eigenvalues --   -3.93731  -3.93730  -3.93715  -3.93708  -3.93707
 Alpha  occ. eigenvalues --   -3.93630  -1.19650  -1.19517  -0.96068  -0.96058
 Alpha  occ. eigenvalues --   -0.80640  -0.78459  -0.71057  -0.67056  -0.64519
 Alpha  occ. eigenvalues --   -0.64415  -0.60091  -0.58953  -0.58552  -0.57085
 Alpha  occ. eigenvalues --   -0.52365  -0.52257  -0.49596  -0.48552  -0.45316
 Alpha  occ. eigenvalues --   -0.42439  -0.39354  -0.37788  -0.36609
 Alpha virt. eigenvalues --    0.03005   0.03664   0.04190   0.04456   0.05725
 Alpha virt. eigenvalues --    0.05842   0.05990   0.07307   0.07401   0.07921
 Alpha virt. eigenvalues --    0.08557   0.08724   0.08748   0.09000   0.09756

 Mulliken charges:
               1
     1  Si  -0.110964
     2  Si  -0.110965
     3  C    0.365513
     4  H    0.194727
     5  H    0.060118
     6  N   -0.534020
     7  C    0.365512
     8  H    0.194728
     9  H    0.060118
    10  N   -0.534018
    11  C    0.884962
    12  H   -0.140519
    13  H   -0.127229
    14  H   -0.219622
    15  C    0.884961
    16  H   -0.127230
    17  H   -0.219620
    18  H   -0.140519
    19  H   -0.372966
    20  H   -0.372967
 Sum of Mulliken charges =  -0.00000

 Dipole moment (field-independent basis, Debye):
    X=              0.0000    Y=              1.6814    Z=              0.0000  Tot=              1.6814

 Test job not archived.
 1\1\GINC-SE106\SP\RHF\Aug-CC-pVDZ\C4H12N2Si2\OHZDE\09-Apr-2025\0\\#t h
 f aug-cc-pvdz iop(5/13=1,5/36=2,99/5=2) pseudo=read geom=check guess=(
 read,tcheck) scf=(maxcycle=1)\\title\\0,1\Si,0,1.183688,1.449006,0.028
 846\Si,0,-1.183687,1.449007,-0.028846\C,0,-1.884732,-0.101638,0.851807
 \H,0,-1.645664,1.580737,-1.431632\H,0,-1.689063,2.615201,0.737144\N,0,
 -2.130603,-1.274436,0.426492\C,0,1.884733,-0.101639,-0.851807\H,0,1.64
 5665,1.580736,1.431632\H,0,1.689065,2.6152,-0.737144\N,0,2.130602,-1.2
 74437,-0.426492\C,0,-1.89182,-1.624616,-0.961335\H,0,-2.821141,-2.0145

 Normal termination of Gaussian 16 at Wed Apr  9 00:11:55 2025.
