 Gaussian 16, Revision C.01,

 ----------------------------------------------------------------------
 #t hf aug-cc-pvdz symm=none int=(grid=ultrafine) guess=(read,tcheck) s
 table=(opt,rrhf)
 ----------------------------------------------------------------------
 -----
 title
 -----
 Symbolic Z-matrix:
 Charge =  0 Multiplicity = 1

 SCF Done:  E(RHF) =  -844.979989876     A.U. after   12 cycles
 Normal termination of Gaussian 16 at Wed Apr  9 00:13:09 2025.
 Gaussian 16:  ES64L-G16RevC.01  3-Jul-2019

 ----------------------------------------------------------------------
 #t hf aug-cc-pvdz iop(5/13=1,5/36=2,99/5=2) pseudo=read geom=check gue
 ss=(read,tcheck) scf=(maxcycle=1)
 ----------------------------------------------------------------------
 -----
 title
 -----
 Structure from the checkpoint file:  "BDE49_nonexpt_2468_mol1.chk"
 Charge =  0 Multiplicity = 1

                         Standard orientation:
 ---------------------------------------------------------------------
 Center     Atomic      Atomic             Coordinates (Angstroms)
 Number     Number       Type             X           Y           Z
 ---------------------------------------------------------------------
      1         14           0       -1.554037    0.884622    0.260027
      2          6           0        0.192216    0.987681   -0.427797
      3          6           0        1.220666    0.033525    0.206798
      4          1           0        0.517546    2.028220   -0.294738
      5          1           0        0.143632    0.826711   -1.511695
      6          6           0        2.635050    0.202254   -0.363849
      7          1           0        0.900159   -1.005015    0.064981
      8          1           0        1.250785    0.193545    1.291549
      9          6           0        3.656214   -0.747892    0.267746
     10          1           0        2.959253    1.239886   -0.218619
     11          1           0        2.605223    0.041605   -1.448220
     12          1           0        3.731686   -0.587014    1.347676
     13          1           0        4.652130   -0.603339   -0.159485
     14          1           0        3.375105   -1.793473    0.108558
     15         16           0       -2.318511   -1.105852   -0.167218
     16          1           0       -3.516365   -0.902214    0.409324
     17          1           0       -2.426138    1.900209   -0.376072
     18          1           0       -1.565208    1.116390    1.724475
 ---------------------------------------------------------------------

 SCF Done:  E(RHF) =  -845.072709643     A.U. after    2 cycles

 The electronic state is 1-A.
 Alpha  occ. eigenvalues --  -93.52564 -69.08635 -11.23782 -11.23166 -11.22941
 Alpha  occ. eigenvalues --  -11.22460  -8.82484  -6.83673  -6.16655  -6.16421
 Alpha  occ. eigenvalues --   -6.16136  -3.94488  -3.94402  -3.94387  -1.06710
 Alpha  occ. eigenvalues --   -0.98338  -0.94364  -0.86573  -0.79754  -0.67540
 Alpha  occ. eigenvalues --   -0.64924  -0.59268  -0.58486  -0.55182  -0.54067
 Alpha  occ. eigenvalues --   -0.51533  -0.50623  -0.48666  -0.47579  -0.47177
 Alpha  occ. eigenvalues --   -0.43419  -0.42692  -0.36780
 Alpha virt. eigenvalues --    0.03396   0.04156   0.04502   0.04733   0.05781
 Alpha virt. eigenvalues --    0.06210   0.06703   0.06952   0.08357   0.08575
 Alpha virt. eigenvalues --    0.08876   0.09675   0.09955   0.11194   0.11516

 Mulliken charges:
               1
     1  Si   0.573631
     2  C    0.166915
     3  C    0.118300
     4  H   -0.195930
     5  H   -0.152944
     6  C    0.212398
     7  H   -0.174840
     8  H   -0.204833
     9  C    0.473914
    10  H   -0.145634
    11  H   -0.125160
    12  H   -0.072140
    13  H   -0.065160
    14  H   -0.083905
    15  S   -0.436515
    16  H    0.002866
    17  H    0.022655
    18  H    0.086384
 Sum of Mulliken charges =   0.00000

 Dipole moment (field-independent basis, Debye):
    X=              0.6403    Y=              1.1487    Z=              0.2585  Tot=              1.3402

 Test job not archived.
 1\1\GINC-SE072\SP\RHF\Aug-CC-pVDZ\C4H12S1Si1\OHZDE\09-Apr-2025\0\\#t h
 f aug-cc-pvdz iop(5/13=1,5/36=2,99/5=2) pseudo=read geom=check guess=(
 read,tcheck) scf=(maxcycle=1)\\title\\0,1\Si,0,-1.554037,0.884622,0.26
 0027\C,0,0.192216,0.987681,-0.427797\C,0,1.220666,0.033525,0.206798\H,
 0,0.517546,2.02822,-0.294738\H,0,0.143632,0.826711,-1.511695\C,0,2.635
 05,0.202254,-0.363849\H,0,0.900159,-1.005015,0.064981\H,0,1.250785,0.1
 93545,1.291549\C,0,3.656214,-0.747892,0.267746\H,0,2.959253,1.239886,-
 0.218619\H,0,2.605223,0.041605,-1.44822\H,0,3.731686,-0.587014,1.34767

 Normal termination of Gaussian 16 at Wed Apr  9 00:13:16 2025.
