 Gaussian 16, Revision C.01,

 ----------------------------------------------------------------------
 #t hf aug-cc-pvdz symm=none int=(grid=ultrafine) guess=(read,tcheck) s
 table=(opt,rrhf)
 ----------------------------------------------------------------------
 -----
 title
 -----
 Symbolic Z-matrix:
 Charge =  0 Multiplicity = 1

 SCF Done:  E(RHF) =  -453.715611527     A.U. after   12 cycles
 Normal termination of Gaussian 16 at Wed Apr  9 00:51:55 2025.
 Gaussian 16:  ES64L-G16RevC.01  3-Jul-2019

 ----------------------------------------------------------------------
 #t hf aug-cc-pvdz iop(5/13=1,5/36=2,99/5=2) pseudo=read geom=check gue
 ss=(read,tcheck) scf=(maxcycle=1)
 ----------------------------------------------------------------------
 -----
 title
 -----
 Structure from the checkpoint file:  "BDE49_nonexpt_991_mol1.chk"
 Charge =  0 Multiplicity = 1

                         Standard orientation:
 ---------------------------------------------------------------------
 Center     Atomic      Atomic             Coordinates (Angstroms)
 Number     Number       Type             X           Y           Z
 ---------------------------------------------------------------------
      1          7           0        1.105220    0.136129   -0.000024
      2         16           0       -0.611922   -0.098947    0.000014
      3          1           0        1.509229   -0.286026   -0.827363
      4          1           0        1.509254   -0.285713    0.827463
      5          1           0       -0.964265    1.201993   -0.000154
 ---------------------------------------------------------------------

 SCF Done:  E(RHF) =  -453.757604392     A.U. after    2 cycles

 The electronic state is 1-A.
 Alpha  occ. eigenvalues --  -93.56303 -15.64954  -8.85721  -6.19900  -6.19629
 Alpha  occ. eigenvalues --   -6.19274  -1.15812  -0.90611  -0.67615  -0.58530
 Alpha  occ. eigenvalues --   -0.54630  -0.40321  -0.36803
 Alpha virt. eigenvalues --    0.03703   0.05045   0.05664   0.09054   0.12174
 Alpha virt. eigenvalues --    0.14370   0.16457   0.17761   0.19045   0.20834
 Alpha virt. eigenvalues --    0.21592   0.23620   0.27374   0.29013   0.33946

 Mulliken charges:
               1
     1  N   -0.563778
     2  S    0.398088
     3  H    0.053041
     4  H    0.053042
     5  H    0.059606
 Sum of Mulliken charges =  -0.00000

 Dipole moment (field-independent basis, Debye):
    X=              0.9981    Y=             -0.3843    Z=              0.0001  Tot=              1.0695

 Test job not archived.
 1\1\GINC-SE109\SP\RHF\Aug-CC-pVDZ\H3N1S1\OHZDE\09-Apr-2025\0\\#t hf au
 g-cc-pvdz iop(5/13=1,5/36=2,99/5=2) pseudo=read geom=check guess=(read
 ,tcheck) scf=(maxcycle=1)\\title\\0,1\N,0,-1.10522,0.136129,0.000024\S
 ,0,0.611922,-0.098947,-0.000014\H,0,-1.509229,-0.286026,0.827363\H,0,-
 1.509254,-0.285713,-0.827463\H,0,0.964265,1.201993,0.000154\\Version=E
 S64L-G16RevC.01\State=1-A\HF=-453.7576044\RMSD=4.838e-03\Dipole=-0.392
 6637,-0.1511827,-0.0000451\Quadrupole=1.0169651,-0.4397365,-0.5772286,
 2.6534379,0.0004682,-0.0001279\PG=C01 [X(H3N1S1)]\\@

 Normal termination of Gaussian 16 at Wed Apr  9 00:51:57 2025.
