 Gaussian 16, Revision C.01,

 ----------------------------------------------------------------------
 #t hf aug-cc-pvdz symm=none int=(grid=ultrafine) guess=(read,tcheck) s
 table=(opt,rrhf)
 ----------------------------------------------------------------------
 -----
 title
 -----
 Symbolic Z-matrix:
 Charge =  0 Multiplicity = 1

 SCF Done:  E(RHF) =  -491.543573232     A.U. after   13 cycles
 Normal termination of Gaussian 16 at Tue Apr  8 23:35:08 2025.
 Gaussian 16:  ES64L-G16RevC.01  3-Jul-2019

 ----------------------------------------------------------------------
 #t hf aug-cc-pvdz iop(5/13=1,5/36=2,99/5=2) pseudo=read geom=check gue
 ss=(read,tcheck) scf=(maxcycle=1)
 ----------------------------------------------------------------------
 -----
 title
 -----
 Structure from the checkpoint file:  "BDE49_nonexpt_1514_mol1.chk"
 Charge =  0 Multiplicity = 1

                         Standard orientation:
 ---------------------------------------------------------------------
 Center     Atomic      Atomic             Coordinates (Angstroms)
 Number     Number       Type             X           Y           Z
 ---------------------------------------------------------------------
      1          7           0        0.353015    0.025584   -0.275442
      2          7           0        0.894632    1.303494    0.041974
      3         15           0       -1.336732   -0.174163   -0.011046
      4          6           0        1.217578   -1.106120    0.052648
      5          1           0        2.158335   -1.019703   -0.501020
      6          1           0        0.734533   -2.040081   -0.240920
      7          1           0        1.458735   -1.160718    1.127658
      8          1           0        1.687059    1.471868   -0.573520
      9          1           0        1.244960    1.304777    1.003502
     10          1           0       -1.757575    1.022042   -0.637610
     11          1           0       -1.514064    0.367431    1.305986
 ---------------------------------------------------------------------

 SCF Done:  E(RHF) =  -491.617224589     A.U. after    2 cycles

 The electronic state is 1-A.
 Alpha  occ. eigenvalues --  -81.26966 -15.64686 -15.64616 -11.26927  -7.77025
 Alpha  occ. eigenvalues --   -4.91163  -4.90886  -4.90691  -1.23931  -1.03687
 Alpha  occ. eigenvalues --   -0.90186  -0.75570  -0.68220  -0.64580  -0.60807
 Alpha  occ. eigenvalues --   -0.58301  -0.52974  -0.50337  -0.41925  -0.37431
 Alpha  occ. eigenvalues --   -0.34673
 Alpha virt. eigenvalues --    0.03210   0.04646   0.04933   0.05182   0.07688
 Alpha virt. eigenvalues --    0.07918   0.08954   0.09378   0.10845   0.11971
 Alpha virt. eigenvalues --    0.14331   0.15625   0.16558   0.16899   0.18218

 Mulliken charges:
               1
     1  N   -0.701890
     2  N   -0.197643
     3  P    0.301835
     4  C    0.858587
     5  H   -0.158049
     6  H   -0.218993
     7  H   -0.091005
     8  H    0.063257
     9  H    0.057273
    10  H    0.047153
    11  H    0.039475
 Sum of Mulliken charges =   0.00000

 Dipole moment (field-independent basis, Debye):
    X=              2.0046    Y=             -0.2240    Z=              0.7871  Tot=              2.1652

 Test job not archived.
 1\1\GINC-SE212\SP\RHF\Aug-CC-pVDZ\C1H7N2P1\OHZDE\08-Apr-2025\0\\#t hf
 aug-cc-pvdz iop(5/13=1,5/36=2,99/5=2) pseudo=read geom=check guess=(re
 ad,tcheck) scf=(maxcycle=1)\\title\\0,1\N,0,0.353015,0.025584,-0.27544
 2\N,0,0.894632,1.303494,0.041974\P,0,-1.336732,-0.174163,-0.011046\C,0
 ,1.217579,-1.10612,0.052648\H,0,2.158336,-1.019702,-0.50102\H,0,0.7345
 34,-2.040081,-0.24092\H,0,1.458736,-1.160718,1.127658\H,0,1.687059,1.4
 71868,-0.57352\H,0,1.24496,1.304777,1.003502\H,0,-1.757575,1.022041,-0
 .63761\H,0,-1.514064,0.36743,1.305986\\Version=ES64L-G16RevC.01\State=

 Normal termination of Gaussian 16 at Tue Apr  8 23:35:11 2025.
