 Gaussian 16, Revision C.01,

 ----------------------------------------------------------------------
 #t hf aug-cc-pvdz symm=none int=(grid=ultrafine) guess=(read,tcheck) s
 table=opt
 ----------------------------------------------------------------------
 -----
 title
 -----
 Symbolic Z-matrix:
 Charge =  0 Multiplicity = 2

 SCF Done:  E(UHF) =  -446.781407177     A.U. after   15 cycles
 Normal termination of Gaussian 16 at Tue Apr  8 23:40:46 2025.
 Gaussian 16:  ES64L-G16RevC.01  3-Jul-2019

 ----------------------------------------------------------------------
 #t hf aug-cc-pvdz iop(5/13=1,5/36=2,99/5=2) pseudo=read geom=check gue
 ss=(read,tcheck) scf=(maxcycle=1)
 ----------------------------------------------------------------------
 -----
 title
 -----
 Structure from the checkpoint file:  "BDE49_nonexpt_1647_mol2.chk"
 Charge =  0 Multiplicity = 2

                         Standard orientation:
 ---------------------------------------------------------------------
 Center     Atomic      Atomic             Coordinates (Angstroms)
 Number     Number       Type             X           Y           Z
 ---------------------------------------------------------------------
      1          6           0        0.342246    0.000000   -0.002808
      2          6           0        0.690788   -0.000001    1.502320
      3          1           0        0.298673   -0.884644    2.012465
      4          1           0        0.298673    0.884642    2.012466
      5          6           0        0.929124    1.260692   -0.667124
      6          1           0        0.531186    2.178064   -0.222631
      7          1           0        0.717867    1.289345   -1.740140
      8          1           0        2.019037    1.281154   -0.543336
      9          1           0        1.781446   -0.000001    1.633378
     10          6           0        0.929124   -1.260691   -0.667125
     11          1           0        2.019037   -1.281153   -0.543337
     12          1           0        0.717867   -1.289343   -1.740141
     13          1           0        0.531187   -2.178064   -0.222633
     14         14           0       -1.567100    0.000000   -0.180915
     15          1           0       -2.161629    1.212784    0.447578
     16          1           0       -2.161629   -1.212784    0.447577
 ---------------------------------------------------------------------

 SCF Done:  E(UHF) =  -446.851602787     A.U. after    2 cycles

 The electronic state is 2-A.
 Alpha  occ. eigenvalues --  -69.06129 -11.24113 -11.23087 -11.22994 -11.22987
 Alpha  occ. eigenvalues --   -6.81528  -3.92859  -3.91969  -3.91939  -1.07569
 Alpha  occ. eigenvalues --   -0.93159  -0.93105  -0.77225  -0.68343  -0.60354
 Alpha  occ. eigenvalues --   -0.60315  -0.59714  -0.54628  -0.54557  -0.52126
 Alpha  occ. eigenvalues --   -0.48003  -0.47374  -0.46740  -0.40965  -0.31461
 Alpha virt. eigenvalues --    0.03260   0.04829   0.04893   0.05053   0.06327
 Alpha virt. eigenvalues --    0.06824   0.06914   0.06974   0.07122   0.09345
 Alpha virt. eigenvalues --    0.09759   0.09891   0.09990   0.11035   0.13035

  Beta  occ. eigenvalues --  -69.05576 -11.24052 -11.23030 -11.22993 -11.22986
  Beta  occ. eigenvalues --   -6.80702  -3.91587  -3.91563  -3.90714  -1.07332
  Beta  occ. eigenvalues --   -0.93093  -0.92992  -0.76287  -0.66098  -0.60224
  Beta  occ. eigenvalues --   -0.60146  -0.58258  -0.54582  -0.54171  -0.52094
  Beta  occ. eigenvalues --   -0.47647  -0.47159  -0.46214  -0.39900
  Beta virt. eigenvalues --    0.03167   0.03765   0.04843   0.04994   0.06127
  Beta virt. eigenvalues --    0.06443   0.06930   0.06961   0.06992   0.08323
  Beta virt. eigenvalues --    0.09351   0.09935   0.09992   0.10632   0.11319

 Mulliken charges and spin densities:
               1          2
     1  C   -1.825889  -0.096410
     2  C    0.898966  -0.028189
     3  H   -0.085490  -0.009272
     4  H   -0.085488  -0.009272
     5  C    0.807331   0.042899
     6  H   -0.082236  -0.002181
     7  H   -0.088343  -0.003902
     8  H   -0.015048  -0.001520
     9  H   -0.033534   0.010953
    10  C    0.807331   0.042899
    11  H   -0.015049  -0.001520
    12  H   -0.088343  -0.003902
    13  H   -0.082236  -0.002180
    14  Si  -0.491938   1.040017
    15  H    0.189984   0.010790
    16  H    0.189985   0.010790
 Sum of Mulliken charges =  -0.00000   1.00000

 Dipole moment (field-independent basis, Debye):
    X=              0.8683    Y=             -0.0000    Z=              0.0445  Tot=              0.8694
                          Isotropic Fermi Contact Couplings
        Atom                 a.u.       MegaHertz       Gauss      10(-4) cm-1
     1  C(13)              0.01022      11.49096       4.10026       3.83297
     2  C(13)              0.01710      19.22190       6.85885       6.41174
     3  H(1)               0.00021       0.93652       0.33417       0.31239
     4  H(1)               0.00021       0.93652       0.33417       0.31239
     5  C(13)             -0.00010      -0.10697      -0.03817      -0.03568
     6  H(1)              -0.00009      -0.39046      -0.13933      -0.13024
     7  H(1)              -0.00019      -0.85984      -0.30681      -0.28681
     8  H(1)              -0.00056      -2.51795      -0.89847      -0.83990

 Normal termination of Gaussian 16 at Tue Apr  8 23:40:52 2025.
