 Gaussian 16, Revision C.01,

 ----------------------------------------------------------------------
 #t hf aug-cc-pvdz symm=none int=(grid=ultrafine) guess=(read,tcheck) s
 table=(opt,rrhf)
 ----------------------------------------------------------------------
 -----
 title
 -----
 Symbolic Z-matrix:
 Charge =  0 Multiplicity = 1

 SCF Done:  E(RHF) =  -621.429957263     A.U. after   15 cycles
 Normal termination of Gaussian 16 at Tue Apr  8 23:07:10 2025.
 Gaussian 16:  ES64L-G16RevC.01  3-Jul-2019

 ----------------------------------------------------------------------
 #t hf aug-cc-pvdz iop(5/13=1,5/36=2,99/5=2) pseudo=read geom=check gue
 ss=(read,tcheck) scf=(maxcycle=1)
 ----------------------------------------------------------------------
 -----
 title
 -----
 Structure from the checkpoint file:  "BDE49_expt_462_mol1.chk"
 Charge =  0 Multiplicity = 1

                         Standard orientation:
 ---------------------------------------------------------------------
 Center     Atomic      Atomic             Coordinates (Angstroms)
 Number     Number       Type             X           Y           Z
 ---------------------------------------------------------------------
      1          6           0        2.829710   -0.281259    0.009147
      2          6           0        2.154302    0.929134    0.011768
      3          6           0        0.749329    0.981478   -0.003566
      4          6           0        2.129759   -1.487473   -0.011004
      5          6           0        0.741957   -1.456193   -0.023287
      6          6           0        0.046259   -0.245899   -0.018165
      7          1           0        3.914072   -0.282205    0.019270
      8          1           0        2.710591    1.860793    0.027020
      9          7           0        0.105271    2.204338    0.053511
     10          1           0        0.667365    3.005807   -0.186371
     11          1           0        0.177709   -2.379377   -0.038193
     12          1           0       -0.835906    2.252221   -0.303389
     13          1           0        2.655509   -2.433805   -0.016535
     14          6           0       -1.451233   -0.256129    0.008399
     15          9           0       -1.971190   -1.488196   -0.143406
     16          9           0       -1.954688    0.244454    1.162927
     17          9           0       -1.988204    0.515326   -0.987980
 ---------------------------------------------------------------------

 SCF Done:  E(RHF) =  -621.633116709     A.U. after    2 cycles

 The electronic state is 1-A.
 Alpha  occ. eigenvalues --  -26.16463 -26.15956 -26.15608 -15.64560 -11.52683
 Alpha  occ. eigenvalues --  -11.31992 -11.26945 -11.26689 -11.26638 -11.25099
 Alpha  occ. eigenvalues --  -11.24518  -1.75354  -1.68630  -1.67874  -1.22186
 Alpha  occ. eigenvalues --   -1.14055  -1.07621  -1.01081  -0.98673  -0.89162
 Alpha  occ. eigenvalues --   -0.87937  -0.86934  -0.83970  -0.80461  -0.76766
 Alpha  occ. eigenvalues --   -0.76677  -0.73298  -0.71971  -0.71840  -0.71081
 Alpha  occ. eigenvalues --   -0.70050  -0.67167  -0.62583  -0.61771  -0.60366
 Alpha  occ. eigenvalues --   -0.55536  -0.53400  -0.51884  -0.46506  -0.36780
 Alpha  occ. eigenvalues --   -0.31340
 Alpha virt. eigenvalues --    0.02882   0.03590   0.04375   0.05731   0.06188
 Alpha virt. eigenvalues --    0.08330   0.08722   0.09023   0.09839   0.11058
 Alpha virt. eigenvalues --    0.11601   0.12952   0.13152   0.13576   0.14182

 Mulliken charges:
               1
     1  C    0.117446
     2  C    1.085402
     3  C   -0.675517
     4  C    0.641754
     5  C    0.183143
     6  C    1.390447
     7  H   -0.431252
     8  H   -0.599009
     9  N   -0.323517
    10  H   -0.040591
    11  H   -0.554282
    12  H   -0.009706
    13  H   -0.451259
    14  C    0.670114
    15  F   -0.289112
    16  F   -0.345223
    17  F   -0.368840
 Sum of Mulliken charges =  -0.00000

 Dipole moment (field-independent basis, Debye):
    X=              2.9498    Y=              1.2160    Z=             -0.8169  Tot=              3.2935

 Test job not archived.
 1\1\GINC-SE247\SP\RHF\Aug-CC-pVDZ\C7H6F3N1\OHZDE\08-Apr-2025\0\\#t hf
 aug-cc-pvdz iop(5/13=1,5/36=2,99/5=2) pseudo=read geom=check guess=(re
 ad,tcheck) scf=(maxcycle=1)\\title\\0,1\C,0,2.82971,-0.281259,0.009147
 \C,0,2.154302,0.929134,0.011768\C,0,0.749329,0.981478,-0.003566\C,0,2.
 129759,-1.487473,-0.011004\C,0,0.741957,-1.456193,-0.023287\C,0,0.0462
 59,-0.245899,-0.018165\H,0,3.914072,-0.282205,0.01927\H,0,2.710591,1.8
 60793,0.02702\N,0,0.105271,2.204338,0.053511\H,0,0.667365,3.005807,-0.
 186371\H,0,0.177709,-2.379377,-0.038193\H,0,-0.835906,2.252221,-0.3033

 Normal termination of Gaussian 16 at Tue Apr  8 23:07:20 2025.
