 Gaussian 16, Revision C.01,

 ----------------------------------------------------------------------
 #t hf aug-cc-pvdz symm=none int=(grid=ultrafine) guess=(read,tcheck) s
 table=(opt,rrhf)
 ----------------------------------------------------------------------
 -----
 title
 -----
 Symbolic Z-matrix:
 Charge =  0 Multiplicity = 1

 SCF Done:  E(RHF) =  -1030.96155551     A.U. after   16 cycles
 Normal termination of Gaussian 16 at Tue Apr  8 23:30:42 2025.
 Gaussian 16:  ES64L-G16RevC.01  3-Jul-2019

 ----------------------------------------------------------------------
 #t hf aug-cc-pvdz iop(5/13=1,5/36=2,99/5=2) pseudo=read geom=check gue
 ss=(read,tcheck) scf=(maxcycle=1)
 ----------------------------------------------------------------------
 -----
 title
 -----
 Structure from the checkpoint file:  "BDE49_nonexpt_1420_mol1.chk"
 Charge =  0 Multiplicity = 1

                         Standard orientation:
 ---------------------------------------------------------------------
 Center     Atomic      Atomic             Coordinates (Angstroms)
 Number     Number       Type             X           Y           Z
 ---------------------------------------------------------------------
      1          6           0       -0.739975   -1.212985    0.000009
      2          6           0        0.654239   -1.206981    0.000002
      3          6           0        1.375377   -0.008494    0.000009
      4          6           0       -1.417602   -0.000894    0.000007
      5          6           0       -0.728663    1.209873    0.000010
      6          6           0        0.661471    1.197835    0.000013
      7          1           0       -1.290935   -2.144551    0.000007
      8          1           0        1.184202   -2.153096   -0.000009
      9         15           0        3.223785   -0.111634   -0.000044
     10          1           0        1.192857    2.142651    0.000028
     11         17           0       -3.172787    0.008777   -0.000008
     12          1           0       -1.275551    2.144026    0.000009
     13          1           0        3.470496    0.832767    1.030752
     14          1           0        3.470445    0.833378   -1.030287
 ---------------------------------------------------------------------

 SCF Done:  E(RHF) =  -1031.06768750     A.U. after    2 cycles

 The electronic state is 1-A.
 Alpha  occ. eigenvalues -- -103.67157 -81.26719 -11.32276 -11.26932 -11.26838
 Alpha  occ. eigenvalues --  -11.26696 -11.26661 -11.26593 -10.70430  -8.36165
 Alpha  occ. eigenvalues --   -8.35859  -8.35843  -7.77058  -4.91109  -4.90959
 Alpha  occ. eigenvalues --   -4.90779  -1.20449  -1.14023  -1.03484  -1.01307
 Alpha  occ. eigenvalues --   -0.85747  -0.84658  -0.78434  -0.69192  -0.66563
 Alpha  occ. eigenvalues --   -0.65143  -0.61479  -0.57155  -0.56140  -0.52894
 Alpha  occ. eigenvalues --   -0.52794  -0.48908  -0.47667  -0.47278  -0.36805
 Alpha  occ. eigenvalues --   -0.36245  -0.34803
 Alpha virt. eigenvalues --    0.03200   0.04104   0.04685   0.06121   0.06193
 Alpha virt. eigenvalues --    0.06445   0.07995   0.08248   0.08872   0.09651
 Alpha virt. eigenvalues --    0.10954   0.11241   0.12306   0.12685   0.13820

 Mulliken charges:
               1
     1  C    0.718524
     2  C    0.682902
     3  C   -0.558399
     4  C   -0.435039
     5  C    0.559370
     6  C    1.199580
     7  H   -0.441954
     8  H   -0.496223
     9  P   -0.179378
    10  H   -0.506318
    11  Cl  -0.344362
    12  H   -0.444062
    13  H    0.122702
    14  H    0.122657
 Sum of Mulliken charges =  -0.00000

 Dipole moment (field-independent basis, Debye):
    X=              1.0859    Y=              0.6031    Z=              0.0002  Tot=              1.2421

 Test job not archived.
 1\1\GINC-SE457\SP\RHF\Aug-CC-pVDZ\C6H6Cl1P1\OHZDE\08-Apr-2025\0\\#t hf
  aug-cc-pvdz iop(5/13=1,5/36=2,99/5=2) pseudo=read geom=check guess=(r
 ead,tcheck) scf=(maxcycle=1)\\title\\0,1\C,0,-0.739975,-1.212985,0.000
 009\C,0,0.654239,-1.206981,0.000002\C,0,1.375377,-0.008494,0.000009\C,
 0,-1.417602,-0.000894,0.000007\C,0,-0.728663,1.209873,0.00001\C,0,0.66
 1471,1.197835,0.000013\H,0,-1.290935,-2.144551,0.000007\H,0,1.184202,-
 2.153096,-0.000009\P,0,3.223785,-0.111634,-0.000044\H,0,1.192857,2.142
 651,0.000028\Cl,0,-3.172787,0.008777,-0.000008\H,0,-1.275551,2.144026,

 Normal termination of Gaussian 16 at Tue Apr  8 23:30:48 2025.
