 Gaussian 16, Revision C.01,

 ----------------------------------------------------------------------
 #t hf aug-cc-pvdz symm=none int=(grid=ultrafine) guess=(read,tcheck) s
 table=(opt,rrhf)
 ----------------------------------------------------------------------
 -----
 title
 -----
 Symbolic Z-matrix:
 Charge =  0 Multiplicity = 1

 SCF Done:  E(RHF) =  -719.722511733     A.U. after   18 cycles
 Normal termination of Gaussian 16 at Tue Apr  8 23:04:56 2025.
 Gaussian 16:  ES64L-G16RevC.01  3-Jul-2019

 ----------------------------------------------------------------------
 #t hf aug-cc-pvdz iop(5/13=1,5/36=2,99/5=2) pseudo=read geom=check gue
 ss=(read,tcheck) scf=(maxcycle=1)
 ----------------------------------------------------------------------
 -----
 title
 -----
 Structure from the checkpoint file:  "BDE49_expt_1770_mol1.chk"
 Charge =  0 Multiplicity = 1

                         Standard orientation:
 ---------------------------------------------------------------------
 Center     Atomic      Atomic             Coordinates (Angstroms)
 Number     Number       Type             X           Y           Z
 ---------------------------------------------------------------------
      1          6           0       -3.460737    0.840571   -0.991492
      2          6           0       -3.856784   -0.466287   -0.710903
      3          6           0       -2.971767   -1.339917   -0.094362
      4          6           0       -2.178192    1.259431   -0.655141
      5          6           0       -1.292328    0.382062   -0.031083
      6          6           0       -1.668758   -0.944548    0.254577
      7          1           0       -4.147426    1.532484   -1.464659
      8          1           0       -4.855301   -0.800616   -0.967489
      9          1           0       -3.283322   -2.354402    0.129676
     10          1           0       -1.856675    2.274492   -0.850334
     11          6           0        1.494249   -1.058135    0.229637
     12          6           0        1.201324    0.282928   -0.077322
     13          7           0       -0.019590    0.870856    0.386323
     14          7           0       -0.057783    1.958595    1.224742
     15          8           0        1.015094    2.414643    1.541674
     16          6           0        2.746964   -1.559938   -0.166010
     17          6           0        3.656680   -0.773393   -0.857270
     18          6           0        3.336248    0.547205   -1.171470
     19          6           0        2.110677    1.072556   -0.780547
     20          1           0        2.991854   -2.589915    0.069698
     21          1           0        4.614886   -1.186341   -1.150661
     22          1           0        4.042902    1.170101   -1.706984
     23          1           0        1.862269    2.103330   -0.994382
     24          6           0       -0.787684   -1.909820    0.905362
     25          6           0        0.559048   -1.953759    0.904324
     26          1           0       -1.302706   -2.735401    1.388202
     27          1           0        1.020732   -2.810750    1.386289
 ---------------------------------------------------------------------

 SCF Done:  E(RHF) =  -719.928201360     A.U. after    2 cycles

 The electronic state is 1-A.
 Alpha  occ. eigenvalues --  -20.61135 -15.80337 -15.69813 -11.30363 -11.30061
 Alpha  occ. eigenvalues --  -11.27076 -11.27012 -11.26378 -11.26228 -11.25996
 Alpha  occ. eigenvalues --  -11.25973 -11.25864 -11.25734 -11.25730 -11.25717
 Alpha  occ. eigenvalues --  -11.25598 -11.25480  -1.47234  -1.26603  -1.16404
 Alpha  occ. eigenvalues --   -1.15186  -1.09248  -1.04046  -1.03630  -1.01845
 Alpha  occ. eigenvalues --   -0.99044  -0.91343  -0.89093  -0.84767  -0.84302
 Alpha  occ. eigenvalues --   -0.79863  -0.78889  -0.73588  -0.71973  -0.70275
 Alpha  occ. eigenvalues --   -0.69249  -0.67347  -0.64760  -0.64295  -0.63374
 Alpha  occ. eigenvalues --   -0.62696  -0.61347  -0.60075  -0.59507  -0.56092
 Alpha  occ. eigenvalues --   -0.54875  -0.53285  -0.52786  -0.52327  -0.51673
 Alpha  occ. eigenvalues --   -0.50017  -0.43969  -0.43495  -0.42224  -0.36243
 Alpha  occ. eigenvalues --   -0.34870  -0.34310  -0.30033
 Alpha virt. eigenvalues --    0.03014   0.03162   0.03405   0.04656   0.04735
 Alpha virt. eigenvalues --    0.05666   0.05877   0.05977   0.07106   0.08097
 Alpha virt. eigenvalues --    0.08367   0.08556   0.09446   0.10159   0.10574

 Mulliken charges:
               1
     1  C    0.079426
     2  C    0.322570
     3  C    0.520529
     4  C    1.134291
     5  C   -0.387145
     6  C    1.282847
     7  H   -0.439973
     8  H   -0.449090
     9  H   -0.584302
    10  H   -0.632726
    11  C    1.073460
    12  C    0.057851
    13  N   -0.428239
    14  N   -0.027491
    15  O   -0.500194
    16  C    0.521488
    17  C    0.320416
    18  C    0.262735
    19  C    0.857024
    20  H   -0.588197
    21  H   -0.448111
    22  H   -0.441516
    23  H   -0.638538
    24  C    0.206965
    25  C    0.052566
    26  H   -0.566227
    27  H   -0.560420
 Sum of Mulliken charges =  -0.00000

 Dipole moment (field-independent basis, Debye):
    X=             -1.0666    Y=             -2.7539    Z=             -2.3335  Tot=              3.7639

 Test job not archived.
 1\1\GINC-SE116\SP\RHF\Aug-CC-pVDZ\C14H10N2O1\OHZDE\08-Apr-2025\0\\#t h
 f aug-cc-pvdz iop(5/13=1,5/36=2,99/5=2) pseudo=read geom=check guess=(
 read,tcheck) scf=(maxcycle=1)\\title\\0,1\C,0,-3.460737,0.840571,-0.99
 1492\C,0,-3.856784,-0.466287,-0.710903\C,0,-2.971767,-1.339917,-0.0943
 62\C,0,-2.178192,1.259431,-0.655141\C,0,-1.292328,0.382062,-0.031083\C
 ,0,-1.668758,-0.944548,0.254577\H,0,-4.147426,1.532484,-1.464659\H,0,-
 4.855301,-0.800616,-0.967489\H,0,-3.283322,-2.354402,0.129676\H,0,-1.8
 56675,2.274492,-0.850334\C,0,1.494249,-1.058135,0.229637\C,0,1.201324,

 Normal termination of Gaussian 16 at Tue Apr  8 23:05:40 2025.
