 Gaussian 16, Revision C.01,

 ----------------------------------------------------------------------
 #t hf aug-cc-pvdz symm=none int=(grid=ultrafine) guess=(read,tcheck) s
 table=(opt,rrhf)
 ----------------------------------------------------------------------
 -----
 title
 -----
 Symbolic Z-matrix:
 Charge =  0 Multiplicity = 1

 SCF Done:  E(RHF) =  -944.749317426     A.U. after   15 cycles
 Normal termination of Gaussian 16 at Wed Apr  9 00:09:13 2025.
 Gaussian 16:  ES64L-G16RevC.01  3-Jul-2019

 ----------------------------------------------------------------------
 #t hf aug-cc-pvdz iop(5/13=1,5/36=2,99/5=2) pseudo=read geom=check gue
 ss=(read,tcheck) scf=(maxcycle=1)
 ----------------------------------------------------------------------
 -----
 title
 -----
 Structure from the checkpoint file:  "BDE49_nonexpt_2353_mol1.chk"
 Charge =  0 Multiplicity = 1

                         Standard orientation:
 ---------------------------------------------------------------------
 Center     Atomic      Atomic             Coordinates (Angstroms)
 Number     Number       Type             X           Y           Z
 ---------------------------------------------------------------------
      1         14           0        1.124466   -1.176727    0.210839
      2         14           0       -1.041554   -1.102473   -0.710008
      3          6           0        1.864464    0.588562   -0.025478
      4          8           0        1.311236    1.571913   -0.391442
      5          1           0        2.042567   -2.122952   -0.461244
      6          1           0        1.135457   -1.429719    1.668086
      7          9           0        3.199501    0.642945    0.296294
      8          6           0       -2.036102    0.259386    0.264753
      9          1           0       -1.721833   -2.397852   -0.492813
     10          1           0       -0.926874   -0.824500   -2.163060
     11          8           0       -2.400778   -0.039016    1.382268
     12          6           0       -2.287681    1.617717   -0.345047
     13          1           0       -2.838034    1.511297   -1.285745
     14          1           0       -1.326880    2.084795   -0.586089
     15          1           0       -2.848435    2.244059    0.350603
 ---------------------------------------------------------------------

 SCF Done:  E(RHF) =  -944.910388608     A.U. after    2 cycles

 The electronic state is 1-A.
 Alpha  occ. eigenvalues --  -69.10515 -69.09042 -26.15212 -20.61757 -20.58399
 Alpha  occ. eigenvalues --  -11.43345 -11.34816 -11.24984  -6.85892  -6.84452
 Alpha  occ. eigenvalues --   -3.96697  -3.96612  -3.96584  -3.95201  -3.95193
 Alpha  occ. eigenvalues --   -3.95179  -1.69101  -1.41376  -1.36699  -1.01146
 Alpha  occ. eigenvalues --   -0.91762  -0.82111  -0.79585  -0.76536  -0.75502
 Alpha  occ. eigenvalues --   -0.72523  -0.69022  -0.64220  -0.63175  -0.61402
 Alpha  occ. eigenvalues --   -0.60887  -0.58278  -0.55378  -0.52735  -0.51728
 Alpha  occ. eigenvalues --   -0.50328  -0.48823  -0.43924  -0.39785
 Alpha virt. eigenvalues --    0.03055   0.03760   0.04752   0.05206   0.05946
 Alpha virt. eigenvalues --    0.06116   0.06661   0.06862   0.07287   0.07835
 Alpha virt. eigenvalues --    0.08109   0.08921   0.09266   0.10753   0.10888

 Mulliken charges:
               1
     1  Si   0.304614
     2  Si  -0.019397
     3  C    0.338163
     4  O   -0.340422
     5  H    0.027743
     6  H    0.042570
     7  F   -0.422997
     8  C    0.092465
     9  H    0.116187
    10  H    0.105775
    11  O   -0.527174
    12  C    0.304896
    13  H   -0.005452
    14  H    0.040495
    15  H   -0.057466
 Sum of Mulliken charges =  -0.00000

 Dipole moment (field-independent basis, Debye):
    X=             -0.6125    Y=             -1.9604    Z=             -2.4777  Tot=              3.2183

 Test job not archived.
 1\1\GINC-SE072\SP\RHF\Aug-CC-pVDZ\C3H7F1O2Si2\OHZDE\09-Apr-2025\0\\#t
 hf aug-cc-pvdz iop(5/13=1,5/36=2,99/5=2) pseudo=read geom=check guess=
 (read,tcheck) scf=(maxcycle=1)\\title\\0,1\Si,0,1.124466,-1.176727,0.2
 10839\Si,0,-1.041554,-1.102473,-0.710008\C,0,1.864464,0.588562,-0.0254
 78\O,0,1.311236,1.571913,-0.391442\H,0,2.042567,-2.122952,-0.461244\H,
 0,1.135457,-1.429719,1.668086\F,0,3.199501,0.642945,0.296294\C,0,-2.03
 6102,0.259386,0.264753\H,0,-1.721833,-2.397852,-0.492813\H,0,-0.926874
 ,-0.8245,-2.16306\O,0,-2.400778,-0.039016,1.382268\C,0,-2.287681,1.617

 Normal termination of Gaussian 16 at Wed Apr  9 00:09:20 2025.
