 Gaussian 16, Revision C.01,

 ----------------------------------------------------------------------
 #t hf aug-cc-pvdz symm=none int=(grid=ultrafine) guess=(read,tcheck) s
 table=(opt,rrhf)
 ----------------------------------------------------------------------
 -----
 title
 -----
 Symbolic Z-matrix:
 Charge =  0 Multiplicity = 1

 SCF Done:  E(RHF) =  -1242.44629494     A.U. after   14 cycles
 Normal termination of Gaussian 16 at Wed Apr  9 00:12:10 2025.
 Gaussian 16:  ES64L-G16RevC.01  3-Jul-2019

 ----------------------------------------------------------------------
 #t hf aug-cc-pvdz iop(5/13=1,5/36=2,99/5=2) pseudo=read geom=check gue
 ss=(read,tcheck) scf=(maxcycle=1)
 ----------------------------------------------------------------------
 -----
 title
 -----
 Structure from the checkpoint file:  "BDE49_nonexpt_2424_mol1.chk"
 Charge =  0 Multiplicity = 1

                         Standard orientation:
 ---------------------------------------------------------------------
 Center     Atomic      Atomic             Coordinates (Angstroms)
 Number     Number       Type             X           Y           Z
 ---------------------------------------------------------------------
      1         14           0       -2.652520    0.733845    0.162083
      2         14           0       -1.172939   -0.955921   -0.549332
      3         16           0        0.883050   -0.479303    0.210106
      4          1           0       -1.043802   -1.088877   -2.015048
      5          1           0       -1.424336   -2.273836    0.071030
      6          8           0        0.862666   -0.344873    1.652565
      7          8           0        0.958256    1.025110   -0.454811
      8          8           0        1.904372   -1.300638   -0.406777
      9          1           0       -4.033042    0.291672   -0.148134
     10          1           0       -2.358191    1.985875   -0.566077
     11          6           0        2.232931    1.706601   -0.362612
     12          1           0        2.097083    2.641238   -0.902568
     13          1           0        3.014967    1.108152   -0.832007
     14          1           0        2.479850    1.907782    0.681258
     15          1           0       -2.504838    0.929492    1.619192
 ---------------------------------------------------------------------

 SCF Done:  E(RHF) =  -1242.64788145     A.U. after    2 cycles

 The electronic state is 1-A.
 Alpha  occ. eigenvalues --  -93.80029 -69.11540 -69.08860 -20.62765 -20.56602
 Alpha  occ. eigenvalues --  -20.56555 -11.31042  -9.06466  -6.86839  -6.84256
 Alpha  occ. eigenvalues --   -6.41061  -6.40996  -6.40698  -3.97641  -3.97518
 Alpha  occ. eigenvalues --   -3.97479  -3.95014  -3.95007  -3.94999  -1.44928
 Alpha  occ. eigenvalues --   -1.34193  -1.31080  -0.98836  -0.85923  -0.77748
 Alpha  occ. eigenvalues --   -0.73051  -0.70957  -0.69417  -0.66342  -0.64178
 Alpha  occ. eigenvalues --   -0.62063  -0.58436  -0.53523  -0.53204  -0.52139
 Alpha  occ. eigenvalues --   -0.51194  -0.50631  -0.49977  -0.48492  -0.45905
 Alpha  occ. eigenvalues --   -0.42667
 Alpha virt. eigenvalues --    0.03016   0.03863   0.04042   0.05602   0.05933
 Alpha virt. eigenvalues --    0.06341   0.06791   0.07027   0.07493   0.07983
 Alpha virt. eigenvalues --    0.08977   0.09220   0.09708   0.10134   0.10977

 Mulliken charges:
               1
     1  Si  -0.289496
     2  Si   0.182185
     3  S    2.302400
     4  H    0.113352
     5  H    0.035328
     6  O   -1.046968
     7  O   -0.761597
     8  O   -1.072450
     9  H    0.025595
    10  H    0.094394
    11  C    0.672383
    12  H   -0.251324
    13  H   -0.064318
    14  H   -0.067290
    15  H    0.127805
 Sum of Mulliken charges =  -0.00000

 Dipole moment (field-independent basis, Debye):
    X=             -3.0629    Y=              2.2258    Z=             -2.1541  Tot=              4.3561

 Test job not archived.
 1\1\GINC-SE252\SP\RHF\Aug-CC-pVDZ\C1H8O3S1Si2\OHZDE\09-Apr-2025\0\\#t
 hf aug-cc-pvdz iop(5/13=1,5/36=2,99/5=2) pseudo=read geom=check guess=
 (read,tcheck) scf=(maxcycle=1)\\title\\0,1\Si,0,-2.65252,0.733845,0.16
 2083\Si,0,-1.172939,-0.955921,-0.549332\S,0,0.88305,-0.479303,0.210106
 \H,0,-1.043802,-1.088877,-2.015048\H,0,-1.424336,-2.273836,0.07103\O,0
 ,0.862666,-0.344873,1.652565\O,0,0.958256,1.02511,-0.454811\O,0,1.9043
 72,-1.300638,-0.406777\H,0,-4.033042,0.291672,-0.148134\H,0,-2.358191,
 1.985875,-0.566077\C,0,2.232931,1.706601,-0.362612\H,0,2.097083,2.6412

 Normal termination of Gaussian 16 at Wed Apr  9 00:12:16 2025.
