 Gaussian 16, Revision C.01,

 ----------------------------------------------------------------------
 #t hf aug-cc-pvdz symm=none int=(grid=ultrafine) guess=(read,tcheck) s
 table=(opt,rrhf)
 ----------------------------------------------------------------------
 -----
 title
 -----
 Symbolic Z-matrix:
 Charge =  0 Multiplicity = 1

 SCF Done:  E(RHF) =  -1435.51382719     A.U. after   14 cycles
 Normal termination of Gaussian 16 at Wed Apr  9 00:40:25 2025.
 Gaussian 16:  ES64L-G16RevC.01  3-Jul-2019

 ----------------------------------------------------------------------
 #t hf aug-cc-pvdz iop(5/13=1,5/36=2,99/5=2) pseudo=read geom=check gue
 ss=(read,tcheck) scf=(maxcycle=1)
 ----------------------------------------------------------------------
 -----
 title
 -----
 Structure from the checkpoint file:  "BDE49_nonexpt_702_mol1.chk"
 Charge =  0 Multiplicity = 1

                         Standard orientation:
 ---------------------------------------------------------------------
 Center     Atomic      Atomic             Coordinates (Angstroms)
 Number     Number       Type             X           Y           Z
 ---------------------------------------------------------------------
      1         15           0        0.334960    0.220361    0.843890
      2          5           0       -1.378417   -0.365242    0.022923
      3          8           0       -1.488134   -1.368968   -0.872842
      4          8           0       -2.450460    0.320552    0.479275
      5         17           0        1.550717   -1.306972   -0.001951
      6         17           0        0.643181    1.814650   -0.503467
      7          1           0       -3.280395    0.047844    0.068709
      8          1           0       -0.639423   -1.770241   -1.101038
 ---------------------------------------------------------------------

 SCF Done:  E(RHF) =  -1435.63229475     A.U. after    2 cycles

 The electronic state is 1-A.
 Alpha  occ. eigenvalues -- -103.67797-103.67483 -81.36107 -20.61390 -20.61333
 Alpha  occ. eigenvalues --  -10.71110 -10.70781  -8.36799  -8.36538  -8.36522
 Alpha  occ. eigenvalues --   -8.36480  -8.36192  -8.36177  -7.85703  -7.70940
 Alpha  occ. eigenvalues --   -4.99458  -4.99320  -4.99026  -1.37755  -1.34412
 Alpha  occ. eigenvalues --   -1.16706  -1.14122  -0.83252  -0.79657  -0.75730
 Alpha  occ. eigenvalues --   -0.66029  -0.62573  -0.61908  -0.57036  -0.55521
 Alpha  occ. eigenvalues --   -0.54474  -0.53225  -0.49622  -0.47322  -0.46771
 Alpha  occ. eigenvalues --   -0.37724
 Alpha virt. eigenvalues --    0.03427   0.04455   0.04998   0.05924   0.06619
 Alpha virt. eigenvalues --    0.07151   0.07904   0.09416   0.09919   0.12221
 Alpha virt. eigenvalues --    0.13236   0.14414   0.14752   0.15643   0.18028

 Mulliken charges:
               1
     1  P    0.292809
     2  B    0.951408
     3  O   -0.355485
     4  O   -0.442923
     5  Cl  -0.465360
     6  Cl  -0.400927
     7  H    0.195980
     8  H    0.224498
 Sum of Mulliken charges =  -0.00000

 Dipole moment (field-independent basis, Debye):
    X=             -1.7373    Y=             -1.1808    Z=              0.0766  Tot=              2.1020

 Test job not archived.
 1\1\GINC-SE105\SP\RHF\Aug-CC-pVDZ\B1Cl2H2O2P1\OHZDE\09-Apr-2025\0\\#t
 hf aug-cc-pvdz iop(5/13=1,5/36=2,99/5=2) pseudo=read geom=check guess=
 (read,tcheck) scf=(maxcycle=1)\\title\\0,1\P,0,0.33496,0.220361,0.8438
 9\B,0,-1.378417,-0.365241,0.022923\O,0,-1.488135,-1.368967,-0.872842\O
 ,0,-2.45046,0.320553,0.479275\Cl,0,1.550716,-1.306973,-0.001951\Cl,0,0
 .643182,1.81465,-0.503467\H,0,-3.280395,0.047846,0.068709\H,0,-0.63942
 4,-1.770241,-1.101038\\Version=ES64L-G16RevC.01\State=1-A\HF=-1435.632
 2947\RMSD=5.078e-03\Dipole=-0.6835202,-0.4645577,0.0301464\Quadrupole=

 Normal termination of Gaussian 16 at Wed Apr  9 00:40:28 2025.
