 Gaussian 16, Revision C.01,

 ----------------------------------------------------------------------
 #t hf aug-cc-pvdz symm=none int=(grid=ultrafine) guess=(read,tcheck) s
 table=opt
 ----------------------------------------------------------------------
 -----
 title
 -----
 Symbolic Z-matrix:
 Charge =  0 Multiplicity = 2

 SCF Done:  E(UHF) =  -375.228767655     A.U. after   15 cycles
 Normal termination of Gaussian 16 at Tue Apr  8 22:37:26 2025.
 Gaussian 16:  ES64L-G16RevC.01  3-Jul-2019

 ----------------------------------------------------------------------
 #t hf aug-cc-pvdz iop(5/13=1,5/36=2,99/5=2) pseudo=read geom=check gue
 ss=(read,tcheck) scf=(maxcycle=1)
 ----------------------------------------------------------------------
 -----
 title
 -----
 Structure from the checkpoint file:  "BDE49_expt_123_mol2.chk"
 Charge =  0 Multiplicity = 2

                         Standard orientation:
 ---------------------------------------------------------------------
 Center     Atomic      Atomic             Coordinates (Angstroms)
 Number     Number       Type             X           Y           Z
 ---------------------------------------------------------------------
      1          6           0       -0.018237    0.000000   -0.009086
      2          9           0        0.466866   -0.000021    1.261471
      3          6           0       -1.494948    0.000002   -0.037186
      4          9           0        0.495257   -1.090939   -0.618638
      5          9           0        0.495260    1.090959   -0.618602
      6          1           0       -2.018672   -0.941836    0.029774
      7          1           0       -2.018671    0.941840    0.029774
 ---------------------------------------------------------------------

 SCF Done:  E(UHF) =  -375.363436666     A.U. after    2 cycles

 The electronic state is 2-A.
 Alpha  occ. eigenvalues --  -26.16502 -26.16492 -26.16140 -11.53081 -11.29722
 Alpha  occ. eigenvalues --   -1.75805  -1.68976  -1.68667  -1.10160  -0.96726
 Alpha  occ. eigenvalues --   -0.87843  -0.87819  -0.82070  -0.77493  -0.77271
 Alpha  occ. eigenvalues --   -0.72809  -0.72462  -0.71519  -0.63348  -0.62439
 Alpha  occ. eigenvalues --   -0.44869
 Alpha virt. eigenvalues --    0.03393   0.04894   0.08030   0.09863   0.11465
 Alpha virt. eigenvalues --    0.11589   0.12144   0.15967   0.17140   0.21043
 Alpha virt. eigenvalues --    0.22402   0.23662   0.27360   0.27618   0.29415

  Beta  occ. eigenvalues --  -26.16443 -26.16433 -26.15889 -11.53354 -11.27204
  Beta  occ. eigenvalues --   -1.75504  -1.68803  -1.68057  -1.06500  -0.93458
  Beta  occ. eigenvalues --   -0.87699  -0.86971  -0.79468  -0.77094  -0.76436
  Beta  occ. eigenvalues --   -0.72674  -0.72223  -0.71278  -0.61879  -0.61016
  Beta virt. eigenvalues --    0.03524   0.04314   0.04931   0.08051   0.11469
  Beta virt. eigenvalues --    0.11626   0.11785   0.14566   0.16480   0.17337
  Beta virt. eigenvalues --    0.21293   0.23137   0.23823   0.27470   0.28245

 Mulliken charges and spin densities:
               1          2
     1  C    1.048542  -0.109533
     2  F   -0.324489   0.007098
     3  C    0.168190   1.300287
     4  F   -0.305753   0.004778
     5  F   -0.305753   0.004778
     6  H   -0.140368  -0.103704
     7  H   -0.140368  -0.103704
 Sum of Mulliken charges =   0.00000   1.00000

 Dipole moment (field-independent basis, Debye):
    X=             -2.8015    Y=              0.0000    Z=              0.0080  Tot=              2.8015
                          Isotropic Fermi Contact Couplings
        Atom                 a.u.       MegaHertz       Gauss      10(-4) cm-1
     1  C(13)             -0.06149     -69.13095     -24.66764     -23.05960
     2  F(19)              0.04673     196.63096      70.16282      65.58903
     3  C(13)              0.21564     242.42480      86.50320      80.86421
     4  F(19)              0.00836      35.15519      12.54425      11.72651
     5  F(19)              0.00835      35.15000      12.54240      11.72478
     6  H(1)              -0.02575    -115.10894     -41.07373     -38.39621
     7  H(1)              -0.02575    -115.10916     -41.07381     -38.39628
 --------------------------------------------------------

 Normal termination of Gaussian 16 at Tue Apr  8 22:37:28 2025.
