 Gaussian 16, Revision C.01,

 ----------------------------------------------------------------------
 #t hf aug-cc-pvdz symm=none int=(grid=ultrafine) guess=(read,tcheck) s
 table=opt
 ----------------------------------------------------------------------
 -----
 title
 -----
 Symbolic Z-matrix:
 Charge =  0 Multiplicity = 2

 SCF Done:  E(UHF) =  -743.914150017     A.U. after   21 cycles
 Normal termination of Gaussian 16 at Wed Apr  9 00:25:04 2025.
 Gaussian 16:  ES64L-G16RevC.01  3-Jul-2019

 ----------------------------------------------------------------------
 #t hf aug-cc-pvdz iop(5/13=1,5/36=2,99/5=2) pseudo=read geom=check gue
 ss=(read,tcheck) scf=(maxcycle=1)
 ----------------------------------------------------------------------
 -----
 title
 -----
 Structure from the checkpoint file:  "BDE49_nonexpt_2718_mol2.chk"
 Charge =  0 Multiplicity = 2

                         Standard orientation:
 ---------------------------------------------------------------------
 Center     Atomic      Atomic             Coordinates (Angstroms)
 Number     Number       Type             X           Y           Z
 ---------------------------------------------------------------------
      1         16           0        2.883201    0.000038   -0.686861
      2          6           0        1.463366   -0.000047    0.366135
      3          8           0        1.706168   -0.000072    1.554707
      4          6           0        0.075557   -0.000012   -0.231582
      5          6           0       -0.688551   -1.274231    0.197092
      6          6           0       -2.126604   -1.267184   -0.338179
      7          1           0       -0.696390   -1.319401    1.291022
      8          1           0       -0.154608   -2.162444   -0.154353
      9          6           0       -2.882806    0.000021    0.082939
     10          1           0       -2.652126   -2.159468    0.015732
     11          1           0       -2.107247   -1.331863   -1.433646
     12          6           0       -2.126569    1.267229   -0.338107
     13          1           0       -3.008247   -0.000008    1.173025
     14          1           0       -3.888928    0.000047   -0.347497
     15          6           0       -0.688515    1.274205    0.197163
     16          1           0       -2.652065    2.159508    0.015853
     17          1           0       -2.107209    1.331969   -1.433571
     18          1           0       -0.154546    2.162423   -0.154231
     19          1           0       -0.696353    1.319312    1.291096
     20          1           0        0.181889    0.000018   -1.324074
 ---------------------------------------------------------------------

 SCF Done:  E(UHF) =  -744.034803257     A.U. after    2 cycles

 The electronic state is 2-A.
 Alpha  occ. eigenvalues --  -93.57827 -20.57656 -11.37899 -11.26686 -11.24577
 Alpha  occ. eigenvalues --  -11.24569 -11.23952 -11.23950 -11.23631  -8.87676
 Alpha  occ. eigenvalues --   -6.23050  -6.21342  -6.20890  -1.37355  -1.12723
 Alpha  occ. eigenvalues --   -1.04721  -1.01192  -1.00289  -0.87218  -0.84805
 Alpha  occ. eigenvalues --   -0.77625  -0.74468  -0.67974  -0.65898  -0.62945
 Alpha  occ. eigenvalues --   -0.61798  -0.60132  -0.59006  -0.57443  -0.54427
 Alpha  occ. eigenvalues --   -0.52090  -0.50878  -0.50099  -0.48515  -0.47168
 Alpha  occ. eigenvalues --   -0.45159  -0.44735  -0.41910  -0.40404
 Alpha virt. eigenvalues --    0.03154   0.04079   0.04163   0.04774   0.06186
 Alpha virt. eigenvalues --    0.06328   0.06865   0.06887   0.07564   0.08564
 Alpha virt. eigenvalues --    0.09179   0.09221   0.10617   0.11283   0.13044

  Beta  occ. eigenvalues --  -93.56896 -20.57492 -11.38004 -11.26663 -11.24573
  Beta  occ. eigenvalues --  -11.24566 -11.23952 -11.23950 -11.23631  -8.86637
  Beta  occ. eigenvalues --   -6.20816  -6.20290  -6.18980  -1.36859  -1.12640
  Beta  occ. eigenvalues --   -1.03688  -1.01188  -0.95162  -0.85835  -0.84802
  Beta  occ. eigenvalues --   -0.77223  -0.73628  -0.67291  -0.64921  -0.62505
  Beta  occ. eigenvalues --   -0.61793  -0.59056  -0.58934  -0.56919  -0.54422
  Beta  occ. eigenvalues --   -0.52026  -0.50463  -0.50092  -0.47598  -0.46992
  Beta  occ. eigenvalues --   -0.44720  -0.40996  -0.38102
  Beta virt. eigenvalues --    0.00098   0.03199   0.04080   0.04308   0.04796
  Beta virt. eigenvalues --    0.06257   0.06341   0.06889   0.06932   0.07746
  Beta virt. eigenvalues --    0.08631   0.09181   0.09494   0.10507   0.11836

 Mulliken charges and spin densities:
               1          2
     1  S    0.207725   1.113375
     2  C    0.097550  -0.124104
     3  O   -0.572964   0.017053
     4  C   -0.011499  -0.045076
     5  C    0.270455   0.018464
     6  C    0.399083  -0.005305
     7  H   -0.064013   0.000061
     8  H   -0.162426   0.003850
     9  C    0.173468   0.000621
    10  H   -0.085796  -0.000227
    11  H   -0.093961  -0.000484
    12  C    0.399101  -0.005305
    13  H   -0.101313   0.000090
    14  H   -0.104610  -0.000003
    15  C    0.270445   0.018466
    16  H   -0.085800  -0.000227
    17  H   -0.093958  -0.000484
    18  H   -0.162425   0.003851
    19  H   -0.064008   0.000061
    20  H   -0.215053   0.005322
 Sum of Mulliken charges =  -0.00000   1.00000

 Dipole moment (field-independent basis, Debye):
    X=             -2.4443    Y=              0.0001    Z=             -2.4908  Tot=              3.4898
                          Isotropic Fermi Contact Couplings
        Atom                 a.u.       MegaHertz       Gauss      10(-4) cm-1
     1  S(33)              0.21366      73.38721      26.18638      24.47934
     2  C(13)             -0.01771     -19.91057      -7.10459      -6.64145
     3  O(17)              0.02660     -16.12585      -5.75411      -5.37901
     4  C(13)              0.00408       4.58519       1.63611       1.52945
     5  C(13)              0.00051       0.57089       0.20371       0.19043
     6  C(13)              0.00002       0.01767       0.00630       0.00589
     7  H(1)               0.00001       0.05600       0.01998       0.01868
     8  H(1)              -0.00001      -0.05372      -0.01917      -0.01792

 Normal termination of Gaussian 16 at Wed Apr  9 00:25:17 2025.
