 Gaussian 16, Revision C.01,

 ----------------------------------------------------------------------
 #t hf aug-cc-pvdz symm=none int=(grid=ultrafine) guess=(read,tcheck) s
 table=(opt,rrhf)
 ----------------------------------------------------------------------
 -----
 title
 -----
 Symbolic Z-matrix:
 Charge =  0 Multiplicity = 1

 SCF Done:  E(RHF) =  -235.163553949     A.U. after   13 cycles
 Normal termination of Gaussian 16 at Wed Apr  9 00:47:59 2025.
 Gaussian 16:  ES64L-G16RevC.01  3-Jul-2019

 ----------------------------------------------------------------------
 #t hf aug-cc-pvdz iop(5/13=1,5/36=2,99/5=2) pseudo=read geom=check gue
 ss=(read,tcheck) scf=(maxcycle=1)
 ----------------------------------------------------------------------
 -----
 title
 -----
 Structure from the checkpoint file:  "BDE49_nonexpt_89_mol1.chk"
 Charge =  0 Multiplicity = 1

                         Standard orientation:
 ---------------------------------------------------------------------
 Center     Atomic      Atomic             Coordinates (Angstroms)
 Number     Number       Type             X           Y           Z
 ---------------------------------------------------------------------
      1          5           0       -0.700575    0.815264    0.444412
      2          5           0        0.700574    0.815263   -0.444415
      3          6           0        1.888039   -0.068293   -0.093898
      4          7           0        2.782236   -0.745829    0.192398
      5          6           0       -1.888040   -0.068292    0.093896
      6          7           0       -2.782238   -0.745825   -0.192400
      7          1           0        0.821412    1.554254   -1.371640
      8          1           0       -0.821387    1.554201    1.371685
 ---------------------------------------------------------------------

 SCF Done:  E(RHF) =  -235.231477524     A.U. after    2 cycles

 The electronic state is 1-A.
 Alpha  occ. eigenvalues --  -15.68077 -15.68077 -11.29458 -11.29458  -7.68799
 Alpha  occ. eigenvalues --   -7.68715  -1.21703  -1.21582  -0.86878  -0.80759
 Alpha  occ. eigenvalues --   -0.64681  -0.61615  -0.57498  -0.57319  -0.56178
 Alpha  occ. eigenvalues --   -0.50302  -0.50186  -0.49808  -0.45849
 Alpha virt. eigenvalues --    0.00094   0.00232   0.02866   0.03460   0.05196
 Alpha virt. eigenvalues --    0.05487   0.06335   0.06898   0.07157   0.08426
 Alpha virt. eigenvalues --    0.11617   0.12128   0.12834   0.13317   0.13446

 Mulliken charges:
               1
     1  B    0.118708
     2  B    0.118704
     3  C   -0.065581
     4  N   -0.220494
     5  C   -0.065581
     6  N   -0.220492
     7  H    0.167370
     8  H    0.167365
 Sum of Mulliken charges =  -0.00000

 Dipole moment (field-independent basis, Debye):
    X=             -0.0000    Y=              3.4172    Z=             -0.0000  Tot=              3.4172

 Test job not archived.
 1\1\GINC-SE419\SP\RHF\Aug-CC-pVDZ\C2H2B2N2\OHZDE\09-Apr-2025\0\\#t hf
 aug-cc-pvdz iop(5/13=1,5/36=2,99/5=2) pseudo=read geom=check guess=(re
 ad,tcheck) scf=(maxcycle=1)\\title\\0,1\B,0,0.700575,0.815264,-0.44441
 2\B,0,-0.700574,0.815263,0.444415\C,0,-1.888039,-0.068293,0.093898\N,0
 ,-2.782236,-0.745829,-0.192398\C,0,1.88804,-0.068292,-0.093896\N,0,2.7
 82238,-0.745825,0.1924\H,0,-0.821412,1.554254,1.37164\H,0,0.821387,1.5
 54201,-1.371685\\Version=ES64L-G16RevC.01\State=1-A\HF=-235.2314775\RM
 SD=2.657e-03\Dipole=0.0000061,1.344414,0.0000108\Quadrupole=-9.3454042

 Normal termination of Gaussian 16 at Wed Apr  9 00:48:02 2025.
