 Gaussian 16, Revision C.01,

 ----------------------------------------------------------------------
 #t hf aug-cc-pvdz symm=none int=(grid=ultrafine) guess=(read,tcheck) s
 table=(opt,rrhf)
 ----------------------------------------------------------------------
 -----
 title
 -----
 Symbolic Z-matrix:
 Charge =  0 Multiplicity = 1

 SCF Done:  E(RHF) =  -887.963704120     A.U. after   15 cycles
 Normal termination of Gaussian 16 at Tue Apr  8 23:06:35 2025.
 Gaussian 16:  ES64L-G16RevC.01  3-Jul-2019

 ----------------------------------------------------------------------
 #t hf aug-cc-pvdz iop(5/13=1,5/36=2,99/5=2) pseudo=read geom=check gue
 ss=(read,tcheck) scf=(maxcycle=1)
 ----------------------------------------------------------------------
 -----
 title
 -----
 Structure from the checkpoint file:  "BDE49_expt_434_mol1.chk"
 Charge =  0 Multiplicity = 1

                         Standard orientation:
 ---------------------------------------------------------------------
 Center     Atomic      Atomic             Coordinates (Angstroms)
 Number     Number       Type             X           Y           Z
 ---------------------------------------------------------------------
      1         16           0       -1.231351    0.407252   -0.371389
      2          8           0       -1.525375    1.821476   -0.314462
      3          7           0       -1.864737   -0.179619    1.085279
      4          6           0        0.518090    0.147901   -0.153091
      5          6           0        1.270548    1.129322    0.490329
      6          6           0        2.638369    0.931877    0.650200
      7          6           0        3.237408   -0.233947    0.172520
      8          6           0        2.473036   -1.204519   -0.472577
      9          6           0        1.103531   -1.017031   -0.643261
     10          1           0        2.942570   -2.105837   -0.849071
     11          1           0        0.492148   -1.749805   -1.152023
     12          1           0        0.787528    2.032030    0.841309
     13          1           0        3.237200    1.689602    1.141970
     14          1           0        4.303965   -0.382472    0.298158
     15          8           0       -1.668548   -0.407553   -1.480974
     16          7           0       -1.937807   -1.584721    1.145780
     17          1           0       -2.719671    0.343940    1.275760
     18          1           0       -1.814301   -1.878890    2.105879
     19          1           0       -2.804529   -1.947219    0.761608
 ---------------------------------------------------------------------

 SCF Done:  E(RHF) =  -888.188371346     A.U. after    2 cycles

 The electronic state is 1-A.
 Alpha  occ. eigenvalues --  -93.80012 -20.56012 -20.55917 -15.69199 -15.67144
 Alpha  occ. eigenvalues --  -11.28449 -11.27198 -11.27135 -11.26963 -11.26263
 Alpha  occ. eigenvalues --  -11.26218  -9.06417  -6.41082  -6.40916  -6.40796
 Alpha  occ. eigenvalues --   -1.43288  -1.31087  -1.26673  -1.16883  -1.06159
 Alpha  occ. eigenvalues --   -1.03508  -1.03295  -0.89853  -0.85263  -0.81020
 Alpha  occ. eigenvalues --   -0.74536  -0.72760  -0.71540  -0.69343  -0.67713
 Alpha  occ. eigenvalues --   -0.66332  -0.64059  -0.63663  -0.61499  -0.55191
 Alpha  occ. eigenvalues --   -0.54089  -0.52912  -0.52461  -0.51978  -0.50092
 Alpha  occ. eigenvalues --   -0.48354  -0.44429  -0.43357  -0.36738  -0.35876
 Alpha virt. eigenvalues --    0.02897   0.03239   0.03915   0.05023   0.05256
 Alpha virt. eigenvalues --    0.05367   0.07237   0.07584   0.07869   0.09629
 Alpha virt. eigenvalues --    0.10897   0.11473   0.12090   0.12871   0.14015

 Mulliken charges:
               1
     1  S    2.994152
     2  O   -1.000874
     3  N   -0.618703
     4  C    0.596753
     5  C   -0.274125
     6  C    0.729772
     7  C    0.381848
     8  C    0.758902
     9  C   -0.187819
    10  H   -0.432380
    11  H   -0.503972
    12  H   -0.524063
    13  H   -0.431824
    14  H   -0.438649
    15  O   -1.052260
    16  N   -0.145994
    17  H    0.030115
    18  H    0.064591
    19  H    0.054531
 Sum of Mulliken charges =  -0.00000

 Dipole moment (field-independent basis, Debye):
    X=              1.6996    Y=             -2.6124    Z=              3.9406  Tot=              5.0241

 Test job not archived.
 1\1\GINC-SE070\SP\RHF\Aug-CC-pVDZ\C6H8N2O2S1\OHZDE\08-Apr-2025\0\\#t h
 f aug-cc-pvdz iop(5/13=1,5/36=2,99/5=2) pseudo=read geom=check guess=(
 read,tcheck) scf=(maxcycle=1)\\title\\0,1\S,0,-1.231351,0.407252,-0.37
 1389\O,0,-1.525375,1.821476,-0.314462\N,0,-1.864737,-0.179619,1.085279
 \C,0,0.51809,0.147901,-0.153091\C,0,1.270548,1.129322,0.490329\C,0,2.6
 38369,0.931877,0.6502\C,0,3.237408,-0.233947,0.17252\C,0,2.473036,-1.2
 04519,-0.472577\C,0,1.103531,-1.017031,-0.643261\H,0,2.94257,-2.105837
 ,-0.849071\H,0,0.492148,-1.749805,-1.152023\H,0,0.787528,2.03203,0.841

 Normal termination of Gaussian 16 at Tue Apr  8 23:06:48 2025.
