 Gaussian 16, Revision C.01,

 ----------------------------------------------------------------------
 #t hf aug-cc-pvdz symm=none int=(grid=ultrafine) guess=(read,tcheck) s
 table=opt
 ----------------------------------------------------------------------
 -----
 title
 -----
 Symbolic Z-matrix:
 Charge =  0 Multiplicity = 2

 SCF Done:  E(UHF) =  -969.757875562     A.U. after   21 cycles
 Normal termination of Gaussian 16 at Wed Apr  9 00:15:34 2025.
 Gaussian 16:  ES64L-G16RevC.01  3-Jul-2019

 ----------------------------------------------------------------------
 #t hf aug-cc-pvdz iop(5/13=1,5/36=2,99/5=2) pseudo=read geom=check gue
 ss=(read,tcheck) scf=(maxcycle=1)
 ----------------------------------------------------------------------
 -----
 title
 -----
 Structure from the checkpoint file:  "BDE49_nonexpt_2557_mol2.chk"
 Charge =  0 Multiplicity = 2

                         Standard orientation:
 ---------------------------------------------------------------------
 Center     Atomic      Atomic             Coordinates (Angstroms)
 Number     Number       Type             X           Y           Z
 ---------------------------------------------------------------------
      1         16           0        1.430139   -0.566782   -0.000001
      2          6           0        0.108617    0.546720    0.000009
      3          8           0        0.086426    1.725269   -0.000003
      4         17           0       -1.425020   -0.471410   -0.000001
 ---------------------------------------------------------------------

 SCF Done:  E(UHF) =  -969.830520395     A.U. after    2 cycles

 The electronic state is 2-A.
 Alpha  occ. eigenvalues -- -103.69377 -93.62656 -20.63498 -11.46565 -10.72669
 Alpha  occ. eigenvalues --   -8.92483  -8.38423  -8.38099  -8.38032  -6.27805
 Alpha  occ. eigenvalues --   -6.26134  -6.25632  -1.44429  -1.19102  -1.06799
 Alpha  occ. eigenvalues --   -0.79499  -0.70770  -0.68236  -0.64738  -0.53784
 Alpha  occ. eigenvalues --   -0.50152  -0.48282  -0.47300  -0.44626
 Alpha virt. eigenvalues --    0.05186   0.07782   0.08154   0.08845   0.10262
 Alpha virt. eigenvalues --    0.11428   0.11932   0.13066   0.13884   0.15714
 Alpha virt. eigenvalues --    0.16852   0.17976   0.23068   0.25064   0.27151

  Beta  occ. eigenvalues -- -103.69294 -93.61712 -20.63470 -11.46684 -10.72580
  Beta  occ. eigenvalues --   -8.91429  -8.38252  -8.37985  -8.37894  -6.25636
  Beta  occ. eigenvalues --   -6.25019  -6.23667  -1.44277  -1.18225  -1.00419
  Beta  occ. eigenvalues --   -0.77875  -0.69752  -0.65635  -0.64782  -0.50053
  Beta  occ. eigenvalues --   -0.49943  -0.47393  -0.42315
  Beta virt. eigenvalues --   -0.03463   0.05570   0.07904   0.07949   0.09404
  Beta virt. eigenvalues --    0.11077   0.11552   0.12455   0.13377   0.13975
  Beta virt. eigenvalues --    0.15804   0.17646   0.18309   0.23739   0.26674

 Mulliken charges and spin densities:
               1          2
     1  S    0.490971   1.060858
     2  C   -0.131029  -0.088229
     3  O   -0.264488  -0.002749
     4  Cl  -0.095454   0.030119
 Sum of Mulliken charges =  -0.00000   1.00000

 Dipole moment (field-independent basis, Debye):
    X=              1.5158    Y=             -1.8985    Z=              0.0000  Tot=              2.4294
                          Isotropic Fermi Contact Couplings
        Atom                 a.u.       MegaHertz       Gauss      10(-4) cm-1
     1  S(33)              0.23519      80.78269      28.82527      26.94620
     2  C(13)             -0.02603     -29.26175     -10.44132      -9.76067
     3  O(17)              0.00613      -3.71357      -1.32510      -1.23871
     4  Cl(35)             0.04272      18.73324       6.68448       6.24874
 --------------------------------------------------------
       Center         ----  Spin Dipole Couplings  ----
                      3XX-RR        3YY-RR        3ZZ-RR
 --------------------------------------------------------

 Normal termination of Gaussian 16 at Wed Apr  9 00:15:36 2025.
