 Gaussian 16, Revision C.01,

 ----------------------------------------------------------------------
 #t hf aug-cc-pvdz symm=none int=(grid=ultrafine) guess=(read,tcheck) s
 table=(opt,rrhf)
 ----------------------------------------------------------------------
 -----
 title
 -----
 Symbolic Z-matrix:
 Charge =  0 Multiplicity = 1

 SCF Done:  E(RHF) =  -669.726399798     A.U. after   13 cycles
 Normal termination of Gaussian 16 at Tue Apr  8 23:54:02 2025.
 Gaussian 16:  ES64L-G16RevC.01  3-Jul-2019

 ----------------------------------------------------------------------
 #t hf aug-cc-pvdz iop(5/13=1,5/36=2,99/5=2) pseudo=read geom=check gue
 ss=(read,tcheck) scf=(maxcycle=1)
 ----------------------------------------------------------------------
 -----
 title
 -----
 Structure from the checkpoint file:  "BDE49_nonexpt_1968_mol1.chk"
 Charge =  0 Multiplicity = 1

                         Standard orientation:
 ---------------------------------------------------------------------
 Center     Atomic      Atomic             Coordinates (Angstroms)
 Number     Number       Type             X           Y           Z
 ---------------------------------------------------------------------
      1         14           0        2.514895   -0.790356    0.185577
      2          6           0        1.575228    0.531167   -0.819244
      3          1           0        3.775149   -1.081926   -0.533989
      4          1           0        1.706649   -2.024539    0.281536
      5          1           0        2.816481   -0.276821    1.537393
      6          6           0        0.267857    0.898017   -0.193343
      7          8           0        0.064096    1.784993    0.577313
      8          8           0       -0.747772    0.049779   -0.655481
      9          6           0       -1.813171   -0.296332    0.178057
     10          8           0       -1.711855   -0.364616    1.363368
     11          6           0       -3.028949   -0.608262   -0.648013
     12          1           0       -2.772636   -1.298737   -1.453672
     13          1           0       -3.393862    0.313157   -1.109709
     14          1           0       -3.802346   -1.033603   -0.012028
     15          1           0        1.419216    0.134576   -1.824685
     16          1           0        2.201275    1.424086   -0.869260
 ---------------------------------------------------------------------

 SCF Done:  E(RHF) =  -669.871315431     A.U. after    2 cycles

 The electronic state is 1-A.
 Alpha  occ. eigenvalues --  -69.08213 -20.63766 -20.58171 -20.57923 -11.41709
 Alpha  occ. eigenvalues --  -11.41562 -11.26522 -11.25818  -6.83475  -3.94271
 Alpha  occ. eigenvalues --   -3.94243  -3.94229  -1.45076  -1.38481  -1.33637
 Alpha  occ. eigenvalues --   -1.05291  -1.01333  -0.88150  -0.75334  -0.72953
 Alpha  occ. eigenvalues --   -0.71646  -0.70449  -0.69370  -0.63927  -0.62719
 Alpha  occ. eigenvalues --   -0.60510  -0.59253  -0.57567  -0.55200  -0.51101
 Alpha  occ. eigenvalues --   -0.50287  -0.49219  -0.48679  -0.47907  -0.45554
 Alpha virt. eigenvalues --    0.02852   0.03852   0.04525   0.04773   0.05738
 Alpha virt. eigenvalues --    0.06405   0.06923   0.07872   0.08393   0.09454
 Alpha virt. eigenvalues --    0.09544   0.09962   0.11854   0.12624   0.13690

 Mulliken charges:
               1
     1  Si   0.276081
     2  C    0.033889
     3  H    0.005773
     4  H    0.032960
     5  H    0.044084
     6  C    0.488512
     7  O   -0.428354
     8  O   -0.566940
     9  C    0.346419
    10  O   -0.384167
    11  C    0.296073
    12  H    0.012616
    13  H    0.042080
    14  H   -0.004757
    15  H   -0.152971
    16  H   -0.041298
 Sum of Mulliken charges =  -0.00000

 Dipole moment (field-independent basis, Debye):
    X=              0.3130    Y=             -1.7590    Z=             -4.1970  Tot=              4.5615

 Test job not archived.
 1\1\GINC-SE082\SP\RHF\Aug-CC-pVDZ\C4H8O3Si1\OHZDE\08-Apr-2025\0\\#t hf
  aug-cc-pvdz iop(5/13=1,5/36=2,99/5=2) pseudo=read geom=check guess=(r
 ead,tcheck) scf=(maxcycle=1)\\title\\0,1\Si,0,2.514895,-0.790356,0.185
 577\C,0,1.575228,0.531167,-0.819244\H,0,3.775149,-1.081926,-0.533989\H
 ,0,1.706649,-2.024539,0.281536\H,0,2.816481,-0.276821,1.537393\C,0,0.2
 67857,0.898017,-0.193343\O,0,0.064096,1.784993,0.577313\O,0,-0.747772,
 0.049779,-0.655481\C,0,-1.813171,-0.296332,0.178057\O,0,-1.711855,-0.3
 64616,1.363368\C,0,-3.028949,-0.608262,-0.648013\H,0,-2.772636,-1.2987

 Normal termination of Gaussian 16 at Tue Apr  8 23:54:09 2025.
