 Gaussian 16, Revision C.01,

 ----------------------------------------------------------------------
 #t hf aug-cc-pvdz symm=none int=(grid=ultrafine) guess=(read,tcheck) s
 table=(opt,rrhf)
 ----------------------------------------------------------------------
 -----
 title
 -----
 Symbolic Z-matrix:
 Charge =  0 Multiplicity = 1

 SCF Done:  E(RHF) =  -814.725493717     A.U. after   16 cycles
 Normal termination of Gaussian 16 at Tue Apr  8 23:39:05 2025.
 Gaussian 16:  ES64L-G16RevC.01  3-Jul-2019

 ----------------------------------------------------------------------
 #t hf aug-cc-pvdz iop(5/13=1,5/36=2,99/5=2) pseudo=read geom=check gue
 ss=(read,tcheck) scf=(maxcycle=1)
 ----------------------------------------------------------------------
 -----
 title
 -----
 Structure from the checkpoint file:  "BDE49_nonexpt_1585_mol1.chk"
 Charge =  0 Multiplicity = 1

                         Standard orientation:
 ---------------------------------------------------------------------
 Center     Atomic      Atomic             Coordinates (Angstroms)
 Number     Number       Type             X           Y           Z
 ---------------------------------------------------------------------
      1          6           0       -2.357112    0.522429    0.260350
      2         15           0       -1.833506   -1.056166   -0.613719
      3          8           0       -3.087707    1.334969   -0.245085
      4          8           0       -1.939322    0.582391    1.541908
      5          7           0       -0.255791   -1.387285   -0.082663
      6          6           0        0.901914   -0.588282   -0.076737
      7          1           0       -2.323583    1.387523    1.926534
      8          6           0        0.922475    0.704241   -0.614400
      9          6           0        2.082542   -1.109776    0.473903
     10          6           0        3.250320   -0.358270    0.483740
     11          6           0        3.269803    0.927948   -0.054554
     12          6           0        2.100099    1.447823   -0.600543
     13          1           0        2.095539    2.446897   -1.022049
     14          1           0        0.027490    1.135236   -1.043952
     15          1           0        2.078767   -2.111052    0.893880
     16          1           0        4.150525   -0.781862    0.915093
     17          1           0        4.181175    1.513563   -0.046574
     18          1           0       -1.570861   -0.374534   -1.822818
     19          1           0       -0.149938   -2.277849    0.379173
 ---------------------------------------------------------------------

 SCF Done:  E(RHF) =  -814.895730910     A.U. after    2 cycles

 The electronic state is 1-A.
 Alpha  occ. eigenvalues --  -81.30935 -20.63524 -20.57842 -15.65459 -11.40503
 Alpha  occ. eigenvalues --  -11.30453 -11.25468 -11.25399 -11.24684 -11.24500
 Alpha  occ. eigenvalues --  -11.24011  -7.80917  -4.95109  -4.94817  -4.94599
 Alpha  occ. eigenvalues --   -1.43327  -1.33846  -1.21210  -1.12790  -1.01855
 Alpha  occ. eigenvalues --   -0.99729  -0.90786  -0.84627  -0.83471  -0.78635
 Alpha  occ. eigenvalues --   -0.72808  -0.72678  -0.69756  -0.67720  -0.65434
 Alpha  occ. eigenvalues --   -0.64035  -0.61706  -0.59791  -0.59518  -0.57701
 Alpha  occ. eigenvalues --   -0.54133  -0.52183  -0.51641  -0.50188  -0.48609
 Alpha  occ. eigenvalues --   -0.44276  -0.37989  -0.34984  -0.30980
 Alpha virt. eigenvalues --    0.03070   0.03711   0.04083   0.04969   0.05703
 Alpha virt. eigenvalues --    0.05847   0.07678   0.08032   0.08327   0.09670
 Alpha virt. eigenvalues --    0.10479   0.10754   0.11588   0.11976   0.12466

 Mulliken charges:
               1
     1  C    0.427486
     2  P    0.604889
     3  O   -0.505390
     4  O   -0.496516
     5  N   -0.662435
     6  C    0.257317
     7  H    0.164961
     8  C    0.852596
     9  C    0.594757
    10  C    0.514513
    11  C    0.519556
    12  C    0.401561
    13  H   -0.448061
    14  H   -0.736871
    15  H   -0.609961
    16  H   -0.435774
    17  H   -0.454942
    18  H    0.151721
    19  H   -0.139406
 Sum of Mulliken charges =   0.00000

 Dipole moment (field-independent basis, Debye):
    X=              1.8984    Y=             -1.2983    Z=              1.2636  Tot=              2.6242

 Test job not archived.
 1\1\GINC-SE082\SP\RHF\Aug-CC-pVDZ\C7H8N1O2P1\OHZDE\08-Apr-2025\0\\#t h
 f aug-cc-pvdz iop(5/13=1,5/36=2,99/5=2) pseudo=read geom=check guess=(
 read,tcheck) scf=(maxcycle=1)\\title\\0,1\C,0,-2.357112,0.522429,0.260
 35\P,0,-1.833506,-1.056166,-0.613719\O,0,-3.087707,1.334969,-0.245085\
 O,0,-1.939322,0.582391,1.541908\N,0,-0.255791,-1.387285,-0.082663\C,0,
 0.901914,-0.588282,-0.076737\H,0,-2.323583,1.387523,1.926534\C,0,0.922
 475,0.704241,-0.6144\C,0,2.082542,-1.109776,0.473903\C,0,3.25032,-0.35
 827,0.48374\C,0,3.269803,0.927948,-0.054554\C,0,2.100099,1.447823,-0.6

 Normal termination of Gaussian 16 at Tue Apr  8 23:39:17 2025.
