 Gaussian 16, Revision C.01,

 ----------------------------------------------------------------------
 #t hf aug-cc-pvdz symm=none int=(grid=ultrafine) guess=(read,tcheck) s
 table=(opt,rrhf)
 ----------------------------------------------------------------------
 -----
 title
 -----
 Symbolic Z-matrix:
 Charge =  0 Multiplicity = 1

 SCF Done:  E(RHF) =  -459.586878984     A.U. after   12 cycles
 Normal termination of Gaussian 16 at Tue Apr  8 23:24:03 2025.
 Gaussian 16:  ES64L-G16RevC.01  3-Jul-2019

 ----------------------------------------------------------------------
 #t hf aug-cc-pvdz iop(5/13=1,5/36=2,99/5=2) pseudo=read geom=check gue
 ss=(read,tcheck) scf=(maxcycle=1)
 ----------------------------------------------------------------------
 -----
 title
 -----
 Structure from the checkpoint file:  "BDE49_nonexpt_1277_mol1.chk"
 Charge =  0 Multiplicity = 1

                         Standard orientation:
 ---------------------------------------------------------------------
 Center     Atomic      Atomic             Coordinates (Angstroms)
 Number     Number       Type             X           Y           Z
 ---------------------------------------------------------------------
      1         15           0       -1.413191   -0.118283   -0.000027
      2          6           0        0.423626    0.010701   -0.394823
      3          6           0        1.100157    1.286508    0.118280
      4          1           0        1.064696    1.335147    1.210980
      5          6           0        1.141698   -1.252905    0.105031
      6          1           0        1.114772   -1.314558    1.197896
      7          1           0        2.193348   -1.241482   -0.197794
      8          1           0        0.686879   -2.163539   -0.292928
      9          1           0        0.616377    2.185298   -0.271189
     10          1           0        2.153790    1.314204   -0.182507
     11          1           0        0.461820    0.010184   -1.491213
     12          1           0       -1.770998    1.215486   -0.333129
     13          1           0       -1.315708    0.167692    1.389372
 ---------------------------------------------------------------------

 SCF Done:  E(RHF) =  -459.646813966     A.U. after    2 cycles

 The electronic state is 1-A.
 Alpha  occ. eigenvalues --  -81.24745 -11.25054 -11.23250 -11.23121  -7.75117
 Alpha  occ. eigenvalues --   -4.89099  -4.89057  -4.88771  -1.05842  -0.93278
 Alpha  occ. eigenvalues --   -0.83151  -0.74224  -0.62525  -0.59486  -0.57007
 Alpha  occ. eigenvalues --   -0.54381  -0.50866  -0.49352  -0.47830  -0.43827
 Alpha  occ. eigenvalues --   -0.34536
 Alpha virt. eigenvalues --    0.03452   0.04864   0.04924   0.05256   0.06962
 Alpha virt. eigenvalues --    0.07278   0.07541   0.07714   0.08953   0.10715
 Alpha virt. eigenvalues --    0.12348   0.12586   0.14579   0.15081   0.15497

 Mulliken charges:
               1
     1  P    0.103088
     2  C   -0.912945
     3  C    0.565307
     4  H   -0.070400
     5  C    0.601859
     6  H   -0.053085
     7  H   -0.072533
     8  H   -0.107131
     9  H   -0.126533
    10  H   -0.054897
    11  H   -0.113222
    12  H    0.112981
    13  H    0.127510
 Sum of Mulliken charges =  -0.00000

 Dipole moment (field-independent basis, Debye):
    X=              1.1474    Y=              0.5147    Z=             -0.0361  Tot=              1.2581

 Test job not archived.
 1\1\GINC-SE016\SP\RHF\Aug-CC-pVDZ\C3H9P1\OHZDE\08-Apr-2025\0\\#t hf au
 g-cc-pvdz iop(5/13=1,5/36=2,99/5=2) pseudo=read geom=check guess=(read
 ,tcheck) scf=(maxcycle=1)\\title\\0,1\P,0,-1.413191,-0.118284,-0.00002
 7\C,0,0.423626,0.010701,-0.394823\C,0,1.100156,1.286508,0.11828\H,0,1.
 064695,1.335147,1.21098\C,0,1.141699,-1.252905,0.105031\H,0,1.114773,-
 1.314558,1.197896\H,0,2.193349,-1.241481,-0.197794\H,0,0.68688,-2.1635
 39,-0.292928\H,0,0.616376,2.185298,-0.271189\H,0,2.153789,1.314205,-0.
 182507\H,0,0.46182,0.010184,-1.491213\H,0,-1.770999,1.215485,-0.333129

 Normal termination of Gaussian 16 at Tue Apr  8 23:24:07 2025.
