 Gaussian 16, Revision C.01,

 ----------------------------------------------------------------------
 #t hf aug-cc-pvdz symm=none int=(grid=ultrafine) guess=(read,tcheck) s
 table=(opt,rrhf)
 ----------------------------------------------------------------------
 -----
 title
 -----
 Symbolic Z-matrix:
 Charge =  0 Multiplicity = 1

 SCF Done:  E(RHF) =  -1125.84570928     A.U. after   14 cycles
 Normal termination of Gaussian 16 at Tue Apr  8 22:48:34 2025.
 Gaussian 16:  ES64L-G16RevC.01  3-Jul-2019

 ----------------------------------------------------------------------
 #t hf aug-cc-pvdz iop(5/13=1,5/36=2,99/5=2) pseudo=read geom=check gue
 ss=(read,tcheck) scf=(maxcycle=1)
 ----------------------------------------------------------------------
 -----
 title
 -----
 Structure from the checkpoint file:  "BDE49_expt_1722_mol1.chk"
 Charge =  0 Multiplicity = 1

                         Standard orientation:
 ---------------------------------------------------------------------
 Center     Atomic      Atomic             Coordinates (Angstroms)
 Number     Number       Type             X           Y           Z
 ---------------------------------------------------------------------
      1          6           0        0.228703    0.000072   -0.528957
      2          6           0       -1.257658   -0.000033   -0.118478
      3         17           0        1.073009   -1.484102    0.044192
      4         17           0        1.072847    1.484199    0.044495
      5          1           0        0.275917    0.000179   -1.611152
      6          7           0       -1.504842   -0.000394    1.210608
      7          1           0       -0.767308   -0.000687    1.895421
      8          1           0       -2.463801   -0.000491    1.518346
      9          8           0       -2.102091    0.000235   -0.987493
 ---------------------------------------------------------------------

 SCF Done:  E(RHF) =  -1125.94682516     A.U. after    2 cycles

 The electronic state is 1-A.
 Alpha  occ. eigenvalues -- -103.69105-103.69105 -20.57016 -15.67376 -11.40517
 Alpha  occ. eigenvalues --  -11.39955 -10.72370 -10.72368  -8.38089  -8.38088
 Alpha  occ. eigenvalues --   -8.37770  -8.37769  -8.37767  -8.37764  -1.38361
 Alpha  occ. eigenvalues --   -1.23820  -1.19990  -1.15605  -0.96592  -0.82771
 Alpha  occ. eigenvalues --   -0.76079  -0.70177  -0.65006  -0.64286  -0.63602
 Alpha  occ. eigenvalues --   -0.57620  -0.52707  -0.50201  -0.48555  -0.47470
 Alpha  occ. eigenvalues --   -0.45605  -0.44095
 Alpha virt. eigenvalues --    0.03058   0.04785   0.05461   0.07628   0.08135
 Alpha virt. eigenvalues --    0.10324   0.10524   0.11829   0.13417   0.13556
 Alpha virt. eigenvalues --    0.14533   0.15753   0.16276   0.16756   0.17512

 Mulliken charges:
               1
     1  C   -0.241370
     2  C    0.698230
     3  Cl  -0.009234
     4  Cl  -0.009193
     5  H    0.119052
     6  N   -0.100990
     7  H    0.017142
     8  H   -0.016571
     9  O   -0.457066
 Sum of Mulliken charges =  -0.00000

 Dipole moment (field-independent basis, Debye):
    X=              0.5690    Y=             -0.0011    Z=              2.6954  Tot=              2.7548

 Test job not archived.
 1\1\GINC-SE329\SP\RHF\Aug-CC-pVDZ\C2H3Cl2N1O1\OHZDE\08-Apr-2025\0\\#t
 hf aug-cc-pvdz iop(5/13=1,5/36=2,99/5=2) pseudo=read geom=check guess=
 (read,tcheck) scf=(maxcycle=1)\\title\\0,1\C,0,-0.228703,-0.000072,-0.
 528957\C,0,1.257658,0.000033,-0.118478\Cl,0,-1.073009,1.484102,0.04419
 2\Cl,0,-1.072846,-1.484199,0.044495\H,0,-0.275917,-0.000179,-1.611152\
 N,0,1.504842,0.000394,1.210608\H,0,0.767308,0.000687,1.895421\H,0,2.46
 3801,0.000492,1.518346\O,0,2.102091,-0.000234,-0.987493\\Version=ES64L
 -G16RevC.01\State=1-A\HF=-1125.9468252\RMSD=3.725e-03\Dipole=-0.223865

 Normal termination of Gaussian 16 at Tue Apr  8 22:48:38 2025.
