 Gaussian 16, Revision C.01,

 ----------------------------------------------------------------------
 #t hf aug-cc-pvdz symm=none int=(grid=ultrafine) guess=(read,tcheck) s
 table=(opt,rrhf)
 ----------------------------------------------------------------------
 -----
 title
 -----
 Symbolic Z-matrix:
 Charge =  0 Multiplicity = 1

 SCF Done:  E(RHF) =  -1025.30252511     A.U. after   15 cycles
 Normal termination of Gaussian 16 at Tue Apr  8 22:48:46 2025.
 Gaussian 16:  ES64L-G16RevC.01  3-Jul-2019

 ----------------------------------------------------------------------
 #t hf aug-cc-pvdz iop(5/13=1,5/36=2,99/5=2) pseudo=read geom=check gue
 ss=(read,tcheck) scf=(maxcycle=1)
 ----------------------------------------------------------------------
 -----
 title
 -----
 Structure from the checkpoint file:  "BDE49_expt_1676_mol1.chk"
 Charge =  0 Multiplicity = 1

                         Standard orientation:
 ---------------------------------------------------------------------
 Center     Atomic      Atomic             Coordinates (Angstroms)
 Number     Number       Type             X           Y           Z
 ---------------------------------------------------------------------
      1          6           0        0.776972    0.724333   -0.000000
      2          6           0        2.168354    0.712994   -0.000000
      3          6           0        2.852987   -0.498157   -0.000000
      4          6           0        2.148901   -1.697839   -0.000001
      5          6           0        0.758499   -1.681307   -0.000000
      6          6           0        0.053478   -0.476008   -0.000000
      7         17           0       -0.023552    2.280729    0.000001
      8          1           0        3.936669   -0.497425   -0.000000
      9          1           0        2.675979   -2.643978   -0.000001
     10          1           0        2.703198    1.653636   -0.000000
     11          1           0        0.203533   -2.609341   -0.000001
     12          6           0       -1.457666   -0.505798   -0.000000
     13          9           0       -1.926282   -1.773549   -0.000000
     14          9           0       -1.977313    0.100964   -1.086254
     15          9           0       -1.977312    0.100963    1.086255
 ---------------------------------------------------------------------

 SCF Done:  E(RHF) =  -1025.50814891     A.U. after    2 cycles

 The electronic state is 1-A.
 Alpha  occ. eigenvalues -- -103.67974 -26.16794 -26.16232 -26.16222 -11.53522
 Alpha  occ. eigenvalues --  -11.34171 -11.29676 -11.28364 -11.28169 -11.27811
 Alpha  occ. eigenvalues --  -11.27368 -10.71269  -8.37004  -8.36691  -8.36670
 Alpha  occ. eigenvalues --   -1.75989  -1.69016  -1.68695  -1.22185  -1.15710
 Alpha  occ. eigenvalues --   -1.09013  -1.03096  -1.00306  -0.90095  -0.88676
 Alpha  occ. eigenvalues --   -0.87699  -0.85202  -0.81651  -0.77165  -0.76976
 Alpha  occ. eigenvalues --   -0.72926  -0.72575  -0.71928  -0.71473  -0.67617
 Alpha  occ. eigenvalues --   -0.66717  -0.62049  -0.61568  -0.56904  -0.54993
 Alpha  occ. eigenvalues --   -0.53757  -0.49466  -0.48106  -0.38251  -0.36231
 Alpha virt. eigenvalues --    0.02714   0.03764   0.04844   0.06133   0.07068
 Alpha virt. eigenvalues --    0.07840   0.08029   0.09514   0.09651   0.11147
 Alpha virt. eigenvalues --    0.12096   0.12646   0.13025   0.13797   0.13824

 Mulliken charges:
               1
     1  C   -1.270973
     2  C    0.636935
     3  C    0.488728
     4  C    0.357890
     5  C    0.410333
     6  C    1.681337
     7  Cl  -0.413083
     8  H   -0.424207
     9  H   -0.426934
    10  H   -0.422486
    11  H   -0.563903
    12  C    0.862799
    13  F   -0.293070
    14  F   -0.311683
    15  F   -0.311683
 Sum of Mulliken charges =  -0.00000

 Dipole moment (field-independent basis, Debye):
    X=              4.1302    Y=             -1.4847    Z=             -0.0000  Tot=              4.3889

 Test job not archived.
 1\1\GINC-SE096\SP\RHF\Aug-CC-pVDZ\C7H4Cl1F3\OHZDE\08-Apr-2025\0\\#t hf
  aug-cc-pvdz iop(5/13=1,5/36=2,99/5=2) pseudo=read geom=check guess=(r
 ead,tcheck) scf=(maxcycle=1)\\title\\0,1\C,0,-0.776972,0.724333,0.\C,0
 ,-2.168354,0.712993,0.\C,0,-2.852987,-0.498158,0.\C,0,-2.148901,-1.697
 84,0.000001\C,0,-0.758499,-1.681307,0.\C,0,-0.053478,-0.476008,0.\Cl,0
 ,0.023551,2.280729,-0.000001\H,0,-3.936669,-0.497426,0.\H,0,-2.675978,
 -2.643979,0.000001\H,0,-2.703198,1.653635,0.\H,0,-0.203532,-2.609341,0
 .000001\C,0,1.457666,-0.505798,0.\F,0,1.926282,-1.773548,0.\F,0,1.9773

 Normal termination of Gaussian 16 at Tue Apr  8 22:48:56 2025.
