 Gaussian 16, Revision C.01,

 ----------------------------------------------------------------------
 #t hf aug-cc-pvdz symm=none int=(grid=ultrafine) guess=(read,tcheck) s
 table=(opt,rrhf)
 ----------------------------------------------------------------------
 -----
 title
 -----
 Symbolic Z-matrix:
 Charge =  0 Multiplicity = 1

 SCF Done:  E(RHF) =  -1182.74482824     A.U. after   18 cycles
 Normal termination of Gaussian 16 at Tue Apr  8 23:35:20 2025.
 Gaussian 16:  ES64L-G16RevC.01  3-Jul-2019

 ----------------------------------------------------------------------
 #t hf aug-cc-pvdz iop(5/13=1,5/36=2,99/5=2) pseudo=read geom=check gue
 ss=(read,tcheck) scf=(maxcycle=1)
 ----------------------------------------------------------------------
 -----
 title
 -----
 Structure from the checkpoint file:  "BDE49_nonexpt_1476_mol1.chk"
 Charge =  0 Multiplicity = 1

                         Standard orientation:
 ---------------------------------------------------------------------
 Center     Atomic      Atomic             Coordinates (Angstroms)
 Number     Number       Type             X           Y           Z
 ---------------------------------------------------------------------
      1          6           0        1.597010    0.188512    1.210318
      2          6           0        0.248353   -0.151642    1.215151
      3          6           0        2.333855    0.026911    0.039978
      4          6           0        1.746677   -0.478443   -1.114551
      5          6           0        0.398999   -0.827487   -1.090018
      6          6           0       -0.375069   -0.660792    0.066130
      7          1           0       -0.321669   -0.018846    2.127643
      8          1           0        2.073615    0.576931    2.101207
      9          1           0        2.337270   -0.608087   -2.012240
     10          1           0       -0.052048   -1.243836   -1.984303
     11         15           0       -2.150262   -1.143824    0.011723
     12          6           0       -3.074959    0.516336   -0.026335
     13          8           0       -4.125500    0.593317    0.561336
     14          6           0       -2.519404    1.636047   -0.879050
     15          1           0       -1.596316    2.019701   -0.435756
     16          1           0       -3.256718    2.436217   -0.948777
     17          1           0       -2.266283    1.269283   -1.878053
     18         17           0        4.033259    0.459934    0.025878
     19          1           0       -2.358109   -1.336069    1.394088
 ---------------------------------------------------------------------

 SCF Done:  E(RHF) =  -1182.89764892     A.U. after    2 cycles

 The electronic state is 1-A.
 Alpha  occ. eigenvalues -- -103.67909 -81.27640 -20.57830 -11.35753 -11.33208
 Alpha  occ. eigenvalues --  -11.27926 -11.27876 -11.27657 -11.27568 -11.27530
 Alpha  occ. eigenvalues --  -11.25453 -10.71179  -8.36916  -8.36607  -8.36592
 Alpha  occ. eigenvalues --   -7.78037  -4.92133  -4.92004  -4.91765  -1.36844
 Alpha  occ. eigenvalues --   -1.21297  -1.14942  -1.04428  -1.02763  -1.01128
 Alpha  occ. eigenvalues --   -0.86779  -0.86514  -0.81776  -0.74464  -0.70144
 Alpha  occ. eigenvalues --   -0.67597  -0.66366  -0.64299  -0.63706  -0.62410
 Alpha  occ. eigenvalues --   -0.61559  -0.57928  -0.56428  -0.54972  -0.53712
 Alpha  occ. eigenvalues --   -0.52872  -0.50567  -0.49227  -0.48012  -0.42508
 Alpha  occ. eigenvalues --   -0.37936  -0.37198  -0.34113
 Alpha virt. eigenvalues --    0.02934   0.03693   0.04418   0.04777   0.05809
 Alpha virt. eigenvalues --    0.06312   0.06714   0.07127   0.07314   0.08032
 Alpha virt. eigenvalues --    0.08124   0.09157   0.10061   0.10714   0.11274

 Mulliken charges:
               1
     1  C    0.685739
     2  C    0.992745
     3  C   -0.475636
     4  C    0.829255
     5  C    0.638027
     6  C   -0.157128
     7  H   -0.613398
     8  H   -0.451027
     9  H   -0.457277
    10  H   -0.573581
    11  P    0.077151
    12  C   -0.010090
    13  O   -0.520302
    14  C    0.284943
    15  H    0.039372
    16  H   -0.114905
    17  H    0.030102
    18  Cl  -0.342714
    19  H    0.138722
 Sum of Mulliken charges =  -0.00000

 Dipole moment (field-independent basis, Debye):
    X=              2.0820    Y=              0.2404    Z=             -1.1137  Tot=              2.3733

 Test job not archived.
 1\1\GINC-SE253\SP\RHF\Aug-CC-pVDZ\C8H8Cl1O1P1\OHZDE\08-Apr-2025\0\\#t
 hf aug-cc-pvdz iop(5/13=1,5/36=2,99/5=2) pseudo=read geom=check guess=
 (read,tcheck) scf=(maxcycle=1)\\title\\0,1\C,0,-1.59701,0.188512,-1.21
 0318\C,0,-0.248353,-0.151642,-1.215151\C,0,-2.333855,0.026911,-0.03997
 8\C,0,-1.746677,-0.478443,1.114551\C,0,-0.398999,-0.827487,1.090018\C,
 0,0.375069,-0.660792,-0.06613\H,0,0.321669,-0.018846,-2.127643\H,0,-2.
 073615,0.576931,-2.101207\H,0,-2.33727,-0.608087,2.01224\H,0,0.052048,
 -1.243836,1.984303\P,0,2.150262,-1.143824,-0.011723\C,0,3.074959,0.516

 Normal termination of Gaussian 16 at Tue Apr  8 23:35:33 2025.
