 Gaussian 16, Revision C.01,

 ----------------------------------------------------------------------
 #t hf aug-cc-pvdz symm=none int=(grid=ultrafine) guess=(read,tcheck) s
 table=(opt,rrhf)
 ----------------------------------------------------------------------
 -----
 title
 -----
 Symbolic Z-matrix:
 Charge =  0 Multiplicity = 1

 SCF Done:  E(RHF) =  -909.231749089     A.U. after   11 cycles
 Normal termination of Gaussian 16 at Tue Apr  8 22:28:38 2025.
 Gaussian 16:  ES64L-G16RevC.01  3-Jul-2019

 ----------------------------------------------------------------------
 #t hf aug-cc-pvdz iop(5/13=1,5/36=2,99/5=2) pseudo=read geom=check gue
 ss=(read,tcheck) scf=(maxcycle=1)
 ----------------------------------------------------------------------
 -----
 title
 -----
 Structure from the checkpoint file:  "BDE49_expt_1020_mol1.chk"
 Charge =  0 Multiplicity = 1

                         Standard orientation:
 ---------------------------------------------------------------------
 Center     Atomic      Atomic             Coordinates (Angstroms)
 Number     Number       Type             X           Y           Z
 ---------------------------------------------------------------------
      1          6           0       -1.315395   -0.234974   -0.000007
      2          6           0        0.000000    0.591252    0.000001
      3          9           0       -1.384729   -1.008464    1.087682
      4          9           0       -1.384712   -1.008470   -1.087692
      5          9           0       -2.355883    0.602245   -0.000018
      6          6           0        1.315395   -0.234974    0.000007
      7          9           0       -0.000006    1.374253    1.099867
      8          9           0        0.000006    1.374255   -1.099864
      9          9           0        1.384723   -1.008469   -1.087679
     10          9           0        1.384717   -1.008465    1.087695
     11          9           0        2.355883    0.602245    0.000008
 ---------------------------------------------------------------------

 SCF Done:  E(RHF) =  -909.558427089     A.U. after    2 cycles

 The electronic state is 1-A.
 Alpha  occ. eigenvalues --  -26.20736 -26.20735 -26.20725 -26.20725 -26.20566
 Alpha  occ. eigenvalues --  -26.20566 -26.20514 -26.20505 -11.57933 -11.57923
 Alpha  occ. eigenvalues --  -11.51591  -1.81094  -1.80369  -1.77047  -1.73846
 Alpha  occ. eigenvalues --   -1.73371  -1.73325  -1.73263  -1.72443  -1.16433
 Alpha  occ. eigenvalues --   -1.08235  -1.01851  -0.95188  -0.94170  -0.93524
 Alpha  occ. eigenvalues --   -0.92274  -0.91250  -0.91116  -0.87586  -0.82782
 Alpha  occ. eigenvalues --   -0.82072  -0.81666  -0.80606  -0.80359  -0.80134
 Alpha  occ. eigenvalues --   -0.79607  -0.77518  -0.77401  -0.76230  -0.76188
 Alpha  occ. eigenvalues --   -0.76124  -0.75382  -0.75283  -0.69265  -0.61498
 Alpha virt. eigenvalues --    0.07104   0.07288   0.07606   0.08333   0.10565
 Alpha virt. eigenvalues --    0.10902   0.10959   0.12518   0.13216   0.14765
 Alpha virt. eigenvalues --    0.18890   0.19572   0.19912   0.20625   0.23505

 Mulliken charges:
               1
     1  C    0.900180
     2  C    0.611773
     3  F   -0.285227
     4  F   -0.285226
     5  F   -0.264821
     6  C    0.900180
     7  F   -0.370792
     8  F   -0.370792
     9  F   -0.285228
    10  F   -0.285226
    11  F   -0.264821
 Sum of Mulliken charges =  -0.00000

 Dipole moment (field-independent basis, Debye):
    X=              0.0000    Y=             -0.1772    Z=              0.0000  Tot=              0.1772

 Test job not archived.
 1\1\GINC-SE334\SP\RHF\Aug-CC-pVDZ\C3F8\OHZDE\08-Apr-2025\0\\#t hf aug-
 cc-pvdz iop(5/13=1,5/36=2,99/5=2) pseudo=read geom=check guess=(read,t
 check) scf=(maxcycle=1)\\title\\0,1\C,0,1.315395,-0.234974,0.000007\C,
 0,0.,0.591252,-0.000001\F,0,1.384729,-1.008464,-1.087682\F,0,1.384712,
 -1.00847,1.087692\F,0,2.355883,0.602245,0.000018\C,0,-1.315395,-0.2349
 74,-0.000007\F,0,0.000006,1.374253,-1.099867\F,0,-0.000006,1.374255,1.
 099864\F,0,-1.384723,-1.008469,1.087679\F,0,-1.384717,-1.008465,-1.087
 695\F,0,-2.355883,0.602245,-0.000008\\Version=ES64L-G16RevC.01\State=1

 Normal termination of Gaussian 16 at Tue Apr  8 22:28:45 2025.
