 Gaussian 16, Revision C.01,

 ----------------------------------------------------------------------
 #t hf aug-cc-pvdz symm=none int=(grid=ultrafine) guess=(read,tcheck) s
 table=(opt,rrhf)
 ----------------------------------------------------------------------
 -----
 title
 -----
 Symbolic Z-matrix:
 Charge =  0 Multiplicity = 1

 SCF Done:  E(RHF) =  -667.298297342     A.U. after   16 cycles
 Normal termination of Gaussian 16 at Tue Apr  8 23:13:44 2025.
 Gaussian 16:  ES64L-G16RevC.01  3-Jul-2019

 ----------------------------------------------------------------------
 #t hf aug-cc-pvdz iop(5/13=1,5/36=2,99/5=2) pseudo=read geom=check gue
 ss=(read,tcheck) scf=(maxcycle=1)
 ----------------------------------------------------------------------
 -----
 title
 -----
 Structure from the checkpoint file:  "BDE49_expt_854_mol1.chk"
 Charge =  0 Multiplicity = 1

                         Standard orientation:
 ---------------------------------------------------------------------
 Center     Atomic      Atomic             Coordinates (Angstroms)
 Number     Number       Type             X           Y           Z
 ---------------------------------------------------------------------
      1          6           0        2.389578    0.009079   -0.001416
      2          6           0        1.524788    1.099990    0.003067
      3          6           0        0.135419    0.940829   -0.000722
      4          6           0        1.870830   -1.281870    0.001535
      5          6           0        0.492371   -1.468881    0.021811
      6          6           0       -0.373655   -0.372136    0.016978
      7          1           0        3.461731    0.168948   -0.007436
      8          1           0        1.932851    2.105448   -0.003288
      9          6           0       -0.765962    2.147414   -0.022903
     10          1           0        2.531465   -2.141243    0.002238
     11          1           0        0.078138   -2.469759    0.050897
     12         16           0       -2.130682   -0.728240   -0.059102
     13          1           0       -2.538562    0.151597    0.871608
     14          1           0       -0.185915    3.061795   -0.157369
     15          1           0       -1.330436    2.250305    0.910853
     16          1           0       -1.498574    2.078197   -0.831981
 ---------------------------------------------------------------------

 SCF Done:  E(RHF) =  -667.397886511     A.U. after    2 cycles

 The electronic state is 1-A.
 Alpha  occ. eigenvalues --  -93.54397 -11.28037 -11.26249 -11.25187 -11.24981
 Alpha  occ. eigenvalues --  -11.24772 -11.24741 -11.24091  -8.84135  -6.18339
 Alpha  occ. eigenvalues --   -6.18148  -6.17767  -1.15762  -1.05261  -1.03697
 Alpha  occ. eigenvalues --   -0.95363  -0.92487  -0.82521  -0.79830  -0.69249
 Alpha  occ. eigenvalues --   -0.65777  -0.63038  -0.59399  -0.58674  -0.57306
 Alpha  occ. eigenvalues --   -0.55279  -0.52222  -0.50399  -0.49679  -0.46389
 Alpha  occ. eigenvalues --   -0.39529  -0.34000  -0.31996
 Alpha virt. eigenvalues --    0.03382   0.03852   0.04361   0.05648   0.05876
 Alpha virt. eigenvalues --    0.06195   0.07598   0.08487   0.09525   0.09942
 Alpha virt. eigenvalues --    0.10415   0.10830   0.12339   0.12963   0.13359

 Mulliken charges:
               1
     1  C    0.147377
     2  C    0.845684
     3  C   -0.227941
     4  C    0.437194
     5  C    0.154392
     6  C   -0.078520
     7  H   -0.449848
     8  H   -0.567743
     9  C    0.470882
    10  H   -0.430255
    11  H   -0.472899
    12  S    0.163569
    13  H    0.066570
    14  H   -0.214798
    15  H    0.071632
    16  H    0.084706
 Sum of Mulliken charges =  -0.00000

 Dipole moment (field-independent basis, Debye):
    X=              0.9087    Y=              1.1186    Z=              0.5293  Tot=              1.5353

 Test job not archived.
 1\1\GINC-SE083\SP\RHF\Aug-CC-pVDZ\C7H8S1\OHZDE\08-Apr-2025\0\\#t hf au
 g-cc-pvdz iop(5/13=1,5/36=2,99/5=2) pseudo=read geom=check guess=(read
 ,tcheck) scf=(maxcycle=1)\\title\\0,1\C,0,2.389578,0.00908,-0.001416\C
 ,0,1.524787,1.099991,0.003067\C,0,0.135419,0.940829,-0.000722\C,0,1.87
 0831,-1.281869,0.001535\C,0,0.492372,-1.468881,0.021811\C,0,-0.373655,
 -0.372136,0.016978\H,0,3.461731,0.16895,-0.007436\H,0,1.93285,2.105449
 ,-0.003288\C,0,-0.765963,2.147414,-0.022903\H,0,2.531466,-2.141242,0.0
 02238\H,0,0.078139,-2.469759,0.050897\S,0,-2.130682,-0.728241,-0.05910

 Normal termination of Gaussian 16 at Tue Apr  8 23:13:53 2025.
