 Gaussian 16, Revision C.01,

 ----------------------------------------------------------------------
 #t hf aug-cc-pvdz symm=none int=(grid=ultrafine) guess=(read,tcheck) s
 table=(opt,rrhf)
 ----------------------------------------------------------------------
 -----
 title
 -----
 Symbolic Z-matrix:
 Charge =  0 Multiplicity = 1

 SCF Done:  E(RHF) =  -702.461039638     A.U. after   15 cycles
 Normal termination of Gaussian 16 at Wed Apr  9 00:39:00 2025.
 Gaussian 16:  ES64L-G16RevC.01  3-Jul-2019

 ----------------------------------------------------------------------
 #t hf aug-cc-pvdz iop(5/13=1,5/36=2,99/5=2) pseudo=read geom=check gue
 ss=(read,tcheck) scf=(maxcycle=1)
 ----------------------------------------------------------------------
 -----
 title
 -----
 Structure from the checkpoint file:  "BDE49_nonexpt_632_mol1.chk"
 Charge =  0 Multiplicity = 1

                         Standard orientation:
 ---------------------------------------------------------------------
 Center     Atomic      Atomic             Coordinates (Angstroms)
 Number     Number       Type             X           Y           Z
 ---------------------------------------------------------------------
      1          9           0       -0.432729    2.023495   -0.000002
      2          9           0        3.303191   -0.800795    0.000000
      3          9           0        2.227733    1.688276   -0.000002
      4          8           0       -3.120591   -1.329983   -0.000001
      5          8           0       -3.050158    1.014091   -0.000001
      6          6           0        1.430745    0.612958   -0.000001
      7          6           0       -0.822389   -0.332307    0.000001
      8          6           0       -0.232184   -1.607608    0.000002
      9          1           0       -0.883661   -2.471898    0.000004
     10          6           0        0.049516    0.752632    0.000000
     11          6           0        1.146071   -1.784923    0.000002
     12          1           0        1.599092   -2.768087    0.000003
     13          6           0        1.968925   -0.668480    0.000000
     14          5           0       -2.389073   -0.178502    0.000002
     15          1           0       -2.465119    1.777668   -0.000001
     16          1           0       -4.066812   -1.150448   -0.000002
 ---------------------------------------------------------------------

 SCF Done:  E(RHF) =  -702.694932498     A.U. after    2 cycles

 The electronic state is 1-A.
 Alpha  occ. eigenvalues --  -26.17234 -26.16472 -26.16385 -20.59196 -20.59109
 Alpha  occ. eigenvalues --  -11.37830 -11.37770 -11.36935 -11.28427 -11.27734
 Alpha  occ. eigenvalues --  -11.25975  -7.67834  -1.71248  -1.70610  -1.69766
 Alpha  occ. eigenvalues --   -1.35702  -1.31983  -1.19336  -1.06413  -1.06115
 Alpha  occ. eigenvalues --   -0.92531  -0.91842  -0.84408  -0.83106  -0.81779
 Alpha  occ. eigenvalues --   -0.79862  -0.79544  -0.77927  -0.76666  -0.76542
 Alpha  occ. eigenvalues --   -0.75327  -0.73219  -0.71378  -0.67350  -0.63519
 Alpha  occ. eigenvalues --   -0.62035  -0.60482  -0.59783  -0.56562  -0.53841
 Alpha  occ. eigenvalues --   -0.53283  -0.52318  -0.37939  -0.37443
 Alpha virt. eigenvalues --    0.03148   0.04110   0.04759   0.05326   0.06076
 Alpha virt. eigenvalues --    0.06612   0.07123   0.08346   0.09126   0.09305
 Alpha virt. eigenvalues --    0.09785   0.11042   0.12110   0.12819   0.13147

 Mulliken charges:
               1
     1  F   -0.378629
     2  F   -0.313208
     3  F   -0.219859
     4  O   -0.511152
     5  O   -0.516565
     6  C    0.290136
     7  C   -0.178592
     8  C    0.404001
     9  H   -0.622941
    10  C    0.213734
    11  C    0.515682
    12  H   -0.414927
    13  C    0.606606
    14  B    0.674674
    15  H    0.251156
    16  H    0.199884
 Sum of Mulliken charges =  -0.00000

 Dipole moment (field-independent basis, Debye):
    X=             -1.7683    Y=             -1.9931    Z=              0.0000  Tot=              2.6645

 Test job not archived.
 1\1\GINC-SE459\SP\RHF\Aug-CC-pVDZ\C6H4B1F3O2\OHZDE\09-Apr-2025\0\\#t h
 f aug-cc-pvdz iop(5/13=1,5/36=2,99/5=2) pseudo=read geom=check guess=(
 read,tcheck) scf=(maxcycle=1)\\title\\0,1\F,0,0.432729,2.023495,0.0000
 02\F,0,-3.303191,-0.800795,0.\F,0,-2.227733,1.688276,0.000002\O,0,3.12
 0591,-1.329983,0.000001\O,0,3.050158,1.014091,0.000001\C,0,-1.430745,0
 .612958,0.000001\C,0,0.822389,-0.332307,-0.000001\C,0,0.232184,-1.6076
 08,-0.000002\H,0,0.883661,-2.471898,-0.000004\C,0,-0.049516,0.752632,0
 .\C,0,-1.146071,-1.784923,-0.000002\H,0,-1.599092,-2.768087,-0.000003\

 Normal termination of Gaussian 16 at Wed Apr  9 00:39:09 2025.
