 Gaussian 16, Revision C.01,

 ----------------------------------------------------------------------
 #t hf aug-cc-pvdz symm=none int=(grid=ultrafine) guess=(read,tcheck) s
 table=(opt,rrhf)
 ----------------------------------------------------------------------
 -----
 title
 -----
 Symbolic Z-matrix:
 Charge =  0 Multiplicity = 1

 SCF Done:  E(RHF) =  -743.387891176     A.U. after   15 cycles
 Normal termination of Gaussian 16 at Wed Apr  9 00:21:01 2025.
 Gaussian 16:  ES64L-G16RevC.01  3-Jul-2019

 ----------------------------------------------------------------------
 #t hf aug-cc-pvdz iop(5/13=1,5/36=2,99/5=2) pseudo=read geom=check gue
 ss=(read,tcheck) scf=(maxcycle=1)
 ----------------------------------------------------------------------
 -----
 title
 -----
 Structure from the checkpoint file:  "BDE49_nonexpt_2658_mol1.chk"
 Charge =  0 Multiplicity = 1

                         Standard orientation:
 ---------------------------------------------------------------------
 Center     Atomic      Atomic             Coordinates (Angstroms)
 Number     Number       Type             X           Y           Z
 ---------------------------------------------------------------------
      1          9           0        2.542945   -0.384047    0.005287
      2         16           0        1.325785    0.728098    0.014325
      3          6           0       -0.050905   -0.493007   -0.026520
      4          8           0        0.190621   -1.671926   -0.007743
      5          7           0       -1.279728    0.090491   -0.073983
      6          6           0       -2.466010   -0.751401    0.038694
      7          1           0       -2.159659   -1.791370   -0.043416
      8          1           0       -3.169748   -0.514717   -0.764331
      9          1           0       -2.963481   -0.598770    1.002982
     10          6           0       -1.457772    1.529597    0.003883
     11          1           0       -0.597831    2.046094   -0.433453
     12          1           0       -1.597932    1.878435    1.033289
     13          1           0       -2.329167    1.818023   -0.588363
 ---------------------------------------------------------------------

 SCF Done:  E(RHF) =  -743.525387482     A.U. after    2 cycles

 The electronic state is 1-A.
 Alpha  occ. eigenvalues --  -93.63677 -26.13468 -20.56374 -15.68026 -11.41263
 Alpha  occ. eigenvalues --  -11.30641 -11.28814  -8.92564  -6.26779  -6.26372
 Alpha  occ. eigenvalues --   -6.25955  -1.64839  -1.38158  -1.24617  -1.02585
 Alpha  occ. eigenvalues --   -0.99143  -0.94055  -0.77994  -0.75108  -0.74009
 Alpha  occ. eigenvalues --   -0.71021  -0.69250  -0.68297  -0.64159  -0.59973
 Alpha  occ. eigenvalues --   -0.59030  -0.57792  -0.56900  -0.55737  -0.44109
 Alpha  occ. eigenvalues --   -0.41125  -0.39276
 Alpha virt. eigenvalues --    0.02516   0.03955   0.04254   0.05477   0.07018
 Alpha virt. eigenvalues --    0.07449   0.07871   0.09033   0.10119   0.12157
 Alpha virt. eigenvalues --    0.12746   0.13041   0.13467   0.14751   0.15155

 Mulliken charges:
               1
     1  F   -0.613162
     2  S    0.747248
     3  C   -0.071645
     4  O   -0.430296
     5  N   -0.338747
     6  C    0.716714
     7  H   -0.216245
     8  H   -0.116160
     9  H   -0.043287
    10  C    0.741733
    11  H   -0.170781
    12  H   -0.071768
    13  H   -0.133605
 Sum of Mulliken charges =  -0.00000

 Dipole moment (field-independent basis, Debye):
    X=             -4.6885    Y=              4.0917    Z=              0.0652  Tot=              6.2231

 Test job not archived.
 1\1\GINC-SE404\SP\RHF\Aug-CC-pVDZ\C3H6F1N1O1S1\OHZDE\09-Apr-2025\0\\#t
  hf aug-cc-pvdz iop(5/13=1,5/36=2,99/5=2) pseudo=read geom=check guess
 =(read,tcheck) scf=(maxcycle=1)\\title\\0,1\F,0,2.542945,-0.384047,0.0
 05287\S,0,1.325785,0.728098,0.014325\C,0,-0.050905,-0.493007,-0.02652\
 O,0,0.190621,-1.671926,-0.007743\N,0,-1.279728,0.090491,-0.073983\C,0,
 -2.46601,-0.751401,0.038694\H,0,-2.159659,-1.79137,-0.043416\H,0,-3.16
 9748,-0.514717,-0.764331\H,0,-2.963481,-0.59877,1.002982\C,0,-1.457772
 ,1.529597,0.003883\H,0,-0.597831,2.046094,-0.433453\H,0,-1.597932,1.87

 Normal termination of Gaussian 16 at Wed Apr  9 00:21:05 2025.
