 Gaussian 16, Revision C.01,

 ----------------------------------------------------------------------
 #t hf aug-cc-pvdz symm=none int=(grid=ultrafine) guess=(read,tcheck) s
 table=(opt,rrhf)
 ----------------------------------------------------------------------
 -----
 title
 -----
 Symbolic Z-matrix:
 Charge =  0 Multiplicity = 1

 SCF Done:  E(RHF) =  -458.515808419     A.U. after   15 cycles

 1\1\GINC-SE458\Stability\RHF\Aug-CC-pVDZ\C8H10O2\OHZDE\08-Apr-2025\0\\
 #t hf aug-cc-pvdz symm=none int=(grid=ultrafine) guess=(read,tcheck) s
 table=(opt,rrhf)\\title\\0,1\C,0,-1.403648,0.260454,0.\C,0,-0.690752,1
 .468495,0.\C,0,0.690752,1.468495,0.\C,0,-0.700851,-0.940574,0.\C,0,0.7
 00851,-0.940574,-0.000001\C,0,1.403648,0.260454,-0.000001\H,0,-1.21852
 2,-1.890384,-0.000001\H,0,1.218522,-1.890384,-0.000001\O,0,2.767531,0.
 374435,-0.000001\C,0,3.537322,-0.815177,-0.000002\H,0,4.579395,-0.4985
 ,-0.000003\H,0,3.345339,-1.421333,-0.89362\H,0,3.34534,-1.421334,0.893

 Normal termination of Gaussian 16 at Tue Apr  8 22:42:00 2025.
 Gaussian 16:  ES64L-G16RevC.01  3-Jul-2019

 ----------------------------------------------------------------------
 #t hf aug-cc-pvdz iop(5/13=1,5/36=2,99/5=2) pseudo=read geom=check gue
 ss=(read,tcheck) scf=(maxcycle=1)
 ----------------------------------------------------------------------
 -----
 title
 -----
 Structure from the checkpoint file:  "BDE49_expt_1412_mol1.chk"
 Charge =  0 Multiplicity = 1

                         Standard orientation:
 ---------------------------------------------------------------------
 Center     Atomic      Atomic             Coordinates (Angstroms)
 Number     Number       Type             X           Y           Z
 ---------------------------------------------------------------------
      1          6           0       -1.403648    0.260454    0.000000
      2          6           0       -0.690752    1.468495    0.000000
      3          6           0        0.690752    1.468495    0.000000
      4          6           0       -0.700851   -0.940574    0.000000
      5          6           0        0.700851   -0.940574   -0.000001
      6          6           0        1.403648    0.260454   -0.000001
      7          1           0       -1.218522   -1.890384   -0.000001
      8          1           0        1.218522   -1.890384   -0.000001
      9          8           0        2.767531    0.374435   -0.000001
     10          6           0        3.537322   -0.815177   -0.000002
     11          1           0        4.579395   -0.498500   -0.000003
     12          1           0        3.345339   -1.421333   -0.893620
     13          1           0        3.345340   -1.421334    0.893615
     14          1           0       -1.248992    2.396880    0.000001
     15          1           0        1.248992    2.396880    0.000000
     16          8           0       -2.767531    0.374435    0.000000
     17          6           0       -3.537322   -0.815177    0.000004
     18          1           0       -4.579395   -0.498500    0.000006
     19          1           0       -3.345338   -1.421332    0.893622
     20          1           0       -3.345342   -1.421335   -0.893614
 ---------------------------------------------------------------------

 SCF Done:  E(RHF) =  -458.659657078     A.U. after    2 cycles

 The electronic state is 1-A.
 Alpha  occ. eigenvalues --  -20.59392 -20.59392 -11.30177 -11.30168 -11.29438
 Alpha  occ. eigenvalues --  -11.29437 -11.24433 -11.24329 -11.24144 -11.24024
 Alpha  occ. eigenvalues --   -1.36360  -1.36218  -1.13554  -1.01908  -1.01775
 Alpha  occ. eigenvalues --   -0.95493  -0.92250  -0.83808  -0.80267  -0.73307
 Alpha  occ. eigenvalues --   -0.70389  -0.69203  -0.66380  -0.65998  -0.62998
 Alpha  occ. eigenvalues --   -0.62393  -0.59971  -0.57521  -0.56242  -0.53504
 Alpha  occ. eigenvalues --   -0.53163  -0.51375  -0.50990  -0.48237  -0.45355
 Alpha  occ. eigenvalues --   -0.34570  -0.29895
 Alpha virt. eigenvalues --    0.03257   0.03789   0.04329   0.05283   0.05464
 Alpha virt. eigenvalues --    0.05776   0.06500   0.07034   0.08397   0.09399
 Alpha virt. eigenvalues --    0.09928   0.10587   0.11016   0.12816   0.13166

 Mulliken charges:
               1
     1  C    0.414407
     2  C    0.805499
     3  C    0.805499
     4  C    0.433056
     5  C    0.433057
     6  C    0.414406
     7  H   -0.718463
     8  H   -0.718463
     9  O   -0.696686
    10  C    0.826782
    11  H   -0.310852
    12  H   -0.091929
    13  H   -0.091930
    14  H   -0.569882
    15  H   -0.569882
    16  O   -0.696686
    17  C    0.826780
    18  H   -0.310853
    19  H   -0.091930
    20  H   -0.091928
 Sum of Mulliken charges =  -0.00000

 Dipole moment (field-independent basis, Debye):
    X=             -0.0000    Y=             -2.6141    Z=              0.0000  Tot=              2.6141

 Test job not archived.
 1\1\GINC-SE458\SP\RHF\Aug-CC-pVDZ\C8H10O2\OHZDE\08-Apr-2025\0\\#t hf a
 ug-cc-pvdz iop(5/13=1,5/36=2,99/5=2) pseudo=read geom=check guess=(rea
 d,tcheck) scf=(maxcycle=1)\\title\\0,1\C,0,-1.403648,0.260454,0.\C,0,-
 0.690752,1.468495,0.\C,0,0.690752,1.468495,0.\C,0,-0.700851,-0.940574,
 0.\C,0,0.700851,-0.940574,-0.000001\C,0,1.403648,0.260454,-0.000001\H,
 0,-1.218522,-1.890384,-0.000001\H,0,1.218522,-1.890384,-0.000001\O,0,2
 .767531,0.374435,-0.000001\C,0,3.537322,-0.815177,-0.000002\H,0,4.5793
 95,-0.4985,-0.000003\H,0,3.345339,-1.421333,-0.89362\H,0,3.34534,-1.42

 Normal termination of Gaussian 16 at Tue Apr  8 22:42:10 2025.
