 Gaussian 16, Revision C.01,

 ----------------------------------------------------------------------
 #t hf aug-cc-pvdz symm=none int=(grid=ultrafine) guess=(read,tcheck) s
 table=(opt,rrhf)
 ----------------------------------------------------------------------
 -----
 title
 -----
 Symbolic Z-matrix:
 Charge =  0 Multiplicity = 1

 SCF Done:  E(RHF) =  -1741.76529190     A.U. after   14 cycles
 Normal termination of Gaussian 16 at Wed Apr  9 00:39:48 2025.
 Gaussian 16:  ES64L-G16RevC.01  3-Jul-2019

 ----------------------------------------------------------------------
 #t hf aug-cc-pvdz iop(5/13=1,5/36=2,99/5=2) pseudo=read geom=check gue
 ss=(read,tcheck) scf=(maxcycle=1)
 ----------------------------------------------------------------------
 -----
 title
 -----
 Structure from the checkpoint file:  "BDE49_nonexpt_676_mol1.chk"
 Charge =  0 Multiplicity = 1

                         Standard orientation:
 ---------------------------------------------------------------------
 Center     Atomic      Atomic             Coordinates (Angstroms)
 Number     Number       Type             X           Y           Z
 ---------------------------------------------------------------------
      1          8           0        1.242167    0.658495   -0.467269
      2          5           0        2.443006   -0.040127   -0.220332
      3          8           0        3.482574    0.787116    0.034337
      4          8           0        2.556360   -1.388706   -0.241807
      5          8           0        0.196186   -0.297345   -0.785092
      6          6           0       -0.925965   -0.004306   -0.038150
      7         17           0       -2.090599   -1.241229   -0.582785
      8         17           0       -1.554821    1.636838   -0.368392
      9         17           0       -0.619393   -0.178850    1.730185
     10          1           0        1.727492   -1.838352   -0.434873
     11          1           0        4.296787    0.303434    0.200947
 ---------------------------------------------------------------------

 SCF Done:  E(RHF) =  -1741.94385445     A.U. after    2 cycles

 The electronic state is 1-A.
 Alpha  occ. eigenvalues -- -103.70603-103.69948-103.69680 -20.71427 -20.67882
 Alpha  occ. eigenvalues --  -20.60802 -20.60192 -11.51637 -10.73916 -10.73248
 Alpha  occ. eigenvalues --  -10.72996  -8.39638  -8.39289  -8.39280  -8.38964
 Alpha  occ. eigenvalues --   -8.38718  -8.38631  -8.38621  -8.38367  -8.38365
 Alpha  occ. eigenvalues --   -7.72156  -1.50241  -1.37370  -1.33923  -1.30542
 Alpha  occ. eigenvalues --   -1.21555  -1.17294  -1.16802  -0.88776  -0.82072
 Alpha  occ. eigenvalues --   -0.79819  -0.76484  -0.74473  -0.72255  -0.66914
 Alpha  occ. eigenvalues --   -0.63999  -0.61507  -0.60943  -0.60240  -0.57801
 Alpha  occ. eigenvalues --   -0.55087  -0.53632  -0.52426  -0.51889  -0.51376
 Alpha  occ. eigenvalues --   -0.48794  -0.48561  -0.47368
 Alpha virt. eigenvalues --    0.03549   0.05141   0.05753   0.06146   0.07292
 Alpha virt. eigenvalues --    0.07843   0.08494   0.08980   0.10066   0.10584
 Alpha virt. eigenvalues --    0.13012   0.13300   0.14850   0.14991   0.15795

 Mulliken charges:
               1
     1  O   -0.228755
     2  B    0.847812
     3  O   -0.437768
     4  O   -0.361332
     5  O   -0.336094
     6  C   -0.189772
     7  Cl   0.097106
     8  Cl   0.145342
     9  Cl   0.065306
    10  H    0.225399
    11  H    0.172755
 Sum of Mulliken charges =  -0.00000

 Dipole moment (field-independent basis, Debye):
    X=              0.6753    Y=             -1.6313    Z=              0.1652  Tot=              1.7732

 Test job not archived.
 1\1\GINC-SE184\SP\RHF\Aug-CC-pVDZ\C1H2B1Cl3O4\OHZDE\09-Apr-2025\0\\#t
 hf aug-cc-pvdz iop(5/13=1,5/36=2,99/5=2) pseudo=read geom=check guess=
 (read,tcheck) scf=(maxcycle=1)\\title\\0,1\O,0,1.242167,0.658495,-0.46
 7269\B,0,2.443006,-0.040127,-0.220332\O,0,3.482574,0.787116,0.034337\O
 ,0,2.55636,-1.388706,-0.241807\O,0,0.196186,-0.297345,-0.785092\C,0,-0
 .925965,-0.004306,-0.03815\Cl,0,-2.090599,-1.241229,-0.582785\Cl,0,-1.
 554821,1.636838,-0.368392\Cl,0,-0.619393,-0.17885,1.730185\H,0,1.72749
 2,-1.838352,-0.434873\H,0,4.296787,0.303434,0.200947\\Version=ES64L-G1

 Normal termination of Gaussian 16 at Wed Apr  9 00:39:54 2025.
