 Gaussian 16, Revision C.01,

 ----------------------------------------------------------------------
 #t hf aug-cc-pvdz symm=none int=(grid=ultrafine) guess=(read,tcheck) s
 table=(opt,rrhf)
 ----------------------------------------------------------------------
 -----
 title
 -----
 Symbolic Z-matrix:
 Charge =  0 Multiplicity = 1

 SCF Done:  E(RHF) =  -1255.96397070     A.U. after   14 cycles
 Normal termination of Gaussian 16 at Wed Apr  9 00:27:13 2025.
 Gaussian 16:  ES64L-G16RevC.01  3-Jul-2019

 ----------------------------------------------------------------------
 #t hf aug-cc-pvdz iop(5/13=1,5/36=2,99/5=2) pseudo=read geom=check gue
 ss=(read,tcheck) scf=(maxcycle=1)
 ----------------------------------------------------------------------
 -----
 title
 -----
 Structure from the checkpoint file:  "BDE49_nonexpt_2712_mol1.chk"
 Charge =  0 Multiplicity = 1

                         Standard orientation:
 ---------------------------------------------------------------------
 Center     Atomic      Atomic             Coordinates (Angstroms)
 Number     Number       Type             X           Y           Z
 ---------------------------------------------------------------------
      1         16           0       -0.913943    1.436766    0.483916
      2         16           0        0.913938    1.436761   -0.483931
      3          6           0        1.767268    0.017860    0.312089
      4          6           0       -1.767301    0.017903   -0.312141
      5          8           0       -1.278107   -0.645676   -1.177926
      6          8           0        1.278107   -0.645664    1.177933
      7          6           0        4.204658   -0.273836    0.800975
      8          6           0       -4.204694   -0.273894   -0.800945
      9          6           0       -3.141054   -0.221070    0.305903
     10          6           0        3.141050   -0.221076   -0.305907
     11          1           0       -3.969766   -1.066978   -1.513519
     12          1           0       -4.260569    0.670531   -1.347789
     13          1           0        3.969736   -1.066911    1.513561
     14          1           0        4.260484    0.670604    1.347798
     15          6           0       -3.086385   -1.524645    1.123850
     16          1           0       -3.365653    0.610001    0.983707
     17          1           0       -4.052107   -1.704773    1.602559
     18          1           0       -2.319887   -1.476358    1.900494
     19          1           0       -2.857922   -2.370238    0.471403
     20          6           0        3.086453   -1.524672   -1.123825
     21          1           0        3.365640    0.609987   -0.983723
     22          1           0        4.052196   -1.704775   -1.602501
     23          1           0        2.319976   -1.476431   -1.900493
     24          1           0        2.858001   -2.370258   -0.471365
     25          1           0        5.187215   -0.474725    0.366911
     26          1           0       -5.187230   -0.474807   -0.366846
 ---------------------------------------------------------------------

 SCF Done:  E(RHF) =  -1256.14677344     A.U. after    2 cycles

 The electronic state is 1-A.
 Alpha  occ. eigenvalues --  -93.57544 -93.57541 -20.58385 -20.58385 -11.38053
 Alpha  occ. eigenvalues --  -11.38053 -11.26957 -11.26957 -11.24053 -11.24053
 Alpha  occ. eigenvalues --  -11.24001 -11.24001  -8.87205  -8.87187  -6.21400
 Alpha  occ. eigenvalues --   -6.21284  -6.21055  -6.21019  -6.20734  -6.20734
 Alpha  occ. eigenvalues --   -1.38403  -1.38167  -1.09508  -1.09073  -1.05064
 Alpha  occ. eigenvalues --   -0.94787  -0.94301  -0.94206  -0.87544  -0.82593
 Alpha  occ. eigenvalues --   -0.74502  -0.73521  -0.68715  -0.67546  -0.65971
 Alpha  occ. eigenvalues --   -0.62860  -0.61898  -0.60750  -0.60187  -0.59764
 Alpha  occ. eigenvalues --   -0.56356  -0.55919  -0.55709  -0.54782  -0.54152
 Alpha  occ. eigenvalues --   -0.53825  -0.50618  -0.50013  -0.49701  -0.49551
 Alpha  occ. eigenvalues --   -0.46194  -0.43184  -0.42720  -0.38646  -0.36925
 Alpha virt. eigenvalues --    0.03426   0.03625   0.04813   0.04954   0.05256
 Alpha virt. eigenvalues --    0.05306   0.05713   0.06728   0.07080   0.07278
 Alpha virt. eigenvalues --    0.07868   0.08045   0.08678   0.09022   0.09760

 Mulliken charges:
               1
     1  S    0.057346
     2  S    0.057337
     3  C    0.107117
     4  C    0.107106
     5  O   -0.486127
     6  O   -0.486125
     7  C    0.744316
     8  C    0.744319
     9  C   -0.765596
    10  C   -0.765573
    11  H    0.007164
    12  H   -0.072135
    13  H    0.007165
    14  H   -0.072135
    15  C    0.661197
    16  H   -0.059487
    17  H   -0.083590
    18  H   -0.066621
    19  H    0.011416
    20  C    0.661197
    21  H   -0.059483
    22  H   -0.083595
    23  H   -0.066626
    24  H    0.011411
    25  H   -0.054999
    26  H   -0.055000
 Sum of Mulliken charges =   0.00000

 Dipole moment (field-independent basis, Debye):
    X=             -0.0000    Y=              0.5394    Z=             -0.0000  Tot=              0.5394

 Test job not archived.
 1\1\GINC-SE250\SP\RHF\Aug-CC-pVDZ\C8H14O2S2\OHZDE\09-Apr-2025\0\\#t hf
  aug-cc-pvdz iop(5/13=1,5/36=2,99/5=2) pseudo=read geom=check guess=(r
 ead,tcheck) scf=(maxcycle=1)\\title\\0,1\S,0,0.913943,1.436766,-0.4839
 16\S,0,-0.913938,1.436761,0.483931\C,0,-1.767268,0.01786,-0.312089\C,0
 ,1.767301,0.017903,0.312141\O,0,1.278107,-0.645676,1.177926\O,0,-1.278
 107,-0.645664,-1.177933\C,0,-4.204658,-0.273836,-0.800975\C,0,4.204694
 ,-0.273894,0.800945\C,0,3.141054,-0.22107,-0.305903\C,0,-3.14105,-0.22
 1076,0.305907\H,0,3.969766,-1.066978,1.513519\H,0,4.260569,0.670531,1.

 Normal termination of Gaussian 16 at Wed Apr  9 00:27:35 2025.
