 Gaussian 16, Revision C.01,

 ----------------------------------------------------------------------
 #t hf aug-cc-pvdz symm=none int=(grid=ultrafine) guess=(read,tcheck) s
 table=(opt,rrhf)
 ----------------------------------------------------------------------
 -----
 title
 -----
 Symbolic Z-matrix:
 Charge =  0 Multiplicity = 1

 SCF Done:  E(RHF) =  -369.327742256     A.U. after   11 cycles

 1\1\GINC-SE102\Stability\RHF\Aug-CC-pVDZ\C2H8Si1\OHZDE\08-Apr-2025\0\\
 #t hf aug-cc-pvdz symm=none int=(grid=ultrafine) guess=(read,tcheck) s
 table=(opt,rrhf)\\title\\0,1\Si,0,-1.153943,-0.122962,0.\C,0,0.560496,
 0.665168,0.\C,0,1.722347,-0.344075,0.\H,0,0.631996,1.321967,-0.874631\
 H,0,1.690787,-0.990687,0.881677\H,0,2.691385,0.163331,0.\H,0,1.690787,
 -0.990688,-0.881676\H,0,0.631995,1.321967,0.874629\H,0,-1.334807,-0.97
 544,-1.201523\H,0,-2.209187,0.9199,-0.000001\H,0,-1.334808,-0.975438,1
 .201524\\Version=ES64L-G16RevC.01\HF=-369.3277423\RMSD=2.740e-09\Dipol

 Normal termination of Gaussian 16 at Tue Apr  8 23:55:55 2025.
 Gaussian 16:  ES64L-G16RevC.01  3-Jul-2019

 ----------------------------------------------------------------------
 #t hf aug-cc-pvdz iop(5/13=1,5/36=2,99/5=2) pseudo=read geom=check gue
 ss=(read,tcheck) scf=(maxcycle=1)
 ----------------------------------------------------------------------
 -----
 title
 -----
 Structure from the checkpoint file:  "BDE49_nonexpt_2030_mol1.chk"
 Charge =  0 Multiplicity = 1

                         Standard orientation:
 ---------------------------------------------------------------------
 Center     Atomic      Atomic             Coordinates (Angstroms)
 Number     Number       Type             X           Y           Z
 ---------------------------------------------------------------------
      1         14           0       -1.153943   -0.122962    0.000000
      2          6           0        0.560496    0.665168    0.000000
      3          6           0        1.722347   -0.344075    0.000000
      4          1           0        0.631996    1.321967   -0.874631
      5          1           0        1.690787   -0.990687    0.881677
      6          1           0        2.691385    0.163331    0.000000
      7          1           0        1.690787   -0.990688   -0.881676
      8          1           0        0.631995    1.321967    0.874629
      9          1           0       -1.334807   -0.975440   -1.201523
     10          1           0       -2.209187    0.919900   -0.000001
     11          1           0       -1.334808   -0.975438    1.201524
 ---------------------------------------------------------------------

 SCF Done:  E(RHF) =  -369.378705853     A.U. after    2 cycles

 The electronic state is 1-A.
 Alpha  occ. eigenvalues --  -69.05489 -11.23315 -11.22488  -6.80823  -3.91600
 Alpha  occ. eigenvalues --   -3.91592  -3.91580  -1.01491  -0.84677  -0.68667
 Alpha  occ. eigenvalues --   -0.61088  -0.57749  -0.52324  -0.50351  -0.46671
 Alpha  occ. eigenvalues --   -0.46516  -0.42923
 Alpha virt. eigenvalues --    0.03415   0.04838   0.05024   0.05171   0.06622
 Alpha virt. eigenvalues --    0.07343   0.07755   0.08653   0.09577   0.10159
 Alpha virt. eigenvalues --    0.11055   0.13651   0.15404   0.15940   0.16801

 Mulliken charges:
               1
     1  Si   0.370571
     2  C    0.041544
     3  C    0.217112
     4  H   -0.143731
     5  H   -0.095544
     6  H   -0.085803
     7  H   -0.095544
     8  H   -0.143735
     9  H   -0.011946
    10  H   -0.040979
    11  H   -0.011946
 Sum of Mulliken charges =  -0.00000

 Dipole moment (field-independent basis, Debye):
    X=              0.7400    Y=              0.3620    Z=              0.0000  Tot=              0.8238

 Test job not archived.
 1\1\GINC-SE102\SP\RHF\Aug-CC-pVDZ\C2H8Si1\OHZDE\08-Apr-2025\0\\#t hf a
 ug-cc-pvdz iop(5/13=1,5/36=2,99/5=2) pseudo=read geom=check guess=(rea
 d,tcheck) scf=(maxcycle=1)\\title\\0,1\Si,0,-1.153943,-0.122962,0.\C,0
 ,0.560496,0.665168,0.\C,0,1.722347,-0.344075,0.\H,0,0.631996,1.321967,
 -0.874631\H,0,1.690787,-0.990687,0.881677\H,0,2.691385,0.163331,0.\H,0
 ,1.690787,-0.990688,-0.881676\H,0,0.631995,1.321967,0.874629\H,0,-1.33
 4807,-0.97544,-1.201523\H,0,-2.209187,0.9199,-0.000001\H,0,-1.334808,-
 0.975438,1.201524\\Version=ES64L-G16RevC.01\State=1-A\HF=-369.3787059\

 Normal termination of Gaussian 16 at Tue Apr  8 23:55:58 2025.
