 Gaussian 16, Revision C.01,

 ----------------------------------------------------------------------
 #t hf aug-cc-pvdz symm=none int=(grid=ultrafine) guess=(read,tcheck) s
 table=(opt,rrhf)
 ----------------------------------------------------------------------
 -----
 title
 -----
 Symbolic Z-matrix:
 Charge =  0 Multiplicity = 1

 SCF Done:  E(RHF) =  -1009.15855546     A.U. after   15 cycles
 Normal termination of Gaussian 16 at Tue Apr  8 23:58:34 2025.
 Gaussian 16:  ES64L-G16RevC.01  3-Jul-2019

 ----------------------------------------------------------------------
 #t hf aug-cc-pvdz iop(5/13=1,5/36=2,99/5=2) pseudo=read geom=check gue
 ss=(read,tcheck) scf=(maxcycle=1)
 ----------------------------------------------------------------------
 -----
 title
 -----
 Structure from the checkpoint file:  "BDE49_nonexpt_1969_mol1.chk"
 Charge =  0 Multiplicity = 1

                         Standard orientation:
 ---------------------------------------------------------------------
 Center     Atomic      Atomic             Coordinates (Angstroms)
 Number     Number       Type             X           Y           Z
 ---------------------------------------------------------------------
      1          6           0        0.523872   -0.347031    1.312475
      2         14           0       -0.347181    1.329782    1.061604
      3          6           0       -1.506490    1.439230   -0.486496
      4          1           0        0.681692    2.337301    0.726289
      5          1           0       -1.065999    1.737413    2.279555
      6          8           0       -1.500281    2.409355   -1.182758
      7          8           0       -2.349102    0.376792   -0.883347
      8          6           0       -2.684874   -0.592194    0.023555
      9          8           0       -2.459912   -0.476481    1.202297
     10          6           0       -3.335219   -1.763004   -0.644164
     11          1           0       -2.548321   -2.340412   -1.137655
     12          1           0       -4.041570   -1.430805   -1.405474
     13          1           0       -3.826511   -2.383237    0.102600
     14          6           0        0.853464   -1.012592    0.017321
     15          8           0        0.182390   -1.830922   -0.538256
     16          8           0        1.970648   -0.522110   -0.690393
     17          6           0        3.195864   -0.235066   -0.122024
     18          6           0        4.098610    0.376310   -1.156215
     19          1           0        3.662212    1.308626   -1.522027
     20          1           0        4.189746   -0.297601   -2.010414
     21          1           0        5.075666    0.565092   -0.717129
     22          8           0        3.479204   -0.475724    1.016950
     23          1           0       -0.148414   -0.999095    1.866717
     24          1           0        1.427094   -0.155435    1.892432
 ---------------------------------------------------------------------

 SCF Done:  E(RHF) =  -1009.40957981     A.U. after    2 cycles

 The electronic state is 1-A.
 Alpha  occ. eigenvalues --  -69.10740 -20.65080 -20.64952 -20.59794 -20.59446
 Alpha  occ. eigenvalues --  -20.59398 -20.59326 -11.43207 -11.43164 -11.42903
 Alpha  occ. eigenvalues --  -11.40502 -11.27178 -11.26405 -11.26051  -6.85831
 Alpha  occ. eigenvalues --   -3.96629  -3.96576  -3.96544  -1.46258  -1.46118
 Alpha  occ. eigenvalues --   -1.40315  -1.39882  -1.34657  -1.34315  -1.05807
 Alpha  occ. eigenvalues --   -1.04302  -1.02134  -0.90436  -0.90118  -0.81401
 Alpha  occ. eigenvalues --   -0.76866  -0.75010  -0.72712  -0.72526  -0.71738
 Alpha  occ. eigenvalues --   -0.71572  -0.70160  -0.68314  -0.65569  -0.64234
 Alpha  occ. eigenvalues --   -0.63110  -0.61594  -0.61084  -0.59900  -0.59263
 Alpha  occ. eigenvalues --   -0.58428  -0.57549  -0.56747  -0.55377  -0.52496
 Alpha  occ. eigenvalues --   -0.52032  -0.50972  -0.50444  -0.50028  -0.48262
 Alpha  occ. eigenvalues --   -0.46799  -0.45115
 Alpha virt. eigenvalues --    0.03059   0.03810   0.04202   0.04957   0.05502
 Alpha virt. eigenvalues --    0.05699   0.06101   0.06539   0.06883   0.07482
 Alpha virt. eigenvalues --    0.08628   0.08678   0.09112   0.09995   0.10188

 Mulliken charges:
               1
     1  C    0.420826
     2  Si   0.137933
     3  C    0.435377
     4  H    0.218542
     5  H    0.208072
     6  O   -0.471747
     7  O   -0.634870
     8  C    0.400472
     9  O   -0.460417
    10  C    0.341964
    11  H    0.075045
    12  H    0.010384
    13  H   -0.014900
    14  C    0.547896
    15  O   -0.454499
    16  O   -0.682103
    17  C    0.305612
    18  C    0.303274
    19  H    0.027196
    20  H    0.039299
    21  H   -0.009994
    22  O   -0.416547
    23  H   -0.188207
    24  H   -0.138608
 Sum of Mulliken charges =  -0.00000

 Dipole moment (field-independent basis, Debye):
    X=              1.0139    Y=             -0.6466    Z=              0.1088  Tot=              1.2075

 Test job not archived.
 1\1\GINC-SE435\SP\RHF\Aug-CC-pVDZ\C7H10O6Si1\OHZDE\08-Apr-2025\0\\#t h
 f aug-cc-pvdz iop(5/13=1,5/36=2,99/5=2) pseudo=read geom=check guess=(
 read,tcheck) scf=(maxcycle=1)\\title\\0,1\C,0,0.523872,-0.347031,1.312
 475\Si,0,-0.347181,1.329782,1.061604\C,0,-1.50649,1.43923,-0.486496\H,
 0,0.681692,2.337301,0.726289\H,0,-1.065999,1.737413,2.279555\O,0,-1.50
 0281,2.409355,-1.182758\O,0,-2.349102,0.376792,-0.883347\C,0,-2.684874
 ,-0.592194,0.023555\O,0,-2.459912,-0.476481,1.202297\C,0,-3.335219,-1.
 763004,-0.644164\H,0,-2.548321,-2.340412,-1.137655\H,0,-4.04157,-1.430

 Normal termination of Gaussian 16 at Tue Apr  8 23:58:56 2025.
