 Gaussian 16, Revision C.01,

 ----------------------------------------------------------------------
 #t hf aug-cc-pvdz symm=none int=(grid=ultrafine) guess=(read,tcheck) s
 table=opt
 ----------------------------------------------------------------------
 -----
 title
 -----
 Symbolic Z-matrix:
 Charge =  0 Multiplicity = 2

 SCF Done:  E(UHF) =  -80.8657937962     A.U. after   14 cycles
 Normal termination of Gaussian 16 at Wed Apr  9 00:25:55 2025.
 Gaussian 16:  ES64L-G16RevC.01  3-Jul-2019

 ----------------------------------------------------------------------
 #t hf aug-cc-pvdz iop(5/13=1,5/36=2,99/5=2) pseudo=read geom=check gue
 ss=(read,tcheck) scf=(maxcycle=1)
 ----------------------------------------------------------------------
 -----
 title
 -----
 Structure from the checkpoint file:  "BDE49_nonexpt_311_mol2.chk"
 Charge =  0 Multiplicity = 2

                         Standard orientation:
 ---------------------------------------------------------------------
 Center     Atomic      Atomic             Coordinates (Angstroms)
 Number     Number       Type             X           Y           Z
 ---------------------------------------------------------------------
      1          5           0        0.828972   -0.215946   -0.000003
      2          7           0       -0.525362    0.029395    0.000002
      3          1           0       -1.220083   -0.702970    0.000002
      4          1           0       -0.928555    0.960138    0.000005
      5          1           0        1.681314    0.616795   -0.000003
 ---------------------------------------------------------------------

 SCF Done:  E(UHF) =  -80.8937273529     A.U. after    2 cycles

 The electronic state is 2-A.
 Alpha  occ. eigenvalues --  -15.63002  -7.62545  -1.13366  -0.71923  -0.68889
 Alpha  occ. eigenvalues --   -0.55290  -0.43942  -0.32135
 Alpha virt. eigenvalues --    0.03488   0.04758   0.05484   0.06238   0.08364
 Alpha virt. eigenvalues --    0.09298   0.12471   0.14652   0.18042   0.18395
 Alpha virt. eigenvalues --    0.19730   0.21728   0.26045   0.27739   0.30162

  Beta  occ. eigenvalues --  -15.63243  -7.60663  -1.13292  -0.69561  -0.67458
  Beta  occ. eigenvalues --   -0.52666  -0.44913
  Beta virt. eigenvalues --    0.03410   0.04557   0.05660   0.06054   0.07836
  Beta virt. eigenvalues --    0.09432   0.10453   0.17003   0.17036   0.18441
  Beta virt. eigenvalues --    0.18852   0.20251   0.22321   0.27417   0.28400

 Mulliken charges and spin densities:
               1          2
     1  B   -0.250431   1.060809
     2  N   -0.087154  -0.122619
     3  H    0.067005   0.002402
     4  H    0.014774   0.044135
     5  H    0.255806   0.015272
 Sum of Mulliken charges =   0.00000   1.00000

 Dipole moment (field-independent basis, Debye):
    X=             -1.9113    Y=              0.7522    Z=              0.0000  Tot=              2.0540
                          Isotropic Fermi Contact Couplings
        Atom                 a.u.       MegaHertz       Gauss      10(-4) cm-1
     1  B(11)              0.29409     421.82581     150.51794     140.70595
     2  N(14)             -0.01080      -3.48928      -1.24506      -1.16390
     3  H(1)               0.00878      39.23074      13.99850      13.08597
     4  H(1)               0.01726      77.13747      27.52457      25.73029
     5  H(1)               0.01305      58.33773      20.81635      19.45937
 --------------------------------------------------------
       Center         ----  Spin Dipole Couplings  ----
                      3XX-RR        3YY-RR        3ZZ-RR

 Normal termination of Gaussian 16 at Wed Apr  9 00:25:57 2025.
