 Gaussian 16, Revision C.01,

 ----------------------------------------------------------------------
 #t hf aug-cc-pvdz symm=none int=(grid=ultrafine) guess=(read,tcheck) s
 table=(opt,rrhf)
 ----------------------------------------------------------------------
 -----
 title
 -----
 Symbolic Z-matrix:
 Charge =  0 Multiplicity = 1

 SCF Done:  E(RHF) =  -2312.33851114     A.U. after   13 cycles
 Normal termination of Gaussian 16 at Wed Apr  9 00:46:53 2025.
 Gaussian 16:  ES64L-G16RevC.01  3-Jul-2019

 ----------------------------------------------------------------------
 #t hf aug-cc-pvdz iop(5/13=1,5/36=2,99/5=2) pseudo=read geom=check gue
 ss=(read,tcheck) scf=(maxcycle=1)
 ----------------------------------------------------------------------
 -----
 title
 -----
 Structure from the checkpoint file:  "BDE49_nonexpt_867_mol1.chk"
 Charge =  0 Multiplicity = 1

                         Standard orientation:
 ---------------------------------------------------------------------
 Center     Atomic      Atomic             Coordinates (Angstroms)
 Number     Number       Type             X           Y           Z
 ---------------------------------------------------------------------
      1         16           0        0.838481   -1.193684   -0.529593
      2          5           0        2.048853    0.112245   -0.063849
      3         16           0        3.677150   -0.498810    0.467529
      4         16           0        1.811967    1.896145   -0.099453
      5         16           0       -0.905291   -0.223370   -1.162289
      6          6           0       -1.892993   -0.208885    0.382426
      7         17           0       -3.459451    0.557281   -0.036028
      8          9           0       -1.305122    0.494955    1.363146
      9          9           0       -2.115866   -1.440949    0.858962
     10          1           0        0.532894    1.862593   -0.523365
     11          1           0        3.423444   -1.814825    0.342472
 ---------------------------------------------------------------------

 SCF Done:  E(RHF) =  -2312.52411279     A.U. after    2 cycles

 The electronic state is 1-A.
 Alpha  occ. eigenvalues -- -103.70597 -93.61501 -93.59142 -93.55984 -93.55628
 Alpha  occ. eigenvalues --  -26.18928 -26.18840 -11.54451 -10.73934  -8.91073
 Alpha  occ. eigenvalues --   -8.88885  -8.85926  -8.85621  -8.39651  -8.39319
 Alpha  occ. eigenvalues --   -8.39309  -7.71826  -6.25151  -6.24911  -6.24584
 Alpha  occ. eigenvalues --   -6.23037  -6.22695  -6.22479  -6.20100  -6.19859
 Alpha  occ. eigenvalues --   -6.19793  -6.19596  -6.19574  -6.19308  -1.76279
 Alpha  occ. eigenvalues --   -1.71230  -1.22064  -1.09281  -1.02592  -0.98835
 Alpha  occ. eigenvalues --   -0.96919  -0.91578  -0.87521  -0.84142  -0.81418
 Alpha  occ. eigenvalues --   -0.77900  -0.74513  -0.68591  -0.65821  -0.59892
 Alpha  occ. eigenvalues --   -0.56483  -0.54435  -0.53169  -0.51882  -0.51255
 Alpha  occ. eigenvalues --   -0.46914  -0.46490  -0.45860  -0.41162  -0.39658
 Alpha  occ. eigenvalues --   -0.38334
 Alpha virt. eigenvalues --    0.03934   0.04642   0.05807   0.06109   0.06969
 Alpha virt. eigenvalues --    0.07369   0.08116   0.08360   0.09235   0.09360
 Alpha virt. eigenvalues --    0.10044   0.10481   0.11308   0.11570   0.12977

 Mulliken charges:
               1
     1  S   -0.216013
     2  B    0.801466
     3  S   -0.278290
     4  S   -0.172144
     5  S    0.071574
     6  C    0.430463
     7  Cl  -0.075682
     8  F   -0.331535
     9  F   -0.287729
    10  H    0.052425
    11  H    0.005464
 Sum of Mulliken charges =   0.00000

 Dipole moment (field-independent basis, Debye):
    X=             -0.1437    Y=             -0.2796    Z=             -1.2107  Tot=              1.2508

 Test job not archived.
 1\1\GINC-SE103\SP\RHF\Aug-CC-pVDZ\C1H2B1Cl1F2S4\OHZDE\09-Apr-2025\0\\#
 t hf aug-cc-pvdz iop(5/13=1,5/36=2,99/5=2) pseudo=read geom=check gues
 s=(read,tcheck) scf=(maxcycle=1)\\title\\0,1\S,0,0.838481,-1.193684,-0
 .529593\B,0,2.048853,0.112245,-0.063849\S,0,3.67715,-0.49881,0.467529\
 S,0,1.811967,1.896145,-0.099453\S,0,-0.905291,-0.22337,-1.162289\C,0,-
 1.892993,-0.208885,0.382426\Cl,0,-3.459451,0.557281,-0.036028\F,0,-1.3
 05122,0.494955,1.363146\F,0,-2.115866,-1.440949,0.858962\H,0,0.532894,
 1.862593,-0.523365\H,0,3.423444,-1.814825,0.342472\\Version=ES64L-G16R

 Normal termination of Gaussian 16 at Wed Apr  9 00:47:00 2025.
