 Gaussian 16, Revision C.01,

 ----------------------------------------------------------------------
 #t hf aug-cc-pvdz symm=none int=(grid=ultrafine) guess=(read,tcheck) s
 table=(opt,rrhf)
 ----------------------------------------------------------------------
 -----
 title
 -----
 Symbolic Z-matrix:
 Charge =  0 Multiplicity = 1

 SCF Done:  E(RHF) =  -1952.29818536     A.U. after   13 cycles
 Normal termination of Gaussian 16 at Wed Apr  9 00:49:22 2025.
 Gaussian 16:  ES64L-G16RevC.01  3-Jul-2019

 ----------------------------------------------------------------------
 #t hf aug-cc-pvdz iop(5/13=1,5/36=2,99/5=2) pseudo=read geom=check gue
 ss=(read,tcheck) scf=(maxcycle=1)
 ----------------------------------------------------------------------
 -----
 title
 -----
 Structure from the checkpoint file:  "BDE49_nonexpt_916_mol1.chk"
 Charge =  0 Multiplicity = 1

                         Standard orientation:
 ---------------------------------------------------------------------
 Center     Atomic      Atomic             Coordinates (Angstroms)
 Number     Number       Type             X           Y           Z
 ---------------------------------------------------------------------
      1         16           0       -0.470311   -1.176769    0.516134
      2          5           0       -1.759120    0.053919    0.057992
      3         16           0       -3.335350   -0.656323   -0.505923
      4         16           0       -1.641762    1.848346    0.127449
      5         16           0        1.195825   -0.105704    1.186556
      6          6           0        2.198478    0.000437   -0.347896
      7          9           0        3.330156    0.639969   -0.008990
      8          9           0        1.594577    0.695681   -1.320324
      9          9           0        2.519014   -1.197988   -0.843972
     10          1           0       -0.367955    1.890323    0.566587
     11          1           0       -2.995474   -1.954321   -0.397035
 ---------------------------------------------------------------------

 SCF Done:  E(RHF) =  -1952.50335972     A.U. after    2 cycles

 The electronic state is 1-A.
 Alpha  occ. eigenvalues --  -93.61490 -93.59419 -93.56113 -93.55757 -26.19268
 Alpha  occ. eigenvalues --  -26.18962 -26.18878 -11.57116  -8.91098  -8.89154
 Alpha  occ. eigenvalues --   -8.86055  -8.85750  -7.71960  -6.25183  -6.24952
 Alpha  occ. eigenvalues --   -6.24622  -6.23306  -6.22961  -6.22743  -6.20228
 Alpha  occ. eigenvalues --   -6.19988  -6.19920  -6.19724  -6.19702  -6.19436
 Alpha  occ. eigenvalues --   -1.78743  -1.71787  -1.71542  -1.11102  -1.04252
 Alpha  occ. eigenvalues --   -1.00433  -0.97059  -0.93085  -0.90494  -0.90434
 Alpha  occ. eigenvalues --   -0.82168  -0.79657  -0.79408  -0.75375  -0.75266
 Alpha  occ. eigenvalues --   -0.74033  -0.66816  -0.61254  -0.57717  -0.54580
 Alpha  occ. eigenvalues --   -0.53046  -0.47516  -0.46665  -0.46218  -0.41384
 Alpha  occ. eigenvalues --   -0.39876  -0.38458
 Alpha virt. eigenvalues --    0.03846   0.04474   0.05735   0.06039   0.06764
 Alpha virt. eigenvalues --    0.07745   0.08118   0.08811   0.09201   0.09773
 Alpha virt. eigenvalues --    0.09946   0.10996   0.11487   0.12767   0.13262

 Mulliken charges:
               1
     1  S   -0.205045
     2  B    0.801274
     3  S   -0.278108
     4  S   -0.171656
     5  S   -0.019222
     6  C    0.717659
     7  F   -0.281081
     8  F   -0.349261
     9  F   -0.282294
    10  H    0.062144
    11  H    0.005591
 Sum of Mulliken charges =  -0.00000

 Dipole moment (field-independent basis, Debye):
    X=             -0.4989    Y=             -0.5848    Z=              1.1391  Tot=              1.3742

 Test job not archived.
 1\1\GINC-SE102\SP\RHF\Aug-CC-pVDZ\C1H2B1F3S4\OHZDE\09-Apr-2025\0\\#t h
 f aug-cc-pvdz iop(5/13=1,5/36=2,99/5=2) pseudo=read geom=check guess=(
 read,tcheck) scf=(maxcycle=1)\\title\\0,1\S,0,-0.470311,-1.176769,0.51
 6134\B,0,-1.75912,0.053919,0.057992\S,0,-3.33535,-0.656323,-0.505923\S
 ,0,-1.641762,1.848346,0.127449\S,0,1.195825,-0.105704,1.186556\C,0,2.1
 98478,0.000437,-0.347896\F,0,3.330156,0.639969,-0.00899\F,0,1.594577,0
 .695681,-1.320324\F,0,2.519014,-1.197988,-0.843972\H,0,-0.367955,1.890
 323,0.566587\H,0,-2.995474,-1.954321,-0.397035\\Version=ES64L-G16RevC.

 Normal termination of Gaussian 16 at Wed Apr  9 00:49:29 2025.
