 Gaussian 16, Revision C.01,

 ----------------------------------------------------------------------
 #t hf aug-cc-pvdz symm=none int=(grid=ultrafine) guess=(read,tcheck) s
 table=(opt,rrhf)
 ----------------------------------------------------------------------
 -----
 title
 -----
 Symbolic Z-matrix:
 Charge =  0 Multiplicity = 1

 SCF Done:  E(RHF) =  -776.392811616     A.U. after   15 cycles
 Normal termination of Gaussian 16 at Wed Apr  9 00:00:15 2025.
 Gaussian 16:  ES64L-G16RevC.01  3-Jul-2019

 ----------------------------------------------------------------------
 #t hf aug-cc-pvdz iop(5/13=1,5/36=2,99/5=2) pseudo=read geom=check gue
 ss=(read,tcheck) scf=(maxcycle=1)
 ----------------------------------------------------------------------
 -----
 title
 -----
 Structure from the checkpoint file:  "BDE49_nonexpt_2117_mol1.chk"
 Charge =  0 Multiplicity = 1

                         Standard orientation:
 ---------------------------------------------------------------------
 Center     Atomic      Atomic             Coordinates (Angstroms)
 Number     Number       Type             X           Y           Z
 ---------------------------------------------------------------------
      1          6           0        0.150861    1.529615    1.593826
      2         14           0       -0.000007    0.615997    0.000026
      3          1           0        0.196505    0.822788    2.424149
      4          1           0       -0.706232    2.192796    1.739847
      5          1           0        1.063901    2.129588    1.598530
      6          6           0       -0.150944    1.529867   -1.593623
      7          1           0       -0.196533    0.823175   -2.424064
      8          1           0        0.706099    2.193139   -1.739534
      9          1           0       -1.064030    2.129771   -1.598226
     10          7           0       -1.429812   -0.568443    0.174906
     11          7           0        1.429890   -0.568300   -0.175056
     12          8           0        1.337133   -1.394660   -1.078221
     13          8           0        2.397143   -0.437462    0.567999
     14          8           0       -2.397152   -0.437439   -0.568006
     15          8           0       -1.337081   -1.394803    1.078073
 ---------------------------------------------------------------------

 SCF Done:  E(RHF) =  -776.570900446     A.U. after    2 cycles

 The electronic state is 1-A.
 Alpha  occ. eigenvalues --  -69.18503 -20.63888 -20.63888 -20.63689 -20.63689
 Alpha  occ. eigenvalues --  -15.90313 -15.90312 -11.27308 -11.27301  -6.93313
 Alpha  occ. eigenvalues --   -4.04161  -4.04073  -4.03915  -1.55387  -1.54901
 Alpha  occ. eigenvalues --   -1.37614  -1.37507  -1.03267  -0.98545  -0.95959
 Alpha  occ. eigenvalues --   -0.93545  -0.81454  -0.79223  -0.74820  -0.74795
 Alpha  occ. eigenvalues --   -0.73098  -0.71905  -0.63465  -0.61840  -0.60918
 Alpha  occ. eigenvalues --   -0.60731  -0.60520  -0.54304  -0.53982  -0.50947
 Alpha  occ. eigenvalues --   -0.49558  -0.49128  -0.48692  -0.48396
 Alpha virt. eigenvalues --    0.01764   0.03751   0.04021   0.04218   0.05033
 Alpha virt. eigenvalues --    0.05715   0.06645   0.07038   0.08296   0.08369
 Alpha virt. eigenvalues --    0.09472   0.09618   0.12059   0.13157   0.14014

 Mulliken charges:
               1
     1  C    0.322127
     2  Si   2.082594
     3  H   -0.161139
     4  H   -0.204654
     5  H   -0.098369
     6  C    0.322145
     7  H   -0.161164
     8  H   -0.204637
     9  H   -0.098354
    10  N    0.170219
    11  N    0.170225
    12  O   -0.558759
    13  O   -0.510734
    14  O   -0.510723
    15  O   -0.558777
 Sum of Mulliken charges =  -0.00000

 Dipole moment (field-independent basis, Debye):
    X=              0.0000    Y=              6.4025    Z=              0.0002  Tot=              6.4025

 Test job not archived.
 1\1\GINC-SE273\SP\RHF\Aug-CC-pVDZ\C2H6N2O4Si1\OHZDE\09-Apr-2025\0\\#t
 hf aug-cc-pvdz iop(5/13=1,5/36=2,99/5=2) pseudo=read geom=check guess=
 (read,tcheck) scf=(maxcycle=1)\\title\\0,1\C,0,-0.150861,1.529615,-1.5
 93826\Si,0,0.000007,0.615997,-0.000026\H,0,-0.196505,0.822788,-2.42414
 9\H,0,0.706232,2.192796,-1.739847\H,0,-1.063901,2.129588,-1.59853\C,0,
 0.150944,1.529867,1.593623\H,0,0.196533,0.823175,2.424064\H,0,-0.70609
 9,2.193139,1.739534\H,0,1.06403,2.129771,1.598226\N,0,1.429812,-0.5684
 43,-0.174906\N,0,-1.42989,-0.5683,0.175056\O,0,-1.337133,-1.39466,1.07

 Normal termination of Gaussian 16 at Wed Apr  9 00:00:23 2025.
