 Gaussian 16, Revision C.01,

 ----------------------------------------------------------------------
 #t hf aug-cc-pvdz symm=none int=(grid=ultrafine) guess=(read,tcheck) s
 table=(opt,rrhf)
 ----------------------------------------------------------------------
 -----
 title
 -----
 Symbolic Z-matrix:
 Charge =  0 Multiplicity = 1

 SCF Done:  E(RHF) =  -714.459300233     A.U. after   12 cycles
 Normal termination of Gaussian 16 at Wed Apr  9 00:09:52 2025.
 Gaussian 16:  ES64L-G16RevC.01  3-Jul-2019

 ----------------------------------------------------------------------
 #t hf aug-cc-pvdz iop(5/13=1,5/36=2,99/5=2) pseudo=read geom=check gue
 ss=(read,tcheck) scf=(maxcycle=1)
 ----------------------------------------------------------------------
 -----
 title
 -----
 Structure from the checkpoint file:  "BDE49_nonexpt_2376_mol1.chk"
 Charge =  0 Multiplicity = 1

                         Standard orientation:
 ---------------------------------------------------------------------
 Center     Atomic      Atomic             Coordinates (Angstroms)
 Number     Number       Type             X           Y           Z
 ---------------------------------------------------------------------
      1         14           0       -2.242988    0.240710   -0.216339
      2         14           0       -0.215684   -0.837339    0.340006
      3          1           0       -2.405819    1.529354    0.503646
      4          1           0       -3.375980   -0.639150    0.167344
      5          1           0       -2.328527    0.512816   -1.672182
      6          7           0        1.163532    0.106769   -0.111379
      7          1           0       -0.114687   -2.115241   -0.407451
      8          1           0       -0.285627   -1.196806    1.790482
      9          6           0        1.295233    1.508096    0.265036
     10          1           0        1.885959    1.644467    1.184429
     11          1           0        0.314343    1.959815    0.429984
     12          1           0        1.790530    2.074017   -0.534235
     13          6           0        2.443151   -0.523130   -0.414587
     14          1           0        2.292818   -1.550813   -0.750673
     15          1           0        3.120165   -0.543982    0.453967
     16          1           0        2.953220    0.021162   -1.219688
 ---------------------------------------------------------------------

 SCF Done:  E(RHF) =  -714.551082323     A.U. after    2 cycles

 The electronic state is 1-A.
 Alpha  occ. eigenvalues --  -69.07149 -69.05491 -15.60338 -11.26554 -11.26335
 Alpha  occ. eigenvalues --   -6.82218  -6.80919  -3.93060  -3.92990  -3.92920
 Alpha  occ. eigenvalues --   -3.91682  -3.91676  -3.91634  -1.16400  -0.95382
 Alpha  occ. eigenvalues --   -0.85299  -0.72692  -0.67214  -0.62674  -0.61111
 Alpha  occ. eigenvalues --   -0.59656  -0.54735  -0.52131  -0.49950  -0.48638
 Alpha  occ. eigenvalues --   -0.47631  -0.46489  -0.40062  -0.34498
 Alpha virt. eigenvalues --    0.03426   0.04070   0.04689   0.04886   0.06094
 Alpha virt. eigenvalues --    0.06991   0.07334   0.07511   0.08214   0.08749
 Alpha virt. eigenvalues --    0.09036   0.09475   0.09946   0.10095   0.11019

 Mulliken charges:
               1
     1  Si  -0.432679
     2  Si   0.180894
     3  H    0.072392
     4  H    0.012807
     5  H    0.111253
     6  N   -0.421508
     7  H    0.056140
     8  H    0.092021
     9  C    0.712060
    10  H   -0.050718
    11  H   -0.383661
    12  H   -0.128221
    13  C    0.705505
    14  H   -0.297593
    15  H   -0.071240
    16  H   -0.157453
 Sum of Mulliken charges =  -0.00000

 Dipole moment (field-independent basis, Debye):
    X=              1.1989    Y=              0.4505    Z=              0.0346  Tot=              1.2812

 Test job not archived.
 1\1\GINC-SE435\SP\RHF\Aug-CC-pVDZ\C2H11N1Si2\OHZDE\09-Apr-2025\0\\#t h
 f aug-cc-pvdz iop(5/13=1,5/36=2,99/5=2) pseudo=read geom=check guess=(
 read,tcheck) scf=(maxcycle=1)\\title\\0,1\Si,0,-2.242988,0.24071,-0.21
 6339\Si,0,-0.215684,-0.837339,0.340006\H,0,-2.405819,1.529354,0.503646
 \H,0,-3.37598,-0.63915,0.167344\H,0,-2.328527,0.512816,-1.672182\N,0,1
 .163532,0.106769,-0.111379\H,0,-0.114687,-2.115241,-0.407451\H,0,-0.28
 5627,-1.196806,1.790482\C,0,1.295233,1.508096,0.265036\H,0,1.885959,1.
 644467,1.184429\H,0,0.314343,1.959815,0.429984\H,0,1.79053,2.074017,-0

 Normal termination of Gaussian 16 at Wed Apr  9 00:10:21 2025.
