 Gaussian 16, Revision C.01,

 ----------------------------------------------------------------------
 #t hf aug-cc-pvdz symm=none int=(grid=ultrafine) guess=(read,tcheck) s
 table=(opt,rrhf)
 ----------------------------------------------------------------------
 -----
 title
 -----
 Symbolic Z-matrix:
 Charge =  0 Multiplicity = 1

 SCF Done:  E(RHF) =  -191.721204066     A.U. after   11 cycles
 Normal termination of Gaussian 16 at Tue Apr  8 22:42:24 2025.
 Gaussian 16:  ES64L-G16RevC.01  3-Jul-2019

 ----------------------------------------------------------------------
 #t hf aug-cc-pvdz iop(5/13=1,5/36=2,99/5=2) pseudo=read geom=check gue
 ss=(read,tcheck) scf=(maxcycle=1)
 ----------------------------------------------------------------------
 -----
 title
 -----
 Structure from the checkpoint file:  "BDE49_expt_1496_mol1.chk"
 Charge =  0 Multiplicity = 1

                         Standard orientation:
 ---------------------------------------------------------------------
 Center     Atomic      Atomic             Coordinates (Angstroms)
 Number     Number       Type             X           Y           Z
 ---------------------------------------------------------------------
      1          6           0        0.000000    0.000000   -0.151521
      2          9           0        0.000000    0.000000    1.115373
      3          7           0        0.000000    0.000000   -1.304176
 ---------------------------------------------------------------------

 SCF Done:  E(RHF) =  -191.789255143     A.U. after    2 cycles

 The electronic state is 1-SG.
 Alpha  occ. eigenvalues --  -26.26539 -15.67976 -11.41499  -1.81398  -1.23557
 Alpha  occ. eigenvalues --   -0.98368  -0.87322  -0.87322  -0.58997  -0.50767
 Alpha  occ. eigenvalues --   -0.50767
 Alpha virt. eigenvalues --    0.05085   0.08680   0.08680   0.08948   0.17240
 Alpha virt. eigenvalues --    0.17240   0.17858   0.22326   0.24766   0.24766
 Alpha virt. eigenvalues --    0.28336   0.30221   0.30221   0.35230   0.41350

 Mulliken charges:
               1
     1  C    0.023321
     2  F   -0.065346
     3  N    0.042025
 Sum of Mulliken charges =   0.00000

 Dipole moment (field-independent basis, Debye):
    X=             -0.0000    Y=              0.0000    Z=              1.9158  Tot=              1.9158

 Test job not archived.
 1\1\GINC-SE339\SP\RHF\Aug-CC-pVDZ\C1F1N1\OHZDE\08-Apr-2025\0\\#t hf au
 g-cc-pvdz iop(5/13=1,5/36=2,99/5=2) pseudo=read geom=check guess=(read
 ,tcheck) scf=(maxcycle=1)\\title\\0,1\C,0,0.,0.,-0.151521\F,0,0.,0.,1.
 115373\N,0,0.,0.,-1.304176\\Version=ES64L-G16RevC.01\State=1-SG\HF=-19
 1.7892551\RMSD=6.825e-03\Dipole=0.,0.,0.7537321\Quadrupole=1.0622736,1
 .0622736,-2.1245473,0.,0.,0.\PG=C*V [C*(N1C1F1)]\\@

 Normal termination of Gaussian 16 at Tue Apr  8 22:42:25 2025.
