 Gaussian 16, Revision C.01,

 ----------------------------------------------------------------------
 #t hf aug-cc-pvdz symm=none int=(grid=ultrafine) guess=(read,tcheck) s
 table=(opt,rrhf)
 ----------------------------------------------------------------------
 -----
 title
 -----
 Symbolic Z-matrix:
 Charge =  0 Multiplicity = 1

 SCF Done:  E(RHF) =  -429.144077031     A.U. after   11 cycles
 Normal termination of Gaussian 16 at Tue Apr  8 23:55:18 2025.
 Gaussian 16:  ES64L-G16RevC.01  3-Jul-2019

 ----------------------------------------------------------------------
 #t hf aug-cc-pvdz iop(5/13=1,5/36=2,99/5=2) pseudo=read geom=check gue
 ss=(read,tcheck) scf=(maxcycle=1)
 ----------------------------------------------------------------------
 -----
 title
 -----
 Structure from the checkpoint file:  "BDE49_nonexpt_2016_mol1.chk"
 Charge =  0 Multiplicity = 1

                         Standard orientation:
 ---------------------------------------------------------------------
 Center     Atomic      Atomic             Coordinates (Angstroms)
 Number     Number       Type             X           Y           Z
 ---------------------------------------------------------------------
      1         14           0        1.093808   -0.097220    0.000001
      2          6           0       -0.663253    0.619657    0.000002
      3          9           0       -1.586412   -0.444099   -0.000004
      4          1           0       -0.853594    1.233558   -0.886057
      5          1           0       -0.853597    1.233551    0.886064
      6          1           0        1.293391   -0.925642   -1.209180
      7          1           0        1.293387   -0.925652    1.209177
      8          1           0        2.064334    1.024218    0.000008
 ---------------------------------------------------------------------

 SCF Done:  E(RHF) =  -429.216654788     A.U. after    2 cycles

 The electronic state is 1-A.
 Alpha  occ. eigenvalues --  -69.07247 -26.10515 -11.31351  -6.82622  -3.93407
 Alpha  occ. eigenvalues --   -3.93390  -3.93378  -1.63138  -0.96246  -0.74941
 Alpha  occ. eigenvalues --   -0.73905  -0.72149  -0.66632  -0.56188  -0.49164
 Alpha  occ. eigenvalues --   -0.48377  -0.46716
 Alpha virt. eigenvalues --    0.03338   0.04652   0.04958   0.06460   0.07450
 Alpha virt. eigenvalues --    0.08233   0.08996   0.09450   0.10785   0.15498
 Alpha virt. eigenvalues --    0.15980   0.16362   0.16398   0.19014   0.19709

 Mulliken charges:
               1
     1  Si   0.683646
     2  C    0.419497
     3  F   -0.458686
     4  H   -0.191972
     5  H   -0.191975
     6  H   -0.091437
     7  H   -0.091438
     8  H   -0.077636
 Sum of Mulliken charges =  -0.00000

 Dipole moment (field-independent basis, Debye):
    X=              1.2997    Y=              1.7381    Z=              0.0000  Tot=              2.1703

 Test job not archived.
 1\1\GINC-SE402\SP\RHF\Aug-CC-pVDZ\C1H5F1Si1\OHZDE\08-Apr-2025\0\\#t hf
  aug-cc-pvdz iop(5/13=1,5/36=2,99/5=2) pseudo=read geom=check guess=(r
 ead,tcheck) scf=(maxcycle=1)\\title\\0,1\Si,0,-1.093808,-0.09722,-0.00
 0001\C,0,0.663253,0.619657,-0.000002\F,0,1.586412,-0.444099,0.000004\H
 ,0,0.853594,1.233558,0.886057\H,0,0.853597,1.233551,-0.886064\H,0,-1.2
 93391,-0.925642,1.20918\H,0,-1.293387,-0.925652,-1.209177\H,0,-2.06433
 4,1.024218,-0.000008\\Version=ES64L-G16RevC.01\State=1-A\HF=-429.21665
 48\RMSD=5.223e-03\Dipole=-0.5113266,0.6838169,-0.0000023\Quadrupole=-2

 Normal termination of Gaussian 16 at Tue Apr  8 23:55:19 2025.
