 Gaussian 16, Revision C.01,

 ----------------------------------------------------------------------
 #t hf aug-cc-pvdz symm=none int=(grid=ultrafine) guess=(read,tcheck) s
 table=(opt,rrhf)
 ----------------------------------------------------------------------
 -----
 title
 -----
 Symbolic Z-matrix:
 Charge =  0 Multiplicity = 1

 SCF Done:  E(RHF) =  -905.232910119     A.U. after   12 cycles
 Normal termination of Gaussian 16 at Tue Apr  8 23:46:37 2025.
 Gaussian 16:  ES64L-G16RevC.01  3-Jul-2019

 ----------------------------------------------------------------------
 #t hf aug-cc-pvdz iop(5/13=1,5/36=2,99/5=2) pseudo=read geom=check gue
 ss=(read,tcheck) scf=(maxcycle=1)
 ----------------------------------------------------------------------
 -----
 title
 -----
 Structure from the checkpoint file:  "BDE49_nonexpt_1806_mol1.chk"
 Charge =  0 Multiplicity = 1

                         Standard orientation:
 ---------------------------------------------------------------------
 Center     Atomic      Atomic             Coordinates (Angstroms)
 Number     Number       Type             X           Y           Z
 ---------------------------------------------------------------------
      1         14           0       -0.415650   -0.086231    0.668689
      2          6           0        0.717175    1.385406    0.346087
      3          6           0        0.743907   -1.409902   -0.012612
      4          6           0        1.792933    0.803317   -0.605952
      5          1           0        1.174378    1.689571    1.295347
      6          1           0        0.211837    2.261311   -0.064197
      7          6           0        2.087525   -0.653265   -0.187551
      8          1           0        2.704959    1.407207   -0.603867
      9          1           0        1.410779    0.811356   -1.633128
     10          1           0        0.366697   -1.752668   -0.981327
     11          1           0        0.836594   -2.290865    0.626282
     12          1           0        2.736400   -1.150641   -0.914154
     13          1           0        2.630093   -0.647190    0.765221
     14         17           0       -2.204295    0.022657   -0.421695
     15          1           0       -0.828853   -0.259367    2.077166
 ---------------------------------------------------------------------

 SCF Done:  E(RHF) =  -905.322790649     A.U. after    2 cycles

 The electronic state is 1-A.
 Alpha  occ. eigenvalues -- -103.64047 -69.09722 -11.24349 -11.24238 -11.22561
 Alpha  occ. eigenvalues --  -11.22537 -10.67466  -8.33156  -8.32943  -8.32942
 Alpha  occ. eigenvalues --   -6.84651  -3.95495  -3.95350  -3.95313  -1.12403
 Alpha  occ. eigenvalues --   -1.07869  -0.96473  -0.88330  -0.78447  -0.67670
 Alpha  occ. eigenvalues --   -0.64179  -0.62397  -0.58931  -0.54697  -0.50423
 Alpha  occ. eigenvalues --   -0.49614  -0.49340  -0.48731  -0.47845  -0.47334
 Alpha  occ. eigenvalues --   -0.43287  -0.41029
 Alpha virt. eigenvalues --    0.03133   0.04412   0.04481   0.04808   0.06393
 Alpha virt. eigenvalues --    0.06721   0.06909   0.07050   0.07175   0.09406
 Alpha virt. eigenvalues --    0.09457   0.10764   0.13035   0.13923   0.14167

 Mulliken charges:
               1
     1  Si   0.844922
     2  C    0.164066
     3  C    0.178355
     4  C    0.117209
     5  H   -0.151867
     6  H   -0.103743
     7  C    0.181730
     8  H   -0.102659
     9  H   -0.140111
    10  H   -0.119932
    11  H   -0.148950
    12  H   -0.095316
    13  H   -0.132242
    14  Cl  -0.596304
    15  H    0.104842
 Sum of Mulliken charges =  -0.00000

 Dipole moment (field-independent basis, Debye):
    X=              2.4055    Y=             -0.0439    Z=              0.6055  Tot=              2.4809

 Test job not archived.
 1\1\GINC-SE367\SP\RHF\Aug-CC-pVDZ\C4H9Cl1Si1\OHZDE\08-Apr-2025\0\\#t h
 f aug-cc-pvdz iop(5/13=1,5/36=2,99/5=2) pseudo=read geom=check guess=(
 read,tcheck) scf=(maxcycle=1)\\title\\0,1\Si,0,-0.41565,-0.086231,0.66
 8689\C,0,0.717175,1.385406,0.346087\C,0,0.743907,-1.409902,-0.012612\C
 ,0,1.792933,0.803317,-0.605952\H,0,1.174378,1.689571,1.295347\H,0,0.21
 1837,2.261311,-0.064197\C,0,2.087525,-0.653265,-0.187551\H,0,2.704959,
 1.407207,-0.603867\H,0,1.410779,0.811356,-1.633128\H,0,0.366697,-1.752
 668,-0.981327\H,0,0.836594,-2.290865,0.626282\H,0,2.7364,-1.150641,-0.

 Normal termination of Gaussian 16 at Tue Apr  8 23:46:42 2025.
