 Gaussian 16, Revision C.01,

 ----------------------------------------------------------------------
 #t hf aug-cc-pvdz symm=none int=(grid=ultrafine) guess=(read,tcheck) s
 table=(opt,rrhf)
 ----------------------------------------------------------------------
 -----
 title
 -----
 Symbolic Z-matrix:
 Charge =  0 Multiplicity = 1

 SCF Done:  E(RHF) =  -498.082107434     A.U. after   13 cycles
 Normal termination of Gaussian 16 at Tue Apr  8 23:50:23 2025.
 Gaussian 16:  ES64L-G16RevC.01  3-Jul-2019

 ----------------------------------------------------------------------
 #t hf aug-cc-pvdz iop(5/13=1,5/36=2,99/5=2) pseudo=read geom=check gue
 ss=(read,tcheck) scf=(maxcycle=1)
 ----------------------------------------------------------------------
 -----
 title
 -----
 Structure from the checkpoint file:  "BDE49_nonexpt_1905_mol1.chk"
 Charge =  0 Multiplicity = 1

                         Standard orientation:
 ---------------------------------------------------------------------
 Center     Atomic      Atomic             Coordinates (Angstroms)
 Number     Number       Type             X           Y           Z
 ---------------------------------------------------------------------
      1         14           0        1.962676   -0.133036   -0.234252
      2          6           0        0.344276   -0.065094    0.753908
      3          1           0        1.729341   -0.751470   -1.557949
      4          1           0        2.975964   -0.911009    0.517031
      5          1           0        2.469789    1.247414   -0.435676
      6          7           0       -0.666569    0.778629    0.119111
      7          6           0       -1.889598    0.307223   -0.254627
      8          8           0       -2.272214   -0.834942   -0.115032
      9          1           0       -2.511682    1.097836   -0.715361
     10          1           0       -0.467836    1.754809   -0.037167
     11          1           0        0.531858    0.266889    1.781800
     12          1           0       -0.089266   -1.065600    0.817645
 ---------------------------------------------------------------------

 SCF Done:  E(RHF) =  -498.171898393     A.U. after    2 cycles

 The electronic state is 1-A.
 Alpha  occ. eigenvalues --  -69.07120 -20.54398 -15.66468 -11.36833 -11.27173
 Alpha  occ. eigenvalues --   -6.82463  -3.93244  -3.93233  -3.93224  -1.35189
 Alpha  occ. eigenvalues --   -1.20404  -0.96071  -0.81073  -0.75269  -0.70167
 Alpha  occ. eigenvalues --   -0.65712  -0.61958  -0.58948  -0.55989  -0.50010
 Alpha  occ. eigenvalues --   -0.48739  -0.48110  -0.44948  -0.38663
 Alpha virt. eigenvalues --    0.02700   0.03833   0.04377   0.05308   0.06496
 Alpha virt. eigenvalues --    0.07230   0.07423   0.09024   0.09155   0.10378
 Alpha virt. eigenvalues --    0.11456   0.11771   0.13759   0.15211   0.15476

 Mulliken charges:
               1
     1  Si   0.513317
     2  C    0.457535
     3  H   -0.024441
     4  H   -0.043811
     5  H   -0.053455
     6  N   -0.345855
     7  C    0.647285
     8  O   -0.462075
     9  H   -0.192691
    10  H   -0.086633
    11  H   -0.216066
    12  H   -0.193110
 Sum of Mulliken charges =   0.00000

 Dipole moment (field-independent basis, Debye):
    X=              2.0657    Y=              3.4247    Z=              0.3119  Tot=              4.0116

 Test job not archived.
 1\1\GINC-SE341\SP\RHF\Aug-CC-pVDZ\C2H7N1O1Si1\OHZDE\08-Apr-2025\0\\#t
 hf aug-cc-pvdz iop(5/13=1,5/36=2,99/5=2) pseudo=read geom=check guess=
 (read,tcheck) scf=(maxcycle=1)\\title\\0,1\Si,0,1.962676,-0.133036,-0.
 234252\C,0,0.344276,-0.065094,0.753908\H,0,1.729341,-0.75147,-1.557949
 \H,0,2.975964,-0.911009,0.517031\H,0,2.469789,1.247414,-0.435676\N,0,-
 0.666569,0.778629,0.119111\C,0,-1.889598,0.307223,-0.254627\O,0,-2.272
 214,-0.834942,-0.115032\H,0,-2.511682,1.097836,-0.715361\H,0,-0.467836
 ,1.754809,-0.037167\H,0,0.531858,0.266889,1.7818\H,0,-0.089266,-1.0656

 Normal termination of Gaussian 16 at Tue Apr  8 23:50:26 2025.
