 Gaussian 16, Revision C.01,

 ----------------------------------------------------------------------
 #t hf aug-cc-pvdz symm=none int=(grid=ultrafine) guess=(read,tcheck) s
 table=(opt,rrhf)
 ----------------------------------------------------------------------
 -----
 title
 -----
 Symbolic Z-matrix:
 Charge =  0 Multiplicity = 1

 SCF Done:  E(RHF) =  -1329.90949357     A.U. after   17 cycles
 Normal termination of Gaussian 16 at Tue Apr  8 23:16:47 2025.
 Gaussian 16:  ES64L-G16RevC.01  3-Jul-2019

 ----------------------------------------------------------------------
 #t hf aug-cc-pvdz iop(5/13=1,5/36=2,99/5=2) pseudo=read geom=check gue
 ss=(read,tcheck) scf=(maxcycle=1)
 ----------------------------------------------------------------------
 -----
 title
 -----
 Structure from the checkpoint file:  "BDE49_nonexpt_1056_mol1.chk"
 Charge =  0 Multiplicity = 1

                         Standard orientation:
 ---------------------------------------------------------------------
 Center     Atomic      Atomic             Coordinates (Angstroms)
 Number     Number       Type             X           Y           Z
 ---------------------------------------------------------------------
      1         17           0       -2.085362   -0.478878   -0.103856
      2          8           0       -0.729345    0.631793    0.626309
      3         16           0        0.562110    0.901844   -0.276165
      4         16           0        1.912172   -0.625062    0.135043
      5          1           0        1.697405   -1.341926   -0.986962
 ---------------------------------------------------------------------

 SCF Done:  E(RHF) =  -1329.99895415     A.U. after    2 cycles

 The electronic state is 1-A.
 Alpha  occ. eigenvalues -- -103.71965 -93.64712 -93.58999 -20.70349 -10.74601
 Alpha  occ. eigenvalues --   -8.93687  -8.88676  -8.40311  -8.39921  -8.39906
 Alpha  occ. eigenvalues --   -6.27887  -6.27460  -6.27097  -6.22753  -6.22539
 Alpha  occ. eigenvalues --   -6.22196  -1.38863  -1.13363  -1.03501  -0.87144
 Alpha  occ. eigenvalues --   -0.67755  -0.65787  -0.63634  -0.56717  -0.49701
 Alpha  occ. eigenvalues --   -0.49352  -0.46071  -0.41553  -0.38621
 Alpha virt. eigenvalues --   -0.01560   0.03828   0.05653   0.08391   0.10139
 Alpha virt. eigenvalues --    0.10897   0.12279   0.12958   0.13349   0.14300
 Alpha virt. eigenvalues --    0.14448   0.16596   0.17876   0.19006   0.20762

 Mulliken charges:
               1
     1  Cl   0.159270
     2  O   -0.705252
     3  S    0.476333
     4  S   -0.092039
     5  H    0.161688
 Sum of Mulliken charges =  -0.00000

 Dipole moment (field-independent basis, Debye):
    X=              1.1309    Y=             -0.8341    Z=             -1.3995  Tot=              1.9833

 Test job not archived.
 1\1\GINC-SE029\SP\RHF\Aug-CC-pVDZ\Cl1H1O1S2\OHZDE\08-Apr-2025\0\\#t hf
  aug-cc-pvdz iop(5/13=1,5/36=2,99/5=2) pseudo=read geom=check guess=(r
 ead,tcheck) scf=(maxcycle=1)\\title\\0,1\Cl,0,-2.085362,-0.478878,-0.1
 03856\O,0,-0.729345,0.631793,0.626309\S,0,0.56211,0.901844,-0.276165\S
 ,0,1.912172,-0.625062,0.135043\H,0,1.697405,-1.341926,-0.986962\\Versi
 on=ES64L-G16RevC.01\State=1-A\HF=-1329.9989541\RMSD=4.877e-03\Dipole=0
 .4449479,-0.3281713,-0.5506114\Quadrupole=-0.0378089,0.7752967,-0.7374
 878,-0.5571754,-0.1519168,0.870247\PG=C01 [X(Cl1H1O1S2)]\\@

 Normal termination of Gaussian 16 at Tue Apr  8 23:16:49 2025.
