 Gaussian 16, Revision C.01,

 ----------------------------------------------------------------------
 #t hf aug-cc-pvdz symm=none int=(grid=ultrafine) guess=(read,tcheck) s
 table=(opt,rrhf)
 ----------------------------------------------------------------------
 -----
 title
 -----
 Symbolic Z-matrix:
 Charge =  0 Multiplicity = 1

 SCF Done:  E(RHF) =  -2166.01968058     A.U. after   12 cycles
 Normal termination of Gaussian 16 at Tue Apr  8 23:44:58 2025.
 Gaussian 16:  ES64L-G16RevC.01  3-Jul-2019

 ----------------------------------------------------------------------
 #t hf aug-cc-pvdz iop(5/13=1,5/36=2,99/5=2) pseudo=read geom=check gue
 ss=(read,tcheck) scf=(maxcycle=1)
 ----------------------------------------------------------------------
 -----
 title
 -----
 Structure from the checkpoint file:  "BDE49_nonexpt_1767_mol1.chk"
 Charge =  0 Multiplicity = 1

                         Standard orientation:
 ---------------------------------------------------------------------
 Center     Atomic      Atomic             Coordinates (Angstroms)
 Number     Number       Type             X           Y           Z
 ---------------------------------------------------------------------
      1         14           0       -0.958728    1.076893   -0.000000
      2          6           0        0.603244   -0.032326   -0.000000
      3         17           0       -2.657084   -0.093272    0.000001
      4         17           0        2.002123    1.115188   -0.000001
      5         17           0        0.670130   -1.059097   -1.469100
      6         17           0        0.670131   -1.059095    1.469101
      7          1           0       -0.923681    1.877066   -1.232008
      8          1           0       -0.923680    1.877067    1.232006
 ---------------------------------------------------------------------

 SCF Done:  E(RHF) =  -2166.12809387     A.U. after    2 cycles

 The electronic state is 1-A.
 Alpha  occ. eigenvalues -- -103.69940-103.69710-103.69709-103.67176 -69.15067
 Alpha  occ. eigenvalues --  -11.43968 -10.73201 -10.72989 -10.72973 -10.70629
 Alpha  occ. eigenvalues --   -8.38911  -8.38701  -8.38696  -8.38591  -8.38580
 Alpha  occ. eigenvalues --   -8.38366  -8.38364  -8.38360  -8.38360  -8.36323
 Alpha  occ. eigenvalues --   -8.36093  -8.36082  -6.89817  -4.00671  -4.00550
 Alpha  occ. eigenvalues --   -4.00493  -1.26153  -1.16424  -1.16346  -1.15620
 Alpha  occ. eigenvalues --   -0.88296  -0.73501  -0.64367  -0.64187  -0.61933
 Alpha  occ. eigenvalues --   -0.55617  -0.55607  -0.52098  -0.52045  -0.50050
 Alpha  occ. eigenvalues --   -0.48491  -0.48214  -0.47711  -0.47121  -0.44682
 Alpha virt. eigenvalues --    0.03794   0.05379   0.05704   0.05956   0.07364
 Alpha virt. eigenvalues --    0.08094   0.09004   0.10133   0.10854   0.12212
 Alpha virt. eigenvalues --    0.12646   0.13733   0.14117   0.14978   0.15723

 Mulliken charges:
               1
     1  Si   0.965228
     2  C   -0.546532
     3  Cl  -0.498904
     4  Cl  -0.017054
     5  Cl  -0.006504
     6  Cl  -0.006504
     7  H    0.055134
     8  H    0.055135
 Sum of Mulliken charges =  -0.00000

 Dipole moment (field-independent basis, Debye):
    X=             -0.1830    Y=              1.4988    Z=              0.0000  Tot=              1.5100

 Test job not archived.
 1\1\GINC-SE109\SP\RHF\Aug-CC-pVDZ\C1H2Cl4Si1\OHZDE\08-Apr-2025\0\\#t h
 f aug-cc-pvdz iop(5/13=1,5/36=2,99/5=2) pseudo=read geom=check guess=(
 read,tcheck) scf=(maxcycle=1)\\title\\0,1\Si,0,-0.958728,1.076893,0.\C
 ,0,0.603244,-0.032326,0.\Cl,0,-2.657084,-0.093272,0.000001\Cl,0,2.0021
 23,1.115188,-0.000001\Cl,0,0.67013,-1.059097,-1.4691\Cl,0,0.670131,-1.
 059095,1.469101\H,0,-0.923681,1.877066,-1.232008\H,0,-0.92368,1.877067
 ,1.232006\\Version=ES64L-G16RevC.01\State=1-A\HF=-2166.1280939\RMSD=4.
 334e-03\Dipole=-0.0720015,0.5896849,0.0000005\Quadrupole=-2.3287771,1.

 Normal termination of Gaussian 16 at Tue Apr  8 23:45:02 2025.
