 Gaussian 16, Revision C.01,

 ----------------------------------------------------------------------
 #t hf aug-cc-pvdz symm=none int=(grid=ultrafine) guess=(read,tcheck) s
 table=(opt,rrhf)
 ----------------------------------------------------------------------
 -----
 title
 -----
 Symbolic Z-matrix:
 Charge =  0 Multiplicity = 1

 SCF Done:  E(RHF) =  -859.827922780     A.U. after   13 cycles
 Normal termination of Gaussian 16 at Wed Apr  9 00:13:32 2025.
 Gaussian 16:  ES64L-G16RevC.01  3-Jul-2019

 ----------------------------------------------------------------------
 #t hf aug-cc-pvdz iop(5/13=1,5/36=2,99/5=2) pseudo=read geom=check gue
 ss=(read,tcheck) scf=(maxcycle=1)
 ----------------------------------------------------------------------
 -----
 title
 -----
 Structure from the checkpoint file:  "BDE49_nonexpt_2458_mol1.chk"
 Charge =  0 Multiplicity = 1

                         Standard orientation:
 ---------------------------------------------------------------------
 Center     Atomic      Atomic             Coordinates (Angstroms)
 Number     Number       Type             X           Y           Z
 ---------------------------------------------------------------------
      1         14           0       -1.071438   -1.268301   -0.495130
      2         14           0        1.075702   -1.220866    0.494567
      3          5           0        2.128748    0.479246   -0.005187
      4          1           0        1.815735   -2.465945    0.152631
      5          1           0        0.861656   -1.257314    1.971461
      6          8           0        1.490670    1.659695   -0.183736
      7          6           0        3.691567    0.447073   -0.180858
      8          1           0        3.969831   -0.231526   -0.997016
      9          1           0        4.183941    0.044092    0.712314
     10          1           0        4.108866    1.435442   -0.394937
     11          5           0       -2.118976    0.420130   -0.010539
     12          1           0       -1.841388   -2.485266   -0.121335
     13          1           0       -0.925462   -1.297033   -1.978880
     14          8           0       -1.350023    1.554354    0.099235
     15          6           0       -3.669447    0.475232    0.232157
     16          1           0       -4.210933    0.078665   -0.634391
     17          1           0       -4.062268    1.476735    0.448716
     18          1           0       -3.940720   -0.181148    1.067940
     19          1           0        0.524937    1.635617   -0.083944
     20          1           0       -1.850644    2.352914    0.312164
 ---------------------------------------------------------------------

 SCF Done:  E(RHF) =  -859.959584516     A.U. after    2 cycles

 The electronic state is 1-A.
 Alpha  occ. eigenvalues --  -69.03872 -69.03408 -20.61627 -20.56993 -11.22407
 Alpha  occ. eigenvalues --  -11.19489  -7.65193  -7.62586  -6.79448  -6.78971
 Alpha  occ. eigenvalues --   -3.90202  -3.90176  -3.90145  -3.89721  -3.89700
 Alpha  occ. eigenvalues --   -3.89642  -1.35644  -1.31221  -0.96066  -0.93340
 Alpha  occ. eigenvalues --   -0.80142  -0.76053  -0.71966  -0.66644  -0.65316
 Alpha  occ. eigenvalues --   -0.60147  -0.59694  -0.57555  -0.55909  -0.55311
 Alpha  occ. eigenvalues --   -0.54549  -0.52682  -0.51892  -0.50922  -0.47457
 Alpha  occ. eigenvalues --   -0.46444  -0.41957  -0.38781  -0.35455
 Alpha virt. eigenvalues --    0.02468   0.04259   0.04423   0.04668   0.05467
 Alpha virt. eigenvalues --    0.05828   0.06003   0.06638   0.07206   0.07638
 Alpha virt. eigenvalues --    0.07712   0.07983   0.08979   0.09117   0.09450

 Mulliken charges:
               1
     1  Si  -0.525649
     2  Si  -0.661365
     3  B    0.678706
     4  H    0.162556
     5  H    0.099456
     6  O   -0.477368
     7  C    0.506753
     8  H   -0.134225
     9  H   -0.120767
    10  H   -0.368557
    11  B    0.764379
    12  H    0.138347
    13  H    0.113260
    14  O   -0.509653
    15  C    0.486176
    16  H   -0.179355
    17  H   -0.354241
    18  H   -0.168401
    19  H    0.387417
    20  H    0.162532
 Sum of Mulliken charges =  -0.00000

 Dipole moment (field-independent basis, Debye):
    X=             -3.0955    Y=              1.1654    Z=              0.5652  Tot=              3.3556

 Test job not archived.
 1\1\GINC-SE368\SP\RHF\Aug-CC-pVDZ\C2H12B2O2Si2\OHZDE\09-Apr-2025\0\\#t
  hf aug-cc-pvdz iop(5/13=1,5/36=2,99/5=2) pseudo=read geom=check guess
 =(read,tcheck) scf=(maxcycle=1)\\title\\0,1\Si,0,-1.071438,-1.268301,-
 0.49513\Si,0,1.075702,-1.220866,0.494567\B,0,2.128748,0.479246,-0.0051
 87\H,0,1.815735,-2.465945,0.152631\H,0,0.861656,-1.257314,1.971461\O,0
 ,1.49067,1.659695,-0.183736\C,0,3.691567,0.447073,-0.180858\H,0,3.9698
 31,-0.231526,-0.997016\H,0,4.183941,0.044092,0.712314\H,0,4.108866,1.4
 35442,-0.394937\B,0,-2.118976,0.42013,-0.010539\H,0,-1.841388,-2.48526

 Normal termination of Gaussian 16 at Wed Apr  9 00:13:40 2025.
