 Gaussian 16, Revision C.01,

 ----------------------------------------------------------------------
 #t hf aug-cc-pvdz symm=none int=(grid=ultrafine) guess=(read,tcheck) s
 table=(opt,rrhf)
 ----------------------------------------------------------------------
 -----
 title
 -----
 Symbolic Z-matrix:
 Charge =  0 Multiplicity = 1

 SCF Done:  E(RHF) =  -754.923126990     A.U. after   15 cycles
 Normal termination of Gaussian 16 at Tue Apr  8 23:30:59 2025.
 Gaussian 16:  ES64L-G16RevC.01  3-Jul-2019

 ----------------------------------------------------------------------
 #t hf aug-cc-pvdz iop(5/13=1,5/36=2,99/5=2) pseudo=read geom=check gue
 ss=(read,tcheck) scf=(maxcycle=1)
 ----------------------------------------------------------------------
 -----
 title
 -----
 Structure from the checkpoint file:  "BDE49_nonexpt_1399_mol1.chk"
 Charge =  0 Multiplicity = 1

                         Standard orientation:
 ---------------------------------------------------------------------
 Center     Atomic      Atomic             Coordinates (Angstroms)
 Number     Number       Type             X           Y           Z
 ---------------------------------------------------------------------
      1          6           0        1.313352   -0.483755   -0.116141
      2         15           0        0.011924   -1.834847   -0.155255
      3          6           0       -1.294256   -0.520279    0.147119
      4          7           0       -0.706818    0.731165    0.098797
      5          7           0        0.692685    0.754790   -0.159320
      6          8           0       -2.487954   -0.702217    0.248252
      7          8           0        2.512869   -0.640281   -0.064091
      8          6           0        1.419667    1.930412    0.313925
      9          1           0        1.170505    2.808328   -0.282904
     10          1           0        2.477395    1.704366    0.199514
     11          1           0        1.198275    2.124695    1.368830
     12          6           0       -1.481612    1.890518   -0.329689
     13          1           0       -2.528600    1.612372   -0.228663
     14          1           0       -1.261785    2.136276   -1.373919
     15          1           0       -1.279489    2.756932    0.301832
     16          1           0        0.201539   -2.183343    1.203221
 ---------------------------------------------------------------------

 SCF Done:  E(RHF) =  -755.070590279     A.U. after    2 cycles

 The electronic state is 1-A.
 Alpha  occ. eigenvalues --  -81.29878 -20.57029 -20.56821 -15.71046 -15.70950
 Alpha  occ. eigenvalues --  -11.39292 -11.39261 -11.29431 -11.29327  -7.80377
 Alpha  occ. eigenvalues --   -4.94309  -4.94292  -4.94012  -1.39024  -1.37332
 Alpha  occ. eigenvalues --   -1.30915  -1.13973  -1.02362  -0.94235  -0.89355
 Alpha  occ. eigenvalues --   -0.81868  -0.74647  -0.69997  -0.69739  -0.67528
 Alpha  occ. eigenvalues --   -0.65211  -0.64190  -0.62754  -0.59723  -0.57610
 Alpha  occ. eigenvalues --   -0.57184  -0.57017  -0.56063  -0.48853  -0.48044
 Alpha  occ. eigenvalues --   -0.42076  -0.39889  -0.36154
 Alpha virt. eigenvalues --    0.02706   0.03967   0.04378   0.04422   0.06824
 Alpha virt. eigenvalues --    0.06874   0.07661   0.07760   0.08793   0.09142
 Alpha virt. eigenvalues --    0.09837   0.11377   0.12156   0.12523   0.12569

 Mulliken charges:
               1
     1  C    0.251325
     2  P    0.214934
     3  C    0.255400
     4  N   -0.437786
     5  N   -0.366232
     6  O   -0.497223
     7  O   -0.494146
     8  C    0.834615
     9  H   -0.142794
    10  H   -0.213138
    11  H   -0.059283
    12  C    0.842355
    13  H   -0.234179
    14  H   -0.052400
    15  H   -0.121035
    16  H    0.219587
 Sum of Mulliken charges =  -0.00000

 Dipole moment (field-independent basis, Debye):
    X=              0.0301    Y=              3.1856    Z=              0.1597  Tot=              3.1898

 Test job not archived.
 1\1\GINC-SE184\SP\RHF\Aug-CC-pVDZ\C4H7N2O2P1\OHZDE\08-Apr-2025\0\\#t h
 f aug-cc-pvdz iop(5/13=1,5/36=2,99/5=2) pseudo=read geom=check guess=(
 read,tcheck) scf=(maxcycle=1)\\title\\0,1\C,0,1.313352,-0.483756,-0.11
 6141\P,0,0.011923,-1.834847,-0.155255\C,0,-1.294256,-0.520278,0.147119
 \N,0,-0.706818,0.731165,0.098797\N,0,0.692685,0.75479,-0.15932\O,0,-2.
 487955,-0.702216,0.248252\O,0,2.512869,-0.640282,-0.064091\C,0,1.41966
 8,1.930411,0.313925\H,0,1.170506,2.808327,-0.282904\H,0,2.477396,1.704
 365,0.199514\H,0,1.198276,2.124694,1.36883\C,0,-1.481611,1.890519,-0.3

 Normal termination of Gaussian 16 at Tue Apr  8 23:31:07 2025.
