 Gaussian 16, Revision C.01,

 ----------------------------------------------------------------------
 #t hf aug-cc-pvdz symm=none int=(grid=ultrafine) guess=(read,tcheck) s
 table=(opt,rrhf)
 ----------------------------------------------------------------------
 -----
 title
 -----
 Symbolic Z-matrix:
 Charge =  0 Multiplicity = 1

 SCF Done:  E(RHF) =  -498.080165931     A.U. after   13 cycles
 Normal termination of Gaussian 16 at Tue Apr  8 23:56:24 2025.
 Gaussian 16:  ES64L-G16RevC.01  3-Jul-2019

 ----------------------------------------------------------------------
 #t hf aug-cc-pvdz iop(5/13=1,5/36=2,99/5=2) pseudo=read geom=check gue
 ss=(read,tcheck) scf=(maxcycle=1)
 ----------------------------------------------------------------------
 -----
 title
 -----
 Structure from the checkpoint file:  "BDE49_nonexpt_2048_mol1.chk"
 Charge =  0 Multiplicity = 1

                         Standard orientation:
 ---------------------------------------------------------------------
 Center     Atomic      Atomic             Coordinates (Angstroms)
 Number     Number       Type             X           Y           Z
 ---------------------------------------------------------------------
      1         14           0        1.821647   -0.286671    0.000001
      2          6           0       -0.009294    0.296148   -0.000037
      3          8           0       -0.221046    1.501718    0.000014
      4          7           0       -1.000230   -0.643278   -0.000008
      5          6           0       -2.416618   -0.300909    0.000013
      6          1           0       -0.735155   -1.615493    0.000003
      7          1           0       -2.488141    0.785321   -0.000001
      8          1           0       -2.915852   -0.692898    0.890455
      9          1           0       -2.915885   -0.692922   -0.890401
     10          1           0        2.468536    0.257841    1.211215
     11          1           0        2.468574    0.257840   -1.211192
     12          1           0        1.940308   -1.768521    0.000002
 ---------------------------------------------------------------------

 SCF Done:  E(RHF) =  -498.169475845     A.U. after    2 cycles

 The electronic state is 1-A.
 Alpha  occ. eigenvalues --  -69.07906 -20.53957 -15.65862 -11.35202 -11.27475
 Alpha  occ. eigenvalues --   -6.83259  -3.94046  -3.94019  -3.94000  -1.34235
 Alpha  occ. eigenvalues --   -1.19741  -0.95800  -0.79992  -0.75868  -0.65928
 Alpha  occ. eigenvalues --   -0.64969  -0.62715  -0.56534  -0.55297  -0.55188
 Alpha  occ. eigenvalues --   -0.49407  -0.48784  -0.40873  -0.39796
 Alpha virt. eigenvalues --    0.02799   0.04021   0.04549   0.05184   0.06392
 Alpha virt. eigenvalues --    0.06861   0.07385   0.08198   0.09366   0.09899
 Alpha virt. eigenvalues --    0.11905   0.12630   0.14143   0.14445   0.14540

 Mulliken charges:
               1
     1  Si   0.319316
     2  C    0.279547
     3  O   -0.544802
     4  N   -0.290134
     5  C    0.782101
     6  H   -0.085077
     7  H   -0.161015
     8  H   -0.111248
     9  H   -0.111239
    10  H   -0.014728
    11  H   -0.014720
    12  H   -0.048001
 Sum of Mulliken charges =   0.00000

 Dipole moment (field-independent basis, Debye):
    X=             -0.6227    Y=             -4.0380    Z=             -0.0000  Tot=              4.0857

 Test job not archived.
 1\1\GINC-SE365\SP\RHF\Aug-CC-pVDZ\C2H7N1O1Si1\OHZDE\08-Apr-2025\0\\#t
 hf aug-cc-pvdz iop(5/13=1,5/36=2,99/5=2) pseudo=read geom=check guess=
 (read,tcheck) scf=(maxcycle=1)\\title\\0,1\Si,0,-1.821647,-0.286671,-0
 .000001\C,0,0.009294,0.296148,0.000037\O,0,0.221046,1.501718,-0.000014
 \N,0,1.00023,-0.643278,0.000008\C,0,2.416618,-0.300909,-0.000013\H,0,0
 .735155,-1.615493,-0.000003\H,0,2.488141,0.785321,0.000001\H,0,2.91585
 2,-0.692898,-0.890455\H,0,2.915885,-0.692922,0.890401\H,0,-2.468536,0.
 257841,-1.211215\H,0,-2.468574,0.25784,1.211192\H,0,-1.940308,-1.76852

 Normal termination of Gaussian 16 at Tue Apr  8 23:56:28 2025.
