 Gaussian 16, Revision C.01,

 ----------------------------------------------------------------------
 #t hf aug-cc-pvdz symm=none int=(grid=ultrafine) guess=(read,tcheck) s
 table=(opt,rrhf)
 ----------------------------------------------------------------------
 -----
 title
 -----
 Symbolic Z-matrix:
 Charge =  0 Multiplicity = 1

 SCF Done:  E(RHF) =  -1038.49249369     A.U. after   12 cycles
 Normal termination of Gaussian 16 at Tue Apr  8 23:40:11 2025.
 Gaussian 16:  ES64L-G16RevC.01  3-Jul-2019

 ----------------------------------------------------------------------
 #t hf aug-cc-pvdz iop(5/13=1,5/36=2,99/5=2) pseudo=read geom=check gue
 ss=(read,tcheck) scf=(maxcycle=1)
 ----------------------------------------------------------------------
 -----
 title
 -----
 Structure from the checkpoint file:  "BDE49_nonexpt_164_mol1.chk"
 Charge =  0 Multiplicity = 1

                         Standard orientation:
 ---------------------------------------------------------------------
 Center     Atomic      Atomic             Coordinates (Angstroms)
 Number     Number       Type             X           Y           Z
 ---------------------------------------------------------------------
      1         17           0       -1.836753   -0.650681    0.000010
      2         17           0        0.183248    1.651500    0.000004
      3          7           0        0.879929   -1.038326   -0.000013
      4          5           0       -0.137999   -0.099711   -0.000028
      5          6           0        2.323457   -0.824027   -0.000002
      6          1           0        0.600788   -2.009891   -0.000006
      7          1           0        2.534012    0.243445   -0.000015
      8          1           0        2.782277   -1.268256   -0.888033
      9          1           0        2.782261   -1.268232    0.888050
 ---------------------------------------------------------------------

 SCF Done:  E(RHF) =  -1038.56646661     A.U. after    2 cycles

 The electronic state is 1-A.
 Alpha  occ. eigenvalues -- -103.65844-103.65603 -15.64822 -11.28511 -10.69319
 Alpha  occ. eigenvalues --  -10.69060  -8.35014  -8.34787  -8.34777  -8.34759
 Alpha  occ. eigenvalues --   -8.34531  -8.34521  -7.72448  -1.20073  -1.15008
 Alpha  occ. eigenvalues --   -1.13310  -0.93647  -0.74259  -0.66191  -0.62424
 Alpha  occ. eigenvalues --   -0.62110  -0.55656  -0.54730  -0.52281  -0.48724
 Alpha  occ. eigenvalues --   -0.47284  -0.45911  -0.41329
 Alpha virt. eigenvalues --    0.02924   0.04597   0.04803   0.05637   0.07481
 Alpha virt. eigenvalues --    0.07761   0.07798   0.09041   0.13037   0.14008
 Alpha virt. eigenvalues --    0.14396   0.14776   0.15047   0.16872   0.16988

 Mulliken charges:
               1
     1  Cl  -0.384252
     2  Cl  -0.336362
     3  N   -0.114627
     4  B    0.540033
     5  C    0.758889
     6  H   -0.030969
     7  H   -0.198804
     8  H   -0.116954
     9  H   -0.116954
 Sum of Mulliken charges =   0.00000

 Dipole moment (field-independent basis, Debye):
    X=              2.6183    Y=             -2.0436    Z=             -0.0000  Tot=              3.3214

 Test job not archived.
 1\1\GINC-SE108\SP\RHF\Aug-CC-pVDZ\C1H4B1Cl2N1\OHZDE\08-Apr-2025\0\\#t
 hf aug-cc-pvdz iop(5/13=1,5/36=2,99/5=2) pseudo=read geom=check guess=
 (read,tcheck) scf=(maxcycle=1)\\title\\0,1\Cl,0,-1.836753,-0.65068,0.0
 0001\Cl,0,0.183248,1.6515,0.000004\N,0,0.879929,-1.038326,-0.000013\B,
 0,-0.137999,-0.099711,-0.000028\C,0,2.323457,-0.824027,-0.000002\H,0,0
 .600788,-2.009891,-0.000006\H,0,2.534012,0.243445,-0.000015\H,0,2.7822
 77,-1.268257,-0.888033\H,0,2.782261,-1.268233,0.88805\\Version=ES64L-G
 16RevC.01\State=1-A\HF=-1038.5664666\RMSD=2.331e-03\Dipole=1.030101,-0

 Normal termination of Gaussian 16 at Tue Apr  8 23:40:14 2025.
