 Gaussian 16, Revision C.01,

 ----------------------------------------------------------------------
 #t hf aug-cc-pvdz symm=none int=(grid=ultrafine) guess=(read,tcheck) s
 table=(opt,rrhf)
 ----------------------------------------------------------------------
 -----
 title
 -----
 Symbolic Z-matrix:
 Charge =  0 Multiplicity = 1

 SCF Done:  E(RHF) =  -1158.60377779     A.U. after   15 cycles
 Normal termination of Gaussian 16 at Wed Apr  9 00:21:18 2025.
 Gaussian 16:  ES64L-G16RevC.01  3-Jul-2019

 ----------------------------------------------------------------------
 #t hf aug-cc-pvdz iop(5/13=1,5/36=2,99/5=2) pseudo=read geom=check gue
 ss=(read,tcheck) scf=(maxcycle=1)
 ----------------------------------------------------------------------
 -----
 title
 -----
 Structure from the checkpoint file:  "BDE49_nonexpt_2670_mol1.chk"
 Charge =  0 Multiplicity = 1

                         Standard orientation:
 ---------------------------------------------------------------------
 Center     Atomic      Atomic             Coordinates (Angstroms)
 Number     Number       Type             X           Y           Z
 ---------------------------------------------------------------------
      1          9           0       -1.847117    1.166396    0.375458
      2         16           0       -1.550313   -0.260185   -0.428380
      3         16           0        0.458528   -0.597689    0.154085
      4          8           0        0.690696   -1.891287   -0.415606
      5          8           0        1.325557    0.423731   -0.722888
      6          6           0        1.429199    1.805729   -0.276073
      7          1           0        2.187016    2.243006   -0.921454
      8          1           0        1.740477    1.839038    0.766572
      9          1           0        0.474022    2.313558   -0.411856
     10          8           0        0.623236   -0.282638    1.542589
 ---------------------------------------------------------------------

 SCF Done:  E(RHF) =  -1158.83049869     A.U. after    2 cycles

 The electronic state is 1-A.
 Alpha  occ. eigenvalues --  -93.86893 -93.67715 -26.17241 -20.66527 -20.61111
 Alpha  occ. eigenvalues --  -20.60874 -11.33465  -9.12845  -8.96577  -6.47491
 Alpha  occ. eigenvalues --   -6.47387  -6.47219  -6.30684  -6.30340  -6.29862
 Alpha  occ. eigenvalues --   -1.68267  -1.50415  -1.38340  -1.36517  -1.04799
 Alpha  occ. eigenvalues --   -1.00269  -0.86921  -0.79611  -0.77746  -0.76816
 Alpha  occ. eigenvalues --   -0.75072  -0.72658  -0.69951  -0.66446  -0.64975
 Alpha  occ. eigenvalues --   -0.60489  -0.57020  -0.56263  -0.54900  -0.54102
 Alpha  occ. eigenvalues --   -0.48987  -0.43814
 Alpha virt. eigenvalues --    0.02702   0.03507   0.05660   0.05803   0.05917
 Alpha virt. eigenvalues --    0.08675   0.09994   0.10994   0.12041   0.12911
 Alpha virt. eigenvalues --    0.13097   0.14605   0.15140   0.15592   0.16460

 Mulliken charges:
               1
     1  F   -0.599747
     2  S    0.704070
     3  S    2.307614
     4  O   -0.887200
     5  O   -0.931023
     6  C    0.680642
     7  H   -0.178314
     8  H   -0.058399
     9  H   -0.063502
    10  O   -0.974141
 Sum of Mulliken charges =  -0.00000

 Dipole moment (field-independent basis, Debye):
    X=             -0.2524    Y=              2.9067    Z=             -1.7134  Tot=              3.3835

 Test job not archived.
 1\1\GINC-SE044\SP\RHF\Aug-CC-pVDZ\C1H3F1O3S2\OHZDE\09-Apr-2025\0\\#t h
 f aug-cc-pvdz iop(5/13=1,5/36=2,99/5=2) pseudo=read geom=check guess=(
 read,tcheck) scf=(maxcycle=1)\\title\\0,1\F,0,-1.847117,1.166396,0.375
 458\S,0,-1.550313,-0.260185,-0.42838\S,0,0.458528,-0.597689,0.154085\O
 ,0,0.690696,-1.891287,-0.415606\O,0,1.325557,0.423731,-0.722888\C,0,1.
 429199,1.805729,-0.276073\H,0,2.187016,2.243006,-0.921454\H,0,1.740477
 ,1.839038,0.766572\H,0,0.474022,2.313558,-0.411856\O,0,0.623236,-0.282
 638,1.542589\\Version=ES64L-G16RevC.01\State=1-A\HF=-1158.8304987\RMSD

 Normal termination of Gaussian 16 at Wed Apr  9 00:21:22 2025.
