 Gaussian 16, Revision C.01,

 ----------------------------------------------------------------------
 #t hf aug-cc-pvdz symm=none int=(grid=ultrafine) guess=(read,tcheck) s
 table=opt
 ----------------------------------------------------------------------
 -----
 title
 -----
 Symbolic Z-matrix:
 Charge =  0 Multiplicity = 2

 SCF Done:  E(UHF) =  -441.292284130     A.U. after   16 cycles
 Normal termination of Gaussian 16 at Wed Apr  9 00:16:42 2025.
 Gaussian 16:  ES64L-G16RevC.01  3-Jul-2019

 ----------------------------------------------------------------------
 #t hf aug-cc-pvdz iop(5/13=1,5/36=2,99/5=2) pseudo=read geom=check gue
 ss=(read,tcheck) scf=(maxcycle=1)
 ----------------------------------------------------------------------
 -----
 title
 -----
 Structure from the checkpoint file:  "BDE49_nonexpt_255_mol2.chk"
 Charge =  0 Multiplicity = 2

                         Standard orientation:
 ---------------------------------------------------------------------
 Center     Atomic      Atomic             Coordinates (Angstroms)
 Number     Number       Type             X           Y           Z
 ---------------------------------------------------------------------
      1          6           0        1.636268   -0.047994    0.399227
      2          8           0        1.188004    1.028202   -0.372723
      3          6           0       -0.000037    1.662965    0.033527
      4          8           0       -1.188059    1.028162   -0.372707
      5          6           0       -1.636259   -0.048069    0.399235
      6          8           0       -1.233944   -1.322628   -0.105238
      7          5           0        0.000041   -1.824541   -0.315116
      8          8           0        1.234002   -1.322581   -0.105215
      9          1           0       -0.000057    2.629602   -0.464593
     10          1           0       -0.000031    1.785817    1.128479
     11          1           0       -2.722672   -0.049087    0.340710
     12          1           0       -1.310690    0.057302    1.442717
     13          1           0        1.310714    0.057378    1.442713
     14          1           0        2.722680   -0.048964    0.340681
 ---------------------------------------------------------------------

 SCF Done:  E(UHF) =  -441.442275127     A.U. after    2 cycles

 The electronic state is 2-A.
 Alpha  occ. eigenvalues --  -20.60726 -20.60724 -20.59218 -20.59217 -11.37370
 Alpha  occ. eigenvalues --  -11.37369 -11.36986  -7.68645  -1.41975  -1.37417
 Alpha  occ. eigenvalues --   -1.34857  -1.30973  -1.02077  -0.95017  -0.89391
 Alpha  occ. eigenvalues --   -0.79282  -0.74870  -0.74536  -0.73259  -0.69188
 Alpha  occ. eigenvalues --   -0.68259  -0.65784  -0.61212  -0.58073  -0.54273
 Alpha  occ. eigenvalues --   -0.53507  -0.53211  -0.51322  -0.50252  -0.47919
 Alpha  occ. eigenvalues --   -0.33406
 Alpha virt. eigenvalues --    0.02844   0.04339   0.04388   0.04979   0.06035
 Alpha virt. eigenvalues --    0.06721   0.06778   0.07554   0.07897   0.10669
 Alpha virt. eigenvalues --    0.11752   0.12504   0.13654   0.14071   0.14217

  Beta  occ. eigenvalues --  -20.60716 -20.60713 -20.59076 -20.59075 -11.37211
  Beta  occ. eigenvalues --  -11.37209 -11.36987  -7.66475  -1.41852  -1.37231
  Beta  occ. eigenvalues --   -1.34358  -1.30659  -1.01590  -0.94336  -0.88833
  Beta  occ. eigenvalues --   -0.78662  -0.74707  -0.73867  -0.72813  -0.69066
  Beta  occ. eigenvalues --   -0.67963  -0.64963  -0.60690  -0.58097  -0.53998
  Beta  occ. eigenvalues --   -0.53245  -0.52934  -0.51139  -0.50071  -0.48003
  Beta virt. eigenvalues --    0.02864   0.04344   0.04403   0.04733   0.05821
  Beta virt. eigenvalues --    0.06332   0.06802   0.07747   0.07946   0.10369
  Beta virt. eigenvalues --    0.10679   0.12605   0.13132   0.14075   0.14232

 Mulliken charges and spin densities:
               1          2
     1  C    1.181670   0.046489
     2  O   -0.620197   0.001419
     3  C    1.019191  -0.007786
     4  O   -0.620195   0.001419
     5  C    1.181677   0.046489
     6  O   -0.332754  -0.111667
     7  B   -0.050188   1.147589
     8  O   -0.332753  -0.111668
     9  H   -0.325436  -0.000346
    10  H   -0.029676   0.001260
    11  H   -0.361012  -0.000612
    12  H   -0.174660  -0.005986
    13  H   -0.174660  -0.005986
    14  H   -0.361008  -0.000612
 Sum of Mulliken charges =  -0.00000   1.00000

 Dipole moment (field-independent basis, Debye):
    X=             -0.0000    Y=              2.6823    Z=              3.6032  Tot=              4.4920
                          Isotropic Fermi Contact Couplings
        Atom                 a.u.       MegaHertz       Gauss      10(-4) cm-1
     1  C(13)              0.02863      32.18568      11.48465      10.73599
     2  O(17)              0.00083      -0.50370      -0.17973      -0.16802
     3  C(13)             -0.00019      -0.21073      -0.07520      -0.07029
     4  O(17)              0.00083      -0.50373      -0.17974      -0.16803
     5  C(13)              0.02863      32.18587      11.48472      10.73605
     6  O(17)              0.17352    -105.18883     -37.53399     -35.08722
     7  B(11)              0.45241     648.91698     231.54972     216.45541
     8  O(17)              0.17352    -105.18893     -37.53403     -35.08725

 Normal termination of Gaussian 16 at Wed Apr  9 00:16:48 2025.
