 Gaussian 16, Revision C.01,

 ----------------------------------------------------------------------
 #t hf aug-cc-pvdz symm=none int=(grid=ultrafine) guess=(read,tcheck) s
 table=(opt,rrhf)
 ----------------------------------------------------------------------
 -----
 title
 -----
 Symbolic Z-matrix:
 Charge =  0 Multiplicity = 1

 SCF Done:  E(RHF) =  -393.591549810     A.U. after   13 cycles
 Normal termination of Gaussian 16 at Wed Apr  9 00:44:57 2025.
 Gaussian 16:  ES64L-G16RevC.01  3-Jul-2019

 ----------------------------------------------------------------------
 #t hf aug-cc-pvdz iop(5/13=1,5/36=2,99/5=2) pseudo=read geom=check gue
 ss=(read,tcheck) scf=(maxcycle=1)
 ----------------------------------------------------------------------
 -----
 title
 -----
 Structure from the checkpoint file:  "BDE49_nonexpt_72_mol1.chk"
 Charge =  0 Multiplicity = 1

                         Standard orientation:
 ---------------------------------------------------------------------
 Center     Atomic      Atomic             Coordinates (Angstroms)
 Number     Number       Type             X           Y           Z
 ---------------------------------------------------------------------
      1          5           0       -0.711553   -1.154200   -0.406063
      2          5           0        0.711598   -1.154237    0.405943
      3          6           0        2.013007   -0.348823    0.008677
      4          7           0        2.344174    0.819655    0.391147
      5          6           0       -2.012976   -0.348861   -0.008689
      6          7           0       -2.344216    0.819619   -0.391092
      7          6           0        2.956499   -1.100442   -0.913155
      8          1           0        2.474616   -1.334900   -1.868470
      9          1           0        3.270961   -2.050541   -0.467544
     10          1           0        3.835887   -0.481081   -1.096170
     11          6           0       -2.956385   -1.100562    0.913161
     12          1           0       -2.474441   -1.335039    1.868440
     13          1           0       -3.270828   -2.050655    0.467526
     14          1           0       -3.835791   -0.481249    1.096249
     15          6           0        1.454510    1.540083    1.290366
     16          1           0        1.959783    1.689520    2.249906
     17          1           0        0.486439    1.048597    1.483062
     18          1           0        1.254178    2.533626    0.879197
     19          6           0       -1.454636    1.540125   -1.290331
     20          1           0       -1.959971    1.689580   -2.249835
     21          1           0       -0.486553    1.048691   -1.483104
     22          1           0       -1.254325    2.533660   -0.879131
     23          1           0        0.822969   -1.916034    1.328511
     24          1           0       -0.822972   -1.916029   -1.328598
 ---------------------------------------------------------------------

 SCF Done:  E(RHF) =  -393.710107847     A.U. after    2 cycles

 The electronic state is 1-A.
 Alpha  occ. eigenvalues --  -15.61603 -15.61603 -11.27641 -11.27641 -11.25861
 Alpha  occ. eigenvalues --  -11.25860 -11.23917 -11.23917  -7.61959  -7.61867
 Alpha  occ. eigenvalues --   -1.19229  -1.19001  -1.00740  -1.00574  -0.91063
 Alpha  occ. eigenvalues --   -0.90914  -0.80639  -0.76078  -0.68087  -0.65544
 Alpha  occ. eigenvalues --   -0.61984  -0.61676  -0.60636  -0.60316  -0.60218
 Alpha  occ. eigenvalues --   -0.57255  -0.57255  -0.56232  -0.53602  -0.53181
 Alpha  occ. eigenvalues --   -0.50604  -0.50589  -0.48187  -0.39936  -0.38312
 Alpha  occ. eigenvalues --   -0.38076  -0.37069
 Alpha virt. eigenvalues --    0.02589   0.03596   0.03876   0.04056   0.05284
 Alpha virt. eigenvalues --    0.05611   0.05983   0.06281   0.06315   0.07324
 Alpha virt. eigenvalues --    0.07459   0.08204   0.08242   0.08332   0.08964

 Mulliken charges:
               1
     1  B   -0.118201
     2  B   -0.118241
     3  C   -0.026066
     4  N   -0.665565
     5  C   -0.026060
     6  N   -0.665556
     7  C    0.241967
     8  H    0.019612
     9  H    0.022643
    10  H   -0.109665
    11  C    0.241945
    12  H    0.019612
    13  H    0.022641
    14  H   -0.109666
    15  C    0.931417
    16  H   -0.135321
    17  H   -0.264575
    18  H   -0.190822
    19  C    0.931383
    20  H   -0.135329
    21  H   -0.264545
    22  H   -0.190816
    23  H    0.294617
    24  H    0.294592
 Sum of Mulliken charges =  -0.00000

 Dipole moment (field-independent basis, Debye):
    X=              0.0000    Y=             -2.2238    Z=             -0.0002  Tot=              2.2238

 Test job not archived.
 1\1\GINC-SE054\SP\RHF\Aug-CC-pVDZ\C6H14B2N2\OHZDE\09-Apr-2025\0\\#t hf
  aug-cc-pvdz iop(5/13=1,5/36=2,99/5=2) pseudo=read geom=check guess=(r
 ead,tcheck) scf=(maxcycle=1)\\title\\0,1\B,0,-0.711553,-1.1542,-0.4060
 63\B,0,0.711598,-1.154237,0.405943\C,0,2.013007,-0.348823,0.008677\N,0
 ,2.344174,0.819655,0.391147\C,0,-2.012976,-0.348861,-0.008689\N,0,-2.3
 44216,0.819619,-0.391092\C,0,2.956499,-1.100442,-0.913155\H,0,2.474616
 ,-1.3349,-1.86847\H,0,3.270961,-2.050541,-0.467544\H,0,3.835887,-0.481
 081,-1.09617\C,0,-2.956385,-1.100562,0.913161\H,0,-2.474441,-1.335039,

 Normal termination of Gaussian 16 at Wed Apr  9 00:45:13 2025.
