 Gaussian 16, Revision C.01,

 ----------------------------------------------------------------------
 #t hf aug-cc-pvdz symm=none int=(grid=ultrafine) guess=(read,tcheck) s
 table=(opt,rrhf)
 ----------------------------------------------------------------------
 -----
 title
 -----
 Symbolic Z-matrix:
 Charge =  0 Multiplicity = 1

 SCF Done:  E(RHF) =  -877.301807102     A.U. after   16 cycles
 Normal termination of Gaussian 16 at Tue Apr  8 23:07:46 2025.
 Gaussian 16:  ES64L-G16RevC.01  3-Jul-2019

 ----------------------------------------------------------------------
 #t hf aug-cc-pvdz iop(5/13=1,5/36=2,99/5=2) pseudo=read geom=check gue
 ss=(read,tcheck) scf=(maxcycle=1)
 ----------------------------------------------------------------------
 -----
 title
 -----
 Structure from the checkpoint file:  "BDE49_expt_606_mol1.chk"
 Charge =  0 Multiplicity = 1

                         Standard orientation:
 ---------------------------------------------------------------------
 Center     Atomic      Atomic             Coordinates (Angstroms)
 Number     Number       Type             X           Y           Z
 ---------------------------------------------------------------------
      1          6           0       -1.451455   -0.007518    0.000001
      2          6           0       -1.582379    1.378433    0.000045
      3          6           0       -0.434299    2.168497    0.000028
      4          6           0        2.309091   -0.401340   -0.000154
      5          8           0        3.332502    0.238418    0.000041
      6          8           0        2.299339   -1.755404    0.000073
      7          1           0        3.226318   -2.034942    0.000200
      8          6           0       -0.203484   -0.616722   -0.000058
      9          6           0        0.824610    1.580137   -0.000031
     10          6           0        0.940486    0.187306   -0.000078
     11          1           0       -0.530180    3.247788    0.000061
     12          1           0        1.727109    2.177521   -0.000047
     13          1           0       -0.116714   -1.693746   -0.000093
     14         17           0       -2.894666   -1.007098    0.000021
     15          1           0       -2.567359    1.827176    0.000091
 ---------------------------------------------------------------------

 SCF Done:  E(RHF) =  -877.446175467     A.U. after    2 cycles

 The electronic state is 1-A.
 Alpha  occ. eigenvalues -- -103.67598 -20.63674 -20.57470 -11.41559 -11.32697
 Alpha  occ. eigenvalues --  -11.28226 -11.28181 -11.28114 -11.27436 -11.27212
 Alpha  occ. eigenvalues --  -10.70862  -8.36599  -8.36293  -8.36273  -1.43763
 Alpha  occ. eigenvalues --   -1.33835  -1.21220  -1.15233  -1.05941  -1.02243
 Alpha  occ. eigenvalues --   -0.92149  -0.86028  -0.81341  -0.74790  -0.73176
 Alpha  occ. eigenvalues --   -0.69941  -0.66686  -0.66090  -0.65097  -0.61360
 Alpha  occ. eigenvalues --   -0.61092  -0.56300  -0.55427  -0.53112  -0.51947
 Alpha  occ. eigenvalues --   -0.49149  -0.48768  -0.47471  -0.37479  -0.35721
 Alpha virt. eigenvalues --    0.03122   0.03626   0.04732   0.05255   0.05756
 Alpha virt. eigenvalues --    0.06435   0.08269   0.09105   0.09342   0.10684
 Alpha virt. eigenvalues --    0.10856   0.12460   0.12549   0.13162   0.13679

 Mulliken charges:
               1
     1  C   -0.353928
     2  C    0.520301
     3  C    0.827351
     4  C    0.073015
     5  O   -0.472469
     6  O   -0.593025
     7  H    0.262981
     8  C    0.774268
     9  C    0.009294
    10  C    1.222206
    11  H   -0.416193
    12  H   -0.593870
    13  H   -0.455180
    14  Cl  -0.383621
    15  H   -0.421130
 Sum of Mulliken charges =  -0.00000

 Dipole moment (field-independent basis, Debye):
    X=             -0.5798    Y=              0.4865    Z=             -0.0002  Tot=              0.7569

 Test job not archived.
 1\1\GINC-SE249\SP\RHF\Aug-CC-pVDZ\C7H5Cl1O2\OHZDE\08-Apr-2025\0\\#t hf
  aug-cc-pvdz iop(5/13=1,5/36=2,99/5=2) pseudo=read geom=check guess=(r
 ead,tcheck) scf=(maxcycle=1)\\title\\0,1\C,0,1.451455,-0.007518,-0.000
 001\C,0,1.582379,1.378433,-0.000045\C,0,0.434299,2.168497,-0.000028\C,
 0,-2.309091,-0.40134,0.000154\O,0,-3.332502,0.238418,-0.000041\O,0,-2.
 299339,-1.755404,-0.000073\H,0,-3.226318,-2.034942,-0.0002\C,0,0.20348
 4,-0.616722,0.000058\C,0,-0.82461,1.580137,0.000031\C,0,-0.940486,0.18
 7306,0.000078\H,0,0.53018,3.247788,-0.000061\H,0,-1.727109,2.177521,0.

 Normal termination of Gaussian 16 at Tue Apr  8 23:07:54 2025.
