 Gaussian 16, Revision C.01,

 ----------------------------------------------------------------------
 #t hf aug-cc-pvdz symm=none int=(grid=ultrafine) guess=(read,tcheck) s
 table=opt
 ----------------------------------------------------------------------
 -----
 title
 -----
 Symbolic Z-matrix:
 Charge =  0 Multiplicity = 2

 SCF Done:  E(UHF) =  -175.646911763     A.U. after   14 cycles
 Normal termination of Gaussian 16 at Wed Apr  9 00:24:38 2025.
 Gaussian 16:  ES64L-G16RevC.01  3-Jul-2019

 ----------------------------------------------------------------------
 #t hf aug-cc-pvdz iop(5/13=1,5/36=2,99/5=2) pseudo=read geom=check gue
 ss=(read,tcheck) scf=(maxcycle=1)
 ----------------------------------------------------------------------
 -----
 title
 -----
 Structure from the checkpoint file:  "BDE49_nonexpt_291_mol3.chk"
 Charge =  0 Multiplicity = 2

                         Standard orientation:
 ---------------------------------------------------------------------
 Center     Atomic      Atomic             Coordinates (Angstroms)
 Number     Number       Type             X           Y           Z
 ---------------------------------------------------------------------
      1          5           0       -0.000779   -0.521477   -0.000010
      2          8           0        1.229050    0.020232    0.000001
      3          8           0       -1.138680    0.220768    0.000004
      4          1           0       -1.938599   -0.310807   -0.000006
      5          1           0        1.219540    0.990193    0.000019
 ---------------------------------------------------------------------

 SCF Done:  E(UHF) =  -175.711331036     A.U. after    2 cycles

 The electronic state is 2-A.
 Alpha  occ. eigenvalues --  -20.60223 -20.59453  -7.69039  -1.36271  -1.32891
 Alpha  occ. eigenvalues --   -0.80080  -0.76774  -0.65344  -0.60388  -0.60112
 Alpha  occ. eigenvalues --   -0.53413  -0.35686
 Alpha virt. eigenvalues --    0.03738   0.05007   0.05629   0.06224   0.07968
 Alpha virt. eigenvalues --    0.10447   0.16538   0.17952   0.20015   0.20963
 Alpha virt. eigenvalues --    0.21015   0.22972   0.24170   0.26297   0.26976

  Beta  occ. eigenvalues --  -20.59951 -20.59334  -7.67024  -1.35322  -1.32199
  Beta  occ. eigenvalues --   -0.79005  -0.75252  -0.61921  -0.60219  -0.59691
  Beta  occ. eigenvalues --   -0.53959
  Beta virt. eigenvalues --    0.02701   0.05143   0.05858   0.05943   0.07869
  Beta virt. eigenvalues --    0.08472   0.15733   0.19019   0.20496   0.20984
  Beta virt. eigenvalues --    0.21189   0.21406   0.23066   0.24294   0.27383

 Mulliken charges and spin densities:
               1          2
     1  B    0.285717   1.018820
     2  O   -0.367697  -0.038101
     3  O   -0.345697   0.012963
     4  H    0.240714  -0.021457
     5  H    0.186963   0.027774
 Sum of Mulliken charges =  -0.00000   1.00000

 Dipole moment (field-independent basis, Debye):
    X=             -1.4835    Y=              0.6000    Z=              0.0000  Tot=              1.6002
                          Isotropic Fermi Contact Couplings
        Atom                 a.u.       MegaHertz       Gauss      10(-4) cm-1
     1  B(11)              0.40257     577.42682     206.04025     192.60885
     2  O(17)              0.15221     -92.26701     -32.92316     -30.77696
     3  O(17)              0.03864     -23.42594      -8.35896      -7.81405
     4  H(1)               0.00184       8.22292       2.93414       2.74287
     5  H(1)               0.01276      57.03737      20.35235      19.02562
 --------------------------------------------------------
       Center         ----  Spin Dipole Couplings  ----
                      3XX-RR        3YY-RR        3ZZ-RR

 Normal termination of Gaussian 16 at Wed Apr  9 00:24:39 2025.
