 Gaussian 16, Revision C.01,

 ----------------------------------------------------------------------
 #t hf aug-cc-pvdz symm=none int=(grid=ultrafine) guess=(read,tcheck) s
 table=opt
 ----------------------------------------------------------------------
 -----
 title
 -----
 Symbolic Z-matrix:
 Charge =  0 Multiplicity = 2

 SCF Done:  E(UHF) =  -535.898567685     A.U. after   17 cycles

 1\1\GINC-SE333\Stability\UHF\Aug-CC-pVDZ\C5H10P1\OHZDE\08-Apr-2025\0\\
 #t hf aug-cc-pvdz symm=none int=(grid=ultrafine) guess=(read,tcheck) s
 table=opt\\title\\0,2\C,0,-0.389839,-0.000051,-0.404275\C,0,0.409525,-
 1.203712,0.144217\C,0,0.409494,1.203768,0.143943\C,0,1.889853,0.778633
 ,-0.006984\H,0,0.162361,1.347955,1.201209\H,0,0.178322,2.136875,-0.374
 144\C,0,1.889807,-0.778657,-0.007302\H,0,2.506238,1.191635,0.794677\H,
 0,2.297818,1.158755,-0.947043\H,0,2.506657,-1.192073,0.793788\H,0,2.29
 7143,-1.158389,-0.947797\H,0,0.178187,-2.13702,-0.373435\H,0,0.162667,

 Normal termination of Gaussian 16 at Tue Apr  8 23:35:48 2025.
 Gaussian 16:  ES64L-G16RevC.01  3-Jul-2019

 ----------------------------------------------------------------------
 #t hf aug-cc-pvdz iop(5/13=1,5/36=2,99/5=2) pseudo=read geom=check gue
 ss=(read,tcheck) scf=(maxcycle=1)
 ----------------------------------------------------------------------
 -----
 title
 -----
 Structure from the checkpoint file:  "BDE49_nonexpt_1528_mol2.chk"
 Charge =  0 Multiplicity = 2

                         Standard orientation:
 ---------------------------------------------------------------------
 Center     Atomic      Atomic             Coordinates (Angstroms)
 Number     Number       Type             X           Y           Z
 ---------------------------------------------------------------------
      1          6           0       -0.389839   -0.000051   -0.404275
      2          6           0        0.409525   -1.203712    0.144217
      3          6           0        0.409494    1.203768    0.143943
      4          6           0        1.889853    0.778633   -0.006984
      5          1           0        0.162361    1.347955    1.201209
      6          1           0        0.178322    2.136875   -0.374144
      7          6           0        1.889807   -0.778657   -0.007302
      8          1           0        2.506238    1.191635    0.794677
      9          1           0        2.297818    1.158755   -0.947043
     10          1           0        2.506657   -1.192073    0.793788
     11          1           0        2.297143   -1.158389   -0.947797
     12          1           0        0.178187   -2.137020   -0.373435
     13          1           0        0.162667   -1.347446    1.201613
     14         15           0       -2.212001   -0.000008   -0.030362
     15          1           0       -0.309912   -0.000191   -1.499042
     16          1           0       -2.052503    0.000133    1.388014
 ---------------------------------------------------------------------

 SCF Done:  E(UHF) =  -535.974449459     A.U. after    2 cycles

 The electronic state is 2-A.
 Alpha  occ. eigenvalues --  -81.25443 -11.24331 -11.23565 -11.23555 -11.23128
 Alpha  occ. eigenvalues --  -11.23085  -7.75867  -4.90655  -4.89523  -4.89241
 Alpha  occ. eigenvalues --   -1.11356  -0.96623  -0.96283  -0.80890  -0.78081
 Alpha  occ. eigenvalues --   -0.74279  -0.66021  -0.62065  -0.58200  -0.56729
 Alpha  occ. eigenvalues --   -0.49135  -0.48748  -0.48688  -0.47922  -0.46171
 Alpha  occ. eigenvalues --   -0.45475  -0.37865  -0.33313
 Alpha virt. eigenvalues --    0.03506   0.04467   0.04743   0.04983   0.06754
 Alpha virt. eigenvalues --    0.06755   0.06876   0.06909   0.07467   0.09143
 Alpha virt. eigenvalues --    0.10402   0.12016   0.12287   0.13544   0.14131

  Beta  occ. eigenvalues --  -81.24754 -11.24492 -11.23465 -11.23455 -11.23120
  Beta  occ. eigenvalues --  -11.23076  -7.75042  -4.89029  -4.88880  -4.87515
  Beta  occ. eigenvalues --   -1.11174  -0.96233  -0.96053  -0.79441  -0.77839
  Beta  occ. eigenvalues --   -0.70691  -0.65936  -0.61515  -0.58088  -0.56074
  Beta  occ. eigenvalues --   -0.48690  -0.48364  -0.47832  -0.47670  -0.46131
  Beta  occ. eigenvalues --   -0.44977  -0.35753
  Beta virt. eigenvalues --    0.03538   0.03782   0.04473   0.05067   0.05349
  Beta virt. eigenvalues --    0.06775   0.06787   0.06934   0.07531   0.07925
  Beta virt. eigenvalues --    0.09220   0.10493   0.12351   0.13020   0.13679

 Mulliken charges and spin densities:
               1          2
     1  C   -0.193513  -0.121362
     2  C    0.299793   0.012565
     3  C    0.299725   0.012537
     4  C    0.287237   0.008051
     5  H   -0.153330  -0.009714
     6  H   -0.148229  -0.005517
     7  C    0.287192   0.008049
     8  H   -0.099735   0.000246
     9  H   -0.122148   0.000698
    10  H   -0.099863   0.000247
    11  H   -0.122330   0.000700
    12  H   -0.148168  -0.005520
    13  H   -0.153295  -0.009707
    14  P    0.272878   1.299380
    15  H   -0.231214  -0.007752
    16  H    0.025000  -0.182901
 Sum of Mulliken charges =  -0.00000   1.00000

 Dipole moment (field-independent basis, Debye):
    X=              1.5689    Y=             -0.0000    Z=              0.1710  Tot=              1.5782
                          Isotropic Fermi Contact Couplings
        Atom                 a.u.       MegaHertz       Gauss      10(-4) cm-1
     1  C(13)             -0.03211     -36.09654     -12.88014     -12.04051
     2  C(13)              0.02129      23.93064       8.53905       7.98240
     3  C(13)              0.02129      23.93219       8.53960       7.98292
     4  C(13)              0.00029       0.32199       0.11489       0.10740
     5  H(1)              -0.00048      -2.13553      -0.76201      -0.71234
     6  H(1)              -0.00067      -3.01689      -1.07650      -1.00633
     7  C(13)              0.00029       0.32082       0.11448       0.10702
     8  H(1)               0.00029       1.29604       0.46246       0.43231

 Normal termination of Gaussian 16 at Tue Apr  8 23:35:54 2025.
