 Gaussian 16, Revision C.01,

 ----------------------------------------------------------------------
 #t hf aug-cc-pvdz symm=none int=(grid=ultrafine) guess=(read,tcheck) s
 table=(opt,rrhf)
 ----------------------------------------------------------------------
 -----
 title
 -----
 Symbolic Z-matrix:
 Charge =  0 Multiplicity = 1

 SCF Done:  E(RHF) =  -530.161729055     A.U. after   12 cycles
 Normal termination of Gaussian 16 at Wed Apr  9 00:33:03 2025.
 Gaussian 16:  ES64L-G16RevC.01  3-Jul-2019

 ----------------------------------------------------------------------
 #t hf aug-cc-pvdz iop(5/13=1,5/36=2,99/5=2) pseudo=read geom=check gue
 ss=(read,tcheck) scf=(maxcycle=1)
 ----------------------------------------------------------------------
 -----
 title
 -----
 Structure from the checkpoint file:  "BDE49_nonexpt_416_mol1.chk"
 Charge =  0 Multiplicity = 1

                         Standard orientation:
 ---------------------------------------------------------------------
 Center     Atomic      Atomic             Coordinates (Angstroms)
 Number     Number       Type             X           Y           Z
 ---------------------------------------------------------------------
      1          9           0        1.663972   -1.359157   -0.938736
      2          5           0        1.308715   -0.348524   -0.167475
      3          9           0        2.282390    0.432226    0.280768
      4          6           0       -0.197312   -0.116607    0.302624
      5          8           0       -1.015443   -0.636380   -0.735814
      6          8           0       -0.495527    1.246567    0.574886
      7          6           0       -2.418217   -0.671276   -0.480073
      8          1           0       -2.896430   -0.854765   -1.442068
      9          1           0       -2.775170    0.279146   -0.072683
     10          1           0       -2.685731   -1.482877    0.205476
     11          6           0       -0.271922    2.143401   -0.509954
     12          1           0       -0.647291    3.114952   -0.190000
     13          1           0       -0.806947    1.823683   -1.409061
     14          1           0        0.797237    2.237834   -0.737112
     15          6           0       -0.387819   -0.838079    1.646146
     16          1           0       -0.292470   -1.918537    1.518646
     17          1           0       -1.372789   -0.606994    2.055938
     18          1           0        0.358138   -0.493574    2.364920
 ---------------------------------------------------------------------

 SCF Done:  E(RHF) =  -530.350665607     A.U. after    2 cycles

 The electronic state is 1-A.
 Alpha  occ. eigenvalues --  -26.14067 -26.13906 -20.58421 -20.58278 -11.34649
 Alpha  occ. eigenvalues --  -11.28819 -11.28726 -11.24295  -7.73866  -1.69345
 Alpha  occ. eigenvalues --   -1.67037  -1.37606  -1.30868  -1.03646  -0.95059
 Alpha  occ. eigenvalues --   -0.92857  -0.88163  -0.82779  -0.82027  -0.77414
 Alpha  occ. eigenvalues --   -0.76915  -0.72280  -0.71910  -0.69830  -0.69202
 Alpha  occ. eigenvalues --   -0.67405  -0.62904  -0.61138  -0.60382  -0.56572
 Alpha  occ. eigenvalues --   -0.54732  -0.53326  -0.52522  -0.47375  -0.46240
 Alpha  occ. eigenvalues --   -0.44903
 Alpha virt. eigenvalues --    0.03171   0.04333   0.04547   0.04877   0.06121
 Alpha virt. eigenvalues --    0.06294   0.06563   0.06654   0.07539   0.09284
 Alpha virt. eigenvalues --    0.09433   0.09462   0.10592   0.12813   0.13359

 Mulliken charges:
               1
     1  F   -0.473706
     2  B    0.942613
     3  F   -0.378740
     4  C    0.298558
     5  O   -0.758716
     6  O   -0.721797
     7  C    0.885296
     8  H   -0.258844
     9  H   -0.062276
    10  H   -0.140021
    11  C    0.826144
    12  H   -0.260327
    13  H   -0.042934
    14  H   -0.134272
    15  C    0.485825
    16  H   -0.014411
    17  H   -0.074372
    18  H   -0.118021
 Sum of Mulliken charges =  -0.00000

 Dipole moment (field-independent basis, Debye):
    X=             -2.0609    Y=              0.4141    Z=              0.4947  Tot=              2.1595

 Test job not archived.
 1\1\GINC-SE340\SP\RHF\Aug-CC-pVDZ\C4H9B1F2O2\OHZDE\09-Apr-2025\0\\#t h
 f aug-cc-pvdz iop(5/13=1,5/36=2,99/5=2) pseudo=read geom=check guess=(
 read,tcheck) scf=(maxcycle=1)\\title\\0,1\F,0,1.663972,-1.359157,-0.93
 8736\B,0,1.308715,-0.348524,-0.167475\F,0,2.28239,0.432226,0.280768\C,
 0,-0.197312,-0.116607,0.302624\O,0,-1.015443,-0.63638,-0.735814\O,0,-0
 .495527,1.246567,0.574886\C,0,-2.418217,-0.671276,-0.480073\H,0,-2.896
 43,-0.854765,-1.442068\H,0,-2.77517,0.279146,-0.072683\H,0,-2.685731,-
 1.482877,0.205476\C,0,-0.271922,2.143401,-0.509954\H,0,-0.647291,3.114

 Normal termination of Gaussian 16 at Wed Apr  9 00:33:10 2025.
