 Gaussian 16, Revision C.01,

 ----------------------------------------------------------------------
 #t hf aug-cc-pvdz symm=none int=(grid=ultrafine) guess=(read,tcheck) s
 table=opt
 ----------------------------------------------------------------------
 -----
 title
 -----
 Symbolic Z-matrix:
 Charge =  0 Multiplicity = 2

 SCF Done:  E(UHF) =  -824.171896308     A.U. after   27 cycles
 Normal termination of Gaussian 16 at Wed Apr  9 00:04:08 2025.
 Gaussian 16:  ES64L-G16RevC.01  3-Jul-2019

 ----------------------------------------------------------------------
 #t hf aug-cc-pvdz iop(5/13=1,5/36=2,99/5=2) pseudo=read geom=check gue
 ss=(read,tcheck) scf=(maxcycle=1)
 ----------------------------------------------------------------------
 -----
 title
 -----
 Structure from the checkpoint file:  "BDE49_nonexpt_222_mol2.chk"
 Charge =  0 Multiplicity = 2

                         Standard orientation:
 ---------------------------------------------------------------------
 Center     Atomic      Atomic             Coordinates (Angstroms)
 Number     Number       Type             X           Y           Z
 ---------------------------------------------------------------------
      1          5           0        1.643110    0.192260   -0.610315
      2         17           0        3.078151   -0.491139    0.018641
      3          6           0        0.297087    0.580500    0.053897
      4          8           0        0.125604    1.640816    0.591941
      5          8           0       -0.667445   -0.411558   -0.070279
      6          6           0       -2.043265   -0.111094   -0.126486
      7          8           0       -2.462636    0.940185   -0.488983
      8          6           0       -2.831438   -1.320814    0.286946
      9          1           0       -2.638727   -1.535379    1.341164
     10          1           0       -2.512119   -2.192140   -0.288085
     11          1           0       -3.891754   -1.131512    0.134028
 ---------------------------------------------------------------------

 SCF Done:  E(UHF) =  -824.304949282     A.U. after    2 cycles

 The electronic state is 2-A.
 Alpha  occ. eigenvalues -- -103.70551 -20.64993 -20.60347 -20.59162 -11.42511
 Alpha  occ. eigenvalues --  -11.41075 -11.27224 -10.74022  -8.39739  -8.39514
 Alpha  occ. eigenvalues --   -8.39430  -7.73361  -1.45850  -1.39820  -1.35079
 Alpha  occ. eigenvalues --   -1.20293  -1.04882  -0.93602  -0.80199  -0.75754
 Alpha  occ. eigenvalues --   -0.72449  -0.70869  -0.68206  -0.64603  -0.63582
 Alpha  occ. eigenvalues --   -0.60585  -0.59546  -0.56648  -0.55071  -0.53485
 Alpha  occ. eigenvalues --   -0.52330  -0.51458  -0.47854  -0.37413
 Alpha virt. eigenvalues --    0.02810   0.03816   0.04523   0.04868   0.05662
 Alpha virt. eigenvalues --    0.06150   0.06575   0.07206   0.10111   0.11204
 Alpha virt. eigenvalues --    0.11990   0.12755   0.13072   0.14270   0.14606

  Beta  occ. eigenvalues -- -103.70489 -20.65059 -20.59502 -20.59170 -11.42499
  Beta  occ. eigenvalues --  -11.41303 -11.27223 -10.73952  -8.39685  -8.39472
  Beta  occ. eigenvalues --   -8.39231  -7.71362  -1.45729  -1.39004  -1.34443
  Beta  occ. eigenvalues --   -1.19577  -1.04823  -0.92950  -0.78631  -0.75402
  Beta  occ. eigenvalues --   -0.72229  -0.70641  -0.67043  -0.63653  -0.62879
  Beta  occ. eigenvalues --   -0.60152  -0.58733  -0.55018  -0.53590  -0.52540
  Beta  occ. eigenvalues --   -0.50868  -0.50263  -0.46671
  Beta virt. eigenvalues --    0.02449   0.03461   0.04728   0.04923   0.05568
  Beta virt. eigenvalues --    0.06248   0.06553   0.07324   0.08149   0.10593
  Beta virt. eigenvalues --    0.11797   0.12711   0.12954   0.14005   0.14415

 Mulliken charges and spin densities:
               1          2
     1  B    0.153115   0.973998
     2  Cl  -0.173926   0.006993
     3  C    0.594498  -0.152922
     4  O   -0.387809   0.197730
     5  O   -0.536074  -0.026142
     6  C    0.390119   0.000222
     7  O   -0.376662   0.000614
     8  C    0.261151  -0.000479
     9  H    0.043247  -0.000283
    10  H    0.034831   0.000515
    11  H   -0.002490  -0.000246
 Sum of Mulliken charges =  -0.00000   1.00000

 Dipole moment (field-independent basis, Debye):
    X=              0.2400    Y=             -4.3562    Z=              0.0191  Tot=              4.3629
                          Isotropic Fermi Contact Couplings
        Atom                 a.u.       MegaHertz       Gauss      10(-4) cm-1
     1  B(11)              0.32440     465.30398     166.03203     155.20870
     2  Cl(35)             0.05725      25.09990       8.95627       8.37243
     3  C(13)              0.00253       2.84175       1.01401       0.94790
     4  O(17)              0.06902     -41.84109     -14.92994     -13.95669
     5  O(17)             -0.00775       4.69991       1.67704       1.56772
     6  C(13)              0.00140       1.57518       0.56207       0.52543
     7  O(17)             -0.00047       0.28233       0.10074       0.09417
     8  C(13)              0.00005       0.06037       0.02154       0.02014

 1\1\GINC-SE073\SP\UHF\Aug-CC-pVDZ\C3H3B1Cl1O3(2)\OHZDE\09-Apr-2025\0\\
 #t hf aug-cc-pvdz iop(5/13=1,5/36=2,99/5=2) pseudo=read geom=check gue
 ss=(read,tcheck) scf=(maxcycle=1)\\title\\0,2\B,0,1.64311,0.19226,-0.6
 10315\Cl,0,3.078151,-0.491139,0.018641\C,0,0.297087,0.5805,0.053897\O,
 0,0.125604,1.640816,0.591941\O,0,-0.667445,-0.411558,-0.070279\C,0,-2.
 043265,-0.111094,-0.126486\O,0,-2.462636,0.940185,-0.488983\C,0,-2.831
 438,-1.320814,0.286946\H,0,-2.638727,-1.535379,1.341164\H,0,-2.512119,
 -2.19214,-0.288085\H,0,-3.891754,-1.131512,0.134028\\Version=ES64L-G16

 Normal termination of Gaussian 16 at Wed Apr  9 00:04:13 2025.
