 Gaussian 16, Revision C.01,

 ----------------------------------------------------------------------
 #t hf aug-cc-pvdz symm=none int=(grid=ultrafine) guess=(read,tcheck) s
 table=(opt,rrhf)
 ----------------------------------------------------------------------
 -----
 title
 -----
 Symbolic Z-matrix:
 Charge =  0 Multiplicity = 1

 SCF Done:  E(RHF) =  -691.115786336     A.U. after   13 cycles
 Normal termination of Gaussian 16 at Tue Apr  8 23:07:07 2025.
 Gaussian 16:  ES64L-G16RevC.01  3-Jul-2019

 ----------------------------------------------------------------------
 #t hf aug-cc-pvdz iop(5/13=1,5/36=2,99/5=2) pseudo=read geom=check gue
 ss=(read,tcheck) scf=(maxcycle=1)
 ----------------------------------------------------------------------
 -----
 title
 -----
 Structure from the checkpoint file:  "BDE49_expt_565_mol1.chk"
 Charge =  0 Multiplicity = 1

                         Standard orientation:
 ---------------------------------------------------------------------
 Center     Atomic      Atomic             Coordinates (Angstroms)
 Number     Number       Type             X           Y           Z
 ---------------------------------------------------------------------
      1          6           0        0.480185   -0.000039    0.890486
      2          6           0       -0.786153    0.000002    0.019640
      3          6           0       -0.896762    1.267744   -0.832334
      4          1           0       -0.865644    2.154368   -0.194858
      5          1           0       -1.847001    1.270588   -1.375839
      6          1           0       -0.089783    1.332395   -1.564729
      7          6           0       -0.896777   -1.267677   -0.832425
      8          1           0       -0.865674   -2.154349   -0.195015
      9          1           0       -0.089794   -1.332286   -1.564820
     10          1           0       -1.847012   -1.270468   -1.375939
     11          8           0       -1.811039   -0.000026    1.030929
     12          1           0       -2.663849   -0.000080    0.583918
     13         17           0        2.020857   -0.000000   -0.062761
     14          1           0        0.499768   -0.889132    1.517258
     15          1           0        0.499771    0.888999    1.517336
 ---------------------------------------------------------------------

 SCF Done:  E(RHF) =  -691.206678936     A.U. after    2 cycles

 The electronic state is 1-A.
 Alpha  occ. eigenvalues -- -103.64889 -20.58247 -11.31609 -11.30152 -11.23490
 Alpha  occ. eigenvalues --  -11.23481 -10.68164  -8.33883  -8.33609  -8.33598
 Alpha  occ. eigenvalues --   -1.33605  -1.16103  -1.05223  -0.94866  -0.93518
 Alpha  occ. eigenvalues --   -0.78513  -0.69093  -0.65823  -0.65509  -0.59392
 Alpha  occ. eigenvalues --   -0.59358  -0.54453  -0.54228  -0.53080  -0.52468
 Alpha  occ. eigenvalues --   -0.50803  -0.46389  -0.44306  -0.44237
 Alpha virt. eigenvalues --    0.03151   0.04692   0.04843   0.05115   0.06597
 Alpha virt. eigenvalues --    0.06834   0.07240   0.07859   0.09333   0.09715
 Alpha virt. eigenvalues --    0.12415   0.13515   0.14972   0.15246   0.15334

 Mulliken charges:
               1
     1  C    0.291093
     2  C   -1.733042
     3  C    0.904742
     4  H    0.033356
     5  H   -0.046526
     6  H    0.047041
     7  C    0.904771
     8  H    0.033359
     9  H    0.047033
    10  H   -0.046540
    11  O   -0.497110
    12  H    0.122520
    13  Cl  -0.122236
    14  H    0.030766
    15  H    0.030774
 Sum of Mulliken charges =  -0.00000

 Dipole moment (field-independent basis, Debye):
    X=             -2.1932    Y=             -0.0001    Z=             -0.8938  Tot=              2.3684

 Test job not archived.
 1\1\GINC-SE284\SP\RHF\Aug-CC-pVDZ\C4H9Cl1O1\OHZDE\08-Apr-2025\0\\#t hf
  aug-cc-pvdz iop(5/13=1,5/36=2,99/5=2) pseudo=read geom=check guess=(r
 ead,tcheck) scf=(maxcycle=1)\\title\\0,1\C,0,0.480185,-0.000039,0.8904
 86\C,0,-0.786153,0.000002,0.01964\C,0,-0.896762,1.267744,-0.832334\H,0
 ,-0.865644,2.154368,-0.194858\H,0,-1.847001,1.270588,-1.375839\H,0,-0.
 089783,1.332395,-1.564729\C,0,-0.896777,-1.267677,-0.832425\H,0,-0.865
 674,-2.154349,-0.195015\H,0,-0.089794,-1.332286,-1.56482\H,0,-1.847012
 ,-1.270468,-1.375939\O,0,-1.811039,-0.000026,1.030929\H,0,-2.663849,-0

 Normal termination of Gaussian 16 at Tue Apr  8 23:07:12 2025.
