 Gaussian 16, Revision C.01,

 ----------------------------------------------------------------------
 #t hf aug-cc-pvdz symm=none int=(grid=ultrafine) guess=(read,tcheck) s
 table=opt
 ----------------------------------------------------------------------
 -----
 title
 -----
 Symbolic Z-matrix:
 Charge =  0 Multiplicity = 2

 SCF Done:  E(UHF) =  -266.239032826     a.u. after   13 cycles
 Normal termination of Gaussian 16 at Tue Apr  8 22:55:24 2025.
 Gaussian 16:  ES64L-G16RevC.01  3-Jul-2019

 ----------------------------------------------------------------------
 #t hf aug-cc-pvdz iop(5/13=1,5/36=2,99/5=2) pseudo=read geom=check gue
 ss=(read,tcheck) scf=(maxcycle=1)
 ----------------------------------------------------------------------
 -----
 title
 -----
 Structure from the checkpoint file:  "BDE49_expt_1876_mol2.chk"
 Charge =  0 Multiplicity = 2

                         Standard orientation:
 ---------------------------------------------------------------------
 Center     Atomic      Atomic             Coordinates (Angstroms)
 Number     Number       Type             X           Y           Z
 ---------------------------------------------------------------------
      1          8           0        1.742095   -0.593681   -0.000104
      2          6           0        0.620281   -0.015485    0.000160
      3          8           0        0.743675    1.231309   -0.000079
      4          6           0       -1.907782    0.177686    0.000027
      5          1           0       -2.825666   -0.413147   -0.000052
      6          1           0       -1.916328    0.820812   -0.881813
      7          1           0       -1.916418    0.820718    0.881935
      8          6           0       -0.689033   -0.747817    0.000042
      9          1           0       -0.684235   -1.407815   -0.874086
     10          1           0       -0.684316   -1.407900    0.874105
 ---------------------------------------------------------------------

 SCF Done:  E(UHF) =  -266.325126599     A.U. after    2 cycles

 The electronic state is 2-A.
 Alpha  occ. eigenvalues --  -20.71007 -20.56343 -11.40924 -11.28538 -11.25021
 Alpha  occ. eigenvalues --   -1.50827  -1.31628  -1.07880  -0.92478  -0.82541
 Alpha  occ. eigenvalues --   -0.77624  -0.71720  -0.71221  -0.63638  -0.61637
 Alpha  occ. eigenvalues --   -0.55921  -0.54111  -0.52835  -0.49537  -0.48558
 Alpha virt. eigenvalues --    0.02843   0.04616   0.04665   0.05752   0.07593
 Alpha virt. eigenvalues --    0.09200   0.11161   0.11477   0.12014   0.13698
 Alpha virt. eigenvalues --    0.14715   0.15217   0.15667   0.16559   0.17533

  Beta  occ. eigenvalues --  -20.66841 -20.55837 -11.41217 -11.28463 -11.25002
  Beta  occ. eigenvalues --   -1.41197  -1.26169  -1.07232  -0.91241  -0.77966
  Beta  occ. eigenvalues --   -0.70694  -0.69358  -0.64166  -0.62273  -0.56466
  Beta  occ. eigenvalues --   -0.54181  -0.52547  -0.48210  -0.46250
  Beta virt. eigenvalues --    0.02236   0.02920   0.04614   0.05108   0.05772
  Beta virt. eigenvalues --    0.07593   0.09300   0.11566   0.11596   0.12119
  Beta virt. eigenvalues --    0.14236   0.14838   0.15161   0.15694   0.16574

 Mulliken charges and spin densities:
               1          2
     1  O   -0.230835   1.066839
     2  C    0.434353  -0.208067
     3  O   -0.545894   0.079575
     4  C    0.490119   0.004973
     5  H   -0.049787   0.002065
     6  H   -0.040243   0.000006
     7  H   -0.040270   0.000007
     8  C   -0.112999   0.047057
     9  H    0.047773   0.003772
    10  H    0.047783   0.003773
 Sum of Mulliken charges =  -0.00000   1.00000

 Dipole moment (field-independent basis, Debye):
    X=             -2.5141    Y=             -3.3390    Z=              0.0006  Tot=              4.1797
                          Isotropic Fermi Contact Couplings
        Atom                 a.u.       MegaHertz       Gauss      10(-4) cm-1
     1  O(17)              0.28665    -173.76721     -62.00446     -57.96250
     2  C(13)             -0.05500     -61.83389     -22.06387     -20.62556
     3  O(17)              0.04582     -27.77387      -9.91041      -9.26437
     4  C(13)              0.00339       3.80971       1.35940       1.27078
     5  H(1)               0.00105       4.68739       1.67258       1.56355
     6  H(1)              -0.00007      -0.31038      -0.11075      -0.10353
     7  H(1)              -0.00007      -0.31040      -0.11076      -0.10354
     8  C(13)              0.01032      11.60124       4.13961       3.86976

 Normal termination of Gaussian 16 at Tue Apr  8 22:55:27 2025.
