 Gaussian 16, Revision C.01,

 ----------------------------------------------------------------------
 #t hf aug-cc-pvdz symm=none int=(grid=ultrafine) guess=(read,tcheck) s
 table=(opt,rrhf)
 ----------------------------------------------------------------------
 -----
 title
 -----
 Symbolic Z-matrix:
 Charge =  0 Multiplicity = 1

 SCF Done:  E(RHF) =  -661.043267696     A.U. after   13 cycles
 Normal termination of Gaussian 16 at Wed Apr  9 00:00:55 2025.
 Gaussian 16:  ES64L-G16RevC.01  3-Jul-2019

 ----------------------------------------------------------------------
 #t hf aug-cc-pvdz iop(5/13=1,5/36=2,99/5=2) pseudo=read geom=check gue
 ss=(read,tcheck) scf=(maxcycle=1)
 ----------------------------------------------------------------------
 -----
 title
 -----
 Structure from the checkpoint file:  "BDE49_nonexpt_2154_mol1.chk"
 Charge =  0 Multiplicity = 1

                         Standard orientation:
 ---------------------------------------------------------------------
 Center     Atomic      Atomic             Coordinates (Angstroms)
 Number     Number       Type             X           Y           Z
 ---------------------------------------------------------------------
      1         14           0        0.610780   -0.000000    0.045245
      2          7           0       -1.074702    0.000000   -0.703848
      3          9           0       -1.730017   -1.111958   -0.102637
      4          9           0       -1.730017    1.111958   -0.102637
      5          6           0        1.391634    1.555860   -0.629442
      6          1           0        1.354991    1.574409   -1.721850
      7          1           0        2.441621    1.614397   -0.326137
      8          1           0        0.881802    2.447322   -0.256805
      9          6           0        1.391634   -1.555860   -0.629442
     10          1           0        1.354991   -1.574408   -1.721850
     11          1           0        0.881802   -2.447322   -0.256805
     12          1           0        2.441621   -1.614397   -0.326136
     13          6           0        0.460055   -0.000000    1.904820
     14          1           0       -0.077871    0.884730    2.252981
     15          1           0        1.451283   -0.000000    2.368966
     16          1           0       -0.077870   -0.884730    2.252981
 ---------------------------------------------------------------------

 SCF Done:  E(RHF) =  -661.195288593     A.U. after    2 cycles

 The electronic state is 1-A.
 Alpha  occ. eigenvalues --  -69.09211 -26.14581 -26.14578 -15.79083 -11.22899
 Alpha  occ. eigenvalues --  -11.22894 -11.22652  -6.84321  -3.95208  -3.95041
 Alpha  occ. eigenvalues --   -3.95025  -1.68542  -1.63497  -1.08083  -0.97735
 Alpha  occ. eigenvalues --   -0.94045  -0.93900  -0.80078  -0.78053  -0.77797
 Alpha  occ. eigenvalues --   -0.72710  -0.68311  -0.65930  -0.60141  -0.58312
 Alpha  occ. eigenvalues --   -0.58096  -0.56398  -0.56369  -0.55458  -0.55117
 Alpha  occ. eigenvalues --   -0.46537  -0.45942  -0.44748
 Alpha virt. eigenvalues --    0.02486   0.04435   0.04478   0.05211   0.06655
 Alpha virt. eigenvalues --    0.06888   0.07249   0.07329   0.08468   0.09031
 Alpha virt. eigenvalues --    0.10260   0.10353   0.11427   0.14045   0.15360

 Mulliken charges:
               1
     1  Si   1.986272
     2  N    0.015362
     3  F   -0.464774
     4  F   -0.464774
     5  C    0.406507
     6  H   -0.271862
     7  H   -0.250663
     8  H   -0.236860
     9  C    0.406506
    10  H   -0.271862
    11  H   -0.236859
    12  H   -0.250662
    13  C    0.369682
    14  H   -0.246496
    15  H   -0.243020
    16  H   -0.246498
 Sum of Mulliken charges =  -0.00000

 Dipole moment (field-independent basis, Debye):
    X=              3.8848    Y=              0.0000    Z=              0.4616  Tot=              3.9121

 Test job not archived.
 1\1\GINC-SE335\SP\RHF\Aug-CC-pVDZ\C3H9F2N1Si1\OHZDE\09-Apr-2025\0\\#t
 hf aug-cc-pvdz iop(5/13=1,5/36=2,99/5=2) pseudo=read geom=check guess=
 (read,tcheck) scf=(maxcycle=1)\\title\\0,1\Si,0,0.61078,0.,0.045245\N,
 0,-1.074702,0.,-0.703848\F,0,-1.730017,-1.111958,-0.102637\F,0,-1.7300
 17,1.111958,-0.102637\C,0,1.391634,1.55586,-0.629442\H,0,1.354991,1.57
 4409,-1.72185\H,0,2.441621,1.614397,-0.326137\H,0,0.881802,2.447322,-0
 .256805\C,0,1.391634,-1.55586,-0.629442\H,0,1.354991,-1.574408,-1.7218
 5\H,0,0.881802,-2.447322,-0.256805\H,0,2.441621,-1.614397,-0.326136\C,

 Normal termination of Gaussian 16 at Wed Apr  9 00:01:00 2025.
