 Gaussian 16, Revision C.01,

 ----------------------------------------------------------------------
 #t hf aug-cc-pvdz symm=none int=(grid=ultrafine) guess=(read,tcheck) s
 table=(opt,rrhf)
 ----------------------------------------------------------------------
 -----
 title
 -----
 Symbolic Z-matrix:
 Charge =  0 Multiplicity = 1

 SCF Done:  E(RHF) =  -372.206655261     A.U. after   14 cycles
 Normal termination of Gaussian 16 at Wed Apr  9 00:32:49 2025.
 Gaussian 16:  ES64L-G16RevC.01  3-Jul-2019

 ----------------------------------------------------------------------
 #t hf aug-cc-pvdz iop(5/13=1,5/36=2,99/5=2) pseudo=read geom=check gue
 ss=(read,tcheck) scf=(maxcycle=1)
 ----------------------------------------------------------------------
 -----
 title
 -----
 Structure from the checkpoint file:  "BDE49_nonexpt_425_mol1.chk"
 Charge =  0 Multiplicity = 1

                         Standard orientation:
 ---------------------------------------------------------------------
 Center     Atomic      Atomic             Coordinates (Angstroms)
 Number     Number       Type             X           Y           Z
 ---------------------------------------------------------------------
      1          9           0       -1.709086   -1.139334   -0.030677
      2          5           0       -1.041528    0.000005    0.041273
      3          9           0       -1.709040    1.139373   -0.030703
      4          7           0        0.364913   -0.000020    0.371064
      5          7           0        1.264277   -0.000090   -0.480003
      6          6           0        2.615649    0.000036    0.088551
      7          1           0        3.134822   -0.879915   -0.302097
      8          1           0        2.602957    0.000176    1.181734
      9          1           0        3.134765    0.879923   -0.302322
 ---------------------------------------------------------------------

 SCF Done:  E(RHF) =  -372.342835385     A.U. after    2 cycles

 The electronic state is 1-A.
 Alpha  occ. eigenvalues --  -26.14928 -26.14922 -15.73047 -15.68630 -11.27949
 Alpha  occ. eigenvalues --   -7.76701  -1.70225  -1.68112  -1.33182  -1.04081
 Alpha  occ. eigenvalues --   -0.90006  -0.85769  -0.83442  -0.78116  -0.76025
 Alpha  occ. eigenvalues --   -0.73280  -0.72794  -0.68557  -0.64355  -0.62475
 Alpha  occ. eigenvalues --   -0.55089  -0.49473  -0.38889
 Alpha virt. eigenvalues --    0.03338   0.04552   0.04560   0.05455   0.07412
 Alpha virt. eigenvalues --    0.07432   0.08130   0.09746   0.11870   0.13752
 Alpha virt. eigenvalues --    0.15134   0.15500   0.16794   0.18542   0.19764

 Mulliken charges:
               1
     1  F   -0.401929
     2  B    0.927917
     3  F   -0.401928
     4  N   -0.229284
     5  N   -0.385750
     6  C    0.746015
     7  H   -0.075556
     8  H   -0.103934
     9  H   -0.075550
 Sum of Mulliken charges =   0.00000

 Dipole moment (field-independent basis, Debye):
    X=              2.5510    Y=              0.0001    Z=              0.2024  Tot=              2.5590

 Test job not archived.
 1\1\GINC-SE092\SP\RHF\Aug-CC-pVDZ\C1H3B1F2N2\OHZDE\09-Apr-2025\0\\#t h
 f aug-cc-pvdz iop(5/13=1,5/36=2,99/5=2) pseudo=read geom=check guess=(
 read,tcheck) scf=(maxcycle=1)\\title\\0,1\F,0,-1.709086,-1.139334,-0.0
 30677\B,0,-1.041528,0.000005,0.041273\F,0,-1.70904,1.139373,-0.030703\
 N,0,0.364913,-0.00002,0.371064\N,0,1.264277,-0.00009,-0.480003\C,0,2.6
 15649,0.000036,0.088551\H,0,3.134822,-0.879915,-0.302097\H,0,2.602957,
 0.000176,1.181734\H,0,3.134765,0.879923,-0.302322\\Version=ES64L-G16Re
 vC.01\State=1-A\HF=-372.3428354\RMSD=4.996e-03\Dipole=1.0036424,0.0000

 Normal termination of Gaussian 16 at Wed Apr  9 00:32:54 2025.
