 Gaussian 16, Revision C.01,

 ----------------------------------------------------------------------
 #t hf aug-cc-pvdz symm=none int=(grid=ultrafine) guess=(read,tcheck) s
 table=(opt,rrhf)
 ----------------------------------------------------------------------
 -----
 title
 -----
 Symbolic Z-matrix:
 Charge =  0 Multiplicity = 1

 SCF Done:  E(RHF) =  -572.382538574     A.U. after   13 cycles
 Normal termination of Gaussian 16 at Wed Apr  9 00:18:33 2025.
 Gaussian 16:  ES64L-G16RevC.01  3-Jul-2019

 ----------------------------------------------------------------------
 #t hf aug-cc-pvdz iop(5/13=1,5/36=2,99/5=2) pseudo=read geom=check gue
 ss=(read,tcheck) scf=(maxcycle=1)
 ----------------------------------------------------------------------
 -----
 title
 -----
 Structure from the checkpoint file:  "BDE49_nonexpt_2618_mol1.chk"
 Charge =  0 Multiplicity = 1

                         Standard orientation:
 ---------------------------------------------------------------------
 Center     Atomic      Atomic             Coordinates (Angstroms)
 Number     Number       Type             X           Y           Z
 ---------------------------------------------------------------------
      1          9           0       -1.291530   -0.503397   -0.005761
      2          8           0        1.276000   -0.452694   -0.119090
      3         16           0       -0.005939    0.558209    0.015206
      4          1           0        1.510798   -0.779210    0.761286
 ---------------------------------------------------------------------

 SCF Done:  E(RHF) =  -572.472828544     A.U. after    2 cycles

 The electronic state is 1-A.
 Alpha  occ. eigenvalues --  -93.68009 -26.13785 -20.65423  -8.96213  -6.30384
 Alpha  occ. eigenvalues --   -6.30070  -6.29477  -1.65079  -1.38790  -0.96606
 Alpha  occ. eigenvalues --   -0.78150  -0.74475  -0.73777  -0.69271  -0.60650
 Alpha  occ. eigenvalues --   -0.56084  -0.39496
 Alpha virt. eigenvalues --    0.03231   0.06534   0.07699   0.11024   0.14481
 Alpha virt. eigenvalues --    0.15409   0.17488   0.20170   0.21205   0.22811
 Alpha virt. eigenvalues --    0.25499   0.27813   0.31807   0.33443   0.37436

 Mulliken charges:
               1
     1  F   -0.579405
     2  O   -0.628364
     3  S    1.021933
     4  H    0.185836
 Sum of Mulliken charges =  -0.00000

 Dipole moment (field-independent basis, Debye):
    X=              1.7252    Y=              0.7381    Z=              1.6025  Tot=              2.4676

 Test job not archived.
 1\1\GINC-SE459\SP\RHF\Aug-CC-pVDZ\F1H1O1S1\OHZDE\09-Apr-2025\0\\#t hf
 aug-cc-pvdz iop(5/13=1,5/36=2,99/5=2) pseudo=read geom=check guess=(re
 ad,tcheck) scf=(maxcycle=1)\\title\\0,1\F,0,-1.29153,-0.503397,-0.0057
 61\O,0,1.276,-0.452694,-0.11909\S,0,-0.005939,0.558209,0.015206\H,0,1.
 510798,-0.77921,0.761286\\Version=ES64L-G16RevC.01\State=1-A\HF=-572.4
 728285\RMSD=4.210e-03\Dipole=0.6787452,0.2903761,0.6304737\Quadrupole=
 -0.5922167,0.6626876,-0.0704709,-1.3973782,2.027241,-1.1152586\PG=C01
 [X(F1H1O1S1)]\\@

 Normal termination of Gaussian 16 at Wed Apr  9 00:18:34 2025.
