 Gaussian 16, Revision C.01,

 ----------------------------------------------------------------------
 #t hf aug-cc-pvdz symm=none int=(grid=ultrafine) guess=(read,tcheck) s
 table=(opt,rrhf)
 ----------------------------------------------------------------------
 -----
 title
 -----
 Symbolic Z-matrix:
 Charge =  0 Multiplicity = 1

 SCF Done:  E(RHF) =  -1267.89045753     A.U. after   14 cycles
 Normal termination of Gaussian 16 at Wed Apr  9 00:48:04 2025.
 Gaussian 16:  ES64L-G16RevC.01  3-Jul-2019

 ----------------------------------------------------------------------
 #t hf aug-cc-pvdz iop(5/13=1,5/36=2,99/5=2) pseudo=read geom=check gue
 ss=(read,tcheck) scf=(maxcycle=1)
 ----------------------------------------------------------------------
 -----
 title
 -----
 Structure from the checkpoint file:  "BDE49_nonexpt_899_mol1.chk"
 Charge =  0 Multiplicity = 1

                         Standard orientation:
 ---------------------------------------------------------------------
 Center     Atomic      Atomic             Coordinates (Angstroms)
 Number     Number       Type             X           Y           Z
 ---------------------------------------------------------------------
      1          5           0        1.811183    0.104285   -0.009959
      2         16           0        0.488232   -1.167455    0.000481
      3          9           0        1.587150    1.395012   -0.005136
      4          9           0        3.044185   -0.360904   -0.000701
      5         16           0       -1.254268    0.029416   -0.135046
      6          8           0       -2.348553   -0.879799   -0.062399
      7          8           0       -1.131925    1.051510   -1.118877
      8          9           0       -1.181947    0.778503    1.300621
 ---------------------------------------------------------------------

 SCF Done:  E(RHF) =  -1268.16692010     A.U. after    2 cycles

 The electronic state is 1-A.
 Alpha  occ. eigenvalues --  -93.90176 -93.62732 -26.19737 -26.18914 -26.18777
 Alpha  occ. eigenvalues --  -20.63248 -20.63156  -9.15945  -8.92667  -7.82482
 Alpha  occ. eigenvalues --   -6.50536  -6.50491  -6.50248  -6.26781  -6.26507
 Alpha  occ. eigenvalues --   -6.26202  -1.74242  -1.73098  -1.72302  -1.48903
 Alpha  occ. eigenvalues --   -1.38906  -1.07664  -0.94935  -0.91910  -0.87570
 Alpha  occ. eigenvalues --   -0.84109  -0.81966  -0.81115  -0.80673  -0.79294
 Alpha  occ. eigenvalues --   -0.77075  -0.76690  -0.71656  -0.70773  -0.62712
 Alpha  occ. eigenvalues --   -0.59939  -0.56895  -0.55484  -0.52216  -0.46858
 Alpha virt. eigenvalues --    0.02724   0.04775   0.05042   0.05484   0.05907
 Alpha virt. eigenvalues --    0.08908   0.09404   0.10097   0.11456   0.11610
 Alpha virt. eigenvalues --    0.12561   0.15033   0.16138   0.17738   0.18796

 Mulliken charges:
               1
     1  B    1.098345
     2  S   -0.192096
     3  F   -0.325786
     4  F   -0.386573
     5  S    2.072611
     6  O   -0.812244
     7  O   -0.880724
     8  F   -0.573533
 Sum of Mulliken charges =   0.00000

 Dipole moment (field-independent basis, Debye):
    X=              2.4202    Y=             -1.6403    Z=              0.3534  Tot=              2.9450

 Test job not archived.
 1\1\GINC-SE253\SP\RHF\Aug-CC-pVDZ\B1F3O2S2\OHZDE\09-Apr-2025\0\\#t hf
 aug-cc-pvdz iop(5/13=1,5/36=2,99/5=2) pseudo=read geom=check guess=(re
 ad,tcheck) scf=(maxcycle=1)\\title\\0,1\B,0,1.811183,0.104285,-0.00995
 9\S,0,0.488232,-1.167455,0.000481\F,0,1.58715,1.395012,-0.005136\F,0,3
 .044185,-0.360904,-0.000701\S,0,-1.254268,0.029416,-0.135046\O,0,-2.34
 8553,-0.879799,-0.062399\O,0,-1.131925,1.05151,-1.118877\F,0,-1.181947
 ,0.778503,1.300621\\Version=ES64L-G16RevC.01\State=1-A\HF=-1268.166920
 1\RMSD=5.155e-03\Dipole=0.9521724,-0.6453598,0.1390518\Quadrupole=-2.3

 Normal termination of Gaussian 16 at Wed Apr  9 00:48:09 2025.
