 Gaussian 16, Revision C.01,

 ----------------------------------------------------------------------
 #t hf aug-cc-pvdz symm=none int=(grid=ultrafine) guess=(read,tcheck) s
 table=opt
 ----------------------------------------------------------------------
 -----
 title
 -----
 Symbolic Z-matrix:
 Charge =  0 Multiplicity = 2

 SCF Done:  E(UHF) =  -548.957578420     A.U. after   15 cycles
 Normal termination of Gaussian 16 at Tue Apr  8 22:49:46 2025.
 Gaussian 16:  ES64L-G16RevC.01  3-Jul-2019

 ----------------------------------------------------------------------
 #t hf aug-cc-pvdz iop(5/13=1,5/36=2,99/5=2) pseudo=read geom=check gue
 ss=(read,tcheck) scf=(maxcycle=1)
 ----------------------------------------------------------------------
 -----
 title
 -----
 Structure from the checkpoint file:  "BDE49_expt_173_mol2.chk"
 Charge =  0 Multiplicity = 2

                         Standard orientation:
 ---------------------------------------------------------------------
 Center     Atomic      Atomic             Coordinates (Angstroms)
 Number     Number       Type             X           Y           Z
 ---------------------------------------------------------------------
      1          6           0        0.996678   -0.049239   -0.193034
      2          8           0        0.046312   -0.252607    0.768440
      3          9           0        1.983267   -0.922031   -0.056494
      4          9           0        1.476289    1.193082   -0.200733
      5          6           0       -1.276728   -0.112789    0.387002
      6          9           0       -1.599231   -1.021427   -0.560085
      7          9           0       -1.505320    1.112101   -0.136824
      8          1           0       -1.885240   -0.262501    1.275885
 ---------------------------------------------------------------------

 SCF Done:  E(UHF) =  -549.157337515     A.U. after    2 cycles

 The electronic state is 2-A.
 Alpha  occ. eigenvalues --  -26.18524 -26.18167 -26.17434 -26.17421 -20.67434
 Alpha  occ. eigenvalues --  -11.51948 -11.51791  -1.76389  -1.74764  -1.71253
 Alpha  occ. eigenvalues --   -1.69674  -1.45669  -1.07846  -0.99045  -0.90005
 Alpha  occ. eigenvalues --   -0.89152  -0.88426  -0.85974  -0.84499  -0.80726
 Alpha  occ. eigenvalues --   -0.78203  -0.76793  -0.75036  -0.74049  -0.73137
 Alpha  occ. eigenvalues --   -0.68972  -0.64057  -0.61920  -0.48448
 Alpha virt. eigenvalues --    0.03356   0.07713   0.08213   0.08511   0.10751
 Alpha virt. eigenvalues --    0.11337   0.11726   0.15332   0.18807   0.20295
 Alpha virt. eigenvalues --    0.21483   0.26651   0.26778   0.26976   0.27886

  Beta  occ. eigenvalues --  -26.18080 -26.17661 -26.17436 -26.17415 -20.67106
  Beta  occ. eigenvalues --  -11.51908 -11.48852  -1.74993  -1.74510  -1.69901
  Beta  occ. eigenvalues --   -1.69638  -1.44352  -1.06313  -0.96894  -0.89194
  Beta  occ. eigenvalues --   -0.88168  -0.86714  -0.85265  -0.80979  -0.79225
  Beta  occ. eigenvalues --   -0.76783  -0.74935  -0.74436  -0.73575  -0.73117
  Beta  occ. eigenvalues --   -0.66150  -0.63336  -0.61455
  Beta virt. eigenvalues --    0.03215   0.05907   0.08260   0.08496   0.09988
  Beta virt. eigenvalues --    0.10869   0.11453   0.12310   0.16089   0.19952
  Beta virt. eigenvalues --    0.20396   0.21566   0.26803   0.26912   0.27184

 Mulliken charges and spin densities:
               1          2
     1  C    0.759290   0.920210
     2  O   -0.543630   0.033866
     3  F   -0.282581   0.021877
     4  F   -0.300221   0.031422
     5  C    1.201971  -0.002393
     6  F   -0.304870  -0.002059
     7  F   -0.306856  -0.001821
     8  H   -0.223102  -0.001102
 Sum of Mulliken charges =  -0.00000   1.00000

 Dipole moment (field-independent basis, Debye):
    X=             -1.5311    Y=             -0.4970    Z=              1.3109  Tot=              2.0760
                          Isotropic Fermi Contact Couplings
        Atom                 a.u.       MegaHertz       Gauss      10(-4) cm-1
     1  C(13)              0.59606     670.08558     239.10320     223.51649
     2  O(17)              0.01315      -7.97392      -2.84529      -2.65981
     3  F(19)              0.07737     325.52833     116.15660     108.58456
     4  F(19)              0.09111     383.34537     136.78716     127.87025
     5  C(13)              0.01237      13.90806       4.96274       4.63923
     6  F(19)             -0.00173      -7.28676      -2.60010      -2.43060
     7  F(19)             -0.00082      -3.43311      -1.22502      -1.14516
     8  H(1)              -0.00053      -2.35458      -0.84017      -0.78540

 Normal termination of Gaussian 16 at Tue Apr  8 22:49:49 2025.
