 Gaussian 16, Revision C.01,

 ----------------------------------------------------------------------
 #t hf aug-cc-pvdz symm=none int=(grid=ultrafine) guess=(read,tcheck) s
 table=opt
 ----------------------------------------------------------------------
 -----
 title
 -----
 Symbolic Z-matrix:
 Charge =  0 Multiplicity = 2

 SCF Done:  E(UHF) =  -588.876525448     A.U. after   18 cycles
 Normal termination of Gaussian 16 at Tue Apr  8 23:02:50 2025.
 Gaussian 16:  ES64L-G16RevC.01  3-Jul-2019

 ----------------------------------------------------------------------
 #t hf aug-cc-pvdz iop(5/13=1,5/36=2,99/5=2) pseudo=read geom=check gue
 ss=(read,tcheck) scf=(maxcycle=1)
 ----------------------------------------------------------------------
 -----
 title
 -----
 Structure from the checkpoint file:  "BDE49_expt_384_mol2.chk"
 Charge =  0 Multiplicity = 2

                         Standard orientation:
 ---------------------------------------------------------------------
 Center     Atomic      Atomic             Coordinates (Angstroms)
 Number     Number       Type             X           Y           Z
 ---------------------------------------------------------------------
      1          8           0        1.188414    0.830657   -0.177166
      2          6           0        1.315089   -0.532551    0.237722
      3          6           0        0.054913   -1.264797   -0.222701
      4          1           0        1.408877   -0.575279    1.328624
      5          1           0        2.221863   -0.921459   -0.225995
      6         16           0       -1.282055   -0.036406    0.068618
      7          1           0       -0.137246   -2.163988    0.361288
      8          1           0        0.094022   -1.512088   -1.284408
      9          6           0       -0.081239    1.278629    0.075599
     10          1           0       -0.314524    2.222380   -0.403785
 ---------------------------------------------------------------------

 SCF Done:  E(UHF) =  -588.957380202     A.U. after    2 cycles

 The electronic state is 2-A.
 Alpha  occ. eigenvalues --  -93.54093 -20.60728 -11.31874 -11.31173 -11.28356
 Alpha  occ. eigenvalues --   -8.83899  -6.17972  -6.17828  -6.17577  -1.38322
 Alpha  occ. eigenvalues --   -1.06586  -1.01620  -0.84216  -0.81510  -0.71332
 Alpha  occ. eigenvalues --   -0.69264  -0.62779  -0.59939  -0.55666  -0.53020
 Alpha  occ. eigenvalues --   -0.50225  -0.46021  -0.41509  -0.30456
 Alpha virt. eigenvalues --    0.03414   0.04805   0.04962   0.05293   0.06950
 Alpha virt. eigenvalues --    0.08566   0.10468   0.11278   0.12051   0.13229
 Alpha virt. eigenvalues --    0.14151   0.15332   0.15977   0.16242   0.16856

  Beta  occ. eigenvalues --  -93.54035 -20.60218 -11.31192 -11.29296 -11.28352
  Beta  occ. eigenvalues --   -8.83828  -6.17994  -6.17845  -6.17248  -1.36692
  Beta  occ. eigenvalues --   -1.06244  -0.98808  -0.83728  -0.78037  -0.69890
  Beta  occ. eigenvalues --   -0.68090  -0.60062  -0.58552  -0.54550  -0.49817
  Beta  occ. eigenvalues --   -0.48985  -0.45362  -0.36060
  Beta virt. eigenvalues --    0.03417   0.04842   0.04956   0.05294   0.06926
  Beta virt. eigenvalues --    0.08590   0.09806   0.10588   0.12013   0.12811
  Beta virt. eigenvalues --    0.14044   0.14468   0.15508   0.16079   0.16916

 Mulliken charges and spin densities:
               1          2
     1  O   -0.589122   0.033216
     2  C    0.836000  -0.013616
     3  C   -0.251418   0.000948
     4  H   -0.137034  -0.006106
     5  H   -0.174101   0.001900
     6  S    0.430425  -0.019352
     7  H   -0.015335   0.001716
     8  H   -0.090273  -0.002312
     9  C    0.270614   1.078489
    10  H   -0.279755  -0.074883
 Sum of Mulliken charges =  -0.00000   1.00000

 Dipole moment (field-independent basis, Debye):
    X=              0.8176    Y=             -1.7863    Z=             -0.1140  Tot=              1.9678
                          Isotropic Fermi Contact Couplings
        Atom                 a.u.       MegaHertz       Gauss      10(-4) cm-1
     1  O(17)              0.05123     -31.05713     -11.08196     -10.35954
     2  C(13)             -0.00295      -3.31219      -1.18187      -1.10483
     3  C(13)             -0.00080      -0.90121      -0.32157      -0.30061
     4  H(1)               0.00029       1.28751       0.45941       0.42947
     5  H(1)              -0.00060      -2.66369      -0.95047      -0.88851
     6  S(33)              0.05878      20.18938       7.20407       6.73445
     7  H(1)              -0.00076      -3.40685      -1.21565      -1.13640
     8  H(1)               0.00124       5.56096       1.98429       1.85494

 Normal termination of Gaussian 16 at Tue Apr  8 23:02:53 2025.
