 Gaussian 16, Revision C.01,

 ----------------------------------------------------------------------
 #t hf aug-cc-pvdz symm=none int=(grid=ultrafine) guess=(read,tcheck) s
 table=(opt,rrhf)
 ----------------------------------------------------------------------
 -----
 title
 -----
 Symbolic Z-matrix:
 Charge =  0 Multiplicity = 1

 SCF Done:  E(RHF) =  -1448.86167100     A.U. after   15 cycles
 Normal termination of Gaussian 16 at Tue Apr  8 22:38:45 2025.
 Gaussian 16:  ES64L-G16RevC.01  3-Jul-2019

 ----------------------------------------------------------------------
 #t hf aug-cc-pvdz iop(5/13=1,5/36=2,99/5=2) pseudo=read geom=check gue
 ss=(read,tcheck) scf=(maxcycle=1)
 ----------------------------------------------------------------------
 -----
 title
 -----
 Structure from the checkpoint file:  "BDE49_expt_1047_mol1.chk"
 Charge =  0 Multiplicity = 1

                         Standard orientation:
 ---------------------------------------------------------------------
 Center     Atomic      Atomic             Coordinates (Angstroms)
 Number     Number       Type             X           Y           Z
 ---------------------------------------------------------------------
      1          6           0       -0.589063    1.037483    1.464726
      2          6           0       -0.591190    1.048857    2.852914
      3          6           0       -0.000000    0.000000    3.547795
      4          6           0        0.591190   -1.048857    2.852914
      5          6           0        0.589063   -1.037483    1.464726
      6          6           0       -0.000000    0.000000    0.740340
      7          6           0        0.000000    0.000000   -0.740340
      8          6           0       -0.589063   -1.037483   -1.464726
      9          6           0        0.589063    1.037483   -1.464726
     10          6           0        0.591190    1.048857   -2.852914
     11          6           0        0.000000    0.000000   -3.547795
     12          6           0       -0.591190   -1.048857   -2.852914
     13          9           0       -1.163754   -2.051860   -3.521719
     14          9           0       -1.180781   -2.049075   -0.820436
     15          9           0        1.163754    2.051860   -3.521719
     16          9           0        0.000000   -0.000000   -4.879468
     17          9           0        1.180781    2.049075   -0.820436
     18          9           0       -1.180781    2.049075    0.820436
     19          9           0        1.163754   -2.051860    3.521719
     20          9           0        1.180781   -2.049075    0.820436
     21          9           0       -1.163754    2.051860    3.521719
     22          9           0       -0.000000   -0.000000    4.879468
 ---------------------------------------------------------------------

 SCF Done:  E(RHF) =  -1449.35061499     A.U. after    2 cycles

 The electronic state is 1-A.
 Alpha  occ. eigenvalues --  -26.19273 -26.19273 -26.18933 -26.18933 -26.18931
 Alpha  occ. eigenvalues --  -26.18930 -26.18658 -26.18658 -26.18656 -26.18656
 Alpha  occ. eigenvalues --  -11.40972 -11.40971 -11.40650 -11.40646 -11.40645
 Alpha  occ. eigenvalues --  -11.40643 -11.39855 -11.39854 -11.39848 -11.39847
 Alpha  occ. eigenvalues --  -11.33243 -11.33172  -1.73875  -1.73842  -1.73392
 Alpha  occ. eigenvalues --   -1.73229  -1.73210  -1.72978  -1.72332  -1.72245
 Alpha  occ. eigenvalues --   -1.72096  -1.72044  -1.24837  -1.22833  -1.14083
 Alpha  occ. eigenvalues --   -1.10294  -1.10142  -1.08114  -0.99162  -0.97249
 Alpha  occ. eigenvalues --   -0.96546  -0.94937  -0.89376  -0.88980  -0.88951
 Alpha  occ. eigenvalues --   -0.88087  -0.87978  -0.85408  -0.83026  -0.82884
 Alpha  occ. eigenvalues --   -0.82863  -0.82521  -0.82325  -0.82205  -0.81455
 Alpha  occ. eigenvalues --   -0.81281  -0.80824  -0.80631  -0.80264  -0.79556
 Alpha  occ. eigenvalues --   -0.79226  -0.78739  -0.78656  -0.78454  -0.77563
 Alpha  occ. eigenvalues --   -0.76977  -0.76802  -0.76731  -0.75586  -0.69641
 Alpha  occ. eigenvalues --   -0.68857  -0.68461  -0.64931  -0.64434  -0.62333
 Alpha  occ. eigenvalues --   -0.57586  -0.56114  -0.43346  -0.40235  -0.40083
 Alpha  occ. eigenvalues --   -0.38833
 Alpha virt. eigenvalues --    0.04032   0.04377   0.04801   0.06281   0.06521
 Alpha virt. eigenvalues --    0.07447   0.07850   0.08118   0.08593   0.08924
 Alpha virt. eigenvalues --    0.09099   0.09346   0.09442   0.09845   0.10568

 Mulliken charges:
               1
     1  C    0.256932
     2  C   -0.001743
     3  C    0.497217
     4  C   -0.001743
     5  C    0.256932
     6  C    0.229384
     7  C    0.229384
     8  C    0.256932
     9  C    0.256932
    10  C   -0.001743
    11  C    0.497217
    12  C   -0.001743
    13  F   -0.221446
    14  F   -0.268155
    15  F   -0.221446
    16  F   -0.257778
    17  F   -0.268155
    18  F   -0.268155
    19  F   -0.221446
    20  F   -0.268155
    21  F   -0.221446
    22  F   -0.257778
 Sum of Mulliken charges =  -0.00000

 Dipole moment (field-independent basis, Debye):
    X=             -0.0000    Y=             -0.0000    Z=              0.0000  Tot=              0.0000

 Test job not archived.
 1\1\GINC-SE332\SP\RHF\Aug-CC-pVDZ\C12F10\OHZDE\08-Apr-2025\0\\#t hf au
 g-cc-pvdz iop(5/13=1,5/36=2,99/5=2) pseudo=read geom=check guess=(read
 ,tcheck) scf=(maxcycle=1)\\title\\0,1\C,0,0.589063,1.464726,1.037483\C
 ,0,0.59119,2.852914,1.048857\C,0,0.,3.547795,0.\C,0,-0.59119,2.852914,
 -1.048857\C,0,-0.589063,1.464726,-1.037483\C,0,0.,0.74034,0.\C,0,0.,-0
 .74034,0.\C,0,0.589063,-1.464726,-1.037483\C,0,-0.589063,-1.464726,1.0
 37483\C,0,-0.59119,-2.852914,1.048857\C,0,0.,-3.547795,0.\C,0,0.59119,
 -2.852914,-1.048857\F,0,1.163754,-3.521719,-2.05186\F,0,1.180781,-0.82

 Normal termination of Gaussian 16 at Tue Apr  8 22:38:55 2025.
