 Gaussian 16, Revision C.01,

 ----------------------------------------------------------------------
 #t hf aug-cc-pvdz symm=none int=(grid=ultrafine) guess=(read,tcheck) s
 table=(opt,rrhf)
 ----------------------------------------------------------------------
 -----
 title
 -----
 Symbolic Z-matrix:
 Charge =  0 Multiplicity = 1

 SCF Done:  E(RHF) =  -341.414758694     A.U. after   12 cycles
 Normal termination of Gaussian 16 at Wed Apr  9 00:29:52 2025.
 Gaussian 16:  ES64L-G16RevC.01  3-Jul-2019

 ----------------------------------------------------------------------
 #t hf aug-cc-pvdz iop(5/13=1,5/36=2,99/5=2) pseudo=read geom=check gue
 ss=(read,tcheck) scf=(maxcycle=1)
 ----------------------------------------------------------------------
 -----
 title
 -----
 Structure from the checkpoint file:  "BDE49_nonexpt_369_mol1.chk"
 Charge =  0 Multiplicity = 1

                         Standard orientation:
 ---------------------------------------------------------------------
 Center     Atomic      Atomic             Coordinates (Angstroms)
 Number     Number       Type             X           Y           Z
 ---------------------------------------------------------------------
      1          9           0        1.527061   -1.124989    0.057071
      2          9           0        1.527067    1.124986    0.057058
      3          5           0        0.826992   -0.000001   -0.061762
      4          6           0       -0.709276    0.000002   -0.363601
      5          6           0       -1.416887   -1.279638    0.120131
      6          1           0       -0.925853   -2.179151   -0.257265
      7          1           0       -2.459045   -1.297757   -0.211733
      8          1           0       -1.419287   -1.339438    1.213145
      9          6           0       -1.416883    1.279641    0.120142
     10          1           0       -0.755483    0.000007   -1.466717
     11          1           0       -1.419283    1.339431    1.213157
     12          1           0       -2.459040    1.297765   -0.211723
     13          1           0       -0.925847    2.179156   -0.257246
 ---------------------------------------------------------------------

 SCF Done:  E(RHF) =  -341.543712055     A.U. after    2 cycles

 The electronic state is 1-A.
 Alpha  occ. eigenvalues --  -26.13215 -26.13207 -11.23700 -11.23568 -11.23552
 Alpha  occ. eigenvalues --   -7.72774  -1.68533  -1.66167  -1.06215  -0.93655
 Alpha  occ. eigenvalues --   -0.87673  -0.82728  -0.81201  -0.76581  -0.75565
 Alpha  occ. eigenvalues --   -0.71550  -0.70944  -0.62997  -0.60722  -0.56472
 Alpha  occ. eigenvalues --   -0.54628  -0.49463  -0.49217  -0.46927
 Alpha virt. eigenvalues --    0.03165   0.04511   0.04820   0.04982   0.06880
 Alpha virt. eigenvalues --    0.06909   0.07150   0.07393   0.07558   0.09827
 Alpha virt. eigenvalues --    0.11628   0.13233   0.14468   0.15008   0.15570

 Mulliken charges:
               1
     1  F   -0.472459
     2  F   -0.472458
     3  B    1.087011
     4  C   -0.466380
     5  C    0.458251
     6  H   -0.115952
     7  H   -0.065280
     8  H   -0.080490
     9  C    0.458251
    10  H   -0.068771
    11  H   -0.080490
    12  H   -0.065282
    13  H   -0.115951
 Sum of Mulliken charges =  -0.00000

 Dipole moment (field-independent basis, Debye):
    X=             -2.0180    Y=              0.0000    Z=             -0.4209  Tot=              2.0614

 Test job not archived.
 1\1\GINC-SE332\SP\RHF\Aug-CC-pVDZ\C3H7B1F2\OHZDE\09-Apr-2025\0\\#t hf
 aug-cc-pvdz iop(5/13=1,5/36=2,99/5=2) pseudo=read geom=check guess=(re
 ad,tcheck) scf=(maxcycle=1)\\title\\0,1\F,0,-1.527061,1.12499,0.057071
 \F,0,-1.527067,-1.124985,0.057058\B,0,-0.826992,0.000001,-0.061762\C,0
 ,0.709276,-0.000002,-0.363601\C,0,1.416887,1.279638,0.120131\H,0,0.925
 854,2.179151,-0.257265\H,0,2.459045,1.297756,-0.211733\H,0,1.419287,1.
 339438,1.213145\C,0,1.416883,-1.279641,0.120142\H,0,0.755483,-0.000007
 ,-1.466717\H,0,1.419283,-1.339431,1.213157\H,0,2.45904,-1.297766,-0.21

 Normal termination of Gaussian 16 at Wed Apr  9 00:29:56 2025.
