 Gaussian 16, Revision C.01,

 ----------------------------------------------------------------------
 #t hf aug-cc-pvdz symm=none int=(grid=ultrafine) guess=(read,tcheck) s
 table=(opt,rrhf)
 ----------------------------------------------------------------------
 -----
 title
 -----
 Symbolic Z-matrix:
 Charge =  0 Multiplicity = 1

 SCF Done:  E(RHF) =  -1484.48731614     A.U. after   16 cycles
 Normal termination of Gaussian 16 at Wed Apr  9 00:48:16 2025.
 Gaussian 16:  ES64L-G16RevC.01  3-Jul-2019

 ----------------------------------------------------------------------
 #t hf aug-cc-pvdz iop(5/13=1,5/36=2,99/5=2) pseudo=read geom=check gue
 ss=(read,tcheck) scf=(maxcycle=1)
 ----------------------------------------------------------------------
 -----
 title
 -----
 Structure from the checkpoint file:  "BDE49_nonexpt_881_mol1.chk"
 Charge =  0 Multiplicity = 1

                         Standard orientation:
 ---------------------------------------------------------------------
 Center     Atomic      Atomic             Coordinates (Angstroms)
 Number     Number       Type             X           Y           Z
 ---------------------------------------------------------------------
      1         16           0       -0.532576   -1.972010   -0.395391
      2          8           0       -2.522336    2.393383    0.636936
      3         16           0        1.786569    1.668045   -0.863637
      4         16           0        2.627577   -0.844061    0.783160
      5          6           0       -2.235020   -1.706237   -0.324475
      6          1           0       -2.916810   -2.521993   -0.512284
      7          6           0       -2.525361   -0.407908   -0.032894
      8          1           0       -3.522807   -0.005973    0.077071
      9          6           0       -1.358183    0.395991    0.126279
     10          6           0       -0.167888   -0.309180   -0.041006
     11          6           0       -1.462462    1.820779    0.508088
     12          1           0       -0.507168    2.346839    0.685764
     13          5           0        1.318007    0.138435   -0.004673
     14          1           0        1.843051   -1.763232    1.372492
     15          1           0        3.080750    1.712870   -0.497222
 ---------------------------------------------------------------------

 SCF Done:  E(RHF) =  -1484.63022136     A.U. after    2 cycles

 The electronic state is 1-A.
 Alpha  occ. eigenvalues --  -93.59146 -93.55789 -93.55760 -20.57854 -11.35434
 Alpha  occ. eigenvalues --  -11.29724 -11.29667 -11.28108 -11.26778  -8.88938
 Alpha  occ. eigenvalues --   -8.85756  -8.85693  -7.69860  -6.23048  -6.22901
 Alpha  occ. eigenvalues --   -6.22577  -6.19933  -6.19902  -6.19679  -6.19645
 Alpha  occ. eigenvalues --   -6.19455  -6.19414  -1.36384  -1.18656  -1.03392
 Alpha  occ. eigenvalues --   -1.02190  -0.99064  -0.96304  -0.86865  -0.80279
 Alpha  occ. eigenvalues --   -0.75693  -0.73077  -0.66649  -0.64561  -0.61616
 Alpha  occ. eigenvalues --   -0.60132  -0.58075  -0.57061  -0.54226  -0.52759
 Alpha  occ. eigenvalues --   -0.50757  -0.48284  -0.46649  -0.45468  -0.43654
 Alpha  occ. eigenvalues --   -0.38298  -0.37018  -0.35364
 Alpha virt. eigenvalues --    0.02988   0.03130   0.03807   0.04997   0.05255
 Alpha virt. eigenvalues --    0.05983   0.06404   0.07221   0.07865   0.08506
 Alpha virt. eigenvalues --    0.08923   0.09741   0.10620   0.11223   0.11530

 Mulliken charges:
               1
     1  S    0.677517
     2  O   -0.537453
     3  S   -0.236199
     4  S   -0.264994
     5  C    0.043373
     6  H   -0.355334
     7  C    0.555564
     8  H   -0.477619
     9  C   -0.232363
    10  C   -0.251585
    11  C    0.834660
    12  H   -0.293274
    13  B    0.504957
    14  H    0.016581
    15  H    0.016170
 Sum of Mulliken charges =   0.00000

 Dipole moment (field-independent basis, Debye):
    X=              1.5836    Y=             -2.8790    Z=              0.0452  Tot=              3.2861

 Test job not archived.
 1\1\GINC-SE073\SP\RHF\Aug-CC-pVDZ\C5H5B1O1S3\OHZDE\09-Apr-2025\0\\#t h
 f aug-cc-pvdz iop(5/13=1,5/36=2,99/5=2) pseudo=read geom=check guess=(
 read,tcheck) scf=(maxcycle=1)\\title\\0,1\S,0,-0.532576,-1.97201,-0.39
 5391\O,0,-2.522336,2.393383,0.636936\S,0,1.786569,1.668045,-0.863637\S
 ,0,2.627577,-0.844062,0.78316\C,0,-2.23502,-1.706237,-0.324475\H,0,-2.
 916811,-2.521993,-0.512284\C,0,-2.525361,-0.407908,-0.032894\H,0,-3.52
 2807,-0.005972,0.077071\C,0,-1.358183,0.395991,0.126279\C,0,-0.167888,
 -0.30918,-0.041006\C,0,-1.462462,1.820779,0.508088\H,0,-0.507168,2.346

 Normal termination of Gaussian 16 at Wed Apr  9 00:48:24 2025.
