 Gaussian 16, Revision C.01,

 ----------------------------------------------------------------------
 #t hf aug-cc-pvdz symm=none int=(grid=ultrafine) guess=(read,tcheck) s
 table=(opt,rrhf)
 ----------------------------------------------------------------------
 -----
 title
 -----
 Symbolic Z-matrix:
 Charge =  0 Multiplicity = 1

 SCF Done:  E(RHF) =  -316.035723594     A.U. after   12 cycles
 Normal termination of Gaussian 16 at Wed Apr  9 00:30:41 2025.
 Gaussian 16:  ES64L-G16RevC.01  3-Jul-2019

 ----------------------------------------------------------------------
 #t hf aug-cc-pvdz iop(5/13=1,5/36=2,99/5=2) pseudo=read geom=check gue
 ss=(read,tcheck) scf=(maxcycle=1)
 ----------------------------------------------------------------------
 -----
 title
 -----
 Structure from the checkpoint file:  "BDE49_nonexpt_387_mol1.chk"
 Charge =  0 Multiplicity = 1

                         Standard orientation:
 ---------------------------------------------------------------------
 Center     Atomic      Atomic             Coordinates (Angstroms)
 Number     Number       Type             X           Y           Z
 ---------------------------------------------------------------------
      1          9           0       -0.000147   -1.109125    1.135316
      2          9           0       -0.000147   -1.109125   -1.135316
      3          5           0       -0.000147   -0.451622   -0.000000
      4          6           0        0.000142    1.088470   -0.000000
      5          7           0        0.000360    2.241648    0.000000
 ---------------------------------------------------------------------

 SCF Done:  E(RHF) =  -316.155683413     A.U. after    2 cycles

 The electronic state is 1-A'.
 Alpha  occ. eigenvalues --  -26.18640 -26.18633 -15.69202 -11.30376  -7.81719
 Alpha  occ. eigenvalues --   -1.74104  -1.72042  -1.22790  -0.93394  -0.87298
 Alpha  occ. eigenvalues --   -0.87007  -0.81603  -0.76658  -0.76389  -0.72942
 Alpha  occ. eigenvalues --   -0.58655  -0.51396  -0.51325
 Alpha virt. eigenvalues --    0.03594   0.04088   0.04966   0.05536   0.06191
 Alpha virt. eigenvalues --    0.10726   0.12597   0.12933   0.13597   0.17350
 Alpha virt. eigenvalues --    0.19837   0.21682   0.22745   0.22855   0.25412

 Mulliken charges:
               1
     1  F   -0.387723
     2  F   -0.387723
     3  B    1.051078
     4  C   -0.133878
     5  N   -0.141755
 Sum of Mulliken charges =  -0.00000

 Dipole moment (field-independent basis, Debye):
    X=             -0.0007    Y=             -1.4332    Z=             -0.0000  Tot=              1.4332

 Test job not archived.
 1\1\GINC-SE128\SP\RHF\Aug-CC-pVDZ\C1B1F2N1\OHZDE\09-Apr-2025\0\\#t hf
 aug-cc-pvdz iop(5/13=1,5/36=2,99/5=2) pseudo=read geom=check guess=(re
 ad,tcheck) scf=(maxcycle=1)\\title\\0,1\F,0,-1.109125,-1.135316,-0.000
 024\F,0,-1.109125,1.135316,-0.000024\B,0,-0.451622,0.,0.000077\C,0,1.0
 8847,0.,0.000025\N,0,2.241648,0.,-0.000016\\Version=ES64L-G16RevC.01\S
 tate=1-A'\HF=-316.1556834\RMSD=5.672e-03\Dipole=-0.5638522,0.,0.000202
 9\Quadrupole=-4.0111547,0.3050635,3.7060912,0.,-0.0001868,0.\PG=CS [SG
 (C1B1N1),X(F2)]\\@

 Normal termination of Gaussian 16 at Wed Apr  9 00:30:43 2025.
