 Gaussian 16, Revision C.01,

 ----------------------------------------------------------------------
 #t hf aug-cc-pvdz symm=none int=(grid=ultrafine) guess=(read,tcheck) s
 table=(opt,rrhf)
 ----------------------------------------------------------------------
 -----
 title
 -----
 Symbolic Z-matrix:
 Charge =  0 Multiplicity = 1

 SCF Done:  E(RHF) =  -1032.50128592     A.U. after   12 cycles

 1\1\GINC-SE094\Stability\RHF\Aug-CC-pVDZ\C2Cl1F5\OHZDE\08-Apr-2025\0\\
 #t hf aug-cc-pvdz symm=none int=(grid=ultrafine) guess=(read,tcheck) s
 table=(opt,rrhf)\\title\\0,1\C,0,0.445969,0.462187,0.\C,0,-0.946133,-0
 .229235,0.\Cl,0,1.768073,-0.725526,-0.000003\F,0,0.537271,1.24027,1.08
 8424\F,0,0.537269,1.240274,-1.08842\F,0,-1.091537,-0.988035,-1.088055\
 F,0,-1.897718,0.710668,0.000003\F,0,-1.091535,-0.988039,1.088053\\Vers
 ion=ES64L-G16RevC.01\HF=-1032.5012859\RMSD=6.854e-09\Dipole=0.1934461,
 -0.1484814,-0.000003\Quadrupole=0.8121438,-0.1250134,-0.6871304,-0.739

 Normal termination of Gaussian 16 at Tue Apr  8 22:46:35 2025.
 Gaussian 16:  ES64L-G16RevC.01  3-Jul-2019

 ----------------------------------------------------------------------
 #t hf aug-cc-pvdz iop(5/13=1,5/36=2,99/5=2) pseudo=read geom=check gue
 ss=(read,tcheck) scf=(maxcycle=1)
 ----------------------------------------------------------------------
 -----
 title
 -----
 Structure from the checkpoint file:  "BDE49_expt_1630_mol1.chk"
 Charge =  0 Multiplicity = 1

                         Standard orientation:
 ---------------------------------------------------------------------
 Center     Atomic      Atomic             Coordinates (Angstroms)
 Number     Number       Type             X           Y           Z
 ---------------------------------------------------------------------
      1          6           0        0.445969    0.462187    0.000000
      2          6           0       -0.946133   -0.229235    0.000000
      3         17           0        1.768073   -0.725526   -0.000003
      4          9           0        0.537271    1.240270    1.088424
      5          9           0        0.537269    1.240274   -1.088420
      6          9           0       -1.091537   -0.988035   -1.088055
      7          9           0       -1.897718    0.710668    0.000003
      8          9           0       -1.091535   -0.988039    1.088053
 ---------------------------------------------------------------------

 SCF Done:  E(RHF) =  -1032.72764948     A.U. after    2 cycles

 The electronic state is 1-A.
 Alpha  occ. eigenvalues -- -103.71482 -26.20268 -26.20258 -26.20178 -26.20168
 Alpha  occ. eigenvalues --  -26.20073 -11.57395 -11.54556 -10.74829  -8.40552
 Alpha  occ. eigenvalues --   -8.40208  -8.40200  -1.80300  -1.77316  -1.73254
 Alpha  occ. eigenvalues --   -1.72817  -1.72378  -1.23451  -1.10838  -1.01049
 Alpha  occ. eigenvalues --   -0.93374  -0.92640  -0.91949  -0.88137  -0.85452
 Alpha  occ. eigenvalues --   -0.81734  -0.80534  -0.80130  -0.79236  -0.76654
 Alpha  occ. eigenvalues --   -0.76353  -0.75508  -0.75076  -0.69300  -0.60295
 Alpha  occ. eigenvalues --   -0.52545  -0.52329
 Alpha virt. eigenvalues --    0.06651   0.07672   0.08232   0.09298   0.10497
 Alpha virt. eigenvalues --    0.11961   0.12168   0.12738   0.14544   0.16420
 Alpha virt. eigenvalues --    0.18423   0.19950   0.21543   0.25095   0.25699

 Mulliken charges:
               1
     1  C    0.442940
     2  C    1.035842
     3  Cl  -0.090992
     4  F   -0.295686
     5  F   -0.295685
     6  F   -0.261202
     7  F   -0.274015
     8  F   -0.261202
 Sum of Mulliken charges =  -0.00000

 Dipole moment (field-independent basis, Debye):
    X=              0.6828    Y=             -0.5608    Z=             -0.0000  Tot=              0.8836

 Test job not archived.
 1\1\GINC-SE094\SP\RHF\Aug-CC-pVDZ\C2Cl1F5\OHZDE\08-Apr-2025\0\\#t hf a
 ug-cc-pvdz iop(5/13=1,5/36=2,99/5=2) pseudo=read geom=check guess=(rea
 d,tcheck) scf=(maxcycle=1)\\title\\0,1\C,0,0.445969,0.462187,0.\C,0,-0
 .946133,-0.229235,0.\Cl,0,1.768073,-0.725526,-0.000003\F,0,0.537271,1.
 24027,1.088424\F,0,0.537269,1.240274,-1.08842\F,0,-1.091537,-0.988035,
 -1.088055\F,0,-1.897718,0.710668,0.000003\F,0,-1.091535,-0.988039,1.08
 8053\\Version=ES64L-G16RevC.01\State=1-A\HF=-1032.7276495\RMSD=6.295e-
 03\Dipole=0.2686355,-0.2206467,-0.0000034\Quadrupole=0.9801141,-0.1968

 Normal termination of Gaussian 16 at Tue Apr  8 22:46:39 2025.
