 Gaussian 16, Revision C.01,

 ----------------------------------------------------------------------
 #t hf aug-cc-pvdz symm=none int=(grid=ultrafine) guess=(read,tcheck) s
 table=(opt,rrhf)
 ----------------------------------------------------------------------
 -----
 title
 -----
 Symbolic Z-matrix:
 Charge =  0 Multiplicity = 1

 SCF Done:  E(RHF) =  -1099.84127966     A.U. after   15 cycles
 Normal termination of Gaussian 16 at Tue Apr  8 23:40:43 2025.
 Gaussian 16:  ES64L-G16RevC.01  3-Jul-2019

 ----------------------------------------------------------------------
 #t hf aug-cc-pvdz iop(5/13=1,5/36=2,99/5=2) pseudo=read geom=check gue
 ss=(read,tcheck) scf=(maxcycle=1)
 ----------------------------------------------------------------------
 -----
 title
 -----
 Structure from the checkpoint file:  "BDE49_nonexpt_1644_mol1.chk"
 Charge =  0 Multiplicity = 1

                         Standard orientation:
 ---------------------------------------------------------------------
 Center     Atomic      Atomic             Coordinates (Angstroms)
 Number     Number       Type             X           Y           Z
 ---------------------------------------------------------------------
      1         14           0       -0.627456    0.704311   -0.550738
      2         15           0        1.382295   -0.100869    0.143051
      3          7           0       -1.820178   -0.669883   -0.010985
      4          8           0        1.625631    0.193465    1.564655
      5          8           0        2.465153    0.530445   -0.864704
      6          8           0       -2.999521   -0.367376    0.082915
      7          8           0       -1.386782   -1.811032    0.191530
      8          6           0       -1.176604    2.261949    0.290808
      9          1           0       -1.005371    2.191916    1.366966
     10          1           0       -2.239059    2.432290    0.105507
     11          1           0       -0.610711    3.115145   -0.093477
     12          1           0        3.161973    0.992859   -0.381587
     13          8           0        1.394202   -1.617986   -0.348960
     14          1           0        0.564129   -2.062103   -0.089738
     15          1           0       -0.809600    0.679934   -2.014546
 ---------------------------------------------------------------------

 SCF Done:  E(RHF) =  -1100.07710127     A.U. after    2 cycles

 The electronic state is 1-A.
 Alpha  occ. eigenvalues --  -81.42992 -69.15328 -20.64574 -20.63828 -20.63337
 Alpha  occ. eigenvalues --  -20.62038 -20.54238 -15.90538 -11.26541  -7.91405
 Alpha  occ. eigenvalues --   -6.90397  -5.06043  -5.05955  -5.05550  -4.01234
 Alpha  occ. eigenvalues --   -4.01048  -4.01031  -1.55456  -1.39273  -1.37768
 Alpha  occ. eigenvalues --   -1.35717  -1.27331  -0.99902  -0.95091  -0.86401
 Alpha  occ. eigenvalues --   -0.82346  -0.75719  -0.74967  -0.72946  -0.71740
 Alpha  occ. eigenvalues --   -0.68391  -0.66214  -0.62311  -0.61351  -0.60460
 Alpha  occ. eigenvalues --   -0.60176  -0.58730  -0.54298  -0.53628  -0.51369
 Alpha  occ. eigenvalues --   -0.50179  -0.49747  -0.49373  -0.44657
 Alpha virt. eigenvalues --    0.02169   0.03779   0.04245   0.04986   0.05414
 Alpha virt. eigenvalues --    0.06067   0.07162   0.07450   0.07780   0.09015
 Alpha virt. eigenvalues --    0.09903   0.10502   0.11513   0.13261   0.13791

 Mulliken charges:
               1
     1  Si   0.966349
     2  P    2.137627
     3  N    0.376871
     4  O   -0.991934
     5  O   -0.710095
     6  O   -0.549021
     7  O   -0.604996
     8  C    0.242246
     9  H   -0.090834
    10  H   -0.173259
    11  H   -0.201050
    12  H    0.136452
    13  O   -0.800687
    14  H    0.243226
    15  H    0.019105
 Sum of Mulliken charges =  -0.00000

 Dipole moment (field-independent basis, Debye):
    X=              0.5787    Y=              4.2506    Z=             -2.7157  Tot=              5.0772

 Test job not archived.
 1\1\GINC-SE009\SP\RHF\Aug-CC-pVDZ\C1H6N1O5P1Si1\OHZDE\08-Apr-2025\0\\#
 t hf aug-cc-pvdz iop(5/13=1,5/36=2,99/5=2) pseudo=read geom=check gues
 s=(read,tcheck) scf=(maxcycle=1)\\title\\0,1\Si,0,-0.627456,0.704311,-
 0.550738\P,0,1.382295,-0.100869,0.143051\N,0,-1.820178,-0.669883,-0.01
 0985\O,0,1.625631,0.193465,1.564655\O,0,2.465153,0.530444,-0.864704\O,
 0,-2.999521,-0.367376,0.082915\O,0,-1.386782,-1.811032,0.19153\C,0,-1.
 176604,2.261949,0.290808\H,0,-1.005371,2.191916,1.366966\H,0,-2.239059
 ,2.43229,0.105507\H,0,-0.610711,3.115145,-0.093477\H,0,3.161973,0.9928

 Normal termination of Gaussian 16 at Tue Apr  8 23:40:50 2025.
