 Gaussian 16, Revision C.01,

 ----------------------------------------------------------------------
 #t hf aug-cc-pvdz symm=none int=(grid=ultrafine) guess=(read,tcheck) s
 table=(opt,rrhf)
 ----------------------------------------------------------------------
 -----
 title
 -----
 Symbolic Z-matrix:
 Charge =  0 Multiplicity = 1

 SCF Done:  E(RHF) =  -950.687452849     A.U. after   16 cycles
 Normal termination of Gaussian 16 at Wed Apr  9 00:45:26 2025.
 Gaussian 16:  ES64L-G16RevC.01  3-Jul-2019

 ----------------------------------------------------------------------
 #t hf aug-cc-pvdz iop(5/13=1,5/36=2,99/5=2) pseudo=read geom=check gue
 ss=(read,tcheck) scf=(maxcycle=1)
 ----------------------------------------------------------------------
 -----
 title
 -----
 Structure from the checkpoint file:  "BDE49_nonexpt_743_mol1.chk"
 Charge =  0 Multiplicity = 1

                         Standard orientation:
 ---------------------------------------------------------------------
 Center     Atomic      Atomic             Coordinates (Angstroms)
 Number     Number       Type             X           Y           Z
 ---------------------------------------------------------------------
      1          6           0       -1.180137    2.283039   -0.613165
      2          6           0        0.112647    2.038453   -0.157128
      3          6           0       -2.158081    1.295783   -0.533729
      4          6           0       -1.804378    0.072873    0.020527
      5          6           0       -0.525140   -0.187101    0.500880
      6          6           0        0.464262    0.800227    0.404645
      7          1           0       -0.329858   -1.147906    0.961084
      8          1           0       -1.426650    3.247865   -1.040497
      9          1           0        0.859647    2.819420   -0.239571
     10          5           0        2.882640   -0.667155   -0.349340
     11          8           0        2.134513   -1.391627   -1.226205
     12          8           0        4.237311   -0.748443   -0.390576
     13          1           0       -3.168456    1.454183   -0.882596
     14          7           0       -2.831535   -0.992382    0.120637
     15          8           0       -3.963688   -0.722138   -0.253299
     16          8           0       -2.480712   -2.076039    0.566899
     17          1           0        4.547876   -1.337291   -1.089304
     18          1           0        1.187592   -1.226769   -1.172194
     19         15           0        2.139152    0.434824    1.090371
     20          1           0        2.775688    1.636924    0.703015
 ---------------------------------------------------------------------

 SCF Done:  E(RHF) =  -950.894887326     A.U. after    2 cycles

 The electronic state is 1-A.
 Alpha  occ. eigenvalues --  -81.26213 -20.62671 -20.62635 -20.60401 -20.59759
 Alpha  occ. eigenvalues --  -15.92899 -11.33212 -11.29411 -11.29216 -11.29183
 Alpha  occ. eigenvalues --  -11.29009 -11.28467  -7.76776  -7.69115  -4.90938
 Alpha  occ. eigenvalues --   -4.90755  -4.90500  -1.55893  -1.37488  -1.36479
 Alpha  occ. eigenvalues --   -1.32852  -1.19830  -1.09234  -1.05830  -0.96226
 Alpha  occ. eigenvalues --   -0.88611  -0.84720  -0.82049  -0.80150  -0.77790
 Alpha  occ. eigenvalues --   -0.74972  -0.74102  -0.73554  -0.71862  -0.67806
 Alpha  occ. eigenvalues --   -0.65190  -0.64357  -0.61222  -0.60355  -0.59587
 Alpha  occ. eigenvalues --   -0.56358  -0.55300  -0.54142  -0.52648  -0.52371
 Alpha  occ. eigenvalues --   -0.50702  -0.48321  -0.47205  -0.41067  -0.38898
 Alpha  occ. eigenvalues --   -0.33786
 Alpha virt. eigenvalues --    0.02182   0.02294   0.03317   0.04312   0.05118
 Alpha virt. eigenvalues --    0.05584   0.05771   0.07039   0.07154   0.07597
 Alpha virt. eigenvalues --    0.08071   0.08434   0.09475   0.09971   0.10386

 Mulliken charges:
               1
     1  C    0.341702
     2  C    0.967756
     3  C    0.653262
     4  C    1.022841
     5  C    0.573229
     6  C   -0.472310
     7  H   -0.564560
     8  H   -0.441398
     9  H   -0.598944
    10  B    0.859043
    11  O   -0.436149
    12  O   -0.537463
    13  H   -0.451691
    14  N    0.115062
    15  O   -0.570879
    16  O   -0.549427
    17  H    0.196580
    18  H    0.248116
    19  P   -0.464123
    20  H    0.109354
 Sum of Mulliken charges =  -0.00000

 Dipole moment (field-independent basis, Debye):
    X=              2.2685    Y=              3.7615    Z=             -1.7683  Tot=              4.7352

 Test job not archived.
 1\1\GINC-SE069\SP\RHF\Aug-CC-pVDZ\C6H7B1N1O4P1\OHZDE\09-Apr-2025\0\\#t
  hf aug-cc-pvdz iop(5/13=1,5/36=2,99/5=2) pseudo=read geom=check guess
 =(read,tcheck) scf=(maxcycle=1)\\title\\0,1\C,0,-1.180137,2.283039,-0.
 613165\C,0,0.112647,2.038453,-0.157128\C,0,-2.158081,1.295783,-0.53372
 9\C,0,-1.804378,0.072873,0.020527\C,0,-0.52514,-0.187101,0.50088\C,0,0
 .464262,0.800227,0.404645\H,0,-0.329858,-1.147906,0.961084\H,0,-1.4266
 5,3.247865,-1.040497\H,0,0.859647,2.81942,-0.239571\B,0,2.88264,-0.667
 155,-0.34934\O,0,2.134513,-1.391627,-1.226205\O,0,4.237311,-0.748443,-

 Normal termination of Gaussian 16 at Wed Apr  9 00:45:41 2025.
