 Gaussian 16, Revision C.01,

 ----------------------------------------------------------------------
 #t hf aug-cc-pvdz symm=none int=(grid=ultrafine) guess=(read,tcheck) s
 table=(opt,rrhf)
 ----------------------------------------------------------------------
 -----
 title
 -----
 Symbolic Z-matrix:
 Charge =  0 Multiplicity = 1

 SCF Done:  E(RHF) =  -613.301152962     A.U. after   12 cycles
 Normal termination of Gaussian 16 at Wed Apr  9 00:28:58 2025.
 Gaussian 16:  ES64L-G16RevC.01  3-Jul-2019

 ----------------------------------------------------------------------
 #t hf aug-cc-pvdz iop(5/13=1,5/36=2,99/5=2) pseudo=read geom=check gue
 ss=(read,tcheck) scf=(maxcycle=1)
 ----------------------------------------------------------------------
 -----
 title
 -----
 Structure from the checkpoint file:  "BDE49_nonexpt_360_mol1.chk"
 Charge =  0 Multiplicity = 1

                         Standard orientation:
 ---------------------------------------------------------------------
 Center     Atomic      Atomic             Coordinates (Angstroms)
 Number     Number       Type             X           Y           Z
 ---------------------------------------------------------------------
      1          9           0       -1.935192   -0.845782   -0.000117
      2          9           0       -1.304640    1.321927    0.000060
      3          5           0       -0.953795    0.047107    0.000062
      4         14           0        0.978899   -0.576134    0.000032
      5          9           0        1.966100    0.701127   -0.000035
      6          1           0        1.264034   -1.382526    1.206680
      7          1           0        1.263943   -1.382565   -1.206610
 ---------------------------------------------------------------------

 SCF Done:  E(RHF) =  -613.459037704     A.U. after    2 cycles

 The electronic state is 1-A.
 Alpha  occ. eigenvalues --  -69.12749 -26.15513 -26.15346 -26.11687  -7.75679
 Alpha  occ. eigenvalues --   -6.87552  -3.98476  -3.98287  -3.98265  -1.70758
 Alpha  occ. eigenvalues --   -1.68473  -1.64224  -0.89424  -0.83521  -0.82322
 Alpha  occ. eigenvalues --   -0.79181  -0.78251  -0.73514  -0.73299  -0.72932
 Alpha  occ. eigenvalues --   -0.72594  -0.65442  -0.50562  -0.47706
 Alpha virt. eigenvalues --    0.03741   0.04524   0.04763   0.05194   0.07207
 Alpha virt. eigenvalues --    0.07478   0.07672   0.08196   0.10459   0.12295
 Alpha virt. eigenvalues --    0.13452   0.15940   0.18705   0.21028   0.23831

 Mulliken charges:
               1
     1  F   -0.453332
     2  F   -0.494701
     3  B    1.018764
     4  Si   0.685231
     5  F   -0.774862
     6  H    0.009446
     7  H    0.009453
 Sum of Mulliken charges =  -0.00000

 Dipole moment (field-independent basis, Debye):
    X=              0.2402    Y=             -1.6450    Z=              0.0004  Tot=              1.6625

 Test job not archived.
 1\1\GINC-SE132\SP\RHF\Aug-CC-pVDZ\B1F3H2Si1\OHZDE\09-Apr-2025\0\\#t hf
  aug-cc-pvdz iop(5/13=1,5/36=2,99/5=2) pseudo=read geom=check guess=(r
 ead,tcheck) scf=(maxcycle=1)\\title\\0,1\F,0,1.935192,-0.845782,0.0001
 17\F,0,1.30464,1.321927,-0.00006\B,0,0.953795,0.047107,-0.000062\Si,0,
 -0.978899,-0.576134,-0.000032\F,0,-1.9661,0.701127,0.000035\H,0,-1.264
 034,-1.382526,-1.20668\H,0,-1.263943,-1.382565,1.20661\\Version=ES64L-
 G16RevC.01\State=1-A\HF=-613.4590377\RMSD=6.581e-03\Dipole=-0.094516,-
 0.6472073,-0.0001429\Quadrupole=-3.0805505,-0.3989511,3.4795016,1.8851

 Normal termination of Gaussian 16 at Wed Apr  9 00:29:00 2025.
