 Gaussian 16, Revision C.01,

 ----------------------------------------------------------------------
 #t hf aug-cc-pvdz symm=none int=(grid=ultrafine) guess=(read,tcheck) s
 table=opt
 ----------------------------------------------------------------------
 -----
 title
 -----
 Symbolic Z-matrix:
 Charge =  0 Multiplicity = 2

 SCF Done:  E(UHF) =  -808.598110051     A.U. after   18 cycles
 Normal termination of Gaussian 16 at Tue Apr  8 23:13:51 2025.
 Gaussian 16:  ES64L-G16RevC.01  3-Jul-2019

 ----------------------------------------------------------------------
 #t hf aug-cc-pvdz iop(5/13=1,5/36=2,99/5=2) pseudo=read geom=check gue
 ss=(read,tcheck) scf=(maxcycle=1)
 ----------------------------------------------------------------------
 -----
 title
 -----
 Structure from the checkpoint file:  "BDE49_nonexpt_1014_mol2.chk"
 Charge =  0 Multiplicity = 2

                         Standard orientation:
 ---------------------------------------------------------------------
 Center     Atomic      Atomic             Coordinates (Angstroms)
 Number     Number       Type             X           Y           Z
 ---------------------------------------------------------------------
      1         16           0       -1.911796   -0.008335   -0.000005
      2          8           0       -0.439112    0.777450   -0.000042
      3          6           0        0.714593    0.006726    0.000002
      4          9           0        1.734033    0.856600   -0.000040
      5          9           0        0.789324   -0.768723   -1.082691
      6          9           0        0.789318   -0.768611    1.082775
 ---------------------------------------------------------------------

 SCF Done:  E(UHF) =  -808.769557036     A.U. after    2 cycles

 The electronic state is 2-A.
 Alpha  occ. eigenvalues --  -93.64412 -26.19090 -26.19080 -26.19030 -20.68265
 Alpha  occ. eigenvalues --  -11.60230  -8.93497  -6.28699  -6.27274  -6.26559
 Alpha  occ. eigenvalues --   -1.79638  -1.72161  -1.72057  -1.43587  -1.06722
 Alpha  occ. eigenvalues --   -0.98377  -0.92020  -0.91524  -0.85774  -0.80180
 Alpha  occ. eigenvalues --   -0.79989  -0.75532  -0.75526  -0.74186  -0.70416
 Alpha  occ. eigenvalues --   -0.66641  -0.63491  -0.46754  -0.42218
 Alpha virt. eigenvalues --    0.05217   0.08166   0.08910   0.09000   0.10164
 Alpha virt. eigenvalues --    0.12186   0.12324   0.15360   0.20064   0.21568
 Alpha virt. eigenvalues --    0.22238   0.25920   0.26291   0.28756   0.30493

  Beta  occ. eigenvalues --  -93.63515 -26.19086 -26.19077 -26.19037 -20.67748
  Beta  occ. eigenvalues --  -11.60255  -8.92499  -6.26861  -6.26022  -6.24658
  Beta  occ. eigenvalues --   -1.79627  -1.72171  -1.72043  -1.42144  -1.05410
  Beta  occ. eigenvalues --   -0.95135  -0.91795  -0.91249  -0.82866  -0.80028
  Beta  occ. eigenvalues --   -0.79640  -0.75453  -0.75433  -0.74167  -0.69375
  Beta  occ. eigenvalues --   -0.61465  -0.61073  -0.40111
  Beta virt. eigenvalues --   -0.01028   0.05969   0.08321   0.08984   0.09601
  Beta virt. eigenvalues --    0.10318   0.12461   0.13966   0.16445   0.20189
  Beta virt. eigenvalues --    0.22302   0.22540   0.25954   0.26665   0.29859

 Mulliken charges and spin densities:
               1          2
     1  S    0.487852   0.979436
     2  O   -0.775702   0.025023
     3  C    1.036153  -0.009290
     4  F   -0.223365   0.000702
     5  F   -0.262469   0.002065
     6  F   -0.262468   0.002065
 Sum of Mulliken charges =  -0.00000   1.00000

 Dipole moment (field-independent basis, Debye):
    X=             -1.5621    Y=             -0.3608    Z=              0.0000  Tot=              1.6033
                          Isotropic Fermi Contact Couplings
        Atom                 a.u.       MegaHertz       Gauss      10(-4) cm-1
     1  S(33)              0.21490      73.81317      26.33837      24.62142
     2  O(17)              0.05558     -33.69397     -12.02284     -11.23910
     3  C(13)             -0.00498      -5.60026      -1.99831      -1.86805
     4  F(19)             -0.00129      -5.44713      -1.94367      -1.81697
     5  F(19)             -0.00197      -8.30458      -2.96328      -2.77011
     6  F(19)             -0.00197      -8.30457      -2.96328      -2.77010
 --------------------------------------------------------
       Center         ----  Spin Dipole Couplings  ----

 Normal termination of Gaussian 16 at Tue Apr  8 23:13:53 2025.
