 Gaussian 16, Revision C.01,

 ----------------------------------------------------------------------
 #t hf aug-cc-pvdz symm=none int=(grid=ultrafine) guess=(read,tcheck) s
 table=(opt,rrhf)
 ----------------------------------------------------------------------
 -----
 title
 -----
 Symbolic Z-matrix:
 Charge =  0 Multiplicity = 1

 SCF Done:  E(RHF) =  -517.909034057     A.U. after   13 cycles
 Normal termination of Gaussian 16 at Tue Apr  8 23:49:27 2025.
 Gaussian 16:  ES64L-G16RevC.01  3-Jul-2019

 ----------------------------------------------------------------------
 #t hf aug-cc-pvdz iop(5/13=1,5/36=2,99/5=2) pseudo=read geom=check gue
 ss=(read,tcheck) scf=(maxcycle=1)
 ----------------------------------------------------------------------
 -----
 title
 -----
 Structure from the checkpoint file:  "BDE49_nonexpt_1887_mol1.chk"
 Charge =  0 Multiplicity = 1

                         Standard orientation:
 ---------------------------------------------------------------------
 Center     Atomic      Atomic             Coordinates (Angstroms)
 Number     Number       Type             X           Y           Z
 ---------------------------------------------------------------------
      1          6           0       -0.251564    0.533574   -0.000008
      2         14           0       -2.062955   -0.019073   -0.000002
      3          8           0        0.571897   -0.664557    0.000009
      4          6           0        1.902774   -0.465972    0.000008
      5          1           0       -2.906314    1.199136   -0.000022
      6          1           0       -2.350784   -0.820672    1.209372
      7          1           0       -2.350781   -0.820709   -1.209350
      8          8           0        2.453022    0.598131   -0.000005
      9          1           0        2.404036   -1.444270    0.000022
     10          1           0       -0.010701    1.139677    0.878098
     11          1           0       -0.010699    1.139653   -0.878130
 ---------------------------------------------------------------------

 SCF Done:  E(RHF) =  -518.007213738     A.U. after    2 cycles

 The electronic state is 1-A.
 Alpha  occ. eigenvalues --  -69.07369 -20.63119 -20.57727 -11.40278 -11.29688
 Alpha  occ. eigenvalues --   -6.82724  -3.93514  -3.93499  -3.93486  -1.42796
 Alpha  occ. eigenvalues --   -1.33878  -0.98698  -0.82636  -0.75696  -0.70662
 Alpha  occ. eigenvalues --   -0.68953  -0.68948  -0.58090  -0.57159  -0.49886
 Alpha  occ. eigenvalues --   -0.49644  -0.48490  -0.48103  -0.46822
 Alpha virt. eigenvalues --    0.03211   0.04305   0.04938   0.05054   0.06902
 Alpha virt. eigenvalues --    0.07895   0.08521   0.08760   0.09040   0.10710
 Alpha virt. eigenvalues --    0.11499   0.12139   0.15125   0.15680   0.16165

 Mulliken charges:
               1
     1  C    0.485248
     2  Si   0.469299
     3  O   -0.463089
     4  C    0.622277
     5  H   -0.020458
     6  H   -0.055019
     7  H   -0.055018
     8  O   -0.371291
     9  H   -0.208751
    10  H   -0.201600
    11  H   -0.201600
 Sum of Mulliken charges =  -0.00000

 Dipole moment (field-independent basis, Debye):
    X=             -1.4841    Y=             -1.0273    Z=              0.0000  Tot=              1.8049

 Test job not archived.
 1\1\GINC-SE071\SP\RHF\Aug-CC-pVDZ\C2H6O2Si1\OHZDE\08-Apr-2025\0\\#t hf
  aug-cc-pvdz iop(5/13=1,5/36=2,99/5=2) pseudo=read geom=check guess=(r
 ead,tcheck) scf=(maxcycle=1)\\title\\0,1\C,0,-0.251564,0.533574,-0.000
 008\Si,0,-2.062955,-0.019073,-0.000002\O,0,0.571897,-0.664557,0.000009
 \C,0,1.902774,-0.465972,0.000008\H,0,-2.906314,1.199136,-0.000022\H,0,
 -2.350784,-0.820672,1.209372\H,0,-2.350781,-0.820709,-1.20935\O,0,2.45
 3022,0.598131,-0.000005\H,0,2.404036,-1.44427,0.000022\H,0,-0.010701,1
 .139677,0.878098\H,0,-0.010699,1.139653,-0.87813\\Version=ES64L-G16Rev

 Normal termination of Gaussian 16 at Tue Apr  8 23:49:31 2025.
