 Gaussian 16, Revision C.01,

 ----------------------------------------------------------------------
 #t hf aug-cc-pvdz symm=none int=(grid=ultrafine) guess=(read,tcheck) s
 table=(opt,rrhf)
 ----------------------------------------------------------------------
 -----
 title
 -----
 Symbolic Z-matrix:
 Charge =  0 Multiplicity = 1

 SCF Done:  E(RHF) =  -784.861984190     A.U. after   13 cycles
 Normal termination of Gaussian 16 at Wed Apr  9 00:10:49 2025.
 Gaussian 16:  ES64L-G16RevC.01  3-Jul-2019

 ----------------------------------------------------------------------
 #t hf aug-cc-pvdz iop(5/13=1,5/36=2,99/5=2) pseudo=read geom=check gue
 ss=(read,tcheck) scf=(maxcycle=1)
 ----------------------------------------------------------------------
 -----
 title
 -----
 Structure from the checkpoint file:  "BDE49_nonexpt_2404_mol1.chk"
 Charge =  0 Multiplicity = 1

                         Standard orientation:
 ---------------------------------------------------------------------
 Center     Atomic      Atomic             Coordinates (Angstroms)
 Number     Number       Type             X           Y           Z
 ---------------------------------------------------------------------
      1         14           0       -2.077038    0.291558   -0.000017
      2         14           0       -0.096197   -0.977076    0.000015
      3          7           0        1.333890    0.245636   -0.000003
      4          8           0        1.065995    1.446976    0.000016
      5          1           0       -3.225288   -0.646594   -0.000017
      6          1           0       -2.120752    1.127915   -1.217501
      7          1           0        0.141234   -1.789202   -1.209894
      8          1           0        0.141226   -1.789148    1.209962
      9          8           0        2.468059   -0.216115   -0.000009
     10          1           0       -2.120775    1.127942    1.217446
 ---------------------------------------------------------------------

 SCF Done:  E(RHF) =  -784.968056054     A.U. after    2 cycles

 The electronic state is 1-A.
 Alpha  occ. eigenvalues --  -69.13163 -69.09065 -20.62055 -20.62025 -15.88492
 Alpha  occ. eigenvalues --   -6.88297  -6.84460  -3.99138  -3.98962  -3.98926
 Alpha  occ. eigenvalues --   -3.95221  -3.95212  -3.95206  -1.53368  -1.35745
 Alpha  occ. eigenvalues --   -0.94041  -0.80262  -0.73656  -0.73101  -0.70929
 Alpha  occ. eigenvalues --   -0.66146  -0.53300  -0.52988  -0.50620  -0.50442
 Alpha  occ. eigenvalues --   -0.47970  -0.47100  -0.43699
 Alpha virt. eigenvalues --    0.02851   0.03677   0.05130   0.05425   0.06070
 Alpha virt. eigenvalues --    0.06545   0.07044   0.07114   0.08366   0.08590
 Alpha virt. eigenvalues --    0.09575   0.09688   0.10853   0.12985   0.13861

 Mulliken charges:
               1
     1  Si  -0.110730
     2  Si   0.742738
     3  N    0.258860
     4  O   -0.469201
     5  H    0.009865
     6  H    0.055397
     7  H    0.004313
     8  H    0.004307
     9  O   -0.550948
    10  H    0.055400
 Sum of Mulliken charges =  -0.00000

 Dipole moment (field-independent basis, Debye):
    X=             -4.0918    Y=             -2.5060    Z=             -0.0000  Tot=              4.7982

 Test job not archived.
 1\1\GINC-SE435\SP\RHF\Aug-CC-pVDZ\H5N1O2Si2\OHZDE\09-Apr-2025\0\\#t hf
  aug-cc-pvdz iop(5/13=1,5/36=2,99/5=2) pseudo=read geom=check guess=(r
 ead,tcheck) scf=(maxcycle=1)\\title\\0,1\Si,0,-2.077038,0.291558,-0.00
 0017\Si,0,-0.096197,-0.977076,0.000015\N,0,1.33389,0.245636,-0.000003\
 O,0,1.065995,1.446976,0.000016\H,0,-3.225288,-0.646594,-0.000017\H,0,-
 2.120752,1.127915,-1.217501\H,0,0.141234,-1.789202,-1.209894\H,0,0.141
 226,-1.789148,1.209962\O,0,2.468059,-0.216115,-0.000009\H,0,-2.120775,
 1.127942,1.217446\\Version=ES64L-G16RevC.01\State=1-A\HF=-784.9680561\

 Normal termination of Gaussian 16 at Wed Apr  9 00:10:52 2025.
