 Gaussian 16, Revision C.01,

 ----------------------------------------------------------------------
 #t hf aug-cc-pvdz symm=none int=(grid=ultrafine) guess=(read,tcheck) s
 table=(opt,rrhf)
 ----------------------------------------------------------------------
 -----
 title
 -----
 Symbolic Z-matrix:
 Charge =  0 Multiplicity = 1

 SCF Done:  E(RHF) =  -2004.34786218     A.U. after   12 cycles
 Normal termination of Gaussian 16 at Tue Apr  8 23:46:16 2025.
 Gaussian 16:  ES64L-G16RevC.01  3-Jul-2019

 ----------------------------------------------------------------------
 #t hf aug-cc-pvdz iop(5/13=1,5/36=2,99/5=2) pseudo=read geom=check gue
 ss=(read,tcheck) scf=(maxcycle=1)
 ----------------------------------------------------------------------
 -----
 title
 -----
 Structure from the checkpoint file:  "BDE49_nonexpt_1801_mol1.chk"
 Charge =  0 Multiplicity = 1

                         Standard orientation:
 ---------------------------------------------------------------------
 Center     Atomic      Atomic             Coordinates (Angstroms)
 Number     Number       Type             X           Y           Z
 ---------------------------------------------------------------------
      1         14           0        0.001212    0.000000    0.000000
      2         16           0        1.303474    1.514995   -0.749177
      3         17           0       -1.251717    0.800096    1.441733
      4         17           0       -1.251536   -0.800378   -1.441733
      5          1           0        0.410551    2.507716   -0.580283
      6         16           0        1.303817   -1.514700    0.749177
      7          1           0        0.411119   -2.507623    0.580282
 ---------------------------------------------------------------------

 SCF Done:  E(RHF) =  -2004.44813572     A.U. after    2 cycles

 The electronic state is 1-A.
 Alpha  occ. eigenvalues -- -103.67641-103.67640 -93.56305 -93.56304 -69.21696
 Alpha  occ. eigenvalues --  -10.71090 -10.71083  -8.86252  -8.86245  -8.36781
 Alpha  occ. eigenvalues --   -8.36777  -8.36539  -8.36537  -8.36534  -8.36529
 Alpha  occ. eigenvalues --   -6.95473  -6.20383  -6.20382  -6.20186  -6.20176
 Alpha  occ. eigenvalues --   -6.19883  -6.19871  -4.06286  -4.06270  -4.06232
 Alpha  occ. eigenvalues --   -1.17405  -1.14896  -0.99710  -0.96997  -0.69670
 Alpha  occ. eigenvalues --   -0.60995  -0.58559  -0.54938  -0.54378  -0.53345
 Alpha  occ. eigenvalues --   -0.50392  -0.48317  -0.47649  -0.45203  -0.40743
 Alpha  occ. eigenvalues --   -0.40323
 Alpha virt. eigenvalues --    0.03687   0.04984   0.06116   0.06430   0.07639
 Alpha virt. eigenvalues --    0.08985   0.09285   0.10081   0.11967   0.12211
 Alpha virt. eigenvalues --    0.12526   0.13830   0.14271   0.15648   0.15807

 Mulliken charges:
               1
     1  Si   1.468132
     2  S   -0.367822
     3  Cl  -0.471168
     4  Cl  -0.471167
     5  H    0.104924
     6  S   -0.367822
     7  H    0.104924
 Sum of Mulliken charges =  -0.00000

 Dipole moment (field-independent basis, Debye):
    X=              0.0846    Y=              0.0000    Z=             -0.0000  Tot=              0.0846

 Test job not archived.
 1\1\GINC-SE333\SP\RHF\Aug-CC-pVDZ\Cl2H2S2Si1\OHZDE\08-Apr-2025\0\\#t h
 f aug-cc-pvdz iop(5/13=1,5/36=2,99/5=2) pseudo=read geom=check guess=(
 read,tcheck) scf=(maxcycle=1)\\title\\0,1\Si,0,-0.001212,0.,0.\S,0,-1.
 303639,1.514853,0.749177\Cl,0,1.25163,0.800232,-1.441733\Cl,0,1.251623
 ,-0.800242,1.441733\H,0,-0.410824,2.507671,0.580283\S,0,-1.303652,-1.5
 14842,-0.749177\H,0,-0.410846,-2.507668,-0.580282\\Version=ES64L-G16Re
 vC.01\State=1-A\HF=-2004.4481357\RMSD=6.046e-03\Dipole=-0.0332718,-0.0
 000005,0.0000007\Quadrupole=-2.3440296,5.1533261,-2.8092965,0.0000322,

 Normal termination of Gaussian 16 at Tue Apr  8 23:46:18 2025.
