 Gaussian 16, Revision C.01,

 ----------------------------------------------------------------------
 #t hf aug-cc-pvdz symm=none int=(grid=ultrafine) guess=(read,tcheck) s
 table=(opt,rrhf)
 ----------------------------------------------------------------------
 -----
 title
 -----
 Symbolic Z-matrix:
 Charge =  0 Multiplicity = 1

 SCF Done:  E(RHF) =  -1355.35245627     A.U. after   16 cycles
 Normal termination of Gaussian 16 at Wed Apr  9 00:52:11 2025.
 Gaussian 16:  ES64L-G16RevC.01  3-Jul-2019

 ----------------------------------------------------------------------
 #t hf aug-cc-pvdz iop(5/13=1,5/36=2,99/5=2) pseudo=read geom=check gue
 ss=(read,tcheck) scf=(maxcycle=1)
 ----------------------------------------------------------------------
 -----
 title
 -----
 Structure from the checkpoint file:  "BDE49_nonexpt_946_mol1.chk"
 Charge =  0 Multiplicity = 1

                         Standard orientation:
 ---------------------------------------------------------------------
 Center     Atomic      Atomic             Coordinates (Angstroms)
 Number     Number       Type             X           Y           Z
 ---------------------------------------------------------------------
      1          6           0       -0.820506    0.342543    0.023032
      2          6           0       -1.688852    0.623430    1.080428
      3          1           0       -1.353396    1.264911    1.886780
      4          6           0       -2.970115    0.081793    1.079818
      5          1           0       -3.645578    0.294696    1.900048
      6          6           0       -3.383078   -0.731664    0.024703
      7          1           0       -4.381851   -1.152693    0.026071
      8          6           0       -2.516567   -1.001125   -1.032728
      9          1           0       -2.838485   -1.631219   -1.853391
     10          6           0       -1.233678   -0.460115   -1.040665
     11          1           0       -0.549641   -0.656171   -1.856486
     12          7           0        0.498025    0.900061    0.028049
     13         17           0        0.643178    2.510566   -0.625315
     14          6           0        1.677596    0.307490    0.445771
     15          8           0        2.753035    0.852560    0.407037
     16          6           0        1.520542   -1.112330    0.992702
     17         17           0        1.761305   -2.331715   -0.324119
     18          1           0        0.549644   -1.313235    1.435820
     19          1           0        2.320600   -1.267792    1.710532
 ---------------------------------------------------------------------

 SCF Done:  E(RHF) =  -1355.51944452     A.U. after    2 cycles

 The electronic state is 1-A.
 Alpha  occ. eigenvalues -- -103.70453-103.67044 -20.56502 -15.72215 -11.39957
 Alpha  occ. eigenvalues --  -11.33098 -11.31459 -11.27482 -11.27298 -11.27263
 Alpha  occ. eigenvalues --  -11.27035 -11.26912 -10.73323 -10.70273  -8.39088
 Alpha  occ. eigenvalues --   -8.38693  -8.38663  -8.35999  -8.35698  -8.35685
 Alpha  occ. eigenvalues --   -1.38352  -1.27719  -1.18045  -1.16988  -1.10662
 Alpha  occ. eigenvalues --   -1.03959  -1.02814  -0.96686  -0.87428  -0.86215
 Alpha  occ. eigenvalues --   -0.78493  -0.73528  -0.70955  -0.69088  -0.68009
 Alpha  occ. eigenvalues --   -0.65078  -0.63211  -0.62799  -0.61905  -0.60393
 Alpha  occ. eigenvalues --   -0.56540  -0.54525  -0.53553  -0.52977  -0.51295
 Alpha  occ. eigenvalues --   -0.49570  -0.48620  -0.46564  -0.45131  -0.40597
 Alpha  occ. eigenvalues --   -0.36654  -0.36631
 Alpha virt. eigenvalues --    0.02641   0.03372   0.04258   0.04723   0.05636
 Alpha virt. eigenvalues --    0.06086   0.06284   0.07109   0.07863   0.08908
 Alpha virt. eigenvalues --    0.09168   0.10551   0.11394   0.12127   0.12504

 Mulliken charges:
               1
     1  C   -0.303994
     2  C    0.680010
     3  H   -0.577616
     4  C    0.551042
     5  H   -0.434935
     6  C    0.744906
     7  H   -0.455656
     8  C    0.541599
     9  H   -0.442084
    10  C    0.742077
    11  H   -0.592130
    12  N   -0.668525
    13  Cl   0.231076
    14  C    0.421275
    15  O   -0.447704
    16  C    0.090418
    17  Cl  -0.069380
    18  H   -0.023586
    19  H    0.013209
 Sum of Mulliken charges =  -0.00000

 Dipole moment (field-independent basis, Debye):
    X=             -5.0554    Y=             -1.6094    Z=              1.5637  Tot=              5.5310

 Test job not archived.
 1\1\GINC-SE412\SP\RHF\Aug-CC-pVDZ\C8H7Cl2N1O1\OHZDE\09-Apr-2025\0\\#t
 hf aug-cc-pvdz iop(5/13=1,5/36=2,99/5=2) pseudo=read geom=check guess=
 (read,tcheck) scf=(maxcycle=1)\\title\\0,1\C,0,-0.820506,0.342543,0.02
 3032\C,0,-1.688852,0.62343,1.080428\H,0,-1.353396,1.264911,1.88678\C,0
 ,-2.970115,0.081793,1.079818\H,0,-3.645578,0.294696,1.900048\C,0,-3.38
 3078,-0.731664,0.024703\H,0,-4.381851,-1.152693,0.026071\C,0,-2.516567
 ,-1.001125,-1.032728\H,0,-2.838485,-1.631219,-1.853391\C,0,-1.233678,-
 0.460115,-1.040665\H,0,-0.549641,-0.656171,-1.856486\N,0,0.498025,0.90

 Normal termination of Gaussian 16 at Wed Apr  9 00:52:25 2025.
