 Gaussian 16, Revision C.01,

 ----------------------------------------------------------------------
 #t hf aug-cc-pvdz symm=none int=(grid=ultrafine) guess=(read,tcheck) s
 table=(opt,rrhf)
 ----------------------------------------------------------------------
 -----
 title
 -----
 Symbolic Z-matrix:
 Charge =  0 Multiplicity = 1

 SCF Done:  E(RHF) =  -556.979608359     A.U. after   19 cycles
 Normal termination of Gaussian 16 at Tue Apr  8 23:23:43 2025.
 Gaussian 16:  ES64L-G16RevC.01  3-Jul-2019

 ----------------------------------------------------------------------
 #t hf aug-cc-pvdz iop(5/13=1,5/36=2,99/5=2) pseudo=read geom=check gue
 ss=(read,tcheck) scf=(maxcycle=1)
 ----------------------------------------------------------------------
 -----
 title
 -----
 Structure from the checkpoint file:  "BDE49_nonexpt_1180_mol1.chk"
 Charge =  0 Multiplicity = 1

                         Standard orientation:
 ---------------------------------------------------------------------
 Center     Atomic      Atomic             Coordinates (Angstroms)
 Number     Number       Type             X           Y           Z
 ---------------------------------------------------------------------
      1          9           0        2.326268   -1.833087    0.739333
      2          6           0        1.299790    0.014530   -0.239779
      3          8           0        2.138032   -0.987530   -0.552563
      4          6           0       -0.108278   -0.224798   -0.135647
      5          6           0       -0.664287   -1.520544   -0.213008
      6          1           0        0.001925   -2.364360   -0.333343
      7          6           0       -2.026416   -1.692087   -0.115502
      8          1           0       -2.449603   -2.688357   -0.174575
      9          6           0       -2.882619   -0.582540    0.064429
     10          1           0       -3.952642   -0.738416    0.139752
     11          6           0       -2.364084    0.687441    0.146418
     12          1           0       -3.017487    1.541817    0.286559
     13          6           0       -0.965166    0.902111    0.049897
     14          6           0       -0.392559    2.199394    0.130277
     15          1           0       -1.053116    3.049486    0.265390
     16          6           0        0.968670    2.392720    0.041804
     17          1           0        1.383831    3.391329    0.105667
     18          6           0        1.825966    1.289845   -0.119083
     19          1           0        2.900329    1.410080   -0.181780
 ---------------------------------------------------------------------

 SCF Done:  E(RHF) =  -557.146138021     A.U. after    2 cycles

 The electronic state is 1-A.
 Alpha  occ. eigenvalues --  -26.13405 -20.71456 -11.32082 -11.27891 -11.27662
 Alpha  occ. eigenvalues --  -11.27442 -11.27193 -11.26658 -11.26270 -11.26089
 Alpha  occ. eigenvalues --  -11.25917 -11.25562  -1.61549  -1.36265  -1.18043
 Alpha  occ. eigenvalues --   -1.12006  -1.05121  -1.02680  -0.98960  -0.87517
 Alpha  occ. eigenvalues --   -0.86774  -0.83157  -0.75775  -0.75004  -0.72218
 Alpha  occ. eigenvalues --   -0.71482  -0.69805  -0.68704  -0.64931  -0.63889
 Alpha  occ. eigenvalues --   -0.62122  -0.61651  -0.59161  -0.56562  -0.55880
 Alpha  occ. eigenvalues --   -0.54863  -0.50780  -0.50333  -0.46934  -0.40501
 Alpha  occ. eigenvalues --   -0.34233  -0.31371
 Alpha virt. eigenvalues --    0.01264   0.02909   0.03326   0.04117   0.05094
 Alpha virt. eigenvalues --    0.05601   0.07137   0.07676   0.07941   0.08497
 Alpha virt. eigenvalues --    0.10090   0.10605   0.11244   0.11785   0.12236

 Mulliken charges:
               1
     1  F   -0.424496
     2  C   -0.328466
     3  O   -0.342241
     4  C    0.449193
     5  C    0.593132
     6  H   -0.616296
     7  C    0.416520
     8  H   -0.438633
     9  C    0.467220
    10  H   -0.452126
    11  C    0.730076
    12  H   -0.559674
    13  C    0.250549
    14  C    0.365973
    15  H   -0.571148
    16  C    0.504557
    17  H   -0.424499
    18  C    0.900494
    19  H   -0.520136
 Sum of Mulliken charges =  -0.00000

 Dipole moment (field-independent basis, Debye):
    X=             -2.7663    Y=              3.3401    Z=             -0.6628  Tot=              4.3873

 Test job not archived.
 1\1\GINC-SE177\SP\RHF\Aug-CC-pVDZ\C10H7F1O1\OHZDE\08-Apr-2025\0\\#t hf
  aug-cc-pvdz iop(5/13=1,5/36=2,99/5=2) pseudo=read geom=check guess=(r
 ead,tcheck) scf=(maxcycle=1)\\title\\0,1\F,0,2.326268,-1.833087,0.7393
 33\C,0,1.29979,0.01453,-0.239779\O,0,2.138032,-0.98753,-0.552563\C,0,-
 0.108278,-0.224798,-0.135647\C,0,-0.664287,-1.520544,-0.213008\H,0,0.0
 01925,-2.36436,-0.333343\C,0,-2.026416,-1.692087,-0.115502\H,0,-2.4496
 03,-2.688357,-0.174575\C,0,-2.882619,-0.58254,0.064429\H,0,-3.952642,-
 0.738416,0.139752\C,0,-2.364084,0.687441,0.146418\H,0,-3.017487,1.5418

 Normal termination of Gaussian 16 at Tue Apr  8 23:23:56 2025.
