 Gaussian 16, Revision C.01,

 ----------------------------------------------------------------------
 #t hf aug-cc-pvdz symm=none int=(grid=ultrafine) guess=(read,tcheck) s
 table=(opt,rrhf)
 ----------------------------------------------------------------------
 -----
 title
 -----
 Symbolic Z-matrix:
 Charge =  0 Multiplicity = 1

 SCF Done:  E(RHF) =  -480.026549078     A.U. after   12 cycles
 Normal termination of Gaussian 16 at Tue Apr  8 23:49:01 2025.
 Gaussian 16:  ES64L-G16RevC.01  3-Jul-2019

 ----------------------------------------------------------------------
 #t hf aug-cc-pvdz iop(5/13=1,5/36=2,99/5=2) pseudo=read geom=check gue
 ss=(read,tcheck) scf=(maxcycle=1)
 ----------------------------------------------------------------------
 -----
 title
 -----
 Structure from the checkpoint file:  "BDE49_nonexpt_1864_mol1.chk"
 Charge =  0 Multiplicity = 1

                         Standard orientation:
 ---------------------------------------------------------------------
 Center     Atomic      Atomic             Coordinates (Angstroms)
 Number     Number       Type             X           Y           Z
 ---------------------------------------------------------------------
      1          6           0        0.506573    0.007873   -0.397991
      2         14           0       -1.356009    0.013388    0.035235
      3          8           0        1.143440   -1.182675    0.050281
      4          1           0        1.024616   -1.232077    1.006666
      5          8           0        1.073609    1.162283    0.190817
      6          1           0        2.008858    1.188880   -0.048400
      7          1           0       -2.000029    1.304630   -0.292864
      8          1           0       -1.465736   -0.251266    1.490708
      9          1           0       -2.025916   -1.077897   -0.707380
     10          1           0        0.666505   -0.003805   -1.482859
 ---------------------------------------------------------------------

 SCF Done:  E(RHF) =  -480.110736251     A.U. after    2 cycles

 The electronic state is 1-A.
 Alpha  occ. eigenvalues --  -69.06705 -20.59066 -20.58943 -11.33991  -6.82099
 Alpha  occ. eigenvalues --   -3.92871  -3.92866  -3.92864  -1.37231  -1.30233
 Alpha  occ. eigenvalues --   -0.91278  -0.77059  -0.70829  -0.66487  -0.64151
 Alpha  occ. eigenvalues --   -0.61136  -0.52580  -0.51014  -0.48521  -0.48371
 Alpha  occ. eigenvalues --   -0.43047
 Alpha virt. eigenvalues --    0.03303   0.04615   0.04863   0.05716   0.06909
 Alpha virt. eigenvalues --    0.07769   0.08391   0.09257   0.09770   0.13187
 Alpha virt. eigenvalues --    0.13895   0.15204   0.16137   0.16884   0.19125

 Mulliken charges:
               1
     1  C    0.769669
     2  Si   0.473031
     3  O   -0.561718
     4  H    0.122554
     5  O   -0.523923
     6  H    0.122795
     7  H   -0.038674
     8  H   -0.074464
     9  H   -0.025000
    10  H   -0.264270
 Sum of Mulliken charges =  -0.00000

 Dipole moment (field-independent basis, Debye):
    X=              0.2735    Y=              0.1869    Z=             -0.1203  Tot=              0.3525

 Test job not archived.
 1\1\GINC-SE054\SP\RHF\Aug-CC-pVDZ\C1H6O2Si1\OHZDE\08-Apr-2025\0\\#t hf
  aug-cc-pvdz iop(5/13=1,5/36=2,99/5=2) pseudo=read geom=check guess=(r
 ead,tcheck) scf=(maxcycle=1)\\title\\0,1\C,0,0.506573,0.007873,-0.3979
 91\Si,0,-1.356009,0.013388,0.035235\O,0,1.14344,-1.182675,0.050281\H,0
 ,1.024616,-1.232077,1.006666\O,0,1.073609,1.162283,0.190817\H,0,2.0088
 58,1.18888,-0.0484\H,0,-2.000029,1.30463,-0.292864\H,0,-1.465736,-0.25
 1266,1.490708\H,0,-2.025916,-1.077897,-0.70738\H,0,0.666505,-0.003805,
 -1.482859\\Version=ES64L-G16RevC.01\State=1-A\HF=-480.1107363\RMSD=3.9

 Normal termination of Gaussian 16 at Tue Apr  8 23:49:04 2025.
