 Gaussian 16, Revision C.01,

 ----------------------------------------------------------------------
 #t hf aug-cc-pvdz symm=none int=(grid=ultrafine) guess=(read,tcheck) s
 table=(opt,rrhf)
 ----------------------------------------------------------------------
 -----
 title
 -----
 Symbolic Z-matrix:
 Charge =  0 Multiplicity = 1

 SCF Done:  E(RHF) =  -923.023525243     A.U. after   13 cycles
 Normal termination of Gaussian 16 at Tue Apr  8 23:03:55 2025.
 Gaussian 16:  ES64L-G16RevC.01  3-Jul-2019

 ----------------------------------------------------------------------
 #t hf aug-cc-pvdz iop(5/13=1,5/36=2,99/5=2) pseudo=read geom=check gue
 ss=(read,tcheck) scf=(maxcycle=1)
 ----------------------------------------------------------------------
 -----
 title
 -----
 Structure from the checkpoint file:  "BDE49_expt_391_mol1.chk"
 Charge =  0 Multiplicity = 1

                         Standard orientation:
 ---------------------------------------------------------------------
 Center     Atomic      Atomic             Coordinates (Angstroms)
 Number     Number       Type             X           Y           Z
 ---------------------------------------------------------------------
      1          6           0        1.426986    1.467504    0.000000
      2         16           0        0.847443   -0.226754    0.000000
      3          1           0        1.072934    1.961663   -0.903148
      4          1           0        2.515770    1.400800    0.000001
      5          1           0        1.072933    1.961663    0.903148
      6          6           0       -1.014815    0.035083    0.000000
      7          9           0       -1.378198    0.725537    1.087224
      8          9           0       -1.620360   -1.146083   -0.000001
      9          9           0       -1.378197    0.725538   -1.087224
     10          8           0        1.168564   -0.841032    1.263620
     11          8           0        1.168565   -0.841032   -1.263619
 ---------------------------------------------------------------------

 SCF Done:  E(RHF) =  -923.281890871     A.U. after    2 cycles

 The electronic state is 1-A.
 Alpha  occ. eigenvalues --  -93.82249 -26.20835 -26.20824 -26.20591 -20.59433
 Alpha  occ. eigenvalues --  -20.59432 -11.57483 -11.31672  -9.08974  -6.43608
 Alpha  occ. eigenvalues --   -6.43384  -6.43310  -1.80419  -1.73431  -1.73384
 Alpha  occ. eigenvalues --   -1.45787  -1.34453  -1.09577  -1.05519  -0.94327
 Alpha  occ. eigenvalues --   -0.92194  -0.92155  -0.82984  -0.81119  -0.81082
 Alpha  occ. eigenvalues --   -0.77128  -0.76986  -0.75680  -0.71956  -0.70666
 Alpha  occ. eigenvalues --   -0.69563  -0.63946  -0.63066  -0.55584  -0.54815
 Alpha  occ. eigenvalues --   -0.52907  -0.49308
 Alpha virt. eigenvalues --    0.02797   0.05091   0.05200   0.07457   0.09350
 Alpha virt. eigenvalues --    0.10495   0.10559   0.11688   0.12317   0.14325
 Alpha virt. eigenvalues --    0.15040   0.15452   0.15670   0.17044   0.19372

 Mulliken charges:
               1
     1  C   -0.090850
     2  S    2.396421
     3  H    0.019571
     4  H    0.066324
     5  H    0.019572
     6  C    0.654766
     7  F   -0.321989
     8  F   -0.260153
     9  F   -0.321990
    10  O   -1.080837
    11  O   -1.080836
 Sum of Mulliken charges =  -0.00000

 Dipole moment (field-independent basis, Debye):
    X=              0.5619    Y=              4.4018    Z=             -0.0000  Tot=              4.4375

 Test job not archived.
 1\1\GINC-SE247\SP\RHF\Aug-CC-pVDZ\C2H3F3O2S1\OHZDE\08-Apr-2025\0\\#t h
 f aug-cc-pvdz iop(5/13=1,5/36=2,99/5=2) pseudo=read geom=check guess=(
 read,tcheck) scf=(maxcycle=1)\\title\\0,1\C,0,1.426986,1.467504,0.\S,0
 ,0.847443,-0.226754,0.\H,0,1.072934,1.961663,-0.903148\H,0,2.51577,1.4
 008,0.000001\H,0,1.072933,1.961663,0.903148\C,0,-1.014815,0.035083,0.\
 F,0,-1.378198,0.725537,1.087224\F,0,-1.62036,-1.146083,-0.000001\F,0,-
 1.378197,0.725538,-1.087224\O,0,1.168564,-0.841032,1.26362\O,0,1.16856
 5,-0.841032,-1.263619\\Version=ES64L-G16RevC.01\State=1-A\HF=-923.2818

 Normal termination of Gaussian 16 at Tue Apr  8 23:04:00 2025.
