 Gaussian 16, Revision C.01,

 ----------------------------------------------------------------------
 #t hf aug-cc-pvdz symm=none int=(grid=ultrafine) guess=(read,tcheck) s
 table=(opt,rrhf)
 ----------------------------------------------------------------------
 -----
 title
 -----
 Symbolic Z-matrix:
 Charge =  0 Multiplicity = 1

 SCF Done:  E(RHF) =  -528.080366165     A.U. after   12 cycles
 Normal termination of Gaussian 16 at Tue Apr  8 23:48:15 2025.
 Gaussian 16:  ES64L-G16RevC.01  3-Jul-2019

 ----------------------------------------------------------------------
 #t hf aug-cc-pvdz iop(5/13=1,5/36=2,99/5=2) pseudo=read geom=check gue
 ss=(read,tcheck) scf=(maxcycle=1)
 ----------------------------------------------------------------------
 -----
 title
 -----
 Structure from the checkpoint file:  "BDE49_nonexpt_1834_mol1.chk"
 Charge =  0 Multiplicity = 1

                         Standard orientation:
 ---------------------------------------------------------------------
 Center     Atomic      Atomic             Coordinates (Angstroms)
 Number     Number       Type             X           Y           Z
 ---------------------------------------------------------------------
      1          6           0       -0.941884    0.667434   -0.000011
      2         14           0        0.570338   -0.461264    0.000004
      3          9           0        1.892081    0.466442    0.000009
      4          1           0        0.584640   -1.294144   -1.217198
      5          1           0        0.584624   -1.294133    1.217215
      6          9           0       -2.058990   -0.196127   -0.000007
      7          1           0       -1.000251    1.304261   -0.887422
      8          1           0       -1.000257    1.304277    0.887389
 ---------------------------------------------------------------------

 SCF Done:  E(RHF) =  -528.196505676     A.U. after    2 cycles

 The electronic state is 1-A.
 Alpha  occ. eigenvalues --  -69.12551 -26.11677 -26.11582 -11.32134  -6.87281
 Alpha  occ. eigenvalues --   -3.98227  -3.98017  -3.97998  -1.64247  -1.64101
 Alpha  occ. eigenvalues --   -0.97394  -0.80993  -0.75142  -0.75041  -0.73334
 Alpha  occ. eigenvalues --   -0.72819  -0.70663  -0.63006  -0.57152  -0.49490
 Alpha  occ. eigenvalues --   -0.47974
 Alpha virt. eigenvalues --    0.03545   0.04826   0.05035   0.05711   0.07527
 Alpha virt. eigenvalues --    0.08176   0.09749   0.10685   0.13741   0.15833
 Alpha virt. eigenvalues --    0.15935   0.16161   0.16162   0.21369   0.22087

 Mulliken charges:
               1
     1  C    0.438318
     2  Si   1.337626
     3  F   -0.776535
     4  H   -0.084594
     5  H   -0.084594
     6  F   -0.458887
     7  H   -0.185668
     8  H   -0.185666
 Sum of Mulliken charges =   0.00000

 Dipole moment (field-independent basis, Debye):
    X=              0.1780    Y=              0.5669    Z=             -0.0000  Tot=              0.5942

 Test job not archived.
 1\1\GINC-SE054\SP\RHF\Aug-CC-pVDZ\C1H4F2Si1\OHZDE\08-Apr-2025\0\\#t hf
  aug-cc-pvdz iop(5/13=1,5/36=2,99/5=2) pseudo=read geom=check guess=(r
 ead,tcheck) scf=(maxcycle=1)\\title\\0,1\C,0,0.941884,0.667434,0.00001
 1\Si,0,-0.570338,-0.461264,-0.000004\F,0,-1.892081,0.466442,-0.000009\
 H,0,-0.58464,-1.294144,1.217198\H,0,-0.584624,-1.294133,-1.217215\F,0,
 2.05899,-0.196127,0.000007\H,0,1.000251,1.304261,0.887422\H,0,1.000257
 ,1.304277,-0.887389\\Version=ES64L-G16RevC.01\State=1-A\HF=-528.196505
 7\RMSD=5.231e-03\Dipole=-0.0700267,0.2230502,0.0000065\Quadrupole=-5.0

 Normal termination of Gaussian 16 at Tue Apr  8 23:48:17 2025.
