 Gaussian 16, Revision C.01,

 ----------------------------------------------------------------------
 #t hf aug-cc-pvdz symm=none int=(grid=ultrafine) guess=(read,tcheck) s
 table=(opt,rrhf)
 ----------------------------------------------------------------------
 -----
 title
 -----
 Symbolic Z-matrix:
 Charge =  0 Multiplicity = 1

 SCF Done:  E(RHF) =  -1086.00233941     A.U. after   15 cycles
 Normal termination of Gaussian 16 at Tue Apr  8 23:34:04 2025.
 Gaussian 16:  ES64L-G16RevC.01  3-Jul-2019

 ----------------------------------------------------------------------
 #t hf aug-cc-pvdz iop(5/13=1,5/36=2,99/5=2) pseudo=read geom=check gue
 ss=(read,tcheck) scf=(maxcycle=1)
 ----------------------------------------------------------------------
 -----
 title
 -----
 Structure from the checkpoint file:  "BDE49_nonexpt_1481_mol1.chk"
 Charge =  0 Multiplicity = 1

                         Standard orientation:
 ---------------------------------------------------------------------
 Center     Atomic      Atomic             Coordinates (Angstroms)
 Number     Number       Type             X           Y           Z
 ---------------------------------------------------------------------
      1          6           0        1.858189   -0.037263   -0.000002
      2          6           0        1.358322    1.259748    0.000002
      3          6           0       -0.015387    1.465490    0.000002
      4          6           0        0.989660   -1.122429   -0.000006
      5          6           0       -0.384879   -0.914381   -0.000006
      6          6           0       -0.912559    0.385529   -0.000002
      7          1           0        2.036150    2.103751    0.000005
      8          1           0       -0.398541    2.481056    0.000005
      9          1           0        1.383915   -2.130656   -0.000009
     10          1           0       -1.048482   -1.769638   -0.000010
     11          7           0       -2.288847    0.646466   -0.000004
     12         15           0       -3.546820   -0.525253    0.000008
     13          1           0       -2.522483    1.628058   -0.000001
     14         17           0        3.596795   -0.305435   -0.000001
     15          1           0       -4.365969    0.006602   -1.032676
     16          1           0       -4.365953    0.006601    1.032705
 ---------------------------------------------------------------------

 SCF Done:  E(RHF) =  -1086.13056703     A.U. after    2 cycles

 The electronic state is 1-A.
 Alpha  occ. eigenvalues -- -103.65843 -81.29593 -15.64755 -11.30831 -11.29863
 Alpha  occ. eigenvalues --  -11.26294 -11.26190 -11.25163 -11.24793 -10.69101
 Alpha  occ. eigenvalues --   -8.34838  -8.34540  -8.34517  -7.79575  -4.93743
 Alpha  occ. eigenvalues --   -4.93412  -4.93273  -1.21257  -1.18211  -1.10981
 Alpha  occ. eigenvalues --   -1.02675  -0.98088  -0.86161  -0.83392  -0.78620
 Alpha  occ. eigenvalues --   -0.72254  -0.67566  -0.65296  -0.62134  -0.60468
 Alpha  occ. eigenvalues --   -0.58662  -0.58019  -0.54079  -0.52978  -0.51607
 Alpha  occ. eigenvalues --   -0.49331  -0.46101  -0.43074  -0.37545  -0.35723
 Alpha  occ. eigenvalues --   -0.30152
 Alpha virt. eigenvalues --    0.02746   0.03839   0.04573   0.05546   0.06315
 Alpha virt. eigenvalues --    0.06723   0.07632   0.08799   0.09312   0.09713
 Alpha virt. eigenvalues --    0.09846   0.11552   0.11985   0.13047   0.13443

 Mulliken charges:
               1
     1  C   -0.294038
     2  C    0.470356
     3  C    0.934986
     4  C    0.580725
     5  C    1.201862
     6  C    0.077331
     7  H   -0.424906
     8  H   -0.633232
     9  H   -0.438652
    10  H   -0.619477
    11  N   -0.747658
    12  P    0.315148
    13  H   -0.125517
    14  Cl  -0.380687
    15  H    0.041879
    16  H    0.041880
 Sum of Mulliken charges =   0.00000

 Dipole moment (field-independent basis, Debye):
    X=             -3.2878    Y=              1.5224    Z=              0.0000  Tot=              3.6231

 Test job not archived.
 1\1\GINC-SE080\SP\RHF\Aug-CC-pVDZ\C6H7Cl1N1P1\OHZDE\08-Apr-2025\0\\#t
 hf aug-cc-pvdz iop(5/13=1,5/36=2,99/5=2) pseudo=read geom=check guess=
 (read,tcheck) scf=(maxcycle=1)\\title\\0,1\C,0,1.858189,-0.037263,-0.0
 00002\C,0,1.358322,1.259748,0.000002\C,0,-0.015387,1.46549,0.000002\C,
 0,0.98966,-1.122429,-0.000006\C,0,-0.384879,-0.914381,-0.000006\C,0,-0
 .912559,0.385529,-0.000002\H,0,2.03615,2.103751,0.000005\H,0,-0.398541
 ,2.481056,0.000005\H,0,1.383915,-2.130656,-0.000009\H,0,-1.048482,-1.7
 69638,-0.00001\N,0,-2.288847,0.646466,-0.000004\P,0,-3.54682,-0.525253

 Normal termination of Gaussian 16 at Tue Apr  8 23:34:12 2025.
