 Gaussian 16, Revision C.01,

 ----------------------------------------------------------------------
 #t hf aug-cc-pvdz symm=none int=(grid=ultrafine) guess=(read,tcheck) s
 table=(opt,rrhf)
 ----------------------------------------------------------------------
 -----
 title
 -----
 Symbolic Z-matrix:
 Charge =  0 Multiplicity = 1

 SCF Done:  E(RHF) =  -843.819735370     A.U. after   12 cycles
 Normal termination of Gaussian 16 at Wed Apr  9 00:14:00 2025.
 Gaussian 16:  ES64L-G16RevC.01  3-Jul-2019

 ----------------------------------------------------------------------
 #t hf aug-cc-pvdz iop(5/13=1,5/36=2,99/5=2) pseudo=read geom=check gue
 ss=(read,tcheck) scf=(maxcycle=1)
 ----------------------------------------------------------------------
 -----
 title
 -----
 Structure from the checkpoint file:  "BDE49_nonexpt_2483_mol1.chk"
 Charge =  0 Multiplicity = 1

                         Standard orientation:
 ---------------------------------------------------------------------
 Center     Atomic      Atomic             Coordinates (Angstroms)
 Number     Number       Type             X           Y           Z
 ---------------------------------------------------------------------
      1         14           0       -0.394347   -0.017892    0.682701
      2          6           0        0.786284    1.406663    0.279306
      3          6           0        1.829055    0.748818   -0.658463
      4          1           0        1.267296    1.739231    1.207153
      5          1           0        0.307737    2.279445   -0.168958
      6          6           0        2.095501   -0.689506   -0.167556
      7          1           0        2.755534    1.329025   -0.706405
      8          1           0        1.427445    0.710922   -1.677799
      9          6           0        0.737541   -1.402851    0.062054
     10          1           0        2.648216   -0.645928    0.778409
     11          1           0        2.724760   -1.239399   -0.873627
     12          1           0        0.349687   -1.796800   -0.883562
     13          1           0        0.817016   -2.248045    0.749001
     14         16           0       -2.240903   -0.065973   -0.465485
     15          1           0       -2.868862    0.883186    0.251625
     16          1           0       -0.743816   -0.084313    2.122077
 ---------------------------------------------------------------------

 SCF Done:  E(RHF) =  -843.909259424     A.U. after    2 cycles

 The electronic state is 1-A.
 Alpha  occ. eigenvalues --  -93.52350 -69.07869 -11.23847 -11.23734 -11.22117
 Alpha  occ. eigenvalues --  -11.21966  -8.82255  -6.82936  -6.16429  -6.16189
 Alpha  occ. eigenvalues --   -6.15927  -3.93744  -3.93665  -3.93618  -1.07549
 Alpha  occ. eigenvalues --   -0.95916  -0.94470  -0.87374  -0.77910  -0.66538
 Alpha  occ. eigenvalues --   -0.63601  -0.61000  -0.58423  -0.55166  -0.51296
 Alpha  occ. eigenvalues --   -0.49619  -0.48249  -0.47152  -0.45017  -0.42522
 Alpha  occ. eigenvalues --   -0.41888  -0.36204
 Alpha virt. eigenvalues --    0.03196   0.04300   0.04674   0.04796   0.06370
 Alpha virt. eigenvalues --    0.06560   0.06695   0.07127   0.07184   0.09050
 Alpha virt. eigenvalues --    0.09209   0.09920   0.11016   0.13120   0.13620

 Mulliken charges:
               1
     1  Si   0.704117
     2  C    0.198871
     3  C    0.118928
     4  H   -0.171169
     5  H   -0.127609
     6  C    0.179493
     7  H   -0.106242
     8  H   -0.143852
     9  C    0.200321
    10  H   -0.135782
    11  H   -0.101335
    12  H   -0.132815
    13  H   -0.149351
    14  S   -0.457382
    15  H    0.020947
    16  H    0.102861
 Sum of Mulliken charges =   0.00000

 Dipole moment (field-independent basis, Debye):
    X=              1.3554    Y=              0.5823    Z=              0.7245  Tot=              1.6435

 Test job not archived.
 1\1\GINC-SE345\SP\RHF\Aug-CC-pVDZ\C4H10S1Si1\OHZDE\09-Apr-2025\0\\#t h
 f aug-cc-pvdz iop(5/13=1,5/36=2,99/5=2) pseudo=read geom=check guess=(
 read,tcheck) scf=(maxcycle=1)\\title\\0,1\Si,0,-0.394347,-0.017892,0.6
 82701\C,0,0.786284,1.406663,0.279306\C,0,1.829055,0.748818,-0.658463\H
 ,0,1.267296,1.739231,1.207153\H,0,0.307737,2.279445,-0.168958\C,0,2.09
 5501,-0.689506,-0.167556\H,0,2.755534,1.329025,-0.706405\H,0,1.427445,
 0.710922,-1.677799\C,0,0.737541,-1.402851,0.062054\H,0,2.648216,-0.645
 928,0.778409\H,0,2.72476,-1.239399,-0.873627\H,0,0.349687,-1.7968,-0.8

 Normal termination of Gaussian 16 at Wed Apr  9 00:14:06 2025.
