 Gaussian 16, Revision C.01,

 ----------------------------------------------------------------------
 #t hf aug-cc-pvdz symm=none int=(grid=ultrafine) guess=(read,tcheck) s
 table=(opt,rrhf)
 ----------------------------------------------------------------------
 -----
 title
 -----
 Symbolic Z-matrix:
 Charge =  0 Multiplicity = 1

 SCF Done:  E(RHF) =  -1215.82739366     A.U. after   18 cycles
 Normal termination of Gaussian 16 at Tue Apr  8 22:53:50 2025.
 Gaussian 16:  ES64L-G16RevC.01  3-Jul-2019

 ----------------------------------------------------------------------
 #t hf aug-cc-pvdz iop(5/13=1,5/36=2,99/5=2) pseudo=read geom=check gue
 ss=(read,tcheck) scf=(maxcycle=1)
 ----------------------------------------------------------------------
 -----
 title
 -----
 Structure from the checkpoint file:  "BDE49_expt_1826_mol1.chk"
 Charge =  0 Multiplicity = 1

                         Standard orientation:
 ---------------------------------------------------------------------
 Center     Atomic      Atomic             Coordinates (Angstroms)
 Number     Number       Type             X           Y           Z
 ---------------------------------------------------------------------
      1          7           0       -2.955897   -0.850613    0.736483
      2          8           0       -2.254198   -0.695432    1.647509
      3         16           0       -2.253612   -0.264079   -1.000247
      4          6           0       -0.670715    0.346079   -0.510183
      5          6           0       -0.518388    1.682012   -0.116898
      6          6           0        0.725498    2.143450    0.301181
      7          6           0        1.823255    1.286980    0.342131
      8          6           0        1.657090   -0.041185   -0.040012
      9          6           0        0.425041   -0.525810   -0.461108
     10          1           0        2.793987    1.639491    0.665230
     11          1           0       -1.371076    2.348179   -0.148552
     12          1           0        0.845157    3.178164    0.600298
     13         17           0        3.032313   -1.130069    0.012678
     14          1           0        0.314589   -1.560806   -0.754675
 ---------------------------------------------------------------------

 SCF Done:  E(RHF) =  -1215.97088477     A.U. after    2 cycles

 The electronic state is 1-A.
 Alpha  occ. eigenvalues -- -103.67604 -93.57132 -20.70261 -15.84164 -11.32769
 Alpha  occ. eigenvalues --  -11.29911 -11.28053 -11.27962 -11.27615 -11.27356
 Alpha  occ. eigenvalues --  -10.70872  -8.86685  -8.36609  -8.36301  -8.36283
 Alpha  occ. eigenvalues --   -6.20792  -6.20565  -6.20259  -1.55291  -1.21226
 Alpha  occ. eigenvalues --   -1.15378  -1.06914  -1.02494  -0.99129  -0.90643
 Alpha  occ. eigenvalues --   -0.85392  -0.81708  -0.73620  -0.72300  -0.70422
 Alpha  occ. eigenvalues --   -0.68089  -0.66656  -0.64463  -0.61292  -0.58225
 Alpha  occ. eigenvalues --   -0.56391  -0.53532  -0.50387  -0.49193  -0.47517
 Alpha  occ. eigenvalues --   -0.40994  -0.38669  -0.36198  -0.34985
 Alpha virt. eigenvalues --    0.03131   0.04435   0.04738   0.04838   0.05973
 Alpha virt. eigenvalues --    0.06475   0.07831   0.08170   0.08580   0.09204
 Alpha virt. eigenvalues --    0.10718   0.11402   0.12418   0.12903   0.13354

 Mulliken charges:
               1
     1  N   -0.056233
     2  O   -0.290908
     3  S    0.303157
     4  C    0.614079
     5  C    0.264509
     6  C    0.435180
     7  C    0.613160
     8  C   -0.405745
     9  C    0.650648
    10  H   -0.423276
    11  H   -0.493291
    12  H   -0.420675
    13  Cl  -0.367430
    14  H   -0.423174
 Sum of Mulliken charges =   0.00000

 Dipole moment (field-independent basis, Debye):
    X=              0.1103    Y=              1.9988    Z=             -0.0860  Tot=              2.0037

 Test job not archived.
 1\1\GINC-SE039\SP\RHF\Aug-CC-pVDZ\C6H4Cl1N1O1S1\OHZDE\08-Apr-2025\0\\#
 t hf aug-cc-pvdz iop(5/13=1,5/36=2,99/5=2) pseudo=read geom=check gues
 s=(read,tcheck) scf=(maxcycle=1)\\title\\0,1\N,0,-2.955897,-0.850613,0
 .736483\O,0,-2.254198,-0.695432,1.647509\S,0,-2.253612,-0.264079,-1.00
 0247\C,0,-0.670715,0.346079,-0.510183\C,0,-0.518388,1.682012,-0.116898
 \C,0,0.725498,2.14345,0.301181\C,0,1.823255,1.28698,0.342131\C,0,1.657
 09,-0.041185,-0.040012\C,0,0.425041,-0.52581,-0.461108\H,0,2.793987,1.
 639491,0.66523\H,0,-1.371076,2.348179,-0.148552\H,0,0.845157,3.178164,

 Normal termination of Gaussian 16 at Tue Apr  8 22:54:00 2025.
