 Gaussian 16, Revision C.01,

 ----------------------------------------------------------------------
 #t hf aug-cc-pvdz symm=none int=(grid=ultrafine) guess=(read,tcheck) s
 table=(opt,rrhf)
 ----------------------------------------------------------------------
 -----
 title
 -----
 Symbolic Z-matrix:
 Charge =  0 Multiplicity = 1

 SCF Done:  E(RHF) =  -1414.26798646     A.U. after   14 cycles
 Normal termination of Gaussian 16 at Wed Apr  9 00:11:38 2025.
 Gaussian 16:  ES64L-G16RevC.01  3-Jul-2019

 ----------------------------------------------------------------------
 #t hf aug-cc-pvdz iop(5/13=1,5/36=2,99/5=2) pseudo=read geom=check gue
 ss=(read,tcheck) scf=(maxcycle=1)
 ----------------------------------------------------------------------
 -----
 title
 -----
 Structure from the checkpoint file:  "BDE49_nonexpt_2439_mol1.chk"
 Charge =  0 Multiplicity = 1

                         Standard orientation:
 ---------------------------------------------------------------------
 Center     Atomic      Atomic             Coordinates (Angstroms)
 Number     Number       Type             X           Y           Z
 ---------------------------------------------------------------------
      1         14           0       -2.541732   -0.014901   -0.578541
      2         14           0       -0.800442   -0.359886    0.977707
      3          6           0        0.859153    0.091723    0.163016
      4          1           0       -0.771054   -1.788307    1.390356
      5          1           0       -0.961566    0.487923    2.177072
      6         16           0        1.239023    1.671290   -0.057531
      7         16           0        1.939706   -1.165624   -0.408357
      8          1           0       -3.828545   -0.410384    0.043333
      9          1           0       -2.307445   -0.856701   -1.775461
     10          1           0       -2.601929    1.408494   -0.976692
     11          1           0        1.246390   -2.234996    0.029179
 ---------------------------------------------------------------------

 SCF Done:  E(RHF) =  -1414.35835182     A.U. after    2 cycles

 The electronic state is 1-A.
 Alpha  occ. eigenvalues --  -93.58291 -93.52793 -69.09006 -69.07478 -11.35300
 Alpha  occ. eigenvalues --   -8.88062  -8.82638  -6.84356  -6.82889  -6.22183
 Alpha  occ. eigenvalues --   -6.21973  -6.21650  -6.16767  -6.16419  -6.16183
 Alpha  occ. eigenvalues --   -3.95147  -3.95090  -3.95048  -3.93643  -3.93636
 Alpha  occ. eigenvalues --   -3.93628  -1.09642  -0.96407  -0.78173  -0.71900
 Alpha  occ. eigenvalues --   -0.67438  -0.58958  -0.54350  -0.50847  -0.50408
 Alpha  occ. eigenvalues --   -0.48898  -0.48726  -0.46993  -0.41088  -0.35579
 Alpha  occ. eigenvalues --   -0.33860
 Alpha virt. eigenvalues --    0.02205   0.03329   0.03967   0.05242   0.06020
 Alpha virt. eigenvalues --    0.06816   0.07227   0.07363   0.08053   0.08515
 Alpha virt. eigenvalues --    0.08745   0.09390   0.09846   0.11250   0.11527

 Mulliken charges:
               1
     1  Si  -0.199247
     2  Si   0.263605
     3  C   -0.673402
     4  H   -0.021736
     5  H    0.076332
     6  S    0.017578
     7  S    0.332151
     8  H    0.024802
     9  H    0.079158
    10  H    0.068079
    11  H    0.032681
 Sum of Mulliken charges =  -0.00000

 Dipole moment (field-independent basis, Debye):
    X=             -1.5138    Y=             -2.4573    Z=              0.5782  Tot=              2.9435

 Test job not archived.
 1\1\GINC-SE069\SP\RHF\Aug-CC-pVDZ\C1H6S2Si2\OHZDE\09-Apr-2025\0\\#t hf
  aug-cc-pvdz iop(5/13=1,5/36=2,99/5=2) pseudo=read geom=check guess=(r
 ead,tcheck) scf=(maxcycle=1)\\title\\0,1\Si,0,-2.541732,-0.014901,-0.5
 78541\Si,0,-0.800442,-0.359886,0.977707\C,0,0.859153,0.091723,0.163016
 \H,0,-0.771054,-1.788307,1.390356\H,0,-0.961566,0.487923,2.177072\S,0,
 1.239023,1.67129,-0.057531\S,0,1.939706,-1.165624,-0.408357\H,0,-3.828
 545,-0.410384,0.043333\H,0,-2.307445,-0.856701,-1.775461\H,0,-2.601929
 ,1.408494,-0.976692\H,0,1.24639,-2.234996,0.029179\\Version=ES64L-G16R

 Normal termination of Gaussian 16 at Wed Apr  9 00:11:42 2025.
