 Gaussian 16, Revision C.01,

 ----------------------------------------------------------------------
 #t hf aug-cc-pvdz symm=none int=(grid=ultrafine) guess=(read,tcheck) s
 table=(opt,rrhf)
 ----------------------------------------------------------------------
 -----
 title
 -----
 Symbolic Z-matrix:
 Charge =  0 Multiplicity = 1

 SCF Done:  E(RHF) =  -371.594730880     A.U. after   11 cycles
 Normal termination of Gaussian 16 at Wed Apr  9 00:44:52 2025.
 Gaussian 16:  ES64L-G16RevC.01  3-Jul-2019

 ----------------------------------------------------------------------
 #t hf aug-cc-pvdz iop(5/13=1,5/36=2,99/5=2) pseudo=read geom=check gue
 ss=(read,tcheck) scf=(maxcycle=1)
 ----------------------------------------------------------------------
 -----
 title
 -----
 Structure from the checkpoint file:  "BDE49_nonexpt_821_mol1.chk"
 Charge =  0 Multiplicity = 1

                         Standard orientation:
 ---------------------------------------------------------------------
 Center     Atomic      Atomic             Coordinates (Angstroms)
 Number     Number       Type             X           Y           Z
 ---------------------------------------------------------------------
      1         14           0       -1.181496   -0.069171   -0.000000
      2          5           0        0.724151    0.610842    0.000020
      3          7           0        1.799232   -0.269166   -0.000009
      4          1           0        1.698819   -1.273527   -0.000030
      5          1           0        2.762338    0.035421   -0.000014
      6          1           0        0.968357    1.780941    0.000020
      7          1           0       -1.247551   -1.557746   -0.000021
      8          1           0       -1.928194    0.406644   -1.194591
      9          1           0       -1.928201    0.406611    1.194600
 ---------------------------------------------------------------------

 SCF Done:  E(RHF) =  -371.643588195     A.U. after    2 cycles

 The electronic state is 1-A.
 Alpha  occ. eigenvalues --  -69.03841 -15.63295  -7.60772  -6.79370  -3.90136
 Alpha  occ. eigenvalues --   -3.90136  -3.90073  -1.13415  -0.73353  -0.69656
 Alpha  occ. eigenvalues --   -0.66550  -0.53921  -0.47058  -0.46457  -0.43970
 Alpha  occ. eigenvalues --   -0.39802
 Alpha virt. eigenvalues --    0.03263   0.04359   0.04980   0.05656   0.06726
 Alpha virt. eigenvalues --    0.07662   0.08027   0.08560   0.09705   0.10219
 Alpha virt. eigenvalues --    0.10687   0.12306   0.12737   0.13563   0.17284

 Mulliken charges:
               1
     1  Si  -0.238732
     2  B    0.104750
     3  N   -0.062930
     4  H    0.038471
     5  H   -0.039363
     6  H    0.188350
     7  H    0.004315
     8  H    0.002570
     9  H    0.002569
 Sum of Mulliken charges =  -0.00000

 Dipole moment (field-independent basis, Debye):
    X=              2.1346    Y=             -0.7566    Z=             -0.0000  Tot=              2.2647

 Test job not archived.
 1\1\GINC-SE184\SP\RHF\Aug-CC-pVDZ\B1H6N1Si1\OHZDE\09-Apr-2025\0\\#t hf
  aug-cc-pvdz iop(5/13=1,5/36=2,99/5=2) pseudo=read geom=check guess=(r
 ead,tcheck) scf=(maxcycle=1)\\title\\0,1\Si,0,-1.181496,-0.069171,0.\B
 ,0,0.724151,0.610842,0.00002\N,0,1.799232,-0.269166,-0.000009\H,0,1.69
 8819,-1.273527,-0.00003\H,0,2.762338,0.035421,-0.000014\H,0,0.968357,1
 .780941,0.00002\H,0,-1.247551,-1.557746,-0.000021\H,0,-1.928194,0.4066
 44,-1.194591\H,0,-1.928201,0.406611,1.1946\\Version=ES64L-G16RevC.01\S
 tate=1-A\HF=-371.6435882\RMSD=5.785e-03\Dipole=0.8397993,-0.2976723,-0

 Normal termination of Gaussian 16 at Wed Apr  9 00:44:55 2025.
