 Gaussian 16, Revision C.01,

 ----------------------------------------------------------------------
 #t hf aug-cc-pvdz symm=none int=(grid=ultrafine) guess=(read,tcheck) s
 table=opt
 ----------------------------------------------------------------------
 -----
 title
 -----
 Symbolic Z-matrix:
 Charge =  0 Multiplicity = 2

 SCF Done:  E(UHF) =  -788.660208098     A.U. after   15 cycles
 Normal termination of Gaussian 16 at Tue Apr  8 23:44:13 2025.
 Gaussian 16:  ES64L-G16RevC.01  3-Jul-2019

 ----------------------------------------------------------------------
 #t hf aug-cc-pvdz iop(5/13=1,5/36=2,99/5=2) pseudo=read geom=check gue
 ss=(read,tcheck) scf=(maxcycle=1)
 ----------------------------------------------------------------------
 -----
 title
 -----
 Structure from the checkpoint file:  "BDE49_nonexpt_1756_mol2.chk"
 Charge =  0 Multiplicity = 2

                         Standard orientation:
 ---------------------------------------------------------------------
 Center     Atomic      Atomic             Coordinates (Angstroms)
 Number     Number       Type             X           Y           Z
 ---------------------------------------------------------------------
      1          6           0       -1.813674   -0.623523    0.043751
      2         14           0       -0.456184    0.661933   -0.132203
      3          1           0       -1.761951   -1.366744   -0.754420
      4          1           0       -2.791317   -0.134602    0.001258
      5          1           0       -1.722665   -1.138607    1.005511
      6         17           0        1.415167   -0.267948    0.022083
      7          1           0       -0.513293    1.669150    0.960579
 ---------------------------------------------------------------------

 SCF Done:  E(UHF) =  -788.714429834     A.U. after    2 cycles

 The electronic state is 2-A.
 Alpha  occ. eigenvalues -- -103.64855 -69.11851 -11.24041 -10.68280  -8.34020
 Alpha  occ. eigenvalues --   -8.33783  -8.33717  -6.86762  -3.97978  -3.97255
 Alpha  occ. eigenvalues --   -3.97092  -1.13278  -0.96154  -0.68745  -0.58658
 Alpha  occ. eigenvalues --   -0.58417  -0.52251  -0.51077  -0.48866  -0.45173
 Alpha  occ. eigenvalues --   -0.33765
 Alpha virt. eigenvalues --    0.03327   0.05006   0.05267   0.05533   0.07691
 Alpha virt. eigenvalues --    0.07951   0.08491   0.11927   0.13877   0.14505
 Alpha virt. eigenvalues --    0.15520   0.15733   0.16374   0.17253   0.18594

  Beta  occ. eigenvalues -- -103.64770 -69.11278 -11.23899 -10.68188  -8.33871
  Beta  occ. eigenvalues --   -8.33671  -8.33551  -6.85870  -3.96877  -3.96728
  Beta  occ. eigenvalues --   -3.95871  -1.12559  -0.95445  -0.65060  -0.58368
  Beta  occ. eigenvalues --   -0.57376  -0.50989  -0.50244  -0.47301  -0.44410
  Beta virt. eigenvalues --    0.02419   0.04243   0.05166   0.05530   0.06213
  Beta virt. eigenvalues --    0.07866   0.08201   0.09272   0.12834   0.14415
  Beta virt. eigenvalues --    0.15089   0.15998   0.16393   0.17563   0.18037

 Mulliken charges and spin densities:
               1          2
     1  C    0.149363   0.046912
     2  Si   0.951542   0.855942
     3  H   -0.144925  -0.003027
     4  H   -0.186811  -0.002391
     5  H   -0.155890   0.010581
     6  Cl  -0.543423   0.027071
     7  H   -0.069856   0.064912
 Sum of Mulliken charges =  -0.00000   1.00000

 Dipole moment (field-independent basis, Debye):
    X=             -2.2859    Y=              0.2160    Z=             -0.0729  Tot=              2.2972
                          Isotropic Fermi Contact Couplings
        Atom                 a.u.       MegaHertz       Gauss      10(-4) cm-1
     1  C(13)              0.02865      32.21314      11.49445      10.74515
     2  Si(29)             0.65819    -584.95095    -208.72504    -195.11863
     3  H(1)              -0.00011      -0.49957      -0.17826      -0.16664
     4  H(1)              -0.00098      -4.39394      -1.56787      -1.46566
     5  H(1)               0.00858      38.33867      13.68019      12.78840
     6  Cl(35)             0.05279      23.14597       8.25906       7.72066
     7  H(1)               0.01484      66.32566      23.66664      22.12386
 --------------------------------------------------------

 Normal termination of Gaussian 16 at Tue Apr  8 23:44:15 2025.
