 Gaussian 16, Revision C.01,

 ----------------------------------------------------------------------
 #t hf aug-cc-pvdz symm=none int=(grid=ultrafine) guess=(read,tcheck) s
 table=(opt,rrhf)
 ----------------------------------------------------------------------
 -----
 title
 -----
 Symbolic Z-matrix:
 Charge =  0 Multiplicity = 1

 SCF Done:  E(RHF) =  -806.107861530     A.U. after   12 cycles

 1\1\GINC-SE396\Stability\RHF\Aug-CC-pVDZ\H6O3Si2\OHZDE\09-Apr-2025\0\\
 #t hf aug-cc-pvdz symm=none int=(grid=ultrafine) guess=(read,tcheck) s
 table=(opt,rrhf)\\title\\0,1\Si,0,-0.922972,-0.015727,0.379276\Si,0,1.
 305699,-0.719004,0.07755\O,0,-1.94962,-0.894519,-0.571194\H,0,-2.87431
 6,-0.96927,-0.32489\O,0,2.150763,0.664872,-0.275761\H,0,1.41819,-1.707
 596,-1.021863\H,0,1.865477,-1.334353,1.304917\H,0,1.594119,1.436616,-0
 .427077\O,0,-0.751985,1.565533,-0.112752\H,0,-1.483264,-0.019238,1.758
 192\H,0,-1.47166,2.192986,-0.007185\\Version=ES64L-G16RevC.01\HF=-806.

 Normal termination of Gaussian 16 at Wed Apr  9 00:08:33 2025.
 Gaussian 16:  ES64L-G16RevC.01  3-Jul-2019

 ----------------------------------------------------------------------
 #t hf aug-cc-pvdz iop(5/13=1,5/36=2,99/5=2) pseudo=read geom=check gue
 ss=(read,tcheck) scf=(maxcycle=1)
 ----------------------------------------------------------------------
 -----
 title
 -----
 Structure from the checkpoint file:  "BDE49_nonexpt_2337_mol1.chk"
 Charge =  0 Multiplicity = 1

                         Standard orientation:
 ---------------------------------------------------------------------
 Center     Atomic      Atomic             Coordinates (Angstroms)
 Number     Number       Type             X           Y           Z
 ---------------------------------------------------------------------
      1         14           0       -0.922972   -0.015727    0.379276
      2         14           0        1.305699   -0.719004    0.077550
      3          8           0       -1.949620   -0.894519   -0.571194
      4          1           0       -2.874316   -0.969271   -0.324890
      5          8           0        2.150763    0.664872   -0.275761
      6          1           0        1.418191   -1.707596   -1.021863
      7          1           0        1.865477   -1.334353    1.304917
      8          1           0        1.594119    1.436616   -0.427077
      9          8           0       -0.751985    1.565533   -0.112752
     10          1           0       -1.483264   -0.019238    1.758192
     11          1           0       -1.471660    2.192986   -0.007185
 ---------------------------------------------------------------------

 SCF Done:  E(RHF) =  -806.250461483     A.U. after    2 cycles

 The electronic state is 1-A.
 Alpha  occ. eigenvalues --  -69.12040 -69.08524 -20.58424 -20.58075 -20.56072
 Alpha  occ. eigenvalues --   -6.86469  -6.83404  -3.97436  -3.97307  -3.97190
 Alpha  occ. eigenvalues --   -3.94300  -3.94165  -3.94144  -1.32079  -1.30345
 Alpha  occ. eigenvalues --   -1.28927  -0.79147  -0.74036  -0.72913  -0.64588
 Alpha  occ. eigenvalues --   -0.63812  -0.58522  -0.57784  -0.55855  -0.55387
 Alpha  occ. eigenvalues --   -0.53182  -0.50259  -0.45378  -0.39802
 Alpha virt. eigenvalues --    0.02562   0.04447   0.04714   0.06059   0.06598
 Alpha virt. eigenvalues --    0.07249   0.07836   0.08182   0.08832   0.09703
 Alpha virt. eigenvalues --    0.10305   0.10941   0.13117   0.14360   0.14830

 Mulliken charges:
               1
     1  Si   1.515035
     2  Si   0.433197
     3  O   -0.796811
     4  H    0.119839
     5  O   -0.879050
     6  H    0.033883
     7  H    0.065667
     8  H    0.213975
     9  O   -0.790260
    10  H   -0.019965
    11  H    0.104489
 Sum of Mulliken charges =   0.00000

 Dipole moment (field-independent basis, Debye):
    X=             -3.8401    Y=              0.8773    Z=              1.2736  Tot=              4.1398

 Test job not archived.
 1\1\GINC-SE396\SP\RHF\Aug-CC-pVDZ\H6O3Si2\OHZDE\09-Apr-2025\0\\#t hf a
 ug-cc-pvdz iop(5/13=1,5/36=2,99/5=2) pseudo=read geom=check guess=(rea
 d,tcheck) scf=(maxcycle=1)\\title\\0,1\Si,0,-0.922972,-0.015727,0.3792
 76\Si,0,1.305699,-0.719004,0.07755\O,0,-1.94962,-0.894519,-0.571194\H,
 0,-2.874316,-0.96927,-0.32489\O,0,2.150763,0.664872,-0.275761\H,0,1.41
 819,-1.707596,-1.021863\H,0,1.865477,-1.334353,1.304917\H,0,1.594119,1
 .436616,-0.427077\O,0,-0.751985,1.565533,-0.112752\H,0,-1.483264,-0.01
 9238,1.758192\H,0,-1.47166,2.192986,-0.007185\\Version=ES64L-G16RevC.0

 Normal termination of Gaussian 16 at Wed Apr  9 00:08:36 2025.
