 Gaussian 16, Revision C.01,

 ----------------------------------------------------------------------
 #t hf aug-cc-pvdz symm=none int=(grid=ultrafine) guess=(read,tcheck) s
 table=(opt,rrhf)
 ----------------------------------------------------------------------
 -----
 title
 -----
 Symbolic Z-matrix:
 Charge =  0 Multiplicity = 1

 SCF Done:  E(RHF) =  -729.253150733     A.U. after   13 cycles
 Normal termination of Gaussian 16 at Wed Apr  9 00:10:43 2025.
 Gaussian 16:  ES64L-G16RevC.01  3-Jul-2019

 ----------------------------------------------------------------------
 #t hf aug-cc-pvdz iop(5/13=1,5/36=2,99/5=2) pseudo=read geom=check gue
 ss=(read,tcheck) scf=(maxcycle=1)
 ----------------------------------------------------------------------
 -----
 title
 -----
 Structure from the checkpoint file:  "BDE49_nonexpt_2393_mol1.chk"
 Charge =  0 Multiplicity = 1

                         Standard orientation:
 ---------------------------------------------------------------------
 Center     Atomic      Atomic             Coordinates (Angstroms)
 Number     Number       Type             X           Y           Z
 ---------------------------------------------------------------------
      1         14           0       -1.941492   -0.854301    0.000001
      2         14           0       -0.648176    1.120588    0.000000
      3          1           0       -1.671433   -1.664932   -1.209774
      4          1           0       -3.378342   -0.478867    0.000000
      5          1           0       -1.671434   -1.664931    1.209776
      6          7           0        1.124450    0.782054   -0.000003
      7          1           0       -0.887940    1.959093    1.199326
      8          1           0       -0.887944    1.959095   -1.199323
      9          7           0        1.426006   -0.423672    0.000000
     10          6           0        2.874062   -0.674064    0.000000
     11          1           0        3.104952   -1.280139    0.880844
     12          1           0        3.444979    0.258514   -0.000001
     13          1           0        3.104953   -1.280142   -0.880841
 ---------------------------------------------------------------------

 SCF Done:  E(RHF) =  -729.341305224     A.U. after    2 cycles

 The electronic state is 1-A.
 Alpha  occ. eigenvalues --  -69.08078 -69.06181 -15.70531 -15.66654 -11.26537
 Alpha  occ. eigenvalues --   -6.83303  -6.81579  -3.94114  -3.94023  -3.93991
 Alpha  occ. eigenvalues --   -3.92338  -3.92335  -3.92315  -1.30407  -1.00987
 Alpha  occ. eigenvalues --   -0.81159  -0.73062  -0.67606  -0.63220  -0.61163
 Alpha  occ. eigenvalues --   -0.59197  -0.52739  -0.51413  -0.48044  -0.48010
 Alpha  occ. eigenvalues --   -0.45382  -0.40765  -0.35170
 Alpha virt. eigenvalues --    0.03573   0.04076   0.04299   0.05149   0.06333
 Alpha virt. eigenvalues --    0.07085   0.07437   0.07883   0.08367   0.08702
 Alpha virt. eigenvalues --    0.09975   0.09996   0.10373   0.10618   0.11444

 Mulliken charges:
               1
     1  Si  -0.146914
     2  Si   0.649976
     3  H    0.036774
     4  H   -0.027708
     5  H    0.036774
     6  N   -0.809333
     7  H    0.005320
     8  H    0.005321
     9  N   -0.188508
    10  C    0.777192
    11  H   -0.097228
    12  H   -0.144435
    13  H   -0.097230
 Sum of Mulliken charges =  -0.00000

 Dipole moment (field-independent basis, Debye):
    X=              0.5929    Y=             -0.4958    Z=              0.0000  Tot=              0.7729

 Test job not archived.
 1\1\GINC-SE365\SP\RHF\Aug-CC-pVDZ\C1H8N2Si2\OHZDE\09-Apr-2025\0\\#t hf
  aug-cc-pvdz iop(5/13=1,5/36=2,99/5=2) pseudo=read geom=check guess=(r
 ead,tcheck) scf=(maxcycle=1)\\title\\0,1\Si,0,-1.941492,-0.854301,0.00
 0001\Si,0,-0.648176,1.120588,0.\H,0,-1.671433,-1.664932,-1.209774\H,0,
 -3.378342,-0.478867,0.\H,0,-1.671434,-1.664931,1.209776\N,0,1.12445,0.
 782054,-0.000003\H,0,-0.88794,1.959093,1.199326\H,0,-0.887944,1.959095
 ,-1.199323\N,0,1.426006,-0.423672,0.\C,0,2.874062,-0.674064,0.\H,0,3.1
 04952,-1.280139,0.880844\H,0,3.444979,0.258514,-0.000001\H,0,3.104953,

 Normal termination of Gaussian 16 at Wed Apr  9 00:10:46 2025.
