 Gaussian 16, Revision C.01,

 ----------------------------------------------------------------------
 #t hf aug-cc-pvdz symm=none int=(grid=ultrafine) guess=(read,tcheck) s
 table=(opt,rrhf)
 ----------------------------------------------------------------------
 -----
 title
 -----
 Symbolic Z-matrix:
 Charge =  0 Multiplicity = 1

 SCF Done:  E(RHF) =  -815.403960086     A.U. after   17 cycles
 Normal termination of Gaussian 16 at Wed Apr  9 00:00:30 2025.
 Gaussian 16:  ES64L-G16RevC.01  3-Jul-2019

 ----------------------------------------------------------------------
 #t hf aug-cc-pvdz iop(5/13=1,5/36=2,99/5=2) pseudo=read geom=check gue
 ss=(read,tcheck) scf=(maxcycle=1)
 ----------------------------------------------------------------------
 -----
 title
 -----
 Structure from the checkpoint file:  "BDE49_nonexpt_2112_mol1.chk"
 Charge =  0 Multiplicity = 1

                         Standard orientation:
 ---------------------------------------------------------------------
 Center     Atomic      Atomic             Coordinates (Angstroms)
 Number     Number       Type             X           Y           Z
 ---------------------------------------------------------------------
      1         14           0        0.329101    0.187476   -0.896336
      2          7           0        0.023850    1.613130    0.254751
      3          7           0        1.609041   -0.846594   -0.018324
      4          8           0        0.403559    1.670510    1.409722
      5          8           0       -0.669220    2.461325   -0.317249
      6          8           0        2.682452   -0.287391    0.177946
      7          8           0        1.344940   -2.005669    0.286957
      8          6           0       -1.258264   -0.727252   -1.196096
      9          6           0       -2.341639   -0.666535   -0.094809
     10          1           0       -0.969716   -1.767700   -1.390984
     11          1           0       -1.655627   -0.331540   -2.137921
     12          6           0       -1.930748   -1.299571    1.237540
     13          1           0       -3.229510   -1.177236   -0.480029
     14          1           0       -2.635869    0.375704    0.061138
     15          1           0       -1.623624   -2.340032    1.107306
     16          1           0       -2.766130   -1.278276    1.941283
     17          1           0       -1.099283   -0.767564    1.708180
     18          1           0        1.032165    0.746176   -2.054074
 ---------------------------------------------------------------------

 SCF Done:  E(RHF) =  -815.591878383     A.U. after    2 cycles

 The electronic state is 1-A.
 Alpha  occ. eigenvalues --  -69.19270 -20.64880 -20.64097 -20.64065 -20.64051
 Alpha  occ. eigenvalues --  -15.91074 -15.90663 -11.27985 -11.27035 -11.24459
 Alpha  occ. eigenvalues --   -6.94051  -4.04904  -4.04791  -4.04635  -1.56030
 Alpha  occ. eigenvalues --   -1.55339  -1.38385  -1.37851  -1.08688  -0.99491
 Alpha  occ. eigenvalues --   -0.95753  -0.94010  -0.84530  -0.81851  -0.79575
 Alpha  occ. eigenvalues --   -0.75482  -0.75076  -0.73657  -0.72920  -0.66723
 Alpha  occ. eigenvalues --   -0.64419  -0.63271  -0.59380  -0.55514  -0.54616
 Alpha  occ. eigenvalues --   -0.54262  -0.52549  -0.51347  -0.50728  -0.49372
 Alpha  occ. eigenvalues --   -0.49161  -0.48663  -0.48047
 Alpha virt. eigenvalues --    0.01996   0.03322   0.03618   0.04266   0.04606
 Alpha virt. eigenvalues --    0.04735   0.06050   0.06257   0.07048   0.07476
 Alpha virt. eigenvalues --    0.07919   0.09349   0.11130   0.11581   0.12677

 Mulliken charges:
               1
     1  Si   1.489339
     2  N    0.464450
     3  N    0.343888
     4  O   -0.549495
     5  O   -0.638637
     6  O   -0.574721
     7  O   -0.513872
     8  C    0.109362
     9  C    0.120606
    10  H   -0.089897
    11  H   -0.167662
    12  C    0.458534
    13  H   -0.083782
    14  H   -0.148125
    15  H   -0.067986
    16  H   -0.108006
    17  H   -0.176691
    18  H    0.132695
 Sum of Mulliken charges =  -0.00000

 Dipole moment (field-independent basis, Debye):
    X=             -3.3946    Y=             -1.8168    Z=             -3.9508  Tot=              5.5166

 Test job not archived.
 1\1\GINC-SE094\SP\RHF\Aug-CC-pVDZ\C3H8N2O4Si1\OHZDE\09-Apr-2025\0\\#t
 hf aug-cc-pvdz iop(5/13=1,5/36=2,99/5=2) pseudo=read geom=check guess=
 (read,tcheck) scf=(maxcycle=1)\\title\\0,1\Si,0,0.329101,0.187476,-0.8
 96336\N,0,0.023849,1.61313,0.254751\N,0,1.609042,-0.846593,-0.018324\O
 ,0,0.403558,1.67051,1.409722\O,0,-0.669222,2.461325,-0.317249\O,0,2.68
 2452,-0.287389,0.177946\O,0,1.344941,-2.005668,0.286957\C,0,-1.258263,
 -0.727253,-1.196096\C,0,-2.341638,-0.666536,-0.094809\H,0,-0.969715,-1
 .767701,-1.390984\H,0,-1.655627,-0.331541,-2.137921\C,0,-1.930747,-1.2

 Normal termination of Gaussian 16 at Wed Apr  9 00:00:40 2025.
