 Gaussian 16, Revision C.01,

 ----------------------------------------------------------------------
 #t hf aug-cc-pvdz symm=none int=(grid=ultrafine) guess=(read,tcheck) s
 table=(opt,rrhf)
 ----------------------------------------------------------------------
 -----
 title
 -----
 Symbolic Z-matrix:
 Charge =  0 Multiplicity = 1

 SCF Done:  E(RHF) =  -737.331694628     A.U. after   17 cycles
 Normal termination of Gaussian 16 at Tue Apr  8 23:59:13 2025.
 Gaussian 16:  ES64L-G16RevC.01  3-Jul-2019

 ----------------------------------------------------------------------
 #t hf aug-cc-pvdz iop(5/13=1,5/36=2,99/5=2) pseudo=read geom=check gue
 ss=(read,tcheck) scf=(maxcycle=1)
 ----------------------------------------------------------------------
 -----
 title
 -----
 Structure from the checkpoint file:  "BDE49_nonexpt_2113_mol1.chk"
 Charge =  0 Multiplicity = 1

                         Standard orientation:
 ---------------------------------------------------------------------
 Center     Atomic      Atomic             Coordinates (Angstroms)
 Number     Number       Type             X           Y           Z
 ---------------------------------------------------------------------
      1         14           0       -0.075649    0.550305    0.538142
      2          7           0       -1.387840   -0.584451   -0.120833
      3          7           0        1.516470   -0.286032    0.064456
      4          8           0       -1.162216   -1.532786   -0.851079
      5          8           0       -2.502758   -0.211801    0.254479
      6          8           0        2.168085    0.180261   -0.864833
      7          8           0        1.818685   -1.275766    0.722026
      8          6           0       -0.238825    2.180516   -0.301771
      9          1           0       -0.114526    2.069355   -1.380602
     10          1           0        0.529136    2.867685    0.062585
     11          1           0       -1.223206    2.605622   -0.092568
     12          1           0       -0.174155    0.484091    1.997106
 ---------------------------------------------------------------------

 SCF Done:  E(RHF) =  -737.497021468     A.U. after    2 cycles

 The electronic state is 1-A.
 Alpha  occ. eigenvalues --  -69.19933 -20.65149 -20.64444 -20.64433 -20.64407
 Alpha  occ. eigenvalues --  -15.91371 -15.91049 -11.28266  -6.94700  -4.05561
 Alpha  occ. eigenvalues --   -4.05449  -4.05309  -1.56354  -1.55708  -1.38724
 Alpha  occ. eigenvalues --   -1.38266  -1.02607  -0.97395  -0.94372  -0.82645
 Alpha  occ. eigenvalues --   -0.80036  -0.75779  -0.75449  -0.73775  -0.73194
 Alpha  occ. eigenvalues --   -0.66048  -0.62123  -0.61702  -0.55948  -0.55043
 Alpha  occ. eigenvalues --   -0.53117  -0.50733  -0.49665  -0.49603  -0.48997
 Alpha virt. eigenvalues --    0.01922   0.03156   0.03723   0.04525   0.04595
 Alpha virt. eigenvalues --    0.05461   0.06970   0.07317   0.08494   0.11006
 Alpha virt. eigenvalues --    0.12092   0.12750   0.14036   0.14371   0.14916

 Mulliken charges:
               1
     1  Si   1.672302
     2  N    0.267042
     3  N    0.319992
     4  O   -0.468035
     5  O   -0.575451
     6  O   -0.508096
     7  O   -0.562082
     8  C    0.262905
     9  H   -0.121488
    10  H   -0.172148
    11  H   -0.159354
    12  H    0.044414
 Sum of Mulliken charges =  -0.00000

 Dipole moment (field-independent basis, Debye):
    X=             -0.4451    Y=              5.2114    Z=              1.8398  Tot=              5.5445

 Test job not archived.
 1\1\GINC-SE106\SP\RHF\Aug-CC-pVDZ\C1H4N2O4Si1\OHZDE\08-Apr-2025\0\\#t
 hf aug-cc-pvdz iop(5/13=1,5/36=2,99/5=2) pseudo=read geom=check guess=
 (read,tcheck) scf=(maxcycle=1)\\title\\0,1\Si,0,-0.075649,0.550305,0.5
 38142\N,0,-1.38784,-0.584451,-0.120833\N,0,1.51647,-0.286032,0.064456\
 O,0,-1.162216,-1.532786,-0.851079\O,0,-2.502758,-0.211801,0.254479\O,0
 ,2.168085,0.180261,-0.864833\O,0,1.818685,-1.275766,0.722026\C,0,-0.23
 8825,2.180516,-0.301771\H,0,-0.114526,2.069355,-1.380602\H,0,0.529136,
 2.867685,0.062585\H,0,-1.223206,2.605622,-0.092568\H,0,-0.174155,0.484

 Normal termination of Gaussian 16 at Tue Apr  8 23:59:20 2025.
