 Gaussian 16, Revision C.01,

 ----------------------------------------------------------------------
 #t hf aug-cc-pvdz symm=none int=(grid=ultrafine) guess=(read,tcheck) s
 table=(opt,rrhf)
 ----------------------------------------------------------------------
 -----
 title
 -----
 Symbolic Z-matrix:
 Charge =  0 Multiplicity = 1

 SCF Done:  E(RHF) =  -606.540026633     A.U. after   17 cycles
 Normal termination of Gaussian 16 at Wed Apr  9 00:36:34 2025.
 Gaussian 16:  ES64L-G16RevC.01  3-Jul-2019

 ----------------------------------------------------------------------
 #t hf aug-cc-pvdz iop(5/13=1,5/36=2,99/5=2) pseudo=read geom=check gue
 ss=(read,tcheck) scf=(maxcycle=1)
 ----------------------------------------------------------------------
 -----
 title
 -----
 Structure from the checkpoint file:  "BDE49_nonexpt_438_mol1.chk"
 Charge =  0 Multiplicity = 1

                         Standard orientation:
 ---------------------------------------------------------------------
 Center     Atomic      Atomic             Coordinates (Angstroms)
 Number     Number       Type             X           Y           Z
 ---------------------------------------------------------------------
      1          9           0        3.484559   -0.080677   -0.000005
      2          9           0        2.244129   -1.952576   -0.000006
      3          6           0        1.010243    0.283492    0.000003
      4          5           0        2.264543   -0.619487    0.000004
      5          6           0       -0.350755   -0.187198    0.000002
      6          6           0       -0.704829   -1.563559    0.000002
      7          1           0        0.075856   -2.310177    0.000003
      8          6           0       -2.021860   -1.959231    0.000001
      9          1           0       -2.263021   -3.016362    0.000002
     10          6           0       -3.064312   -1.007235    0.000000
     11          1           0       -4.097051   -1.336658   -0.000001
     12          6           0       -2.763013    0.331362    0.000000
     13          1           0       -3.553619    1.074442   -0.000001
     14          6           0       -1.414732    0.774310    0.000001
     15          6           0       -1.104039    2.158218    0.000000
     16          1           0       -1.921157    2.872592   -0.000001
     17          6           0        0.198047    2.592703    0.000001
     18          1           0        0.424327    3.652617    0.000001
     19          6           0        1.245924    1.652508    0.000002
     20          1           0        2.269710    2.008041    0.000003
 ---------------------------------------------------------------------

 SCF Done:  E(RHF) =  -606.737043714     A.U. after    2 cycles

 The electronic state is 1-A.
 Alpha  occ. eigenvalues --  -26.13358 -26.12983 -11.27164 -11.26951 -11.26938
 Alpha  occ. eigenvalues --  -11.26335 -11.25662 -11.25584 -11.25489 -11.25286
 Alpha  occ. eigenvalues --  -11.24872 -11.24390  -7.73278  -1.68513  -1.66085
 Alpha  occ. eigenvalues --   -1.17660  -1.11429  -1.05592  -1.01590  -0.99141
 Alpha  occ. eigenvalues --   -0.88106  -0.86149  -0.85358  -0.83436  -0.80905
 Alpha  occ. eigenvalues --   -0.76781  -0.76266  -0.72236  -0.71695  -0.71575
 Alpha  occ. eigenvalues --   -0.69955  -0.69165  -0.62880  -0.62324  -0.60065
 Alpha  occ. eigenvalues --   -0.58985  -0.57575  -0.54718  -0.53689  -0.50285
 Alpha  occ. eigenvalues --   -0.48437  -0.46349  -0.40261  -0.33389  -0.30768
 Alpha virt. eigenvalues --    0.02968   0.03493   0.04079   0.04532   0.05225
 Alpha virt. eigenvalues --    0.05286   0.05770   0.06736   0.07044   0.07558
 Alpha virt. eigenvalues --    0.08933   0.09594   0.09968   0.10445   0.11645

 Mulliken charges:
               1
     1  F   -0.552090
     2  F   -0.517906
     3  C    0.436422
     4  B    0.911036
     5  C    0.425071
     6  C    0.509079
     7  H   -0.702724
     8  C    0.206732
     9  H   -0.469941
    10  C    0.383114
    11  H   -0.445093
    12  C    0.928790
    13  H   -0.582584
    14  C   -0.092092
    15  C    0.633246
    16  H   -0.594583
    17  C    0.051487
    18  H   -0.443209
    19  C    0.553681
    20  H   -0.638435
 Sum of Mulliken charges =  -0.00000

 Dipole moment (field-independent basis, Debye):
    X=             -2.5432    Y=              1.6223    Z=              0.0000  Tot=              3.0166

 Test job not archived.
 1\1\GINC-SE404\SP\RHF\Aug-CC-pVDZ\C10H7B1F2\OHZDE\09-Apr-2025\0\\#t hf
  aug-cc-pvdz iop(5/13=1,5/36=2,99/5=2) pseudo=read geom=check guess=(r
 ead,tcheck) scf=(maxcycle=1)\\title\\0,1\F,0,3.484559,-0.080677,-0.000
 005\F,0,2.244129,-1.952576,-0.000006\C,0,1.010243,0.283492,0.000003\B,
 0,2.264543,-0.619487,0.000004\C,0,-0.350755,-0.187198,0.000002\C,0,-0.
 704829,-1.563559,0.000002\H,0,0.075856,-2.310177,0.000003\C,0,-2.02186
 ,-1.959231,0.000001\H,0,-2.263021,-3.016362,0.000002\C,0,-3.064312,-1.
 007235,0.\H,0,-4.097051,-1.336658,-0.000001\C,0,-2.763013,0.331362,0.\

 Normal termination of Gaussian 16 at Wed Apr  9 00:36:49 2025.
