 Gaussian 16, Revision C.01,

 ----------------------------------------------------------------------
 #t hf aug-cc-pvdz symm=none int=(grid=ultrafine) guess=(read,tcheck) s
 table=(opt,rrhf)
 ----------------------------------------------------------------------
 -----
 title
 -----
 Symbolic Z-matrix:
 Charge =  0 Multiplicity = 1

 SCF Done:  E(RHF) =  -563.819631491     A.U. after   14 cycles
 Normal termination of Gaussian 16 at Tue Apr  8 23:18:52 2025.
 Gaussian 16:  ES64L-G16RevC.01  3-Jul-2019

 ----------------------------------------------------------------------
 #t hf aug-cc-pvdz iop(5/13=1,5/36=2,99/5=2) pseudo=read geom=check gue
 ss=(read,tcheck) scf=(maxcycle=1)
 ----------------------------------------------------------------------
 -----
 title
 -----
 Structure from the checkpoint file:  "BDE49_nonexpt_1112_mol1.chk"
 Charge =  0 Multiplicity = 1

                         Standard orientation:
 ---------------------------------------------------------------------
 Center     Atomic      Atomic             Coordinates (Angstroms)
 Number     Number       Type             X           Y           Z
 ---------------------------------------------------------------------
      1          9           0       -1.686424    0.544336    0.203813
      2          8           0       -0.938031   -0.481714   -0.495311
      3         14           0        0.596544   -0.467020    0.196893
      4          9           0        1.404969    0.849306   -0.201671
      5          1           0        0.505766   -0.513057    1.658349
      6          1           0        1.179965   -1.637727   -0.471645
 ---------------------------------------------------------------------

 SCF Done:  E(RHF) =  -563.956231955     A.U. after    2 cycles

 The electronic state is 1-A.
 Alpha  occ. eigenvalues --  -69.17669 -26.18442 -26.13587 -20.70047  -6.91987
 Alpha  occ. eigenvalues --   -4.02969  -4.02840  -4.02697  -1.68300  -1.66415
 Alpha  occ. eigenvalues --   -1.30198  -0.84424  -0.79560  -0.78592  -0.75772
 Alpha  occ. eigenvalues --   -0.74368  -0.74152  -0.65681  -0.60162  -0.58109
 Alpha  occ. eigenvalues --   -0.52491
 Alpha virt. eigenvalues --    0.04126   0.05108   0.05431   0.06102   0.07461
 Alpha virt. eigenvalues --    0.09499   0.12317   0.15327   0.16244   0.19993
 Alpha virt. eigenvalues --    0.20575   0.21340   0.23113   0.24988   0.27175

 Mulliken charges:
               1
     1  F   -0.311258
     2  O   -0.369899
     3  Si   1.545270
     4  F   -0.756364
     5  H   -0.073345
     6  H   -0.034404
 Sum of Mulliken charges =  -0.00000

 Dipole moment (field-independent basis, Debye):
    X=              1.5619    Y=             -2.0294    Z=              0.8649  Tot=              2.7030

 Test job not archived.
 1\1\GINC-SE084\SP\RHF\Aug-CC-pVDZ\F2H2O1Si1\OHZDE\08-Apr-2025\0\\#t hf
  aug-cc-pvdz iop(5/13=1,5/36=2,99/5=2) pseudo=read geom=check guess=(r
 ead,tcheck) scf=(maxcycle=1)\\title\\0,1\F,0,-1.686424,0.544335,0.2038
 13\O,0,-0.938031,-0.481714,-0.495311\Si,0,0.596544,-0.46702,0.196893\F
 ,0,1.404969,0.849307,-0.201671\H,0,0.505766,-0.513057,1.658349\H,0,1.1
 79966,-1.637727,-0.471645\\Version=ES64L-G16RevC.01\State=1-A\HF=-563.
 956232\RMSD=5.335e-03\Dipole=0.6144873,-0.7984227,0.3402924\Quadrupole
 =-1.7662103,0.5998883,1.166322,-1.6030305,0.3381864,-0.089194\PG=C01 [

 Normal termination of Gaussian 16 at Tue Apr  8 23:18:55 2025.
