 Gaussian 16, Revision C.01,

 ----------------------------------------------------------------------
 #t hf aug-cc-pvdz symm=none int=(grid=ultrafine) guess=(read,tcheck) s
 table=(opt,rrhf)
 ----------------------------------------------------------------------
 -----
 title
 -----
 Symbolic Z-matrix:
 Charge =  0 Multiplicity = 1

 SCF Done:  E(RHF) =  -498.124808798     A.U. after   13 cycles
 Normal termination of Gaussian 16 at Wed Apr  9 00:00:29 2025.
 Gaussian 16:  ES64L-G16RevC.01  3-Jul-2019

 ----------------------------------------------------------------------
 #t hf aug-cc-pvdz iop(5/13=1,5/36=2,99/5=2) pseudo=read geom=check gue
 ss=(read,tcheck) scf=(maxcycle=1)
 ----------------------------------------------------------------------
 -----
 title
 -----
 Structure from the checkpoint file:  "BDE49_nonexpt_2151_mol1.chk"
 Charge =  0 Multiplicity = 1

                         Standard orientation:
 ---------------------------------------------------------------------
 Center     Atomic      Atomic             Coordinates (Angstroms)
 Number     Number       Type             X           Y           Z
 ---------------------------------------------------------------------
      1          7           0       -0.161434   -0.705699   -0.000009
      2         14           0       -1.795513   -0.046822    0.000004
      3          6           0        0.914385    0.154423    0.000003
      4          1           0        0.021236   -1.698922   -0.000021
      5          6           0        2.293932   -0.476914    0.000007
      6          1           0        2.428724   -1.106529    0.884094
      7          1           0        3.043674    0.311248   -0.000252
      8          1           0        2.428566   -1.106983   -0.883780
      9          8           0        0.733373    1.359651   -0.000013
     10          1           0       -2.056573    0.752365   -1.212170
     11          1           0       -2.056564    0.752339    1.212196
     12          1           0       -2.658742   -1.250382   -0.000006
 ---------------------------------------------------------------------

 SCF Done:  E(RHF) =  -498.218390401     A.U. after    2 cycles

 The electronic state is 1-A.
 Alpha  occ. eigenvalues --  -69.08753 -20.54564 -15.63829 -11.37336 -11.25469
 Alpha  occ. eigenvalues --   -6.83738  -3.94637  -3.94513  -3.94462  -1.35577
 Alpha  occ. eigenvalues --   -1.16666  -1.00188  -0.79463  -0.73624  -0.68614
 Alpha  occ. eigenvalues --   -0.63430  -0.62717  -0.58446  -0.54543  -0.54204
 Alpha  occ. eigenvalues --   -0.48837  -0.48238  -0.44717  -0.41412
 Alpha virt. eigenvalues --    0.02680   0.04094   0.04623   0.04957   0.06850
 Alpha virt. eigenvalues --    0.07208   0.07585   0.08070   0.10075   0.10159
 Alpha virt. eigenvalues --    0.11161   0.13809   0.13831   0.14882   0.15268

 Mulliken charges:
               1
     1  N   -0.623858
     2  Si   0.371367
     3  C    0.514158
     4  H   -0.080769
     5  C    0.296809
     6  H    0.019433
     7  H   -0.054287
     8  H    0.019340
     9  O   -0.490027
    10  H    0.021871
    11  H    0.021859
    12  H   -0.015899
 Sum of Mulliken charges =  -0.00000

 Dipole moment (field-independent basis, Debye):
    X=              0.7711    Y=             -4.0214    Z=              0.0001  Tot=              4.0946

 Test job not archived.
 1\1\GINC-SE403\SP\RHF\Aug-CC-pVDZ\C2H7N1O1Si1\OHZDE\09-Apr-2025\0\\#t
 hf aug-cc-pvdz iop(5/13=1,5/36=2,99/5=2) pseudo=read geom=check guess=
 (read,tcheck) scf=(maxcycle=1)\\title\\0,1\N,0,-0.161434,-0.705699,-0.
 000009\Si,0,-1.795513,-0.046822,0.000004\C,0,0.914385,0.154423,0.00000
 3\H,0,0.021236,-1.698922,-0.000021\C,0,2.293932,-0.476914,0.000007\H,0
 ,2.428724,-1.106529,0.884094\H,0,3.043674,0.311248,-0.000252\H,0,2.428
 566,-1.106983,-0.88378\O,0,0.733373,1.359651,-0.000013\H,0,-2.056573,0
 .752365,-1.21217\H,0,-2.056564,0.752339,1.212196\H,0,-2.658742,-1.2503

 Normal termination of Gaussian 16 at Wed Apr  9 00:00:32 2025.
