 Gaussian 16, Revision C.01,

 ----------------------------------------------------------------------
 #t hf aug-cc-pvdz symm=none int=(grid=ultrafine) guess=(read,tcheck) s
 table=(opt,rrhf)
 ----------------------------------------------------------------------
 -----
 title
 -----
 Symbolic Z-matrix:
 Charge =  0 Multiplicity = 1

 SCF Done:  E(RHF) =  -755.093498627     A.U. after   16 cycles
 Normal termination of Gaussian 16 at Wed Apr  9 00:51:42 2025.
 Gaussian 16:  ES64L-G16RevC.01  3-Jul-2019

 ----------------------------------------------------------------------
 #t hf aug-cc-pvdz iop(5/13=1,5/36=2,99/5=2) pseudo=read geom=check gue
 ss=(read,tcheck) scf=(maxcycle=1)
 ----------------------------------------------------------------------
 -----
 title
 -----
 Structure from the checkpoint file:  "BDE49_nonexpt_987_mol1.chk"
 Charge =  0 Multiplicity = 1

                         Standard orientation:
 ---------------------------------------------------------------------
 Center     Atomic      Atomic             Coordinates (Angstroms)
 Number     Number       Type             X           Y           Z
 ---------------------------------------------------------------------
      1         16           0        0.516793   -1.100170   -0.044589
      2          7           0        1.578880    0.413034   -0.012092
      3          8           0        1.062443    1.482421   -0.230464
      4          8           0        2.737728    0.167140    0.245554
      5          8           0       -0.922131   -0.485274   -0.486687
      6          6           0       -1.767921    0.072078    0.572988
      7          6           0       -3.065736    0.490429   -0.082088
      8          1           0       -1.244183    0.921844    1.013525
      9          1           0       -1.918733   -0.696852    1.335350
     10          1           0       -2.881017    1.239939   -0.853631
     11          1           0       -3.732614    0.922897    0.668584
     12          1           0       -3.566678   -0.365683   -0.538377
 ---------------------------------------------------------------------

 SCF Done:  E(RHF) =  -755.234291515     A.U. after    2 cycles

 The electronic state is 1-A.
 Alpha  occ. eigenvalues --  -93.66873 -20.65035 -20.64084 -20.63738 -15.93802
 Alpha  occ. eigenvalues --  -11.32387 -11.25095  -8.95582  -6.29749  -6.29460
 Alpha  occ. eigenvalues --   -6.28953  -1.57036  -1.39786  -1.38781  -1.07415
 Alpha  occ. eigenvalues --   -1.00874  -0.88790  -0.85349  -0.78493  -0.75628
 Alpha  occ. eigenvalues --   -0.74345  -0.69804  -0.65928  -0.64032  -0.58365
 Alpha  occ. eigenvalues --   -0.56286  -0.54018  -0.52919  -0.51853  -0.49598
 Alpha  occ. eigenvalues --   -0.46808  -0.41411
 Alpha virt. eigenvalues --    0.02963   0.04433   0.04644   0.06022   0.07025
 Alpha virt. eigenvalues --    0.07569   0.07716   0.07796   0.10661   0.11555
 Alpha virt. eigenvalues --    0.12180   0.12967   0.14486   0.15490   0.15584

 Mulliken charges:
               1
     1  S    1.036814
     2  N    0.338960
     3  O   -0.478922
     4  O   -0.531294
     5  O   -0.841679
     6  C    0.707299
     7  C    0.148800
     8  H   -0.143673
     9  H   -0.144321
    10  H   -0.047808
    11  H   -0.000710
    12  H   -0.043466
 Sum of Mulliken charges =  -0.00000

 Dipole moment (field-independent basis, Debye):
    X=             -3.8803    Y=             -1.6684    Z=              1.2754  Tot=              4.4122

 Test job not archived.
 1\1\GINC-SE322\SP\RHF\Aug-CC-pVDZ\C2H5N1O3S1\OHZDE\09-Apr-2025\0\\#t h
 f aug-cc-pvdz iop(5/13=1,5/36=2,99/5=2) pseudo=read geom=check guess=(
 read,tcheck) scf=(maxcycle=1)\\title\\0,1\S,0,0.516793,-1.10017,-0.044
 589\N,0,1.57888,0.413034,-0.012092\O,0,1.062443,1.482421,-0.230464\O,0
 ,2.737728,0.16714,0.245554\O,0,-0.922131,-0.485274,-0.486687\C,0,-1.76
 7921,0.072078,0.572988\C,0,-3.065736,0.490429,-0.082088\H,0,-1.244183,
 0.921844,1.013525\H,0,-1.918733,-0.696852,1.33535\H,0,-2.881017,1.2399
 39,-0.853631\H,0,-3.732614,0.922897,0.668584\H,0,-3.566678,-0.365683,-

 Normal termination of Gaussian 16 at Wed Apr  9 00:51:48 2025.
