 Gaussian 16, Revision C.01,

 ----------------------------------------------------------------------
 #t hf aug-cc-pvdz symm=none int=(grid=ultrafine) guess=(read,tcheck) s
 table=opt
 ----------------------------------------------------------------------
 -----
 title
 -----
 Symbolic Z-matrix:
 Charge =  0 Multiplicity = 2

 SCF Done:  E(UHF) =  -1756.11225395     A.U. after   24 cycles
 Normal termination of Gaussian 16 at Wed Apr  9 00:52:54 2025.
 Gaussian 16:  ES64L-G16RevC.01  3-Jul-2019

 ----------------------------------------------------------------------
 #t hf aug-cc-pvdz iop(5/13=1,5/36=2,99/5=2) pseudo=read geom=check gue
 ss=(read,tcheck) scf=(maxcycle=1)
 ----------------------------------------------------------------------
 -----
 title
 -----
 Structure from the checkpoint file:  "BDE49_nonexpt_927_mol2.chk"
 Charge =  0 Multiplicity = 2

                         Standard orientation:
 ---------------------------------------------------------------------
 Center     Atomic      Atomic             Coordinates (Angstroms)
 Number     Number       Type             X           Y           Z
 ---------------------------------------------------------------------
      1         17           0       -2.596536   -1.581877   -0.848722
      2         17           0       -2.295790    0.356175    1.276011
      3          8           0        1.232630    3.003586   -0.267843
      4          6           0        1.271792    1.905965   -1.204780
      5          1           0        2.290513    1.586846   -1.436507
      6          1           0        0.742416    2.145657   -2.135163
      7          6           0        0.472375    0.997490   -0.234450
      8          7           0       -1.402998   -0.619518    0.064993
      9          6           0       -0.715558    0.286827   -0.884477
     10          1           0       -0.337650   -0.380993   -1.662923
     11          1           0       -1.404941    1.004903   -1.339800
     12          6           0        0.239920    2.323973    0.533847
     13          1           0       -0.757103    2.752187    0.391592
     14          1           0        0.491869    2.330707    1.597569
     15          6           0        1.387049    0.035771    0.535598
     16          7           0        1.924911   -0.934315   -0.403398
     17         17           0        2.920453   -2.069814    0.412806
     18          1           0        0.841884   -0.469546    1.341756
     19          1           0        2.206956    0.601988    0.999004
 ---------------------------------------------------------------------

 SCF Done:  E(UHF) =  -1756.27775469     A.U. after    2 cycles

 The electronic state is 2-A.
 Alpha  occ. eigenvalues -- -103.70803-103.70726-103.69714 -20.58206 -15.77815
 Alpha  occ. eigenvalues --  -15.73808 -11.31141 -11.30974 -11.30877 -11.29595
 Alpha  occ. eigenvalues --  -11.28346 -10.73797 -10.73700 -10.72803  -8.39530
 Alpha  occ. eigenvalues --   -8.39438  -8.39179  -8.39145  -8.39066  -8.39039
 Alpha  occ. eigenvalues --   -8.38365  -8.38339  -8.38167  -1.36011  -1.29666
 Alpha  occ. eigenvalues --   -1.28374  -1.15751  -1.12956  -1.07041  -1.00926
 Alpha  occ. eigenvalues --   -0.95677  -0.89785  -0.87219  -0.76680  -0.72037
 Alpha  occ. eigenvalues --   -0.71085  -0.68038  -0.67516  -0.65174  -0.64143
 Alpha  occ. eigenvalues --   -0.61970  -0.60776  -0.58156  -0.57942  -0.55476
 Alpha  occ. eigenvalues --   -0.54773  -0.51777  -0.50484  -0.49704  -0.48235
 Alpha  occ. eigenvalues --   -0.47463  -0.47219  -0.45174  -0.44444  -0.43976
 Alpha  occ. eigenvalues --   -0.42279
 Alpha virt. eigenvalues --    0.03400   0.03886   0.04720   0.05031   0.05551
 Alpha virt. eigenvalues --    0.06529   0.06754   0.06893   0.07797   0.08347
 Alpha virt. eigenvalues --    0.08963   0.10374   0.11433   0.12169   0.12979

  Beta  occ. eigenvalues -- -103.70803-103.70726-103.69727 -20.58199 -15.77815
  Beta  occ. eigenvalues --  -15.70292 -11.31144 -11.30980 -11.30888 -11.29905
  Beta  occ. eigenvalues --  -11.28323 -10.73797 -10.73700 -10.72815  -8.39531
  Beta  occ. eigenvalues --   -8.39439  -8.39179  -8.39144  -8.39066  -8.39039
  Beta  occ. eigenvalues --   -8.38772  -8.38174  -8.38011  -1.35988  -1.29604
  Beta  occ. eigenvalues --   -1.23348  -1.15751  -1.12711  -1.05714  -0.99359
  Beta  occ. eigenvalues --   -0.95672  -0.88296  -0.84488  -0.76167  -0.71128
  Beta  occ. eigenvalues --   -0.70668  -0.67784  -0.66066  -0.63648  -0.61883
  Beta  occ. eigenvalues --   -0.60694  -0.59764  -0.57820  -0.57254  -0.55114
  Beta  occ. eigenvalues --   -0.51814  -0.50384  -0.49760  -0.49440  -0.48004
  Beta  occ. eigenvalues --   -0.47460  -0.47015  -0.44501  -0.42960  -0.42254
  Beta virt. eigenvalues --    0.03405   0.03897   0.04717   0.05020   0.05561
  Beta virt. eigenvalues --    0.06356   0.06662   0.06894   0.07480   0.08295
  Beta virt. eigenvalues --    0.08570   0.09397   0.10585   0.11488   0.12410

 Mulliken charges and spin densities:
               1          2
     1  Cl   0.172412  -0.000547
     2  Cl   0.116047   0.000077
     3  O   -0.756617   0.000878
     4  C    1.161635  -0.006901
     5  H   -0.134956   0.002442
     6  H   -0.248311  -0.000129
     7  C   -1.705280   0.034915
     8  N   -0.809137   0.000878
     9  C    1.264847  -0.002234
    10  H   -0.046461  -0.002936
    11  H   -0.181095  -0.000307
    12  C    1.298143  -0.002153
    13  H   -0.247927   0.000080
    14  H   -0.172046   0.001829
    15  C    0.968637  -0.239807
    16  N   -0.688051   1.167091
    17  Cl   0.176671  -0.058559
    18  H   -0.075776   0.049013
    19  H   -0.092734   0.056373
 Sum of Mulliken charges =   0.00000   1.00000

 Dipole moment (field-independent basis, Debye):
    X=             -0.6077    Y=              0.6765    Z=             -0.3714  Tot=              0.9823
                          Isotropic Fermi Contact Couplings
        Atom                 a.u.       MegaHertz       Gauss      10(-4) cm-1
     1  Cl(35)            -0.00004      -0.01723      -0.00615      -0.00575
     2  Cl(35)             0.00016       0.06969       0.02487       0.02324
     3  O(17)              0.00098      -0.59317      -0.21166      -0.19786
     4  C(13)             -0.00172      -1.93267      -0.68962      -0.64467
     5  H(1)               0.00015       0.67258       0.23999       0.22435
     6  H(1)               0.00002       0.08666       0.03092       0.02891
     7  C(13)              0.00387       4.35436       1.55375       1.45246
     8  N(14)             -0.00049      -0.15857      -0.05658      -0.05289

 1\1\GINC-SE455\SP\UHF\Aug-CC-pVDZ\C5H8Cl3N2O1(2)\OHZDE\09-Apr-2025\0\\
 #t hf aug-cc-pvdz iop(5/13=1,5/36=2,99/5=2) pseudo=read geom=check gue
 ss=(read,tcheck) scf=(maxcycle=1)\\title\\0,2\Cl,0,-2.596536,-1.581877
 ,-0.848722\Cl,0,-2.29579,0.356175,1.276011\O,0,1.23263,3.003586,-0.267
 843\C,0,1.271792,1.905965,-1.20478\H,0,2.290513,1.586846,-1.436507\H,0
 ,0.742416,2.145657,-2.135163\C,0,0.472375,0.99749,-0.23445\N,0,-1.4029
 98,-0.619518,0.064993\C,0,-0.715558,0.286827,-0.884477\H,0,-0.33765,-0
 .380993,-1.662923\H,0,-1.404941,1.004903,-1.3398\C,0,0.23992,2.323973,

 Normal termination of Gaussian 16 at Wed Apr  9 00:53:09 2025.
