 Gaussian 16, Revision C.01,

 ----------------------------------------------------------------------
 #t hf aug-cc-pvdz symm=none int=(grid=ultrafine) guess=(read,tcheck) s
 table=(opt,rrhf)
 ----------------------------------------------------------------------
 -----
 title
 -----
 Symbolic Z-matrix:
 Charge =  0 Multiplicity = 1

 SCF Done:  E(RHF) =  -275.523664089     A.U. after   13 cycles
 Normal termination of Gaussian 16 at Wed Apr  9 00:37:38 2025.
 Gaussian 16:  ES64L-G16RevC.01  3-Jul-2019

 ----------------------------------------------------------------------
 #t hf aug-cc-pvdz iop(5/13=1,5/36=2,99/5=2) pseudo=read geom=check gue
 ss=(read,tcheck) scf=(maxcycle=1)
 ----------------------------------------------------------------------
 -----
 title
 -----
 Structure from the checkpoint file:  "BDE49_nonexpt_576_mol1.chk"
 Charge =  0 Multiplicity = 1

                         Standard orientation:
 ---------------------------------------------------------------------
 Center     Atomic      Atomic             Coordinates (Angstroms)
 Number     Number       Type             X           Y           Z
 ---------------------------------------------------------------------
      1          5           0       -2.961551   -0.000039    0.343379
      2          6           0       -0.410974   -0.000026    0.212713
      3          6           0        0.454081    1.202243   -0.209081
      4          6           0        0.454091   -1.202181   -0.209354
      5          6           0        1.897177   -0.780969    0.137923
      6          1           0        0.345949   -1.347337   -1.291320
      7          1           0        0.142944   -2.130751    0.273985
      8          6           0        1.897278    0.780902    0.137701
      9          1           0        2.619274   -1.192550   -0.570140
     10          1           0        2.176887   -1.158677    1.124704
     11          1           0        2.177566    1.158880    1.124210
     12          1           0        2.619074    1.192146   -0.570865
     13          1           0        0.143059    2.130643    0.274663
     14          1           0        0.345693    1.347815   -1.290964
     15          7           0       -1.756212    0.000049   -0.344805
     16          1           0       -0.522791   -0.000165    1.301333
     17          1           0       -2.950054   -0.000193    1.537238
     18          1           0       -3.980218    0.000043   -0.277765
     19          1           0       -1.766064    0.000184   -1.357758
 ---------------------------------------------------------------------

 SCF Done:  E(RHF) =  -275.609160522     A.U. after    2 cycles

 The electronic state is 1-A.
 Alpha  occ. eigenvalues --  -15.61716 -11.26803 -11.23064 -11.23023 -11.22888
 Alpha  occ. eigenvalues --  -11.22879  -7.59025  -1.17135  -1.08433  -0.96173
 Alpha  occ. eigenvalues --   -0.93649  -0.79125  -0.78105  -0.72226  -0.66477
 Alpha  occ. eigenvalues --   -0.64846  -0.58136  -0.57518  -0.56850  -0.51750
 Alpha  occ. eigenvalues --   -0.51215  -0.48705  -0.47673  -0.47113  -0.46050
 Alpha  occ. eigenvalues --   -0.45314  -0.38410
 Alpha virt. eigenvalues --    0.03340   0.03756   0.04290   0.04448   0.05906
 Alpha virt. eigenvalues --    0.06143   0.06270   0.06801   0.06949   0.08420
 Alpha virt. eigenvalues --    0.08633   0.08812   0.09172   0.11519   0.12627

 Mulliken charges:
               1
     1  B   -0.661435
     2  C    0.113108
     3  C    0.497444
     4  C    0.497635
     5  C    0.276400
     6  H   -0.146435
     7  H   -0.117109
     8  C    0.276445
     9  H   -0.103144
    10  H   -0.114294
    11  H   -0.114166
    12  H   -0.103041
    13  H   -0.117179
    14  H   -0.146445
    15  N   -0.262039
    16  H   -0.319081
    17  H    0.224874
    18  H    0.378853
    19  H   -0.060390
 Sum of Mulliken charges =  -0.00000

 Dipole moment (field-independent basis, Debye):
    X=              1.7308    Y=              0.0001    Z=             -0.7575  Tot=              1.8893

 Test job not archived.
 1\1\GINC-SE120\SP\RHF\Aug-CC-pVDZ\C5H12B1N1\OHZDE\09-Apr-2025\0\\#t hf
  aug-cc-pvdz iop(5/13=1,5/36=2,99/5=2) pseudo=read geom=check guess=(r
 ead,tcheck) scf=(maxcycle=1)\\title\\0,1\B,0,-2.961551,-0.000039,0.343
 379\C,0,-0.410974,-0.000026,0.212713\C,0,0.454081,1.202243,-0.209081\C
 ,0,0.454091,-1.202181,-0.209354\C,0,1.897177,-0.780969,0.137923\H,0,0.
 345949,-1.347337,-1.29132\H,0,0.142944,-2.130751,0.273985\C,0,1.897278
 ,0.780902,0.137701\H,0,2.619274,-1.19255,-0.57014\H,0,2.176887,-1.1586
 77,1.124704\H,0,2.177566,1.15888,1.12421\H,0,2.619074,1.192146,-0.5708

 Normal termination of Gaussian 16 at Wed Apr  9 00:37:46 2025.
