 Gaussian 16, Revision C.01,

 ----------------------------------------------------------------------
 #t hf aug-cc-pvdz symm=none int=(grid=ultrafine) guess=(read,tcheck) s
 table=(opt,rrhf)
 ----------------------------------------------------------------------
 -----
 title
 -----
 Symbolic Z-matrix:
 Charge =  0 Multiplicity = 1

 SCF Done:  E(RHF) =  -472.325280799     A.U. after   12 cycles
 Normal termination of Gaussian 16 at Tue Apr  8 23:37:04 2025.
 Gaussian 16:  ES64L-G16RevC.01  3-Jul-2019

 ----------------------------------------------------------------------
 #t hf aug-cc-pvdz iop(5/13=1,5/36=2,99/5=2) pseudo=read geom=check gue
 ss=(read,tcheck) scf=(maxcycle=1)
 ----------------------------------------------------------------------
 -----
 title
 -----
 Structure from the checkpoint file:  "BDE49_nonexpt_1565_mol1.chk"
 Charge =  0 Multiplicity = 1

                         Standard orientation:
 ---------------------------------------------------------------------
 Center     Atomic      Atomic             Coordinates (Angstroms)
 Number     Number       Type             X           Y           Z
 ---------------------------------------------------------------------
      1         15           0        1.106213   -0.018638   -0.004018
      2          7           0       -0.501878    0.593031    0.138186
      3          8           0       -1.550373   -0.357822   -0.134043
      4          1           0       -2.013061   -0.407521    0.710433
      5          1           0        0.979807   -0.969704   -1.058381
      6          1           0        1.014969   -0.999614    1.012638
      7          1           0       -0.658772    1.367779   -0.499367
 ---------------------------------------------------------------------

 SCF Done:  E(RHF) =  -472.392191271     A.U. after    2 cycles

 The electronic state is 1-A.
 Alpha  occ. eigenvalues --  -81.28197 -20.61530 -15.68118  -7.78325  -4.92432
 Alpha  occ. eigenvalues --   -4.92161  -4.91936  -1.36016  -1.06952  -0.79593
 Alpha  occ. eigenvalues --   -0.70766  -0.66301  -0.60882  -0.53568  -0.49862
 Alpha  occ. eigenvalues --   -0.41330  -0.36838
 Alpha virt. eigenvalues --    0.03622   0.04919   0.05148   0.07535   0.08997
 Alpha virt. eigenvalues --    0.10376   0.11335   0.14762   0.17025   0.17879
 Alpha virt. eigenvalues --    0.18996   0.20137   0.21231   0.21729   0.23455

 Mulliken charges:
               1
     1  P    0.449986
     2  N   -0.336512
     3  O   -0.485762
     4  H    0.189194
     5  H    0.040354
     6  H    0.031175
     7  H    0.111565
 Sum of Mulliken charges =  -0.00000

 Dipole moment (field-independent basis, Debye):
    X=             -0.3628    Y=              0.1811    Z=              0.4828  Tot=              0.6305

 Test job not archived.
 1\1\GINC-SE106\SP\RHF\Aug-CC-pVDZ\H4N1O1P1\OHZDE\08-Apr-2025\0\\#t hf
 aug-cc-pvdz iop(5/13=1,5/36=2,99/5=2) pseudo=read geom=check guess=(re
 ad,tcheck) scf=(maxcycle=1)\\title\\0,1\P,0,1.106213,-0.018638,-0.0040
 18\N,0,-0.501878,0.593031,0.138186\O,0,-1.550373,-0.357822,-0.134043\H
 ,0,-2.013061,-0.407521,0.710433\H,0,0.979807,-0.969704,-1.058381\H,0,1
 .014969,-0.999614,1.012638\H,0,-0.658772,1.367779,-0.499367\\Version=E
 S64L-G16RevC.01\State=1-A\HF=-472.3921913\RMSD=8.838e-03\Dipole=-0.142
 7316,0.0712539,0.1899591\Quadrupole=-0.5097379,0.0580868,0.4516511,-1.

 Normal termination of Gaussian 16 at Tue Apr  8 23:37:06 2025.
