 Gaussian 16, Revision C.01,

 ----------------------------------------------------------------------
 #t hf aug-cc-pvdz symm=none int=(grid=ultrafine) guess=(read,tcheck) s
 table=(opt,rrhf)
 ----------------------------------------------------------------------
 -----
 title
 -----
 Symbolic Z-matrix:
 Charge =  0 Multiplicity = 1

 SCF Done:  E(RHF) =  -952.382326821     A.U. after   13 cycles

 1\1\GINC-SE332\Stability\RHF\Aug-CC-pVDZ\C4H10S2\OHZDE\08-Apr-2025\0\\
 #t hf aug-cc-pvdz symm=none int=(grid=ultrafine) guess=(read,tcheck) s
 table=(opt,rrhf)\\title\\0,1\S,0,-0.590979,-0.856444,-0.581576\S,0,0.5
 90978,0.856441,-0.581579\C,0,1.873888,0.50887,0.696432\C,0,-1.873888,-
 0.508868,0.696434\C,0,-2.84998,0.600847,0.328286\H,0,-1.370911,-0.3090
 65,1.644363\H,0,-2.385834,-1.471889,0.794841\H,0,-2.326869,1.549813,0.
 193476\H,0,-3.59097,0.733547,1.123218\H,0,-3.377651,0.367192,-0.59897\
 C,0,2.849982,-0.600845,0.328286\H,0,1.370912,0.309069,1.644361\H,0,2.3

 Normal termination of Gaussian 16 at Tue Apr  8 22:58:01 2025.
 Gaussian 16:  ES64L-G16RevC.01  3-Jul-2019

 ----------------------------------------------------------------------
 #t hf aug-cc-pvdz iop(5/13=1,5/36=2,99/5=2) pseudo=read geom=check gue
 ss=(read,tcheck) scf=(maxcycle=1)
 ----------------------------------------------------------------------
 -----
 title
 -----
 Structure from the checkpoint file:  "BDE49_expt_1957_mol1.chk"
 Charge =  0 Multiplicity = 1

                         Standard orientation:
 ---------------------------------------------------------------------
 Center     Atomic      Atomic             Coordinates (Angstroms)
 Number     Number       Type             X           Y           Z
 ---------------------------------------------------------------------
      1         16           0        0.590979    0.856444   -0.581576
      2         16           0       -0.590978   -0.856441   -0.581579
      3          6           0       -1.873888   -0.508870    0.696432
      4          6           0        1.873888    0.508868    0.696434
      5          6           0        2.849980   -0.600847    0.328286
      6          1           0        1.370911    0.309065    1.644363
      7          1           0        2.385834    1.471889    0.794841
      8          1           0        2.326869   -1.549813    0.193476
      9          1           0        3.590970   -0.733547    1.123218
     10          1           0        3.377651   -0.367192   -0.598970
     11          6           0       -2.849982    0.600845    0.328286
     12          1           0       -1.370912   -0.309069    1.644361
     13          1           0       -2.385832   -1.471892    0.794836
     14          1           0       -2.326871    1.549812    0.193478
     15          1           0       -3.590972    0.733541    1.123218
     16          1           0       -3.377652    0.367191   -0.598971
 ---------------------------------------------------------------------

 SCF Done:  E(RHF) =  -952.474632218     A.U. after    2 cycles

 The electronic state is 1-A.
 Alpha  occ. eigenvalues --  -93.54876 -93.54875 -11.27430 -11.27430 -11.23330
 Alpha  occ. eigenvalues --  -11.23329  -8.84439  -8.84423  -6.18606  -6.18505
 Alpha  occ. eigenvalues --   -6.18308  -6.18279  -6.17998  -6.17991  -1.07814
 Alpha  occ. eigenvalues --   -1.04514  -0.96686  -0.89355  -0.83549  -0.75658
 Alpha  occ. eigenvalues --   -0.64066  -0.62444  -0.59404  -0.58682  -0.55263
 Alpha  occ. eigenvalues --   -0.53638  -0.52246  -0.50980  -0.48808  -0.46157
 Alpha  occ. eigenvalues --   -0.42634  -0.35076  -0.34637
 Alpha virt. eigenvalues --    0.03418   0.04193   0.04754   0.05170   0.06088
 Alpha virt. eigenvalues --    0.06241   0.06999   0.07552   0.08430   0.09401
 Alpha virt. eigenvalues --    0.09891   0.11217   0.12255   0.13591   0.13775

 Mulliken charges:
               1
     1  S    0.128338
     2  S    0.128338
     3  C   -0.138409
     4  C   -0.138412
     5  C    0.287322
     6  H   -0.099639
     7  H   -0.016546
     8  H   -0.050617
     9  H   -0.055905
    10  H   -0.054539
    11  C    0.287320
    12  H   -0.099642
    13  H   -0.016547
    14  H   -0.050615
    15  H   -0.055906
    16  H   -0.054539
 Sum of Mulliken charges =  -0.00000

 Dipole moment (field-independent basis, Debye):
    X=             -0.0000    Y=             -0.0000    Z=              2.2943  Tot=              2.2943

 Test job not archived.
 1\1\GINC-SE332\SP\RHF\Aug-CC-pVDZ\C4H10S2\OHZDE\08-Apr-2025\0\\#t hf a
 ug-cc-pvdz iop(5/13=1,5/36=2,99/5=2) pseudo=read geom=check guess=(rea
 d,tcheck) scf=(maxcycle=1)\\title\\0,1\S,0,-0.590979,-0.856444,-0.5815
 76\S,0,0.590978,0.856441,-0.581579\C,0,1.873888,0.50887,0.696432\C,0,-
 1.873888,-0.508868,0.696434\C,0,-2.84998,0.600847,0.328286\H,0,-1.3709
 11,-0.309065,1.644363\H,0,-2.385834,-1.471889,0.794841\H,0,-2.326869,1
 .549813,0.193476\H,0,-3.59097,0.733547,1.123218\H,0,-3.377651,0.367192
 ,-0.59897\C,0,2.849982,-0.600845,0.328286\H,0,1.370912,0.309069,1.6443

 Normal termination of Gaussian 16 at Tue Apr  8 22:58:06 2025.
