 Gaussian 16, Revision C.01,

 ----------------------------------------------------------------------
 #t hf aug-cc-pvdz symm=none int=(grid=ultrafine) guess=(read,tcheck) s
 table=opt
 ----------------------------------------------------------------------
 -----
 title
 -----
 Symbolic Z-matrix:
 Charge =  0 Multiplicity = 2

 SCF Done:  E(UHF) =  -857.007865232     A.U. after   15 cycles
 Normal termination of Gaussian 16 at Tue Apr  8 22:56:33 2025.
 Gaussian 16:  ES64L-G16RevC.01  3-Jul-2019

 ----------------------------------------------------------------------
 #t hf aug-cc-pvdz iop(5/13=1,5/36=2,99/5=2) pseudo=read geom=check gue
 ss=(read,tcheck) scf=(maxcycle=1)
 ----------------------------------------------------------------------
 -----
 title
 -----
 Structure from the checkpoint file:  "BDE49_expt_1934_mol2.chk"
 Charge =  0 Multiplicity = 2

                         Standard orientation:
 ---------------------------------------------------------------------
 Center     Atomic      Atomic             Coordinates (Angstroms)
 Number     Number       Type             X           Y           Z
 ---------------------------------------------------------------------
      1         17           0        0.000000    0.000000    0.979767
      2         16           0        0.000000    0.000000   -1.041002
 ---------------------------------------------------------------------

 SCF Done:  E(UHF) =  -857.047521121     A.U. after    2 cycles

 Unable to determine electronic state:  an orbital has unidentified symmetry.
 Alpha  occ. eigenvalues -- -103.70268 -93.62352 -10.73477  -8.91781  -8.39103
 Alpha  occ. eigenvalues --   -8.39076  -8.38782  -6.26946  -6.25428  -6.24774
 Alpha  occ. eigenvalues --   -1.20141  -0.93519  -0.57063  -0.56583  -0.54453
 Alpha  occ. eigenvalues --   -0.44482  -0.39587
 Alpha virt. eigenvalues --    0.03462   0.10675   0.11211   0.12142   0.12320
 Alpha virt. eigenvalues --    0.14491   0.15742   0.16111   0.28431   0.31571
 Alpha virt. eigenvalues --    0.31575   0.33416   0.35658   0.46355   0.49204

  Beta  occ. eigenvalues -- -103.70169 -93.61438 -10.73372  -8.90769  -8.39197
  Beta  occ. eigenvalues --   -8.38724  -8.38534  -6.24896  -6.24225  -6.22929
  Beta  occ. eigenvalues --   -1.18634  -0.84795  -0.54978  -0.53883  -0.50850
  Beta  occ. eigenvalues --   -0.37771
  Beta virt. eigenvalues --   -0.01593   0.04508   0.10988   0.12255   0.12941
  Beta virt. eigenvalues --    0.12945   0.14858   0.16132   0.16306   0.28518
  Beta virt. eigenvalues --    0.34497   0.34573   0.35799   0.37358   0.47584

 Mulliken charges and spin densities:
               1          2
     1  Cl  -0.257976   0.009029
     2  S    0.257976   0.990971
 Sum of Mulliken charges =  -0.00000   1.00000

 Dipole moment (field-independent basis, Debye):
    X=             -0.0000    Y=              0.0000    Z=             -0.7514  Tot=              0.7514
                          Isotropic Fermi Contact Couplings
        Atom                 a.u.       MegaHertz       Gauss      10(-4) cm-1
     1  Cl(35)             0.05121      22.45541       8.01265       7.49032
     2  S(33)              0.19569      67.21594      23.98432      22.42083
 --------------------------------------------------------
       Center         ----  Spin Dipole Couplings  ----
                      3XX-RR        3YY-RR        3ZZ-RR
 --------------------------------------------------------
     1   Atom        0.273394      0.199633     -0.473027
     2   Atom        1.465660      0.899186     -2.364846

 Normal termination of Gaussian 16 at Tue Apr  8 22:56:34 2025.
