 Gaussian 16, Revision C.01,

 ----------------------------------------------------------------------
 #t hf aug-cc-pvdz symm=none int=(grid=ultrafine) guess=(read,tcheck) s
 table=(opt,rrhf)
 ----------------------------------------------------------------------
 -----
 title
 -----
 Symbolic Z-matrix:
 Charge =  0 Multiplicity = 1

 SCF Done:  E(RHF) =  -635.881710988     A.U. after   15 cycles
 Normal termination of Gaussian 16 at Tue Apr  8 22:38:21 2025.
 Gaussian 16:  ES64L-G16RevC.01  3-Jul-2019

 ----------------------------------------------------------------------
 #t hf aug-cc-pvdz iop(5/13=1,5/36=2,99/5=2) pseudo=read geom=check gue
 ss=(read,tcheck) scf=(maxcycle=1)
 ----------------------------------------------------------------------
 -----
 title
 -----
 Structure from the checkpoint file:  "BDE49_expt_1223_mol1.chk"
 Charge =  0 Multiplicity = 1

                         Standard orientation:
 ---------------------------------------------------------------------
 Center     Atomic      Atomic             Coordinates (Angstroms)
 Number     Number       Type             X           Y           Z
 ---------------------------------------------------------------------
      1          6           0       -0.543462    1.450806    0.502180
      2          6           0        0.583861    1.524139   -0.514198
      3          8           0        1.037612    0.230575   -0.951077
      4          1           0        1.416779    2.105344   -0.114480
      5          1           0        0.232226    1.978103   -1.441489
      6          7           0        1.921322   -0.432349   -0.030025
      7          8           0        2.225347    0.167445    0.971858
      8          8           0        2.244961   -1.513810   -0.413589
      9          8           0       -1.731576    0.880242   -0.075319
     10          1           0       -0.845689    2.461525    0.785078
     11          1           0       -0.254297    0.901705    1.396030
     12          7           0       -1.880557   -0.543381    0.107077
     13          8           0       -1.072526   -1.108362    0.798101
     14          8           0       -2.838414   -0.964371   -0.466525
 ---------------------------------------------------------------------

 SCF Done:  E(RHF) =  -636.079749223     A.U. after    2 cycles

 The electronic state is 1-A.
 Alpha  occ. eigenvalues --  -20.69662 -20.69479 -20.66219 -20.66133 -20.66055
 Alpha  occ. eigenvalues --  -20.66016 -16.00283 -16.00252 -11.35014 -11.34724
 Alpha  occ. eigenvalues --   -1.62571  -1.62418  -1.43531  -1.43436  -1.40830
 Alpha  occ. eigenvalues --   -1.39380  -1.08702  -0.98990  -0.91601  -0.87032
 Alpha  occ. eigenvalues --   -0.84124  -0.82333  -0.80933  -0.79452  -0.79333
 Alpha  occ. eigenvalues --   -0.78085  -0.70773  -0.69852  -0.67162  -0.61993
 Alpha  occ. eigenvalues --   -0.60318  -0.59202  -0.55739  -0.55365  -0.55110
 Alpha  occ. eigenvalues --   -0.54518  -0.52345  -0.51986  -0.51297
 Alpha virt. eigenvalues --    0.02362   0.03893   0.04610   0.05810   0.07345
 Alpha virt. eigenvalues --    0.07617   0.09078   0.10228   0.10787   0.11101
 Alpha virt. eigenvalues --    0.12313   0.13606   0.14341   0.15033   0.15972

 Mulliken charges:
               1
     1  C    0.837498
     2  C    0.717347
     3  O   -0.579252
     4  H    0.015917
     5  H   -0.211898
     6  N    0.997558
     7  O   -0.484052
     8  O   -0.469469
     9  O   -0.555486
    10  H   -0.163385
    11  H   -0.060339
    12  N    0.785995
    13  O   -0.401722
    14  O   -0.428711
 Sum of Mulliken charges =  -0.00000

 Dipole moment (field-independent basis, Debye):
    X=              0.3276    Y=              5.1927    Z=              0.3181  Tot=              5.2127

 Test job not archived.
 1\1\GINC-SE045\SP\RHF\Aug-CC-pVDZ\C2H4N2O6\OHZDE\08-Apr-2025\0\\#t hf
 aug-cc-pvdz iop(5/13=1,5/36=2,99/5=2) pseudo=read geom=check guess=(re
 ad,tcheck) scf=(maxcycle=1)\\title\\0,1\C,0,-0.543462,1.450806,0.50218
 \C,0,0.583861,1.524139,-0.514198\O,0,1.037612,0.230575,-0.951077\H,0,1
 .416779,2.105344,-0.11448\H,0,0.232226,1.978103,-1.441489\N,0,1.921322
 ,-0.432349,-0.030025\O,0,2.225347,0.167445,0.971858\O,0,2.244961,-1.51
 381,-0.413589\O,0,-1.731576,0.880242,-0.075319\H,0,-0.845689,2.461525,
 0.785078\H,0,-0.254297,0.901705,1.39603\N,0,-1.880557,-0.543381,0.1070

 Normal termination of Gaussian 16 at Tue Apr  8 22:38:29 2025.
