 Gaussian 16, Revision C.01,

 ----------------------------------------------------------------------
 #t hf aug-cc-pvdz symm=none int=(grid=ultrafine) guess=(read,tcheck) s
 table=(opt,rrhf)
 ----------------------------------------------------------------------
 -----
 title
 -----
 Symbolic Z-matrix:
 Charge =  0 Multiplicity = 1

 SCF Done:  E(RHF) =  -647.778383372     A.U. after   18 cycles
 Normal termination of Gaussian 16 at Tue Apr  8 23:34:14 2025.
 Gaussian 16:  ES64L-G16RevC.01  3-Jul-2019

 ----------------------------------------------------------------------
 #t hf aug-cc-pvdz iop(5/13=1,5/36=2,99/5=2) pseudo=read geom=check gue
 ss=(read,tcheck) scf=(maxcycle=1)
 ----------------------------------------------------------------------
 -----
 title
 -----
 Structure from the checkpoint file:  "BDE49_nonexpt_1465_mol1.chk"
 Charge =  0 Multiplicity = 1

                         Standard orientation:
 ---------------------------------------------------------------------
 Center     Atomic      Atomic             Coordinates (Angstroms)
 Number     Number       Type             X           Y           Z
 ---------------------------------------------------------------------
      1          6           0        2.526294    0.497529    0.002918
      2          6           0        2.340540   -0.887434    0.014585
      3          6           0        1.054749   -1.427598    0.004180
      4          6           0        1.433052    1.358340   -0.011300
      5          6           0        0.139161    0.827700    0.000203
      6          6           0       -0.044814   -0.574300    0.010486
      7          1           0        3.531440    0.904005    0.000406
      8          1           0        3.201268   -1.546515    0.023888
      9          1           0        0.920112   -2.503930   -0.007376
     10          1           0        1.581416    2.432922   -0.027731
     11          6           0       -1.120736    1.564859    0.011132
     12          6           0       -2.226396    0.794728    0.042218
     13          1           0       -1.142238    2.650001   -0.003642
     14         15           0       -1.826541   -0.976767   -0.113605
     15          1           0       -3.239404    1.175376    0.045515
     16          1           0       -2.065581   -1.383309    1.226492
 ---------------------------------------------------------------------

 SCF Done:  E(RHF) =  -647.887783813     A.U. after    2 cycles

 The electronic state is 1-A.
 Alpha  occ. eigenvalues --  -81.26151 -11.25869 -11.25744 -11.25360 -11.25121
 Alpha  occ. eigenvalues --  -11.25106 -11.25080 -11.24989 -11.24831  -7.76544
 Alpha  occ. eigenvalues --   -4.90635  -4.90572  -4.90250  -1.16029  -1.08455
 Alpha  occ. eigenvalues --   -1.01898  -0.97970  -0.87449  -0.83690  -0.77594
 Alpha  occ. eigenvalues --   -0.74972  -0.67930  -0.65857  -0.63318  -0.59852
 Alpha  occ. eigenvalues --   -0.59282  -0.55465  -0.53450  -0.50716  -0.49203
 Alpha  occ. eigenvalues --   -0.46675  -0.42930  -0.37432  -0.32400  -0.30815
 Alpha virt. eigenvalues --    0.03354   0.03717   0.04170   0.05263   0.05627
 Alpha virt. eigenvalues --    0.06611   0.07445   0.07669   0.08559   0.09093
 Alpha virt. eigenvalues --    0.10704   0.11059   0.11347   0.12845   0.13235

 Mulliken charges:
               1
     1  C    0.391151
     2  C    0.422500
     3  C    0.554808
     4  C    0.944498
     5  C   -0.276642
     6  C   -0.185984
     7  H   -0.448136
     8  H   -0.443385
     9  H   -0.466819
    10  H   -0.516351
    11  C    0.310088
    12  C    0.131393
    13  H   -0.480399
    14  P    0.284097
    15  H   -0.421700
    16  H    0.200881
 Sum of Mulliken charges =   0.00000

 Dipole moment (field-independent basis, Debye):
    X=              0.4763    Y=              0.7346    Z=              0.5244  Tot=              1.0205

 Test job not archived.
 1\1\GINC-SE195\SP\RHF\Aug-CC-pVDZ\C8H7P1\OHZDE\08-Apr-2025\0\\#t hf au
 g-cc-pvdz iop(5/13=1,5/36=2,99/5=2) pseudo=read geom=check guess=(read
 ,tcheck) scf=(maxcycle=1)\\title\\0,1\C,0,2.526294,0.497529,0.002918\C
 ,0,2.34054,-0.887434,0.014585\C,0,1.054749,-1.427598,0.00418\C,0,1.433
 052,1.35834,-0.0113\C,0,0.139161,0.8277,0.000203\C,0,-0.044814,-0.5743
 ,0.010486\H,0,3.53144,0.904005,0.000406\H,0,3.201268,-1.546515,0.02388
 8\H,0,0.920112,-2.50393,-0.007376\H,0,1.581416,2.432922,-0.027731\C,0,
 -1.120736,1.564859,0.011132\C,0,-2.226396,0.794728,0.042218\H,0,-1.142

 Normal termination of Gaussian 16 at Tue Apr  8 23:34:23 2025.
