 Gaussian 16, Revision C.01,

 ----------------------------------------------------------------------
 #t hf aug-cc-pvdz symm=none int=(grid=ultrafine) guess=(read,tcheck) s
 table=(opt,rrhf)
 ----------------------------------------------------------------------
 -----
 title
 -----
 Symbolic Z-matrix:
 Charge =  0 Multiplicity = 1

 SCF Done:  E(RHF) =  -230.987456819     A.U. after   13 cycles
 Normal termination of Gaussian 16 at Tue Apr  8 22:39:35 2025.
 Gaussian 16:  ES64L-G16RevC.01  3-Jul-2019

 ----------------------------------------------------------------------
 #t hf aug-cc-pvdz iop(5/13=1,5/36=2,99/5=2) pseudo=read geom=check gue
 ss=(read,tcheck) scf=(maxcycle=1)
 ----------------------------------------------------------------------
 -----
 title
 -----
 Structure from the checkpoint file:  "BDE49_expt_1360_mol1.chk"
 Charge =  0 Multiplicity = 1

                         Standard orientation:
 ---------------------------------------------------------------------
 Center     Atomic      Atomic             Coordinates (Angstroms)
 Number     Number       Type             X           Y           Z
 ---------------------------------------------------------------------
      1          6           0        1.356133   -0.555369   -0.000001
      2          8           0        0.010784   -0.712080   -0.000001
      3          6           0       -0.792544    0.469924    0.000001
      4          6           0       -2.247334    0.041708   -0.000000
      5          6           0        2.062221    0.576640    0.000001
      6          1           0        1.837024   -1.527804   -0.000002
      7          1           0        1.617458    1.562096    0.000002
      8          1           0        3.141976    0.517164    0.000001
      9          1           0       -0.555295    1.070832   -0.886888
     10          1           0       -0.555295    1.070830    0.886891
     11          1           0       -2.471992   -0.556613   -0.885569
     12          1           0       -2.899011    0.919332    0.000001
     13          1           0       -2.471992   -0.556615    0.885568
 ---------------------------------------------------------------------

 SCF Done:  E(RHF) =  -231.064312991     A.U. after    2 cycles

 The electronic state is 1-A.
 Alpha  occ. eigenvalues --  -20.59665 -11.30517 -11.29605 -11.23230 -11.22178
 Alpha  occ. eigenvalues --   -1.36594  -1.04698  -0.99482  -0.87462  -0.77608
 Alpha  occ. eigenvalues --   -0.69589  -0.67491  -0.65996  -0.56247  -0.56171
 Alpha  occ. eigenvalues --   -0.55521  -0.52502  -0.50111  -0.48552  -0.35001
 Alpha virt. eigenvalues --    0.03543   0.04416   0.04602   0.05390   0.06313
 Alpha virt. eigenvalues --    0.06584   0.07973   0.08500   0.12079   0.12382
 Alpha virt. eigenvalues --    0.13087   0.13318   0.14445   0.15519   0.16672

 Mulliken charges:
               1
     1  C    0.548966
     2  O   -0.562934
     3  C    0.615725
     4  C    0.184003
     5  C    0.660500
     6  H   -0.394283
     7  H   -0.310579
     8  H   -0.272460
     9  H   -0.219641
    10  H   -0.219642
    11  H   -0.012214
    12  H   -0.005228
    13  H   -0.012213
 Sum of Mulliken charges =  -0.00000

 Dipole moment (field-independent basis, Debye):
    X=             -0.4868    Y=              1.0023    Z=              0.0000  Tot=              1.1143

 Test job not archived.
 1\1\GINC-SE082\SP\RHF\Aug-CC-pVDZ\C4H8O1\OHZDE\08-Apr-2025\0\\#t hf au
 g-cc-pvdz iop(5/13=1,5/36=2,99/5=2) pseudo=read geom=check guess=(read
 ,tcheck) scf=(maxcycle=1)\\title\\0,1\C,0,1.356133,-0.555369,-0.000001
 \O,0,0.010784,-0.71208,-0.000001\C,0,-0.792544,0.469924,0.000001\C,0,-
 2.247334,0.041708,0.\C,0,2.062221,0.57664,0.000001\H,0,1.837024,-1.527
 804,-0.000002\H,0,1.617458,1.562096,0.000002\H,0,3.141976,0.517164,0.0
 00001\H,0,-0.555295,1.070832,-0.886888\H,0,-0.555295,1.07083,0.886891\
 H,0,-2.471992,-0.556613,-0.885569\H,0,-2.899011,0.919332,0.000001\H,0,

 Normal termination of Gaussian 16 at Tue Apr  8 22:39:38 2025.
