 Gaussian 16, Revision C.01,

 ----------------------------------------------------------------------
 #t hf aug-cc-pvdz symm=none int=(grid=ultrafine) guess=(read,tcheck) s
 table=(opt,rrhf)
 ----------------------------------------------------------------------
 -----
 title
 -----
 Symbolic Z-matrix:
 Charge =  0 Multiplicity = 1

 SCF Done:  E(RHF) =  -994.598677436     A.U. after   14 cycles
 Normal termination of Gaussian 16 at Wed Apr  9 00:14:55 2025.
 Gaussian 16:  ES64L-G16RevC.01  3-Jul-2019

 ----------------------------------------------------------------------
 #t hf aug-cc-pvdz iop(5/13=1,5/36=2,99/5=2) pseudo=read geom=check gue
 ss=(read,tcheck) scf=(maxcycle=1)
 ----------------------------------------------------------------------
 -----
 title
 -----
 Structure from the checkpoint file:  "BDE49_nonexpt_2482_mol1.chk"
 Charge =  0 Multiplicity = 1

                         Standard orientation:
 ---------------------------------------------------------------------
 Center     Atomic      Atomic             Coordinates (Angstroms)
 Number     Number       Type             X           Y           Z
 ---------------------------------------------------------------------
      1         16           0        0.732132    0.235876   -0.316754
      2         14           0        2.685381   -0.617600    0.406446
      3          8           0        0.940896    1.665934   -0.534972
      4          8           0        0.286809   -0.613921   -1.420206
      5          6           0       -0.449728    0.060645    1.059914
      6          6           0       -1.757166    0.828484    0.815989
      7          1           0        0.070934    0.461357    1.934268
      8          1           0       -0.602973   -1.011957    1.195170
      9          6           0       -2.682231    0.268184   -0.277037
     10          1           0       -1.504186    1.867536    0.588401
     11          1           0       -2.294132    0.840023    1.772204
     12          6           0       -3.170855   -1.161431   -0.024910
     13          1           0       -3.546708    0.937411   -0.343861
     14          1           0       -2.178329    0.313681   -1.245294
     15          1           0       -3.647785   -1.256007    0.956649
     16          1           0       -2.352582   -1.884295   -0.077738
     17          1           0       -3.905068   -1.456424   -0.778729
     18          1           0        3.573841   -0.455682   -0.757382
     19          1           0        2.473864   -2.036479    0.757108
     20          1           0        3.141924    0.161829    1.574708
 ---------------------------------------------------------------------

 SCF Done:  E(RHF) =  -994.784150709     A.U. after    2 cycles

 The electronic state is 1-A.
 Alpha  occ. eigenvalues --  -93.75638 -69.11741 -20.54970 -20.54885 -11.28722
 Alpha  occ. eigenvalues --  -11.25203 -11.23181 -11.22512  -9.02689  -6.86981
 Alpha  occ. eigenvalues --   -6.37301  -6.37038  -6.36945  -3.97786  -3.97690
 Alpha  occ. eigenvalues --   -3.97690  -1.39934  -1.28983  -1.08900  -1.01165
 Alpha  occ. eigenvalues --   -0.92237  -0.84753  -0.78879  -0.74655  -0.67814
 Alpha  occ. eigenvalues --   -0.66720  -0.64938  -0.63030  -0.61782  -0.57185
 Alpha  occ. eigenvalues --   -0.56033  -0.55676  -0.53475  -0.52302  -0.51038
 Alpha  occ. eigenvalues --   -0.49508  -0.48552  -0.48112  -0.47846  -0.47347
 Alpha  occ. eigenvalues --   -0.40598
 Alpha virt. eigenvalues --    0.02605   0.03562   0.04369   0.04675   0.05656
 Alpha virt. eigenvalues --    0.05898   0.06126   0.06769   0.07325   0.08097
 Alpha virt. eigenvalues --    0.08507   0.08640   0.09354   0.09601   0.10961

 Mulliken charges:
               1
     1  S    2.450202
     2  Si   0.191544
     3  O   -1.192795
     4  O   -1.185992
     5  C   -0.288120
     6  C    0.197772
     7  H   -0.125162
     8  H   -0.148755
     9  C    0.214790
    10  H   -0.078452
    11  H   -0.058244
    12  C    0.366836
    13  H   -0.067250
    14  H   -0.094592
    15  H   -0.090521
    16  H   -0.107999
    17  H   -0.094113
    18  H   -0.002075
    19  H    0.047896
    20  H    0.065028
 Sum of Mulliken charges =  -0.00000

 Dipole moment (field-independent basis, Debye):
    X=              0.7201    Y=             -2.0376    Z=              4.6093  Tot=              5.0908

 Test job not archived.
 1\1\GINC-SE227\SP\RHF\Aug-CC-pVDZ\C4H12O2S1Si1\OHZDE\09-Apr-2025\0\\#t
  hf aug-cc-pvdz iop(5/13=1,5/36=2,99/5=2) pseudo=read geom=check guess
 =(read,tcheck) scf=(maxcycle=1)\\title\\0,1\S,0,0.732132,0.235876,-0.3
 16754\Si,0,2.685381,-0.6176,0.406446\O,0,0.940896,1.665934,-0.534972\O
 ,0,0.286809,-0.613921,-1.420206\C,0,-0.449728,0.060645,1.059914\C,0,-1
 .757166,0.828484,0.815989\H,0,0.070934,0.461357,1.934268\H,0,-0.602973
 ,-1.011957,1.19517\C,0,-2.682231,0.268184,-0.277037\H,0,-1.504186,1.86
 7536,0.588401\H,0,-2.294132,0.840023,1.772204\C,0,-3.170855,-1.161431,

 Normal termination of Gaussian 16 at Wed Apr  9 00:15:06 2025.
