 Gaussian 16, Revision C.01,

 ----------------------------------------------------------------------
 #t hf aug-cc-pvdz symm=none int=(grid=ultrafine) guess=(read,tcheck) s
 table=(opt,rrhf)
 ----------------------------------------------------------------------
 -----
 title
 -----
 Symbolic Z-matrix:
 Charge =  0 Multiplicity = 1

 SCF Done:  E(RHF) =  -740.794055639     A.U. after   15 cycles
 Normal termination of Gaussian 16 at Tue Apr  8 23:38:10 2025.
 Gaussian 16:  ES64L-G16RevC.01  3-Jul-2019

 ----------------------------------------------------------------------
 #t hf aug-cc-pvdz iop(5/13=1,5/36=2,99/5=2) pseudo=read geom=check gue
 ss=(read,tcheck) scf=(maxcycle=1)
 ----------------------------------------------------------------------
 -----
 title
 -----
 Structure from the checkpoint file:  "BDE49_nonexpt_1594_mol1.chk"
 Charge =  0 Multiplicity = 1

                         Standard orientation:
 ---------------------------------------------------------------------
 Center     Atomic      Atomic             Coordinates (Angstroms)
 Number     Number       Type             X           Y           Z
 ---------------------------------------------------------------------
      1          9           0       -2.014989   -0.090673    0.018357
      2          8           0       -0.870299   -0.983272   -0.139715
      3         15           0        0.482673   -0.037740   -0.038290
      4          8           0        1.607037   -0.924335   -0.277454
      5          8           0        0.265014    1.147227   -1.048739
      6          1           0       -0.505799    1.699760   -0.864642
      7          8           0        0.360046    0.705148    1.360400
      8          1           0        0.506208    0.124254    2.117839
 ---------------------------------------------------------------------

 SCF Done:  E(RHF) =  -741.003096889     A.U. after    2 cycles

 The electronic state is 1-A.
 Alpha  occ. eigenvalues --  -81.48594 -26.20916 -20.73840 -20.65608 -20.65381
 Alpha  occ. eigenvalues --  -20.56212  -7.96580  -5.11268  -5.11160  -5.11105
 Alpha  occ. eigenvalues --   -1.70577  -1.42998  -1.38895  -1.34734  -1.29462
 Alpha  occ. eigenvalues --   -0.89331  -0.83584  -0.82191  -0.80583  -0.77868
 Alpha  occ. eigenvalues --   -0.70991  -0.69219  -0.65377  -0.64193  -0.62335
 Alpha  occ. eigenvalues --   -0.60589  -0.59481  -0.53355  -0.52723
 Alpha virt. eigenvalues --    0.02591   0.04029   0.05684   0.08392   0.09301
 Alpha virt. eigenvalues --    0.10436   0.12032   0.16477   0.18032   0.18493
 Alpha virt. eigenvalues --    0.18829   0.19139   0.22680   0.24262   0.24793

 Mulliken charges:
               1
     1  F   -0.342300
     2  O   -0.303718
     3  P    2.357681
     4  O   -0.766558
     5  O   -0.609894
     6  H    0.161652
     7  O   -0.661102
     8  H    0.164240
 Sum of Mulliken charges =  -0.00000

 Dipole moment (field-independent basis, Debye):
    X=             -1.6895    Y=              2.2121    Z=              2.2115  Tot=              3.5551

 Test job not archived.
 1\1\GINC-SE229\SP\RHF\Aug-CC-pVDZ\F1H2O4P1\OHZDE\08-Apr-2025\0\\#t hf
 aug-cc-pvdz iop(5/13=1,5/36=2,99/5=2) pseudo=read geom=check guess=(re
 ad,tcheck) scf=(maxcycle=1)\\title\\0,1\F,0,-2.014989,-0.090673,0.0183
 57\O,0,-0.870299,-0.983272,-0.139715\P,0,0.482673,-0.03774,-0.03829\O,
 0,1.607037,-0.924335,-0.277454\O,0,0.265014,1.147227,-1.048739\H,0,-0.
 505799,1.69976,-0.864642\O,0,0.360046,0.705148,1.3604\H,0,0.506208,0.1
 24254,2.117839\\Version=ES64L-G16RevC.01\State=1-A\HF=-741.0030969\RMS
 D=4.622e-03\Dipole=-0.664714,0.8703107,0.8700725\Quadrupole=-4.7441012

 Normal termination of Gaussian 16 at Tue Apr  8 23:38:14 2025.
