 Gaussian 16, Revision C.01,

 ----------------------------------------------------------------------
 #t hf aug-cc-pvdz symm=none int=(grid=ultrafine) guess=(read,tcheck) s
 table=(opt,rrhf)
 ----------------------------------------------------------------------
 -----
 title
 -----
 Symbolic Z-matrix:
 Charge =  0 Multiplicity = 1

 SCF Done:  E(RHF) =  -475.607691446     A.U. after   12 cycles
 Normal termination of Gaussian 16 at Tue Apr  8 23:34:05 2025.
 Gaussian 16:  ES64L-G16RevC.01  3-Jul-2019

 ----------------------------------------------------------------------
 #t hf aug-cc-pvdz iop(5/13=1,5/36=2,99/5=2) pseudo=read geom=check gue
 ss=(read,tcheck) scf=(maxcycle=1)
 ----------------------------------------------------------------------
 -----
 title
 -----
 Structure from the checkpoint file:  "BDE49_nonexpt_1502_mol1.chk"
 Charge =  0 Multiplicity = 1

                         Standard orientation:
 ---------------------------------------------------------------------
 Center     Atomic      Atomic             Coordinates (Angstroms)
 Number     Number       Type             X           Y           Z
 ---------------------------------------------------------------------
      1          7           0        0.514358    1.476801    0.295091
      2         15           0        0.019090    0.076247   -0.563275
      3          6           0       -1.583450   -0.410064    0.244795
      4          1           0       -2.357576    0.315366   -0.016941
      5          1           0       -1.502743   -0.464030    1.336418
      6          6           0        1.117508   -1.176684    0.238935
      7          1           0       -1.901750   -1.388102   -0.128596
      8          1           0        0.847252   -2.176835   -0.110842
      9          1           0        2.151792   -0.979090   -0.048232
     10          1           0        1.043915   -1.155931    1.331598
     11          1           0        0.316002    1.537897    1.288053
     12          1           0        0.311913    2.349906   -0.170348
 ---------------------------------------------------------------------

 SCF Done:  E(RHF) =  -475.681412791     A.U. after    2 cycles

 The electronic state is 1-A.
 Alpha  occ. eigenvalues --  -81.26523 -15.60923 -11.22784 -11.22600  -7.76444
 Alpha  occ. eigenvalues --   -4.90547  -4.90335  -4.90062  -1.11373  -0.96930
 Alpha  occ. eigenvalues --   -0.92736  -0.71243  -0.66016  -0.58909  -0.57822
 Alpha  occ. eigenvalues --   -0.56044  -0.54989  -0.51866  -0.47440  -0.38993
 Alpha  occ. eigenvalues --   -0.32366
 Alpha virt. eigenvalues --    0.03523   0.04450   0.04847   0.05301   0.07225
 Alpha virt. eigenvalues --    0.07718   0.07775   0.07904   0.09123   0.12387
 Alpha virt. eigenvalues --    0.12480   0.14732   0.16115   0.16834   0.17060

 Mulliken charges:
               1
     1  N   -0.430013
     2  P    0.856644
     3  C    0.247345
     4  H   -0.140527
     5  H   -0.201818
     6  C    0.266028
     7  H   -0.126367
     8  H   -0.123839
     9  H   -0.140946
    10  H   -0.175262
    11  H   -0.027270
    12  H   -0.003974
 Sum of Mulliken charges =  -0.00000

 Dipole moment (field-independent basis, Debye):
    X=             -0.8398    Y=              0.2156    Z=              1.4869  Tot=              1.7212

 Test job not archived.
 1\1\GINC-SE343\SP\RHF\Aug-CC-pVDZ\C2H8N1P1\OHZDE\08-Apr-2025\0\\#t hf
 aug-cc-pvdz iop(5/13=1,5/36=2,99/5=2) pseudo=read geom=check guess=(re
 ad,tcheck) scf=(maxcycle=1)\\title\\0,1\N,0,0.514353,1.476802,0.295091
 \P,0,0.019089,0.076247,-0.563275\C,0,-1.583449,-0.410069,0.244795\H,0,
 -2.357577,0.315359,-0.016941\H,0,-1.502742,-0.464035,1.336418\C,0,1.11
 7511,-1.176681,0.238935\H,0,-1.901746,-1.388108,-0.128596\H,0,0.847258
 ,-2.176833,-0.110842\H,0,2.151795,-0.979084,-0.048232\H,0,1.043918,-1.
 155928,1.331598\H,0,0.315997,1.537898,1.288053\H,0,0.311906,2.349907,-

 Normal termination of Gaussian 16 at Tue Apr  8 23:34:08 2025.
