 Gaussian 16, Revision C.01,

 ----------------------------------------------------------------------
 #t hf aug-cc-pvdz symm=none int=(grid=ultrafine) guess=(read,tcheck) s
 table=(opt,rrhf)
 ----------------------------------------------------------------------
 -----
 title
 -----
 Symbolic Z-matrix:
 Charge =  0 Multiplicity = 1

 SCF Done:  E(RHF) =  -386.008981705     A.U. after   15 cycles
 Normal termination of Gaussian 16 at Wed Apr  9 00:37:40 2025.
 Gaussian 16:  ES64L-G16RevC.01  3-Jul-2019

 ----------------------------------------------------------------------
 #t hf aug-cc-pvdz iop(5/13=1,5/36=2,99/5=2) pseudo=read geom=check gue
 ss=(read,tcheck) scf=(maxcycle=1)
 ----------------------------------------------------------------------
 -----
 title
 -----
 Structure from the checkpoint file:  "BDE49_nonexpt_602_mol1.chk"
 Charge =  0 Multiplicity = 1

                         Standard orientation:
 ---------------------------------------------------------------------
 Center     Atomic      Atomic             Coordinates (Angstroms)
 Number     Number       Type             X           Y           Z
 ---------------------------------------------------------------------
      1          6           0        2.564834    0.586323    0.000002
      2          6           0        1.464523    1.441172    0.000000
      3          6           0        0.165010    0.943562   -0.000001
      4          6           0        2.350324   -0.789948    0.000003
      5          6           0        1.056815   -1.299021    0.000002
      6          6           0       -0.053254   -0.441868    0.000001
      7          1           0        3.572232    0.985563    0.000002
      8          1           0        1.614911    2.515348   -0.000001
      9          1           0       -0.679832    1.616326   -0.000002
     10          1           0        3.191990   -1.473759    0.000004
     11          1           0        0.900021   -2.373924    0.000003
     12          5           0       -2.640314   -0.436388   -0.000002
     13          8           0       -2.828380    0.920476   -0.000004
     14          1           0       -3.757957    1.157238   -0.000005
     15          7           0       -1.344261   -1.006170    0.000000
     16          1           0       -3.568420   -1.191122   -0.000002
     17          1           0       -1.324019   -2.015674    0.000001
 ---------------------------------------------------------------------

 SCF Done:  E(RHF) =  -386.129932492     A.U. after    2 cycles

 The electronic state is 1-A.
 Alpha  occ. eigenvalues --  -20.58471 -15.62944 -11.28882 -11.24325 -11.24092
 Alpha  occ. eigenvalues --  -11.23626 -11.23075 -11.22869  -7.64543  -1.32973
 Alpha  occ. eigenvalues --   -1.19385  -1.11442  -1.00539  -0.98265  -0.83650
 Alpha  occ. eigenvalues --   -0.82114  -0.77047  -0.72034  -0.66771  -0.66133
 Alpha  occ. eigenvalues --   -0.65113  -0.60051  -0.59056  -0.58193  -0.57297
 Alpha  occ. eigenvalues --   -0.52592  -0.52541  -0.49664  -0.48099  -0.44714
 Alpha  occ. eigenvalues --   -0.33713  -0.29964
 Alpha virt. eigenvalues --    0.02927   0.03671   0.04035   0.05242   0.05366
 Alpha virt. eigenvalues --    0.05559   0.06966   0.07649   0.09370   0.10242
 Alpha virt. eigenvalues --    0.10998   0.11075   0.11802   0.12196   0.13248

 Mulliken charges:
               1
     1  C    0.568146
     2  C    0.486605
     3  C    0.708941
     4  C    0.519410
     5  C    0.407962
     6  C    0.390005
     7  H   -0.458555
     8  H   -0.461046
     9  H   -0.603151
    10  H   -0.437198
    11  H   -0.626383
    12  B   -0.024543
    13  O   -0.504278
    14  H    0.186145
    15  N   -0.333155
    16  H    0.269763
    17  H   -0.088668
 Sum of Mulliken charges =   0.00000

 Dipole moment (field-independent basis, Debye):
    X=             -1.4938    Y=             -0.8964    Z=             -0.0000  Tot=              1.7421

 Test job not archived.
 1\1\GINC-SE460\SP\RHF\Aug-CC-pVDZ\C6H8B1N1O1\OHZDE\09-Apr-2025\0\\#t h
 f aug-cc-pvdz iop(5/13=1,5/36=2,99/5=2) pseudo=read geom=check guess=(
 read,tcheck) scf=(maxcycle=1)\\title\\0,1\C,0,2.564834,0.586323,0.0000
 02\C,0,1.464523,1.441172,0.\C,0,0.16501,0.943562,-0.000001\C,0,2.35032
 4,-0.789948,0.000003\C,0,1.056815,-1.299021,0.000002\C,0,-0.053254,-0.
 441868,0.000001\H,0,3.572232,0.985563,0.000002\H,0,1.614911,2.515348,-
 0.000001\H,0,-0.679832,1.616326,-0.000002\H,0,3.19199,-1.473759,0.0000
 04\H,0,0.900021,-2.373924,0.000003\B,0,-2.640314,-0.436388,-0.000002\O

 Normal termination of Gaussian 16 at Wed Apr  9 00:37:47 2025.
