 Gaussian 16, Revision C.01,

 ----------------------------------------------------------------------
 #t hf aug-cc-pvdz symm=none int=(grid=ultrafine) guess=(read,tcheck) s
 table=(opt,rrhf)
 ----------------------------------------------------------------------
 -----
 title
 -----
 Symbolic Z-matrix:
 Charge =  0 Multiplicity = 1

 SCF Done:  E(RHF) =  -2615.13440089     A.U. after   12 cycles
 Normal termination of Gaussian 16 at Wed Apr  9 00:08:10 2025.
 Gaussian 16:  ES64L-G16RevC.01  3-Jul-2019

 ----------------------------------------------------------------------
 #t hf aug-cc-pvdz iop(5/13=1,5/36=2,99/5=2) pseudo=read geom=check gue
 ss=(read,tcheck) scf=(maxcycle=1)
 ----------------------------------------------------------------------
 -----
 title
 -----
 Structure from the checkpoint file:  "BDE49_nonexpt_2328_mol1.chk"
 Charge =  0 Multiplicity = 1

                         Standard orientation:
 ---------------------------------------------------------------------
 Center     Atomic      Atomic             Coordinates (Angstroms)
 Number     Number       Type             X           Y           Z
 ---------------------------------------------------------------------
      1         14           0        1.356918    0.514563   -0.000002
      2         14           0       -0.911884   -0.069566   -0.000001
      3         17           0       -2.059690    1.634004   -0.000021
      4         17           0       -1.332744   -1.177832    1.677317
      5          9           0        1.684786    1.396392    1.281179
      6         17           0        2.574779   -1.123293    0.000018
      7         17           0       -1.332737   -1.177866   -1.677299
      8          9           0        1.684792    1.396365   -1.281201
 ---------------------------------------------------------------------

 SCF Done:  E(RHF) =  -2615.34791272     A.U. after    2 cycles

 The electronic state is 1-A.
 Alpha  occ. eigenvalues -- -103.69416-103.69416-103.69399-103.69337 -69.23554
 Alpha  occ. eigenvalues --  -69.22841 -26.15594 -26.15592 -10.72868 -10.72857
 Alpha  occ. eigenvalues --  -10.72839 -10.72820  -8.38558  -8.38552  -8.38534
 Alpha  occ. eigenvalues --   -8.38512  -8.38309  -8.38309  -8.38306  -8.38303
 Alpha  occ. eigenvalues --   -8.38287  -8.38284  -8.38271  -8.38266  -6.97232
 Alpha  occ. eigenvalues --   -6.96783  -4.08208  -4.08156  -4.07948  -4.07613
 Alpha  occ. eigenvalues --   -4.07613  -4.07418  -1.69161  -1.67954  -1.20126
 Alpha  occ. eigenvalues --   -1.18051  -1.16838  -1.16813  -0.87181  -0.81215
 Alpha  occ. eigenvalues --   -0.78765  -0.77975  -0.75667  -0.74157  -0.73130
 Alpha  occ. eigenvalues --   -0.63310  -0.60399  -0.60355  -0.57681  -0.53320
 Alpha  occ. eigenvalues --   -0.53191  -0.52586  -0.52095  -0.50649  -0.50585
 Alpha  occ. eigenvalues --   -0.49260  -0.45867
 Alpha virt. eigenvalues --    0.04737   0.04824   0.05312   0.05372   0.07615
 Alpha virt. eigenvalues --    0.07817   0.07908   0.08682   0.08791   0.09138
 Alpha virt. eigenvalues --    0.11804   0.12167   0.13819   0.14923   0.15498

 Mulliken charges:
               1
     1  Si   2.222898
     2  Si   1.075447
     3  Cl  -0.460299
     4  Cl  -0.449072
     5  F   -0.741510
     6  Cl  -0.456881
     7  Cl  -0.449072
     8  F   -0.741510
 Sum of Mulliken charges =  -0.00000

 Dipole moment (field-independent basis, Debye):
    X=             -0.4636    Y=             -0.7429    Z=              0.0000  Tot=              0.8757

 Test job not archived.
 1\1\GINC-SE109\SP\RHF\Aug-CC-pVDZ\Cl4F2Si2\OHZDE\09-Apr-2025\0\\#t hf
 aug-cc-pvdz iop(5/13=1,5/36=2,99/5=2) pseudo=read geom=check guess=(re
 ad,tcheck) scf=(maxcycle=1)\\title\\0,1\Si,0,1.356918,0.514563,-0.0000
 02\Si,0,-0.911884,-0.069566,-0.000001\Cl,0,-2.05969,1.634004,-0.000021
 \Cl,0,-1.332744,-1.177832,1.677317\F,0,1.684786,1.396392,1.281179\Cl,0
 ,2.574779,-1.123293,0.000018\Cl,0,-1.332737,-1.177866,-1.677299\F,0,1.
 684792,1.396365,-1.281201\\Version=ES64L-G16RevC.01\State=1-A\HF=-2615
 .3479127\RMSD=4.057e-03\Dipole=-0.1823953,-0.2922939,0.0000052\Quadrup

 Normal termination of Gaussian 16 at Wed Apr  9 00:08:15 2025.
