 Gaussian 16, Revision C.01,

 ----------------------------------------------------------------------
 #t hf aug-cc-pvdz symm=none int=(grid=ultrafine) guess=(read,tcheck) s
 table=opt
 ----------------------------------------------------------------------
 -----
 title
 -----
 Symbolic Z-matrix:
 Charge =  0 Multiplicity = 2

 SCF Done:  E(UHF) =  -246.399158928     A.U. after   19 cycles
 Normal termination of Gaussian 16 at Tue Apr  8 23:01:50 2025.
 Gaussian 16:  ES64L-G16RevC.01  3-Jul-2019

 ----------------------------------------------------------------------
 #t hf aug-cc-pvdz iop(5/13=1,5/36=2,99/5=2) pseudo=read geom=check gue
 ss=(read,tcheck) scf=(maxcycle=1)
 ----------------------------------------------------------------------
 -----
 title
 -----
 Structure from the checkpoint file:  "BDE49_expt_359_mol2.chk"
 Charge =  0 Multiplicity = 2

                         Standard orientation:
 ---------------------------------------------------------------------
 Center     Atomic      Atomic             Coordinates (Angstroms)
 Number     Number       Type             X           Y           Z
 ---------------------------------------------------------------------
      1          7           0        0.411325   -0.078313    0.000004
      2          6           0       -0.855574   -0.628557    0.000013
      3          8           0       -1.890203    0.006536   -0.000013
      4          6           0        0.544906    1.378253    0.000000
      5          1           0       -0.454928    1.805493   -0.000027
      6          1           0        1.086796    1.704707   -0.890940
      7          1           0        1.086750    1.704718    0.890964
      8          6           0        1.544679   -0.861954    0.000002
      9          1           0        1.434589   -1.934697    0.000005
     10          1           0        2.506997   -0.379434   -0.000005
     11          1           0       -0.821929   -1.731337   -0.000013
 ---------------------------------------------------------------------

 SCF Done:  E(UHF) =  -246.478819299     A.U. after    2 cycles

 The electronic state is 2-A.
 Alpha  occ. eigenvalues --  -20.55499 -15.67845 -11.36944 -11.28391 -11.27776
 Alpha  occ. eigenvalues --   -1.36321  -1.24315  -0.98862  -0.94729  -0.78859
 Alpha  occ. eigenvalues --   -0.71876  -0.68265  -0.65503  -0.61462  -0.58533
 Alpha  occ. eigenvalues --   -0.56484  -0.55883  -0.49282  -0.45892  -0.30501
 Alpha virt. eigenvalues --    0.03013   0.03896   0.04947   0.05345   0.07152
 Alpha virt. eigenvalues --    0.08176   0.09179   0.10786   0.13037   0.13549
 Alpha virt. eigenvalues --    0.14475   0.15564   0.15751   0.16042   0.16629

  Beta  occ. eigenvalues --  -20.54912 -15.67711 -11.37051 -11.27810 -11.26090
  Beta  occ. eigenvalues --   -1.35215  -1.22782  -0.97587  -0.90366  -0.78064
  Beta  occ. eigenvalues --   -0.70620  -0.67434  -0.63314  -0.60735  -0.57901
  Beta  occ. eigenvalues --   -0.55620  -0.54322  -0.45314  -0.41561
  Beta virt. eigenvalues --    0.03122   0.03922   0.04887   0.04970   0.07168
  Beta virt. eigenvalues --    0.08192   0.08569   0.10367   0.10864   0.13079
  Beta virt. eigenvalues --    0.14517   0.15302   0.15706   0.15985   0.16086

 Mulliken charges and spin densities:
               1          2
     1  N   -0.149796  -0.044170
     2  C    0.586203  -0.069587
     3  O   -0.453324   0.127686
     4  C    0.745527  -0.014734
     5  H   -0.197685   0.001183
     6  H   -0.102049   0.001918
     7  H   -0.102036   0.001918
     8  C    0.543140   1.211437
     9  H   -0.296418  -0.111080
    10  H   -0.306466  -0.104375
    11  H   -0.267095  -0.000195
 Sum of Mulliken charges =  -0.00000   1.00000

 Dipole moment (field-independent basis, Debye):
    X=              3.6163    Y=             -0.6365    Z=              0.0000  Tot=              3.6719
                          Isotropic Fermi Contact Couplings
        Atom                 a.u.       MegaHertz       Gauss      10(-4) cm-1
     1  N(14)             -0.01298      -4.19466      -1.49676      -1.39919
     2  C(13)             -0.01284     -14.43154      -5.14953      -4.81384
     3  O(17)              0.05183     -31.42034     -11.21156     -10.48070
     4  C(13)             -0.00446      -5.00902      -1.78734      -1.67083
     5  H(1)              -0.00024      -1.07458      -0.38344      -0.35844
     6  H(1)               0.00075       3.35708       1.19789       1.11980
     7  H(1)               0.00075       3.35721       1.19793       1.11984
     8  C(13)              0.18747     210.75735      75.20346      70.30109

 Normal termination of Gaussian 16 at Tue Apr  8 23:01:53 2025.
