 Gaussian 16, Revision C.01,

 ----------------------------------------------------------------------
 #t hf aug-cc-pvdz symm=none int=(grid=ultrafine) guess=(read,tcheck) s
 table=(opt,rrhf)
 ----------------------------------------------------------------------
 -----
 title
 -----
 Symbolic Z-matrix:
 Charge =  0 Multiplicity = 1

 SCF Done:  E(RHF) =  -537.135095351     A.U. after   13 cycles
 Normal termination of Gaussian 16 at Tue Apr  8 23:50:41 2025.
 Gaussian 16:  ES64L-G16RevC.01  3-Jul-2019

 ----------------------------------------------------------------------
 #t hf aug-cc-pvdz iop(5/13=1,5/36=2,99/5=2) pseudo=read geom=check gue
 ss=(read,tcheck) scf=(maxcycle=1)
 ----------------------------------------------------------------------
 -----
 title
 -----
 Structure from the checkpoint file:  "BDE49_nonexpt_1895_mol1.chk"
 Charge =  0 Multiplicity = 1

                         Standard orientation:
 ---------------------------------------------------------------------
 Center     Atomic      Atomic             Coordinates (Angstroms)
 Number     Number       Type             X           Y           Z
 ---------------------------------------------------------------------
      1         14           0       -2.268716    0.021302    0.324342
      2          6           0       -0.774244   -0.679702   -0.613733
      3          6           0        0.483677    0.111214   -0.299654
      4          8           0        0.494375    1.332766   -0.339110
      5          7           0        1.577657   -0.629446    0.044628
      6          1           0       -1.938653    0.166524    1.760425
      7          6           0        2.856544   -0.026000    0.380930
      8          1           0        2.714954    1.053384    0.384691
      9          1           0        3.624575   -0.280068   -0.356103
     10          1           0        3.193571   -0.348145    1.370159
     11          1           0       -3.387639   -0.945003    0.194536
     12          1           0       -2.696105    1.320396   -0.230505
     13          1           0        1.505889   -1.633158    0.024014
     14          1           0       -0.980655   -0.571914   -1.683913
     15          1           0       -0.668376   -1.749314   -0.408873
 ---------------------------------------------------------------------

 SCF Done:  E(RHF) =  -537.236916203     A.U. after    2 cycles

 The electronic state is 1-A.
 Alpha  occ. eigenvalues --  -69.06510 -20.53168 -15.65336 -11.36798 -11.27169
 Alpha  occ. eigenvalues --  -11.24281  -6.81765  -3.92551  -3.92536  -3.92519
 Alpha  occ. eigenvalues --   -1.34527  -1.19704  -1.01046  -0.92601  -0.79082
 Alpha  occ. eigenvalues --   -0.70898  -0.68655  -0.65618  -0.62943  -0.59747
 Alpha  occ. eigenvalues --   -0.58361  -0.55030  -0.53527  -0.47780  -0.47235
 Alpha  occ. eigenvalues --   -0.45917  -0.43641  -0.39650
 Alpha virt. eigenvalues --    0.02712   0.03962   0.04496   0.04546   0.05938
 Alpha virt. eigenvalues --    0.06719   0.07099   0.07941   0.08730   0.09411
 Alpha virt. eigenvalues --    0.10007   0.10415   0.12782   0.13577   0.13988

 Mulliken charges:
               1
     1  Si   0.298558
     2  C   -0.025066
     3  C    0.521674
     4  O   -0.555258
     5  N   -0.295665
     6  H   -0.006282
     7  C    0.731428
     8  H   -0.166037
     9  H   -0.115646
    10  H   -0.128570
    11  H   -0.002533
    12  H    0.073057
    13  H   -0.104047
    14  H   -0.013551
    15  H   -0.212062
 Sum of Mulliken charges =  -0.00000

 Dipole moment (field-independent basis, Debye):
    X=              1.2208    Y=             -4.0834    Z=              0.0437  Tot=              4.2622

 Test job not archived.
 1\1\GINC-SE249\SP\RHF\Aug-CC-pVDZ\C3H9N1O1Si1\OHZDE\08-Apr-2025\0\\#t
 hf aug-cc-pvdz iop(5/13=1,5/36=2,99/5=2) pseudo=read geom=check guess=
 (read,tcheck) scf=(maxcycle=1)\\title\\0,1\Si,0,2.268716,0.021302,-0.3
 24342\C,0,0.774244,-0.679702,0.613733\C,0,-0.483677,0.111214,0.299654\
 O,0,-0.494375,1.332766,0.33911\N,0,-1.577657,-0.629446,-0.044628\H,0,1
 .938653,0.166524,-1.760425\C,0,-2.856544,-0.026,-0.38093\H,0,-2.714954
 ,1.053384,-0.384691\H,0,-3.624575,-0.280068,0.356103\H,0,-3.193571,-0.
 348145,-1.370159\H,0,3.387639,-0.945003,-0.194536\H,0,2.696105,1.32039

 Normal termination of Gaussian 16 at Tue Apr  8 23:50:46 2025.
