 Gaussian 16, Revision C.01,

 ----------------------------------------------------------------------
 #t hf aug-cc-pvdz symm=none int=(grid=ultrafine) guess=(read,tcheck) s
 table=(opt,rrhf)
 ----------------------------------------------------------------------
 -----
 title
 -----
 Symbolic Z-matrix:
 Charge =  0 Multiplicity = 1

 SCF Done:  E(RHF) =  -1012.01298006     A.U. after   15 cycles
 Normal termination of Gaussian 16 at Tue Apr  8 23:41:51 2025.
 Gaussian 16:  ES64L-G16RevC.01  3-Jul-2019

 ----------------------------------------------------------------------
 #t hf aug-cc-pvdz iop(5/13=1,5/36=2,99/5=2) pseudo=read geom=check gue
 ss=(read,tcheck) scf=(maxcycle=1)
 ----------------------------------------------------------------------
 -----
 title
 -----
 Structure from the checkpoint file:  "BDE49_nonexpt_1651_mol1.chk"
 Charge =  0 Multiplicity = 1

                         Standard orientation:
 ---------------------------------------------------------------------
 Center     Atomic      Atomic             Coordinates (Angstroms)
 Number     Number       Type             X           Y           Z
 ---------------------------------------------------------------------
      1          6           0        2.841738    0.920989   -0.584831
      2          6           0        1.468157    1.108716   -0.448264
      3          6           0        0.653777    0.099176    0.089735
      4         14           0       -1.185500    0.331183    0.280128
      5          8           0       -1.702541   -0.038341    1.806342
      6         15           0       -2.361491   -1.147544   -0.980429
      7          6           0        3.425285   -0.280717   -0.188347
      8          6           0        2.633016   -1.295212    0.346733
      9          6           0        1.260471   -1.105623    0.483673
     10          1           0        0.656386   -1.904144    0.903625
     11          1           0        3.456815    1.711742   -1.000317
     12          1           0        1.017892    2.045713   -0.754962
     13          1           0        4.494417   -0.427283   -0.296449
     14          1           0        3.084250   -2.231693    0.655586
     15          1           0       -2.112917   -0.455597   -2.195133
     16          1           0       -3.613119   -0.512322   -0.757189
     17          1           0       -1.235084    0.370356    2.540748
     18          8           0       -1.433032    1.922019   -0.096235
     19          1           0       -2.339346    2.226436   -0.184318
 ---------------------------------------------------------------------

 SCF Done:  E(RHF) =  -1012.18579925     A.U. after    2 cycles

 The electronic state is 1-A.
 Alpha  occ. eigenvalues --  -81.24367 -69.12292 -20.57753 -20.57405 -11.25374
 Alpha  occ. eigenvalues --  -11.25344 -11.25107 -11.24781 -11.24699 -11.23365
 Alpha  occ. eigenvalues --   -7.74919  -6.86692  -4.88886  -4.88797  -4.88574
 Alpha  occ. eigenvalues --   -3.97624  -3.97503  -3.97433  -1.31662  -1.29705
 Alpha  occ. eigenvalues --   -1.14327  -1.01316  -1.01090  -0.83407  -0.83039
 Alpha  occ. eigenvalues --   -0.80101  -0.75489  -0.72714  -0.70587  -0.64246
 Alpha  occ. eigenvalues --   -0.62985  -0.60705  -0.59626  -0.59349  -0.58104
 Alpha  occ. eigenvalues --   -0.54885  -0.52726  -0.51634  -0.50704  -0.49852
 Alpha  occ. eigenvalues --   -0.48122  -0.42844  -0.35651  -0.34356  -0.34238
 Alpha virt. eigenvalues --    0.02827   0.03839   0.04308   0.05166   0.05626
 Alpha virt. eigenvalues --    0.05966   0.06738   0.07420   0.08144   0.08194
 Alpha virt. eigenvalues --    0.09012   0.09513   0.10247   0.10558   0.10630

 Mulliken charges:
               1
     1  C    0.573874
     2  C    0.180698
     3  C   -0.201566
     4  Si   1.837070
     5  O   -0.853214
     6  P   -0.617038
     7  C    0.761398
     8  C    0.652138
     9  C    0.571176
    10  H   -0.661238
    11  H   -0.454555
    12  H   -0.623158
    13  H   -0.443664
    14  H   -0.451577
    15  H    0.188684
    16  H    0.155297
    17  H    0.083986
    18  O   -0.830755
    19  H    0.132444
 Sum of Mulliken charges =  -0.00000

 Dipole moment (field-independent basis, Debye):
    X=              0.6157    Y=              1.1988    Z=              0.3892  Tot=              1.4028

 Test job not archived.
 1\1\GINC-SE227\SP\RHF\Aug-CC-pVDZ\C6H9O2P1Si1\OHZDE\08-Apr-2025\0\\#t
 hf aug-cc-pvdz iop(5/13=1,5/36=2,99/5=2) pseudo=read geom=check guess=
 (read,tcheck) scf=(maxcycle=1)\\title\\0,1\C,0,2.841738,0.920989,-0.58
 4831\C,0,1.468157,1.108716,-0.448264\C,0,0.653777,0.099176,0.089735\Si
 ,0,-1.1855,0.331183,0.280128\O,0,-1.702541,-0.038341,1.806342\P,0,-2.3
 61491,-1.147544,-0.980429\C,0,3.425285,-0.280717,-0.188347\C,0,2.63301
 6,-1.295212,0.346733\C,0,1.260471,-1.105623,0.483673\H,0,0.656386,-1.9
 04144,0.903625\H,0,3.456815,1.711742,-1.000317\H,0,1.017892,2.045713,-

 Normal termination of Gaussian 16 at Tue Apr  8 23:42:03 2025.
