 Gaussian 16, Revision C.01,

 ----------------------------------------------------------------------
 #t hf aug-cc-pvdz symm=none int=(grid=ultrafine) guess=(read,tcheck) s
 table=(opt,rrhf)
 ----------------------------------------------------------------------
 -----
 title
 -----
 Symbolic Z-matrix:
 Charge =  0 Multiplicity = 1

 SCF Done:  E(RHF) =  -957.380104318     A.U. after   15 cycles
 Normal termination of Gaussian 16 at Wed Apr  9 00:14:53 2025.
 Gaussian 16:  ES64L-G16RevC.01  3-Jul-2019

 ----------------------------------------------------------------------
 #t hf aug-cc-pvdz iop(5/13=1,5/36=2,99/5=2) pseudo=read geom=check gue
 ss=(read,tcheck) scf=(maxcycle=1)
 ----------------------------------------------------------------------
 -----
 title
 -----
 Structure from the checkpoint file:  "BDE49_nonexpt_2498_mol1.chk"
 Charge =  0 Multiplicity = 1

                         Standard orientation:
 ---------------------------------------------------------------------
 Center     Atomic      Atomic             Coordinates (Angstroms)
 Number     Number       Type             X           Y           Z
 ---------------------------------------------------------------------
      1          6           0       -2.749538    0.399108   -0.429064
      2         16           0       -1.750216   -1.154178   -0.227038
      3         14           0        0.226609   -0.388166   -0.090966
      4          6           0        0.730028    1.284199   -0.356987
      5          6           0        2.101366    1.540218   -0.234755
      6          6           0        1.623415   -1.399531    0.291016
      7          6           0        2.863264   -0.756168    0.314094
      8          6           0        3.094200    0.604767    0.072646
      9          1           0        4.117254    0.958630    0.130687
     10          1           0        2.431815    2.565103   -0.394109
     11          1           0        0.071309    2.109584   -0.599798
     12          1           0        1.581553   -2.461939    0.500692
     13          1           0        3.736840   -1.363466    0.544149
     14          6           0       -2.992011    1.155900    0.870998
     15          1           0       -3.687545    0.039571   -0.855926
     16          1           0       -2.268749    1.023258   -1.182803
     17          1           0       -3.479017    0.518451    1.611567
     18          1           0       -3.639315    2.018801    0.682986
     19          1           0       -2.057559    1.522214    1.301004
 ---------------------------------------------------------------------

 SCF Done:  E(RHF) =  -957.501563013     A.U. after    2 cycles

 The electronic state is 1-A.
 Alpha  occ. eigenvalues --  -93.54109 -69.07978 -11.29280 -11.25951 -11.25868
 Alpha  occ. eigenvalues --  -11.24668 -11.22604 -11.22386 -11.22166  -8.83968
 Alpha  occ. eigenvalues --   -6.83549  -6.18096  -6.17900  -6.17632  -3.94279
 Alpha  occ. eigenvalues --   -3.94221  -3.94202  -1.09605  -1.06885  -1.00280
 Alpha  occ. eigenvalues --   -0.94613  -0.91715  -0.83068  -0.79876  -0.72691
 Alpha  occ. eigenvalues --   -0.67915  -0.64799  -0.60771  -0.59485  -0.58101
 Alpha  occ. eigenvalues --   -0.57934  -0.55435  -0.53295  -0.51967  -0.48125
 Alpha  occ. eigenvalues --   -0.47475  -0.44751  -0.42908  -0.38779  -0.35196
 Alpha  occ. eigenvalues --   -0.27293
 Alpha virt. eigenvalues --    0.03050   0.03909   0.04264   0.04830   0.05385
 Alpha virt. eigenvalues --    0.05574   0.06724   0.07028   0.07419   0.07721
 Alpha virt. eigenvalues --    0.08401   0.09200   0.09544   0.10063   0.10229

 Mulliken charges:
               1
     1  C   -0.053577
     2  S   -0.134829
     3  Si   1.198744
     4  C    0.468088
     5  C    0.240966
     6  C    0.520447
     7  C    0.139995
     8  C    0.330317
     9  H   -0.490013
    10  H   -0.463017
    11  H   -0.582215
    12  H   -0.585556
    13  H   -0.447959
    14  C    0.341145
    15  H   -0.051494
    16  H   -0.191912
    17  H   -0.064128
    18  H   -0.059093
    19  H   -0.115908
 Sum of Mulliken charges =  -0.00000

 Dipole moment (field-independent basis, Debye):
    X=             -1.9153    Y=              1.2874    Z=             -0.0712  Tot=              2.3089

 Test job not archived.
 1\1\GINC-SE333\SP\RHF\Aug-CC-pVDZ\C7H10S1Si1\OHZDE\09-Apr-2025\0\\#t h
 f aug-cc-pvdz iop(5/13=1,5/36=2,99/5=2) pseudo=read geom=check guess=(
 read,tcheck) scf=(maxcycle=1)\\title\\0,1\C,0,-2.749538,0.399108,-0.42
 9064\S,0,-1.750216,-1.154178,-0.227038\Si,0,0.226609,-0.388166,-0.0909
 66\C,0,0.730028,1.284199,-0.356987\C,0,2.101366,1.540218,-0.234755\C,0
 ,1.623415,-1.399531,0.291016\C,0,2.863264,-0.756168,0.314094\C,0,3.094
 2,0.604767,0.072646\H,0,4.117254,0.95863,0.130687\H,0,2.431815,2.56510
 3,-0.394109\H,0,0.071309,2.109584,-0.599798\H,0,1.581553,-2.461939,0.5

 Normal termination of Gaussian 16 at Wed Apr  9 00:15:02 2025.
