 Gaussian 16, Revision C.01,

 ----------------------------------------------------------------------
 #t hf aug-cc-pvdz symm=none int=(grid=ultrafine) guess=(read,tcheck) s
 table=opt
 ----------------------------------------------------------------------
 -----
 title
 -----
 Symbolic Z-matrix:
 Charge =  0 Multiplicity = 2

 SCF Done:  E(UHF) =  -202.789556737     A.U. after   14 cycles
 Normal termination of Gaussian 16 at Wed Apr  9 00:29:53 2025.
 Gaussian 16:  ES64L-G16RevC.01  3-Jul-2019

 ----------------------------------------------------------------------
 #t hf aug-cc-pvdz iop(5/13=1,5/36=2,99/5=2) pseudo=read geom=check gue
 ss=(read,tcheck) scf=(maxcycle=1)
 ----------------------------------------------------------------------
 -----
 title
 -----
 Structure from the checkpoint file:  "BDE49_nonexpt_370_mol2.chk"
 Charge =  0 Multiplicity = 2

                         Standard orientation:
 ---------------------------------------------------------------------
 Center     Atomic      Atomic             Coordinates (Angstroms)
 Number     Number       Type             X           Y           Z
 ---------------------------------------------------------------------
      1          9           0        1.988394   -0.019690   -0.000001
      2          5           0        0.751754   -0.479357   -0.000001
      3          6           0       -0.495980    0.463668   -0.000001
      4          6           0       -1.872187   -0.214012    0.000002
      5          1           0       -0.384387    1.126551    0.872290
      6          1           0       -1.998241   -0.849572   -0.879955
      7          1           0       -2.680065    0.522103    0.000001
      8          1           0       -1.998239   -0.849569    0.879961
      9          1           0       -0.384389    1.126548   -0.872294
 ---------------------------------------------------------------------

 SCF Done:  E(UHF) =  -202.865891646     A.U. after    2 cycles

 The electronic state is 2-A.
 Alpha  occ. eigenvalues --  -26.13667 -11.23526 -11.23257  -7.69434  -1.67985
 Alpha  occ. eigenvalues --   -1.02992  -0.87810  -0.83208  -0.76095  -0.73992
 Alpha  occ. eigenvalues --   -0.62223  -0.61331  -0.52973  -0.50875  -0.50389
 Alpha  occ. eigenvalues --   -0.34594
 Alpha virt. eigenvalues --    0.03520   0.04594   0.04822   0.05140   0.06925
 Alpha virt. eigenvalues --    0.06975   0.07622   0.07848   0.12246   0.12485
 Alpha virt. eigenvalues --    0.13491   0.14819   0.16053   0.16911   0.17037

  Beta  occ. eigenvalues --  -26.13326 -11.23522 -11.22935  -7.67602  -1.66986
  Beta  occ. eigenvalues --   -1.02363  -0.86908  -0.82011  -0.74037  -0.73332
  Beta  occ. eigenvalues --   -0.61240  -0.60407  -0.52560  -0.50307  -0.48658
  Beta virt. eigenvalues --    0.02807   0.04803   0.04806   0.04973   0.06902
  Beta virt. eigenvalues --    0.07502   0.07553   0.07689   0.09686   0.12851
  Beta virt. eigenvalues --    0.14716   0.14843   0.15339   0.17016   0.17056

 Mulliken charges and spin densities:
               1          2
     1  F   -0.353781  -0.026914
     2  B    0.423392   1.048089
     3  C    0.287443   0.019269
     4  C    0.247963  -0.023025
     5  H   -0.184131  -0.002704
     6  H   -0.093059  -0.003455
     7  H   -0.050635  -0.005102
     8  H   -0.093060  -0.003455
     9  H   -0.184132  -0.002704
 Sum of Mulliken charges =  -0.00000   1.00000

 Dipole moment (field-independent basis, Debye):
    X=             -1.5920    Y=              0.5252    Z=             -0.0000  Tot=              1.6764
                          Isotropic Fermi Contact Couplings
        Atom                 a.u.       MegaHertz       Gauss      10(-4) cm-1
     1  F(19)              0.07771     326.95707     116.66641     109.06114
     2  B(11)              0.32065     459.93347     164.11570     153.41729
     3  C(13)              0.07378      82.94078      29.59533      27.66607
     4  C(13)              0.00465       5.23266       1.86714       1.74543
     5  H(1)               0.00052       2.31262       0.82520       0.77141
     6  H(1)              -0.00011      -0.48510      -0.17310      -0.16181
     7  H(1)              -0.00059      -2.64714      -0.94457      -0.88299
     8  H(1)              -0.00011      -0.48510      -0.17310      -0.16181

 Normal termination of Gaussian 16 at Wed Apr  9 00:29:58 2025.
