 Gaussian 16, Revision C.01,

 ----------------------------------------------------------------------
 #t hf aug-cc-pvdz symm=none int=(grid=ultrafine) guess=(read,tcheck) s
 table=(opt,rrhf)
 ----------------------------------------------------------------------
 -----
 title
 -----
 Symbolic Z-matrix:
 Charge =  0 Multiplicity = 1

 SCF Done:  E(RHF) =  -1175.19449663     A.U. after   13 cycles
 Normal termination of Gaussian 16 at Wed Apr  9 00:18:05 2025.
 Gaussian 16:  ES64L-G16RevC.01  3-Jul-2019

 ----------------------------------------------------------------------
 #t hf aug-cc-pvdz iop(5/13=1,5/36=2,99/5=2) pseudo=read geom=check gue
 ss=(read,tcheck) scf=(maxcycle=1)
 ----------------------------------------------------------------------
 -----
 title
 -----
 Structure from the checkpoint file:  "BDE49_nonexpt_258_mol1.chk"
 Charge =  0 Multiplicity = 1

                         Standard orientation:
 ---------------------------------------------------------------------
 Center     Atomic      Atomic             Coordinates (Angstroms)
 Number     Number       Type             X           Y           Z
 ---------------------------------------------------------------------
      1          9           0        1.790802    0.000039   -1.304785
      2          6           0        1.705816   -0.000112    1.076831
      3          6           0        2.563638   -0.000067   -0.162778
      4          1           0        3.203515   -0.890532   -0.163520
      5          1           0        3.203582    0.890349   -0.163407
      6          7           0        0.456248   -0.000080    1.075756
      7          5           0       -0.689282   -0.000020    0.298548
      8         17           0       -1.474939    1.532999   -0.131106
      9         17           0       -1.475145   -1.532895   -0.131193
     10          1           0        2.263058   -0.000208    2.021732
 ---------------------------------------------------------------------

 SCF Done:  E(RHF) =  -1175.31336181     A.U. after    2 cycles

 The electronic state is 1-A.
 Alpha  occ. eigenvalues -- -103.65644-103.65643 -26.13869 -15.64901 -11.36307
 Alpha  occ. eigenvalues --  -11.35284 -10.69123 -10.69087  -8.34809  -8.34800
 Alpha  occ. eigenvalues --   -8.34573  -8.34571  -8.34553  -8.34552  -7.73829
 Alpha  occ. eigenvalues --   -1.67286  -1.23148  -1.16239  -1.13196  -1.03311
 Alpha  occ. eigenvalues --   -0.88134  -0.78342  -0.77957  -0.77862  -0.68918
 Alpha  occ. eigenvalues --   -0.63416  -0.62237  -0.61115  -0.58500  -0.52209
 Alpha  occ. eigenvalues --   -0.48700  -0.47465  -0.46989  -0.44865  -0.41855
 Alpha virt. eigenvalues --    0.02363   0.04222   0.04331   0.05876   0.07213
 Alpha virt. eigenvalues --    0.07356   0.07841   0.08170   0.10366   0.12428
 Alpha virt. eigenvalues --    0.13039   0.13246   0.13547   0.14195   0.15295

 Mulliken charges:
               1
     1  F   -0.381247
     2  C    0.323842
     3  C    0.626864
     4  H   -0.029556
     5  H   -0.029559
     6  N   -0.099000
     7  B    0.516027
     8  Cl  -0.330111
     9  Cl  -0.330093
    10  H   -0.267167
 Sum of Mulliken charges =  -0.00000

 Dipole moment (field-independent basis, Debye):
    X=              4.9358    Y=             -0.0004    Z=              1.8820  Tot=              5.2824

 Test job not archived.
 1\1\GINC-SE054\SP\RHF\Aug-CC-pVDZ\C2H3B1Cl2F1N1\OHZDE\09-Apr-2025\0\\#
 t hf aug-cc-pvdz iop(5/13=1,5/36=2,99/5=2) pseudo=read geom=check gues
 s=(read,tcheck) scf=(maxcycle=1)\\title\\0,1\F,0,1.790802,0.000039,-1.
 304785\C,0,1.705816,-0.000112,1.076831\C,0,2.563638,-0.000066,-0.16277
 8\H,0,3.203515,-0.890531,-0.16352\H,0,3.203582,0.89035,-0.163407\N,0,0
 .456248,-0.00008,1.075756\B,0,-0.689282,-0.00002,0.298548\Cl,0,-1.4749
 39,1.532999,-0.131106\Cl,0,-1.475144,-1.532895,-0.131193\H,0,2.263058,
 -0.000207,2.021732\\Version=ES64L-G16RevC.01\State=1-A\HF=-1175.313361

 Normal termination of Gaussian 16 at Wed Apr  9 00:18:09 2025.
