 Gaussian 16, Revision C.01,

 ----------------------------------------------------------------------
 #t hf aug-cc-pvdz symm=none int=(grid=ultrafine) guess=(read,tcheck) s
 table=(opt,rrhf)
 ----------------------------------------------------------------------
 -----
 title
 -----
 Symbolic Z-matrix:
 Charge =  0 Multiplicity = 1

 SCF Done:  E(RHF) =  -1456.00322394     A.U. after   12 cycles

 1\1\GINC-SE096\Stability\RHF\Aug-CC-pVDZ\C2H3Cl3\OHZDE\08-Apr-2025\0\\
 #t hf aug-cc-pvdz symm=none int=(grid=ultrafine) guess=(read,tcheck) s
 table=(opt,rrhf)\\title\\0,1\C,0,0.410014,-0.080105,-0.359075\C,0,-0.6
 67115,-0.832464,0.403525\Cl,0,1.995106,-0.873585,-0.015204\Cl,0,0.4656
 59,1.656315,0.080654\H,0,0.263341,-0.128264,-1.433266\H,0,-0.571248,-0
 .668847,1.474418\H,0,-0.594242,-1.894114,0.176544\Cl,0,-2.316956,-0.30
 2339,-0.093945\\Version=ES64L-G16RevC.01\HF=-1456.0032239\RMSD=9.760e-
 09\Dipole=0.0386374,-0.5546757,-0.0433249\Quadrupole=-3.4070206,1.0582

 Normal termination of Gaussian 16 at Tue Apr  8 22:28:20 2025.
 Gaussian 16:  ES64L-G16RevC.01  3-Jul-2019

 ----------------------------------------------------------------------
 #t hf aug-cc-pvdz iop(5/13=1,5/36=2,99/5=2) pseudo=read geom=check gue
 ss=(read,tcheck) scf=(maxcycle=1)
 ----------------------------------------------------------------------
 -----
 title
 -----
 Structure from the checkpoint file:  "BDE49_expt_1016_mol1.chk"
 Charge =  0 Multiplicity = 1

                         Standard orientation:
 ---------------------------------------------------------------------
 Center     Atomic      Atomic             Coordinates (Angstroms)
 Number     Number       Type             X           Y           Z
 ---------------------------------------------------------------------
      1          6           0        0.410014   -0.080105   -0.359075
      2          6           0       -0.667115   -0.832464    0.403525
      3         17           0        1.995106   -0.873585   -0.015204
      4         17           0        0.465659    1.656315    0.080654
      5          1           0        0.263341   -0.128264   -1.433266
      6          1           0       -0.571248   -0.668847    1.474418
      7          1           0       -0.594242   -1.894114    0.176544
      8         17           0       -2.316956   -0.302339   -0.093945
 ---------------------------------------------------------------------

 SCF Done:  E(RHF) =  -1456.08233356     A.U. after    2 cycles

 The electronic state is 1-A.
 Alpha  occ. eigenvalues -- -103.68535-103.68057-103.67227 -11.39924 -11.34073
 Alpha  occ. eigenvalues --  -10.71813 -10.71353 -10.70497  -8.37529  -8.37219
 Alpha  occ. eigenvalues --   -8.37210  -8.37073  -8.36753  -8.36749  -8.36218
 Alpha  occ. eigenvalues --   -8.35920  -8.35906  -1.23926  -1.17612  -1.14939
 Alpha  occ. eigenvalues --   -1.00105  -0.85954  -0.69897  -0.64681  -0.64469
 Alpha  occ. eigenvalues --   -0.59196  -0.55910  -0.49704  -0.49213  -0.48116
 Alpha  occ. eigenvalues --   -0.46971  -0.46602  -0.46121
 Alpha virt. eigenvalues --    0.03820   0.04763   0.05808   0.07054   0.08170
 Alpha virt. eigenvalues --    0.09778   0.11658   0.12839   0.13800   0.14522
 Alpha virt. eigenvalues --    0.14998   0.15925   0.16689   0.17149   0.17371

 Mulliken charges:
               1
     1  C   -0.310167
     2  C    0.241799
     3  Cl  -0.054818
     4  Cl  -0.034394
     5  H    0.109571
     6  H    0.087048
     7  H    0.060146
     8  Cl  -0.099186
 Sum of Mulliken charges =  -0.00000

 Dipole moment (field-independent basis, Debye):
    X=              0.0973    Y=             -1.4585    Z=             -0.1126  Tot=              1.4660

 Test job not archived.
 1\1\GINC-SE096\SP\RHF\Aug-CC-pVDZ\C2H3Cl3\OHZDE\08-Apr-2025\0\\#t hf a
 ug-cc-pvdz iop(5/13=1,5/36=2,99/5=2) pseudo=read geom=check guess=(rea
 d,tcheck) scf=(maxcycle=1)\\title\\0,1\C,0,0.410014,-0.080105,-0.35907
 5\C,0,-0.667115,-0.832464,0.403525\Cl,0,1.995106,-0.873585,-0.015204\C
 l,0,0.465659,1.656315,0.080654\H,0,0.263341,-0.128264,-1.433266\H,0,-0
 .571248,-0.668847,1.474418\H,0,-0.594242,-1.894114,0.176544\Cl,0,-2.31
 6956,-0.302339,-0.093945\\Version=ES64L-G16RevC.01\State=1-A\HF=-1456.
 0823336\RMSD=3.931e-03\Dipole=0.0382848,-0.5738006,-0.0443189\Quadrupo

 Normal termination of Gaussian 16 at Tue Apr  8 22:28:23 2025.
