 Gaussian 16, Revision C.01,

 ----------------------------------------------------------------------
 #t hf aug-cc-pvdz symm=none int=(grid=ultrafine) guess=(read,tcheck) s
 table=(opt,rrhf)
 ----------------------------------------------------------------------
 -----
 title
 -----
 Symbolic Z-matrix:
 Charge =  0 Multiplicity = 1

 SCF Done:  E(RHF) =  -687.466793138     A.U. after   17 cycles
 Normal termination of Gaussian 16 at Wed Apr  9 00:03:53 2025.
 Gaussian 16:  ES64L-G16RevC.01  3-Jul-2019

 ----------------------------------------------------------------------
 #t hf aug-cc-pvdz iop(5/13=1,5/36=2,99/5=2) pseudo=read geom=check gue
 ss=(read,tcheck) scf=(maxcycle=1)
 ----------------------------------------------------------------------
 -----
 title
 -----
 Structure from the checkpoint file:  "BDE49_nonexpt_2204_mol1.chk"
 Charge =  0 Multiplicity = 1

                         Standard orientation:
 ---------------------------------------------------------------------
 Center     Atomic      Atomic             Coordinates (Angstroms)
 Number     Number       Type             X           Y           Z
 ---------------------------------------------------------------------
      1          6           0        2.513747   -1.230757    0.000185
      2          6           0        2.307762    0.142391    0.000203
      3          6           0        1.008611    0.667881   -0.000029
      4          6           0        1.415899   -2.089311   -0.000024
      5          6           0        0.118902   -1.584750   -0.000261
      6          6           0       -0.097931   -0.205862   -0.000305
      7          1           0        1.566064   -3.162740   -0.000039
      8          1           0       -0.726816   -2.262783   -0.000449
      9          8           0       -1.330603    0.351722   -0.000430
     10         14           0       -2.861097   -0.314439    0.000249
     11          1           0        3.520961   -1.628164    0.000388
     12          6           0        0.801975    2.080873   -0.000011
     13          7           0        0.665023    3.227773    0.000007
     14          1           0        3.146501    0.827386    0.000387
     15          1           0       -3.773194    0.838797   -0.000328
     16          1           0       -3.050992   -1.150052    1.206306
     17          1           0       -3.051290   -1.151282   -1.204919
 ---------------------------------------------------------------------

 SCF Done:  E(RHF) =  -687.615728597     A.U. after    2 cycles

 The electronic state is 1-A.
 Alpha  occ. eigenvalues --  -69.11845 -20.60991 -15.63521 -11.35559 -11.29285
 Alpha  occ. eigenvalues --  -11.28625 -11.28498 -11.28266 -11.26926 -11.26372
 Alpha  occ. eigenvalues --   -6.86640  -3.97558  -3.97392  -3.97370  -1.37451
 Alpha  occ. eigenvalues --   -1.19430  -1.16539  -1.05908  -1.03414  -0.89377
 Alpha  occ. eigenvalues --   -0.87984  -0.78662  -0.75926  -0.70097  -0.68137
 Alpha  occ. eigenvalues --   -0.65146  -0.64608  -0.63659  -0.58968  -0.56035
 Alpha  occ. eigenvalues --   -0.54562  -0.54147  -0.53008  -0.49160  -0.49074
 Alpha  occ. eigenvalues --   -0.47949  -0.46166  -0.36705  -0.34590
 Alpha virt. eigenvalues --    0.02473   0.03333   0.04136   0.05309   0.05556
 Alpha virt. eigenvalues --    0.06050   0.06374   0.06669   0.08530   0.08569
 Alpha virt. eigenvalues --    0.09417   0.10098   0.10283   0.11324   0.11488

 Mulliken charges:
               1
     1  C    0.863038
     2  C    0.163598
     3  C    1.929595
     4  C    0.060099
     5  C    1.263979
     6  C   -0.575941
     7  H   -0.430691
     8  H   -0.634533
     9  O   -0.780461
    10  Si   0.145428
    11  H   -0.425692
    12  C   -1.228519
    13  N   -0.134268
    14  H   -0.530245
    15  H    0.093055
    16  H    0.110735
    17  H    0.110825
 Sum of Mulliken charges =  -0.00000

 Dipole moment (field-independent basis, Debye):
    X=             -0.0276    Y=             -5.5197    Z=              0.0009  Tot=              5.5197

 Test job not archived.
 1\1\GINC-SE341\SP\RHF\Aug-CC-pVDZ\C7H7N1O1Si1\OHZDE\09-Apr-2025\0\\#t
 hf aug-cc-pvdz iop(5/13=1,5/36=2,99/5=2) pseudo=read geom=check guess=
 (read,tcheck) scf=(maxcycle=1)\\title\\0,1\C,0,2.513747,-1.230757,0.00
 0185\C,0,2.307762,0.142391,0.000203\C,0,1.008611,0.667881,-0.000029\C,
 0,1.415899,-2.089311,-0.000024\C,0,0.118902,-1.58475,-0.000261\C,0,-0.
 097931,-0.205862,-0.000305\H,0,1.566064,-3.16274,-0.000039\H,0,-0.7268
 16,-2.262783,-0.000449\O,0,-1.330603,0.351722,-0.00043\Si,0,-2.861097,
 -0.314439,0.000249\H,0,3.520961,-1.628164,0.000388\C,0,0.801975,2.0808

 Normal termination of Gaussian 16 at Wed Apr  9 00:04:02 2025.
