 Gaussian 16, Revision C.01,

 ----------------------------------------------------------------------
 #t hf aug-cc-pvdz symm=none int=(grid=ultrafine) guess=(read,tcheck) s
 table=(opt,rrhf)
 ----------------------------------------------------------------------
 -----
 title
 -----
 Symbolic Z-matrix:
 Charge =  0 Multiplicity = 1

 SCF Done:  E(RHF) =  -878.141724556     A.U. after   12 cycles

 1\1\GINC-SE329\Stability\RHF\Aug-CC-pVDZ\F3H3Si2\OHZDE\09-Apr-2025\0\\
 #t hf aug-cc-pvdz symm=none int=(grid=ultrafine) guess=(read,tcheck) s
 table=(opt,rrhf)\\title\\0,1\Si,0,1.310388,-0.513601,-0.252868\Si,0,-0
 .888492,0.087937,0.366335\F,0,-1.853833,-1.117831,-0.072542\F,0,2.3204
 38,0.619925,0.304968\F,0,-1.345611,1.385385,-0.457207\H,0,1.450862,-0.
 585017,-1.722236\H,0,-1.134272,0.360974,1.793701\H,0,1.687913,-1.80397
 3,0.363023\\Version=ES64L-G16RevC.01\HF=-878.1417246\RMSD=3.663e-09\Di
 pole=0.2588348,-0.4726566,0.2277269\Quadrupole=-2.7406664,-0.1498772,2

 Normal termination of Gaussian 16 at Wed Apr  9 00:07:29 2025.
 Gaussian 16:  ES64L-G16RevC.01  3-Jul-2019

 ----------------------------------------------------------------------
 #t hf aug-cc-pvdz iop(5/13=1,5/36=2,99/5=2) pseudo=read geom=check gue
 ss=(read,tcheck) scf=(maxcycle=1)
 ----------------------------------------------------------------------
 -----
 title
 -----
 Structure from the checkpoint file:  "BDE49_nonexpt_2311_mol1.chk"
 Charge =  0 Multiplicity = 1

                         Standard orientation:
 ---------------------------------------------------------------------
 Center     Atomic      Atomic             Coordinates (Angstroms)
 Number     Number       Type             X           Y           Z
 ---------------------------------------------------------------------
      1         14           0        1.310388   -0.513601   -0.252868
      2         14           0       -0.888492    0.087937    0.366335
      3          9           0       -1.853833   -1.117831   -0.072542
      4          9           0        2.320438    0.619925    0.304968
      5          9           0       -1.345611    1.385385   -0.457207
      6          1           0        1.450862   -0.585017   -1.722236
      7          1           0       -1.134272    0.360974    1.793701
      8          1           0        1.687913   -1.803973    0.363023
 ---------------------------------------------------------------------

 SCF Done:  E(RHF) =  -878.317133203     A.U. after    2 cycles

 The electronic state is 1-A.
 Alpha  occ. eigenvalues --  -69.17383 -69.13465 -26.13046 -26.12912 -26.12182
 Alpha  occ. eigenvalues --   -6.91548  -6.88211  -4.02525  -4.02375  -4.02196
 Alpha  occ. eigenvalues --   -3.99121  -3.98929  -3.98911  -1.66320  -1.65135
 Alpha  occ. eigenvalues --   -1.64663  -0.85020  -0.81510  -0.78378  -0.75700
 Alpha  occ. eigenvalues --   -0.75603  -0.73454  -0.73423  -0.73079  -0.71539
 Alpha  occ. eigenvalues --   -0.65923  -0.58289  -0.51010  -0.44028
 Alpha virt. eigenvalues --    0.03801   0.04289   0.04728   0.05531   0.07188
 Alpha virt. eigenvalues --    0.07471   0.07791   0.08487   0.09665   0.11087
 Alpha virt. eigenvalues --    0.12556   0.13961   0.16214   0.17553   0.18760

 Mulliken charges:
               1
     1  Si   0.720380
     2  Si   1.597829
     3  F   -0.731879
     4  F   -0.771038
     5  F   -0.751348
     6  H   -0.009366
     7  H   -0.030910
     8  H   -0.023669
 Sum of Mulliken charges =  -0.00000

 Dipole moment (field-independent basis, Debye):
    X=              0.7137    Y=             -1.3180    Z=              0.6499  Tot=              1.6337

 Test job not archived.
 1\1\GINC-SE329\SP\RHF\Aug-CC-pVDZ\F3H3Si2\OHZDE\09-Apr-2025\0\\#t hf a
 ug-cc-pvdz iop(5/13=1,5/36=2,99/5=2) pseudo=read geom=check guess=(rea
 d,tcheck) scf=(maxcycle=1)\\title\\0,1\Si,0,1.310388,-0.513601,-0.2528
 68\Si,0,-0.888492,0.087937,0.366335\F,0,-1.853833,-1.117831,-0.072542\
 F,0,2.320438,0.619925,0.304968\F,0,-1.345611,1.385385,-0.457207\H,0,1.
 450862,-0.585017,-1.722236\H,0,-1.134272,0.360974,1.793701\H,0,1.68791
 3,-1.803973,0.363023\\Version=ES64L-G16RevC.01\State=1-A\HF=-878.31713
 32\RMSD=5.043e-03\Dipole=0.2808095,-0.5185305,0.2556915\Quadrupole=-3.

 Normal termination of Gaussian 16 at Wed Apr  9 00:07:31 2025.
