 Gaussian 16, Revision C.01,

 ----------------------------------------------------------------------
 #t hf aug-cc-pvdz symm=none int=(grid=ultrafine) guess=(read,tcheck) s
 table=(opt,rrhf)
 ----------------------------------------------------------------------
 -----
 title
 -----
 Symbolic Z-matrix:
 Charge =  0 Multiplicity = 1

 SCF Done:  E(RHF) =  -1236.94065758     A.U. after   16 cycles
 Normal termination of Gaussian 16 at Tue Apr  8 23:25:22 2025.
 Gaussian 16:  ES64L-G16RevC.01  3-Jul-2019

 ----------------------------------------------------------------------
 #t hf aug-cc-pvdz iop(5/13=1,5/36=2,99/5=2) pseudo=read geom=check gue
 ss=(read,tcheck) scf=(maxcycle=1)
 ----------------------------------------------------------------------
 -----
 title
 -----
 Structure from the checkpoint file:  "BDE49_nonexpt_1260_mol1.chk"
 Charge =  0 Multiplicity = 1

                         Standard orientation:
 ---------------------------------------------------------------------
 Center     Atomic      Atomic             Coordinates (Angstroms)
 Number     Number       Type             X           Y           Z
 ---------------------------------------------------------------------
      1         17           0       -2.832379   -0.155317   -0.489155
      2          8           0       -0.242579   -2.371963   -0.237463
      3          8           0       -0.574236    2.488699   -0.005048
      4         15           0       -1.257839   -0.039823    0.868073
      5          7           0        1.080251    0.889791   -0.036431
      6          6           0       -0.199752    1.347971    0.148658
      7          6           0       -0.029095   -1.240992    0.097424
      8          6           0        1.361131   -0.561604   -0.004069
      9          6           0        2.131722    1.844840   -0.376516
     10          1           0        2.387782    1.796980   -1.438675
     11          1           0        1.758147    2.842613   -0.155919
     12          6           0        2.062465   -1.034896   -1.283948
     13          1           0        3.086911   -0.659709   -1.331619
     14          1           0        2.091351   -2.124550   -1.294641
     15          1           0        1.521737   -0.698756   -2.171150
     16          1           0        3.028908    1.651854    0.215511
     17          6           0        2.171207   -0.951730    1.249982
     18          1           0        3.157870   -0.482766    1.230120
     19          1           0        2.309838   -2.034231    1.282495
     20          1           0        1.662182   -0.637654    2.164348
 ---------------------------------------------------------------------

 SCF Done:  E(RHF) =  -1237.11328268     A.U. after    2 cycles

 The electronic state is 1-A.
 Alpha  occ. eigenvalues -- -103.67603 -81.33842 -20.60868 -20.56340 -15.68165
 Alpha  occ. eigenvalues --  -11.38995 -11.37895 -11.33196 -11.28934 -11.26490
 Alpha  occ. eigenvalues --  -11.25616 -10.70881  -8.36593  -8.36289  -8.36282
 Alpha  occ. eigenvalues --   -7.83881  -4.97776  -4.97658  -4.97413  -1.39958
 Alpha  occ. eigenvalues --   -1.37353  -1.25274  -1.15563  -1.08683  -1.00212
 Alpha  occ. eigenvalues --   -0.97001  -0.90032  -0.86556  -0.78309  -0.74724
 Alpha  occ. eigenvalues --   -0.69769  -0.67469  -0.66479  -0.65398  -0.64610
 Alpha  occ. eigenvalues --   -0.61849  -0.59889  -0.58684  -0.57677  -0.57389
 Alpha  occ. eigenvalues --   -0.56478  -0.55991  -0.54586  -0.53011  -0.50352
 Alpha  occ. eigenvalues --   -0.49479  -0.48630  -0.40809  -0.40067  -0.38032
 Alpha virt. eigenvalues --    0.02552   0.03536   0.04136   0.04340   0.05164
 Alpha virt. eigenvalues --    0.06443   0.06454   0.06730   0.07685   0.08124
 Alpha virt. eigenvalues --    0.08693   0.09174   0.09902   0.10397   0.11767

 Mulliken charges:
               1
     1  Cl  -0.419202
     2  O   -0.465469
     3  O   -0.498225
     4  P    0.608876
     5  N   -0.158719
     6  C    0.077367
     7  C    0.425784
     8  C   -2.297888
     9  C    0.845095
    10  H   -0.054036
    11  H   -0.233121
    12  C    1.161743
    13  H    0.038513
    14  H   -0.006973
    15  H    0.035373
    16  H   -0.126421
    17  C    1.110059
    18  H   -0.070665
    19  H    0.049345
    20  H   -0.021435
 Sum of Mulliken charges =  -0.00000

 Dipole moment (field-independent basis, Debye):
    X=              5.1427    Y=             -0.6970    Z=              0.9976  Tot=              5.2848

 Test job not archived.
 1\1\GINC-SE218\SP\RHF\Aug-CC-pVDZ\C6H9Cl1N1O2P1\OHZDE\08-Apr-2025\0\\#
 t hf aug-cc-pvdz iop(5/13=1,5/36=2,99/5=2) pseudo=read geom=check gues
 s=(read,tcheck) scf=(maxcycle=1)\\title\\0,1\Cl,0,-2.832379,-0.155317,
 -0.489155\O,0,-0.242579,-2.371963,-0.237463\O,0,-0.574236,2.488699,-0.
 005048\P,0,-1.257839,-0.039823,0.868073\N,0,1.080251,0.889791,-0.03643
 1\C,0,-0.199752,1.347971,0.148658\C,0,-0.029095,-1.240992,0.097424\C,0
 ,1.361131,-0.561604,-0.004069\C,0,2.131722,1.84484,-0.376516\H,0,2.387
 782,1.79698,-1.438675\H,0,1.758147,2.842613,-0.155919\C,0,2.062465,-1.

 Normal termination of Gaussian 16 at Tue Apr  8 23:25:36 2025.
