 Gaussian 16, Revision C.01,

 ----------------------------------------------------------------------
 #t hf aug-cc-pvdz symm=none int=(grid=ultrafine) guess=(read,tcheck) s
 table=(opt,rrhf)
 ----------------------------------------------------------------------
 -----
 title
 -----
 Symbolic Z-matrix:
 Charge =  0 Multiplicity = 1

 SCF Done:  E(RHF) =  -1069.22159866     A.U. after   14 cycles
 Normal termination of Gaussian 16 at Wed Apr  9 00:15:33 2025.
 Gaussian 16:  ES64L-G16RevC.01  3-Jul-2019

 ----------------------------------------------------------------------
 #t hf aug-cc-pvdz iop(5/13=1,5/36=2,99/5=2) pseudo=read geom=check gue
 ss=(read,tcheck) scf=(maxcycle=1)
 ----------------------------------------------------------------------
 -----
 title
 -----
 Structure from the checkpoint file:  "BDE49_nonexpt_2556_mol1.chk"
 Charge =  0 Multiplicity = 1

                         Standard orientation:
 ---------------------------------------------------------------------
 Center     Atomic      Atomic             Coordinates (Angstroms)
 Number     Number       Type             X           Y           Z
 ---------------------------------------------------------------------
      1         17           0       -1.863529    0.283240    0.000001
      2         16           0       -0.203170   -0.923313   -0.000001
      3          6           0        1.083989    0.302873    0.000003
      4          8           0        1.034627    1.476473    0.000017
      5          9           0        2.238862   -0.407899   -0.000017
 ---------------------------------------------------------------------

 SCF Done:  E(RHF) =  -1069.33693951     A.U. after    2 cycles

 The electronic state is 1-A.
 Alpha  occ. eigenvalues -- -103.71534 -93.65265 -26.19460 -20.63357 -11.49498
 Alpha  occ. eigenvalues --  -10.74687  -8.94676  -8.40427  -8.40043  -8.40014
 Alpha  occ. eigenvalues --   -6.28724  -6.28486  -6.28057  -1.73718  -1.44231
 Alpha  occ. eigenvalues --   -1.21028  -1.04119  -0.91206  -0.80992  -0.80895
 Alpha  occ. eigenvalues --   -0.76028  -0.67330  -0.61846  -0.58404  -0.54970
 Alpha  occ. eigenvalues --   -0.53723  -0.49407  -0.42200
 Alpha virt. eigenvalues --    0.02201   0.06200   0.08285   0.09750   0.10206
 Alpha virt. eigenvalues --    0.10428   0.11146   0.12582   0.13494   0.13746
 Alpha virt. eigenvalues --    0.15498   0.16154   0.19821   0.23346   0.24260

 Mulliken charges:
               1
     1  Cl  -0.228162
     2  S    0.518305
     3  C    0.235468
     4  O   -0.237709
     5  F   -0.287902
 Sum of Mulliken charges =  -0.00000

 Dipole moment (field-independent basis, Debye):
    X=             -0.9688    Y=             -1.9356    Z=             -0.0000  Tot=              2.1646

 Test job not archived.
 1\1\GINC-SE435\SP\RHF\Aug-CC-pVDZ\C1Cl1F1O1S1\OHZDE\09-Apr-2025\0\\#t
 hf aug-cc-pvdz iop(5/13=1,5/36=2,99/5=2) pseudo=read geom=check guess=
 (read,tcheck) scf=(maxcycle=1)\\title\\0,1\Cl,0,-1.863529,0.28324,0.00
 0001\S,0,-0.20317,-0.923313,-0.000001\C,0,1.083989,0.302873,0.000003\O
 ,0,1.034627,1.476473,0.000017\F,0,2.238862,-0.407899,-0.000017\\Versio
 n=ES64L-G16RevC.01\State=1-A\HF=-1069.3369395\RMSD=4.654e-03\Dipole=-0
 .3811665,-0.7615367,-0.0000023\Quadrupole=-0.3896734,-0.6257077,1.0153
 811,-1.1489901,0.0000164,-0.0000435\PG=C01 [X(C1Cl1F1O1S1)]\\@

 Normal termination of Gaussian 16 at Wed Apr  9 00:15:35 2025.
