 Gaussian 16, Revision C.01,

 ----------------------------------------------------------------------
 #t hf aug-cc-pvdz symm=none int=(grid=ultrafine) guess=(read,tcheck) s
 table=opt
 ----------------------------------------------------------------------
 -----
 title
 -----
 Symbolic Z-matrix:
 Charge =  0 Multiplicity = 2

 SCF Done:  E(UHF) =  -179.802190924     A.U. after   14 cycles
 Normal termination of Gaussian 16 at Wed Apr  9 00:28:39 2025.
 Gaussian 16:  ES64L-G16RevC.01  3-Jul-2019

 ----------------------------------------------------------------------
 #t hf aug-cc-pvdz iop(5/13=1,5/36=2,99/5=2) pseudo=read geom=check gue
 ss=(read,tcheck) scf=(maxcycle=1)
 ----------------------------------------------------------------------
 -----
 title
 -----
 Structure from the checkpoint file:  "BDE49_nonexpt_351_mol2.chk"
 Charge =  0 Multiplicity = 2

                         Standard orientation:
 ---------------------------------------------------------------------
 Center     Atomic      Atomic             Coordinates (Angstroms)
 Number     Number       Type             X           Y           Z
 ---------------------------------------------------------------------
      1          9           0        1.225575    0.141458   -0.000001
      2          7           0       -1.160296    0.098043    0.000001
      3          5           0        0.075908   -0.531284   -0.000000
      4          1           0       -1.259141    1.106773    0.000001
      5          1           0       -2.028506   -0.409776    0.000003
 ---------------------------------------------------------------------

 SCF Done:  E(UHF) =  -179.872114003     A.U. after    2 cycles

 The electronic state is 2-A.
 Alpha  occ. eigenvalues --  -26.12135 -15.63508  -7.69598  -1.66331  -1.14569
 Alpha  occ. eigenvalues --   -0.83240  -0.75972  -0.73007  -0.70305  -0.66653
 Alpha  occ. eigenvalues --   -0.44748  -0.36456
 Alpha virt. eigenvalues --    0.03465   0.04753   0.05564   0.06286   0.08500
 Alpha virt. eigenvalues --    0.09962   0.15507   0.17338   0.17902   0.19176
 Alpha virt. eigenvalues --    0.20616   0.25729   0.27497   0.28085   0.28539

  Beta  occ. eigenvalues --  -26.11783 -15.63452  -7.67512  -1.65262  -1.14037
  Beta  occ. eigenvalues --   -0.82004  -0.73397  -0.72777  -0.68479  -0.65529
  Beta  occ. eigenvalues --   -0.45287
  Beta virt. eigenvalues --    0.02946   0.04742   0.05553   0.05747   0.07999
  Beta virt. eigenvalues --    0.08742   0.15522   0.17074   0.17837   0.19638
  Beta virt. eigenvalues --    0.21096   0.21222   0.26618   0.28049   0.28304

 Mulliken charges and spin densities:
               1          2
     1  F   -0.362254  -0.028916
     2  N   -0.047051  -0.052829
     3  B    0.351608   1.049566
     4  H    0.030491   0.033959
     5  H    0.027205  -0.001780
 Sum of Mulliken charges =  -0.00000   1.00000

 Dipole moment (field-independent basis, Debye):
    X=             -2.6306    Y=              0.5576    Z=              0.0000  Tot=              2.6891
                          Isotropic Fermi Contact Couplings
        Atom                 a.u.       MegaHertz       Gauss      10(-4) cm-1
     1  F(19)              0.08808     370.60505     132.24110     123.62054
     2  N(14)              0.08313      26.86014       9.58436       8.95958
     3  B(11)              0.40852     585.96794     209.08793     195.45787
     4  H(1)               0.01183      52.89450      18.87407      17.64370
     5  H(1)               0.00210       9.36528       3.34177       3.12392
 --------------------------------------------------------
       Center         ----  Spin Dipole Couplings  ----
                      3XX-RR        3YY-RR        3ZZ-RR

 Normal termination of Gaussian 16 at Wed Apr  9 00:28:41 2025.
