 Gaussian 16, Revision C.01,

 ----------------------------------------------------------------------
 #t hf aug-cc-pvdz symm=none int=(grid=ultrafine) guess=(read,tcheck) s
 table=(opt,rrhf)
 ----------------------------------------------------------------------
 -----
 title
 -----
 Symbolic Z-matrix:
 Charge =  0 Multiplicity = 1

 SCF Done:  E(RHF) =  -458.957134879     A.U. after   13 cycles
 Normal termination of Gaussian 16 at Tue Apr  8 23:59:56 2025.
 Gaussian 16:  ES64L-G16RevC.01  3-Jul-2019

 ----------------------------------------------------------------------
 #t hf aug-cc-pvdz iop(5/13=1,5/36=2,99/5=2) pseudo=read geom=check gue
 ss=(read,tcheck) scf=(maxcycle=1)
 ----------------------------------------------------------------------
 -----
 title
 -----
 Structure from the checkpoint file:  "BDE49_nonexpt_2144_mol1.chk"
 Charge =  0 Multiplicity = 1

                         Standard orientation:
 ---------------------------------------------------------------------
 Center     Atomic      Atomic             Coordinates (Angstroms)
 Number     Number       Type             X           Y           Z
 ---------------------------------------------------------------------
      1         14           0       -0.514160   -0.681630    0.000053
      2          7           0        1.333566   -0.398059   -0.000028
      3          8           0        1.666240    0.771345   -0.000090
      4          6           0       -1.487651    0.910240   -0.000002
      5          1           0       -1.252806    1.508126    0.883763
      6          1           0       -2.560985    0.700836    0.000089
      7          1           0       -1.252930    1.507992   -0.883890
      8          1           0       -0.736965   -1.509892    1.207623
      9          1           0       -0.737053   -1.510031   -1.207405
 ---------------------------------------------------------------------

 SCF Done:  E(RHF) =  -459.035478066     A.U. after    2 cycles

 The electronic state is 1-A.
 Alpha  occ. eigenvalues --  -69.09758 -20.64839 -15.73781 -11.23842  -6.84924
 Alpha  occ. eigenvalues --   -3.95746  -3.95657  -3.95647  -1.44868  -0.96606
 Alpha  occ. eigenvalues --   -0.92538  -0.73548  -0.66496  -0.62236  -0.59809
 Alpha  occ. eigenvalues --   -0.57458  -0.57255  -0.49162  -0.48128  -0.37284
 Alpha virt. eigenvalues --    0.03063   0.04701   0.05095   0.05283   0.06880
 Alpha virt. eigenvalues --    0.07396   0.07774   0.08208   0.10460   0.12435
 Alpha virt. eigenvalues --    0.14802   0.14960   0.15506   0.15905   0.16686

 Mulliken charges:
               1
     1  Si   1.139910
     2  N   -0.306917
     3  O   -0.364557
     4  C    0.153097
     5  H   -0.129305
     6  H   -0.214213
     7  H   -0.129305
     8  H   -0.074356
     9  H   -0.074354
 Sum of Mulliken charges =  -0.00000

 Dipole moment (field-independent basis, Debye):
    X=             -3.0570    Y=             -0.4581    Z=              0.0001  Tot=              3.0911

 Test job not archived.
 1\1\GINC-SE106\SP\RHF\Aug-CC-pVDZ\C1H5N1O1Si1\OHZDE\08-Apr-2025\0\\#t
 hf aug-cc-pvdz iop(5/13=1,5/36=2,99/5=2) pseudo=read geom=check guess=
 (read,tcheck) scf=(maxcycle=1)\\title\\0,1\Si,0,-0.51416,-0.68163,0.00
 0053\N,0,1.333566,-0.398059,-0.000028\O,0,1.66624,0.771345,-0.00009\C,
 0,-1.487651,0.91024,-0.000002\H,0,-1.252806,1.508126,0.883763\H,0,-2.5
 60985,0.700835,0.000089\H,0,-1.25293,1.507992,-0.88389\H,0,-0.736965,-
 1.509892,1.207623\H,0,-0.737053,-1.510031,-1.207405\\Version=ES64L-G16
 RevC.01\State=1-A\HF=-459.0354781\RMSD=4.176e-03\Dipole=-1.2027227,-0.

 Normal termination of Gaussian 16 at Tue Apr  8 23:59:59 2025.
