 Gaussian 16, Revision C.01,

 ----------------------------------------------------------------------
 #t hf aug-cc-pvdz symm=none int=(grid=ultrafine) guess=(read,tcheck) s
 table=(opt,rrhf)
 ----------------------------------------------------------------------
 -----
 title
 -----
 Symbolic Z-matrix:
 Charge =  0 Multiplicity = 1

 SCF Done:  E(RHF) =  -827.243817454     A.U. after   14 cycles
 Normal termination of Gaussian 16 at Wed Apr  9 00:11:30 2025.
 Gaussian 16:  ES64L-G16RevC.01  3-Jul-2019

 ----------------------------------------------------------------------
 #t hf aug-cc-pvdz iop(5/13=1,5/36=2,99/5=2) pseudo=read geom=check gue
 ss=(read,tcheck) scf=(maxcycle=1)
 ----------------------------------------------------------------------
 -----
 title
 -----
 Structure from the checkpoint file:  "BDE49_nonexpt_2389_mol1.chk"
 Charge =  0 Multiplicity = 1

                         Standard orientation:
 ---------------------------------------------------------------------
 Center     Atomic      Atomic             Coordinates (Angstroms)
 Number     Number       Type             X           Y           Z
 ---------------------------------------------------------------------
      1         14           0        2.433736   -0.458160    0.478224
      2         14           0        0.840614    0.918932   -0.577474
      3          1           0        1.876450   -0.988056    1.746258
      4          1           0        3.643588    0.337841    0.816625
      5          1           0        2.845620   -1.578139   -0.394969
      6          7           0       -0.828621    0.605544   -0.018608
      7          1           0        0.922286    0.820534   -2.052813
      8          1           0        1.029505    2.347388   -0.212156
      9          6           0       -1.178957   -0.709438   -0.164638
     10          8           0       -0.350179   -1.490681   -0.630582
     11          6           0       -2.561206   -1.162333    0.251313
     12          1           0       -3.336644   -0.613490   -0.289883
     13          1           0       -2.723628   -0.993246    1.319530
     14          1           0       -2.652136   -2.224704    0.036814
     15          6           0       -1.745134    1.614136    0.516833
     16          1           0       -1.221669    2.566857    0.583092
     17          1           0       -2.093203    1.352148    1.520311
     18          1           0       -2.617504    1.754498   -0.129443
 ---------------------------------------------------------------------

 SCF Done:  E(RHF) =  -827.367523465     A.U. after    2 cycles

 The electronic state is 1-A.
 Alpha  occ. eigenvalues --  -69.08034 -69.05011 -20.54472 -15.64016 -11.37212
 Alpha  occ. eigenvalues --  -11.28738 -11.25510  -6.83021  -6.80377  -3.93871
 Alpha  occ. eigenvalues --   -3.93752  -3.93691  -3.91138  -3.91128  -3.91105
 Alpha  occ. eigenvalues --   -1.35450  -1.18719  -1.00800  -0.95114  -0.78045
 Alpha  occ. eigenvalues --   -0.70983  -0.69169  -0.67779  -0.65165  -0.61952
 Alpha  occ. eigenvalues --   -0.59019  -0.58073  -0.57194  -0.53986  -0.51816
 Alpha  occ. eigenvalues --   -0.48674  -0.47163  -0.45956  -0.44910  -0.41332
 Alpha  occ. eigenvalues --   -0.37146
 Alpha virt. eigenvalues --    0.02732   0.04035   0.04135   0.04873   0.05809
 Alpha virt. eigenvalues --    0.06592   0.06922   0.07145   0.07613   0.08696
 Alpha virt. eigenvalues --    0.08811   0.09030   0.09565   0.09873   0.10395

 Mulliken charges:
               1
     1  Si  -0.498369
     2  Si  -0.089236
     3  H    0.133179
     4  H    0.041657
     5  H    0.139597
     6  N   -0.273673
     7  H    0.198225
     8  H    0.068594
     9  C    0.155583
    10  O   -0.487625
    11  C    0.313489
    12  H    0.070147
    13  H    0.077134
    14  H   -0.128406
    15  C    0.824364
    16  H   -0.361444
    17  H   -0.082222
    18  H   -0.100994
 Sum of Mulliken charges =  -0.00000

 Dipole moment (field-independent basis, Debye):
    X=             -3.3152    Y=              2.4361    Z=              1.4888  Tot=              4.3751

 Test job not archived.
 1\1\GINC-SE273\SP\RHF\Aug-CC-pVDZ\C3H11N1O1Si2\OHZDE\09-Apr-2025\0\\#t
  hf aug-cc-pvdz iop(5/13=1,5/36=2,99/5=2) pseudo=read geom=check guess
 =(read,tcheck) scf=(maxcycle=1)\\title\\0,1\Si,0,2.433736,-0.45816,0.4
 78224\Si,0,0.840614,0.918932,-0.577474\H,0,1.87645,-0.988056,1.746258\
 H,0,3.643588,0.337841,0.816625\H,0,2.84562,-1.578139,-0.394969\N,0,-0.
 828621,0.605544,-0.018608\H,0,0.922286,0.820534,-2.052813\H,0,1.029505
 ,2.347388,-0.212156\C,0,-1.178957,-0.709438,-0.164638\O,0,-0.350179,-1
 .490681,-0.630582\C,0,-2.561206,-1.162333,0.251313\H,0,-3.336644,-0.61

 Normal termination of Gaussian 16 at Wed Apr  9 00:11:39 2025.
