 Gaussian 16, Revision C.01,

 ----------------------------------------------------------------------
 #t hf aug-cc-pvdz symm=none int=(grid=ultrafine) guess=(read,tcheck) s
 table=(opt,rrhf)
 ----------------------------------------------------------------------
 -----
 title
 -----
 Symbolic Z-matrix:
 Charge =  0 Multiplicity = 1

 SCF Done:  E(RHF) =  -947.509984540     A.U. after   13 cycles
 Normal termination of Gaussian 16 at Tue Apr  8 23:42:30 2025.
 Gaussian 16:  ES64L-G16RevC.01  3-Jul-2019

 ----------------------------------------------------------------------
 #t hf aug-cc-pvdz iop(5/13=1,5/36=2,99/5=2) pseudo=read geom=check gue
 ss=(read,tcheck) scf=(maxcycle=1)
 ----------------------------------------------------------------------
 -----
 title
 -----
 Structure from the checkpoint file:  "BDE49_nonexpt_1692_mol1.chk"
 Charge =  0 Multiplicity = 1

                         Standard orientation:
 ---------------------------------------------------------------------
 Center     Atomic      Atomic             Coordinates (Angstroms)
 Number     Number       Type             X           Y           Z
 ---------------------------------------------------------------------
      1         14           0       -0.894220    0.000000    0.029885
      2         15           0        1.313448    0.000000   -0.709193
      3          9           0        1.797861    1.244578    0.246219
      4          9           0        1.797861   -1.244578    0.246219
      5          6           0       -1.715929   -1.550219   -0.650265
      6          1           0       -1.709874   -1.562986   -1.743997
      7          1           0       -2.759669   -1.601517   -0.323786
      8          1           0       -1.212090   -2.454565   -0.298639
      9          6           0       -1.715929    1.550219   -0.650265
     10          1           0       -1.709875    1.562986   -1.743996
     11          1           0       -1.212090    2.454565   -0.298638
     12          1           0       -2.759669    1.601517   -0.323786
     13          6           0       -0.847211    0.000000    1.906630
     14          1           0       -0.323393   -0.883067    2.280569
     15          1           0       -1.859672   -0.000002    2.322652
     16          1           0       -0.323395    0.883068    2.280569
 ---------------------------------------------------------------------

 SCF Done:  E(RHF) =  -947.675166429     A.U. after    2 cycles

 The electronic state is 1-A.
 Alpha  occ. eigenvalues --  -81.36820 -69.07011 -26.12272 -26.12269 -11.22766
 Alpha  occ. eigenvalues --  -11.22763 -11.22181  -7.85710  -6.82292  -4.99805
 Alpha  occ. eigenvalues --   -4.99514  -4.99030  -3.93058  -3.93017  -3.93008
 Alpha  occ. eigenvalues --   -1.64917  -1.63704  -0.97583  -0.93608  -0.93259
 Alpha  occ. eigenvalues --   -0.86932  -0.77020  -0.75446  -0.74748  -0.72223
 Alpha  occ. eigenvalues --   -0.69441  -0.64312  -0.59090  -0.58063  -0.57632
 Alpha  occ. eigenvalues --   -0.56078  -0.55762  -0.54731  -0.51041  -0.45192
 Alpha  occ. eigenvalues --   -0.44907  -0.34859
 Alpha virt. eigenvalues --    0.02708   0.04447   0.04505   0.05369   0.06588
 Alpha virt. eigenvalues --    0.06785   0.07009   0.07207   0.07394   0.08850
 Alpha virt. eigenvalues --    0.09032   0.09528   0.11706   0.12727   0.12900

 Mulliken charges:
               1
     1  Si   1.500925
     2  P    0.817715
     3  F   -0.675987
     4  F   -0.675987
     5  C    0.490218
     6  H   -0.305527
     7  H   -0.252302
     8  H   -0.282812
     9  C    0.490219
    10  H   -0.305531
    11  H   -0.282810
    12  H   -0.252302
    13  C    0.506455
    14  H   -0.258851
    15  H   -0.254571
    16  H   -0.258852
 Sum of Mulliken charges =  -0.00000

 Dipole moment (field-independent basis, Debye):
    X=             -3.3339    Y=             -0.0000    Z=             -0.8032  Tot=              3.4293

 Test job not archived.
 1\1\GINC-SE029\SP\RHF\Aug-CC-pVDZ\C3H9F2P1Si1\OHZDE\08-Apr-2025\0\\#t
 hf aug-cc-pvdz iop(5/13=1,5/36=2,99/5=2) pseudo=read geom=check guess=
 (read,tcheck) scf=(maxcycle=1)\\title\\0,1\Si,0,0.89422,0.,0.029885\P,
 0,-1.313448,0.,-0.709193\F,0,-1.797861,-1.244578,0.246219\F,0,-1.79786
 1,1.244578,0.246219\C,0,1.715929,1.550219,-0.650265\H,0,1.709874,1.562
 986,-1.743997\H,0,2.759669,1.601517,-0.323786\H,0,1.21209,2.454565,-0.
 298639\C,0,1.715929,-1.550219,-0.650265\H,0,1.709875,-1.562986,-1.7439
 96\H,0,1.21209,-2.454565,-0.298638\H,0,2.759669,-1.601517,-0.323786\C,

 Normal termination of Gaussian 16 at Tue Apr  8 23:42:36 2025.
