 Gaussian 16, Revision C.01,

 ----------------------------------------------------------------------
 #t hf aug-cc-pvdz symm=none int=(grid=ultrafine) guess=(read,tcheck) s
 table=(opt,rrhf)
 ----------------------------------------------------------------------
 -----
 title
 -----
 Symbolic Z-matrix:
 Charge =  0 Multiplicity = 1

 SCF Done:  E(RHF) =  -669.906901506     A.U. after   15 cycles
 Normal termination of Gaussian 16 at Wed Apr  9 00:44:33 2025.
 Gaussian 16:  ES64L-G16RevC.01  3-Jul-2019

 ----------------------------------------------------------------------
 #t hf aug-cc-pvdz iop(5/13=1,5/36=2,99/5=2) pseudo=read geom=check gue
 ss=(read,tcheck) scf=(maxcycle=1)
 ----------------------------------------------------------------------
 -----
 title
 -----
 Structure from the checkpoint file:  "BDE49_nonexpt_813_mol1.chk"
 Charge =  0 Multiplicity = 1

                         Standard orientation:
 ---------------------------------------------------------------------
 Center     Atomic      Atomic             Coordinates (Angstroms)
 Number     Number       Type             X           Y           Z
 ---------------------------------------------------------------------
      1         14           0       -0.117246   -1.067004    0.000175
      2          7           0       -1.576514    0.148350    0.000249
      3          5           0        1.560818    0.085946    0.000085
      4          8           0       -1.329092    1.365435   -0.000460
      5          8           0       -2.707108   -0.305349   -0.000316
      6          8           0        1.481586    1.433502    0.000313
      7          8           0        2.752615   -0.564519   -0.000203
      8          1           0        3.505943    0.040759   -0.000226
      9          1           0        0.556870    1.740463    0.000547
     10          1           0       -0.386994   -1.871953   -1.207183
     11          1           0       -0.386875   -1.871938    1.207568
 ---------------------------------------------------------------------

 SCF Done:  E(RHF) =  -670.053861606     A.U. after    2 cycles

 The electronic state is 1-A.
 Alpha  occ. eigenvalues --  -69.12567 -20.63493 -20.62618 -20.60986 -20.59906
 Alpha  occ. eigenvalues --  -15.89278  -7.69386  -6.87797  -3.98653  -3.98458
 Alpha  occ. eigenvalues --   -3.98401  -1.54295  -1.36983  -1.36369  -1.33230
 Alpha  occ. eigenvalues --   -0.94808  -0.81761  -0.80896  -0.76838  -0.74109
 Alpha  occ. eigenvalues --   -0.71682  -0.68257  -0.64898  -0.61421  -0.61359
 Alpha  occ. eigenvalues --   -0.54304  -0.53180  -0.52525  -0.49170  -0.48318
 Alpha  occ. eigenvalues --   -0.45829
 Alpha virt. eigenvalues --    0.02865   0.04054   0.04987   0.05163   0.05177
 Alpha virt. eigenvalues --    0.06492   0.07065   0.07174   0.08145   0.09081
 Alpha virt. eigenvalues --    0.09887   0.11448   0.11893   0.12245   0.15093

 Mulliken charges:
               1
     1  Si   0.270809
     2  N    0.343427
     3  B    0.775953
     4  O   -0.587299
     5  O   -0.531750
     6  O   -0.504942
     7  O   -0.404257
     8  H    0.204930
     9  H    0.293644
    10  H    0.069663
    11  H    0.069822
 Sum of Mulliken charges =  -0.00000

 Dipole moment (field-independent basis, Debye):
    X=              3.2278    Y=             -1.7735    Z=              0.0021  Tot=              3.6829

 Test job not archived.
 1\1\GINC-SE253\SP\RHF\Aug-CC-pVDZ\B1H4N1O4Si1\OHZDE\09-Apr-2025\0\\#t
 hf aug-cc-pvdz iop(5/13=1,5/36=2,99/5=2) pseudo=read geom=check guess=
 (read,tcheck) scf=(maxcycle=1)\\title\\0,1\Si,0,0.117246,-1.067004,-0.
 000175\N,0,1.576514,0.14835,-0.000249\B,0,-1.560818,0.085946,-0.000085
 \O,0,1.329092,1.365435,0.00046\O,0,2.707108,-0.305349,0.000316\O,0,-1.
 481586,1.433502,-0.000313\O,0,-2.752615,-0.564519,0.000203\H,0,-3.5059
 43,0.040759,0.000226\H,0,-0.55687,1.740463,-0.000547\H,0,0.386994,-1.8
 71953,1.207183\H,0,0.386875,-1.871938,-1.207568\\Version=ES64L-G16RevC

 Normal termination of Gaussian 16 at Wed Apr  9 00:44:38 2025.
