 Gaussian 16, Revision C.01,

 ----------------------------------------------------------------------
 #t hf aug-cc-pvdz symm=none int=(grid=ultrafine) guess=(read,tcheck) s
 table=(opt,rrhf)
 ----------------------------------------------------------------------
 -----
 title
 -----
 Symbolic Z-matrix:
 Charge =  0 Multiplicity = 1

 SCF Done:  E(RHF) =  -671.604570729     A.U. after   11 cycles
 Normal termination of Gaussian 16 at Tue Apr  8 23:52:18 2025.
 Gaussian 16:  ES64L-G16RevC.01  3-Jul-2019

 ----------------------------------------------------------------------
 #t hf aug-cc-pvdz iop(5/13=1,5/36=2,99/5=2) pseudo=read geom=check gue
 ss=(read,tcheck) scf=(maxcycle=1)
 ----------------------------------------------------------------------
 -----
 title
 -----
 Structure from the checkpoint file:  "BDE49_nonexpt_1950_mol1.chk"
 Charge =  0 Multiplicity = 1

                         Standard orientation:
 ---------------------------------------------------------------------
 Center     Atomic      Atomic             Coordinates (Angstroms)
 Number     Number       Type             X           Y           Z
 ---------------------------------------------------------------------
      1         14           0       -1.569067   -0.175751   -0.005392
      2          6           0        0.040027    0.809467    0.042179
      3          1           0       -1.658790   -0.962934   -1.256927
      4          1           0       -2.723622    0.751512    0.063325
      5          1           0       -1.635267   -1.104946    1.147403
      6         15           0        1.575991   -0.251854   -0.117641
      7          1           0        1.482982   -0.908592    1.137405
      8          1           0        2.524780    0.692572    0.357223
      9          1           0        0.060278    1.418021    0.949650
     10          1           0        0.036555    1.495895   -0.811050
 ---------------------------------------------------------------------

 SCF Done:  E(RHF) =  -671.663071131     A.U. after    2 cycles

 The electronic state is 1-A.
 Alpha  occ. eigenvalues --  -81.26004 -69.06651 -11.23929  -7.76293  -6.81943
 Alpha  occ. eigenvalues --   -4.90240  -4.90222  -4.89908  -3.92720  -3.92714
 Alpha  occ. eigenvalues --   -3.92712  -0.96253  -0.76331  -0.69095  -0.59334
 Alpha  occ. eigenvalues --   -0.54454  -0.49990  -0.47619  -0.46803  -0.44222
 Alpha  occ. eigenvalues --   -0.35375
 Alpha virt. eigenvalues --    0.03252   0.04777   0.05068   0.05388   0.06986
 Alpha virt. eigenvalues --    0.07564   0.08255   0.08718   0.09352   0.09903
 Alpha virt. eigenvalues --    0.10852   0.12324   0.14249   0.15639   0.15767

 Mulliken charges:
               1
     1  Si   0.438363
     2  C   -0.125313
     3  H   -0.013858
     4  H   -0.051375
     5  H   -0.039488
     6  P    0.072614
     7  H    0.090128
     8  H    0.091544
     9  H   -0.268390
    10  H   -0.194226
 Sum of Mulliken charges =  -0.00000

 Dipole moment (field-independent basis, Debye):
    X=             -0.1204    Y=              1.0632    Z=              0.5721  Tot=              1.2133

 Test job not archived.
 1\1\GINC-SE368\SP\RHF\Aug-CC-pVDZ\C1H7P1Si1\OHZDE\08-Apr-2025\0\\#t hf
  aug-cc-pvdz iop(5/13=1,5/36=2,99/5=2) pseudo=read geom=check guess=(r
 ead,tcheck) scf=(maxcycle=1)\\title\\0,1\Si,0,-1.569067,-0.175751,-0.0
 05392\C,0,0.040027,0.809467,0.042179\H,0,-1.65879,-0.962934,-1.256927\
 H,0,-2.723622,0.751512,0.063325\H,0,-1.635267,-1.104946,1.147403\P,0,1
 .575991,-0.251854,-0.117641\H,0,1.482982,-0.908592,1.137405\H,0,2.5247
 8,0.692572,0.357223\H,0,0.060278,1.418021,0.94965\H,0,0.036555,1.49589
 5,-0.81105\\Version=ES64L-G16RevC.01\State=1-A\HF=-671.6630711\RMSD=1.

 Normal termination of Gaussian 16 at Tue Apr  8 23:52:20 2025.
