 Gaussian 16, Revision C.01,

 ----------------------------------------------------------------------
 #t hf aug-cc-pvdz symm=none int=(grid=ultrafine) guess=(read,tcheck) s
 table=(opt,rrhf)
 ----------------------------------------------------------------------
 -----
 title
 -----
 Symbolic Z-matrix:
 Charge =  0 Multiplicity = 1

 SCF Done:  E(RHF) =  -1085.93206516     A.U. after   12 cycles
 Normal termination of Gaussian 16 at Tue Apr  8 23:46:17 2025.
 Gaussian 16:  ES64L-G16RevC.01  3-Jul-2019

 ----------------------------------------------------------------------
 #t hf aug-cc-pvdz iop(5/13=1,5/36=2,99/5=2) pseudo=read geom=check gue
 ss=(read,tcheck) scf=(maxcycle=1)
 ----------------------------------------------------------------------
 -----
 title
 -----
 Structure from the checkpoint file:  "BDE49_nonexpt_1802_mol1.chk"
 Charge =  0 Multiplicity = 1

                         Standard orientation:
 ---------------------------------------------------------------------
 Center     Atomic      Atomic             Coordinates (Angstroms)
 Number     Number       Type             X           Y           Z
 ---------------------------------------------------------------------
      1         14           0       -0.329595    0.437030    0.385654
      2         17           0       -1.941705   -0.718494   -0.144297
      3          6           0        1.243403   -0.303000   -0.392314
      4          9           0       -0.529148    1.901112   -0.223155
      5          9           0        1.462465   -1.539539    0.169790
      6          9           0        2.304804    0.507023   -0.053073
      7          1           0       -0.224038    0.517573    1.845000
      8          1           0        1.243846   -0.420954   -1.479296
 ---------------------------------------------------------------------

 SCF Done:  E(RHF) =  -1086.10489880     A.U. after    2 cycles

 The electronic state is 1-A.
 Alpha  occ. eigenvalues -- -103.68290 -69.18910 -26.15453 -26.15391 -26.14397
 Alpha  occ. eigenvalues --  -11.42908 -10.71770  -8.37460  -8.37226  -8.37222
 Alpha  occ. eigenvalues --   -6.93211  -4.04150  -4.04032  -4.03894  -1.71131
 Alpha  occ. eigenvalues --   -1.67216  -1.66933  -1.16988  -1.01070  -0.84924
 Alpha  occ. eigenvalues --   -0.82963  -0.82175  -0.80821  -0.75713  -0.75456
 Alpha  occ. eigenvalues --   -0.74596  -0.71237  -0.67943  -0.64423  -0.55983
 Alpha  occ. eigenvalues --   -0.53592  -0.50968  -0.48606
 Alpha virt. eigenvalues --    0.03835   0.04957   0.05451   0.05812   0.07919
 Alpha virt. eigenvalues --    0.09848   0.10785   0.11384   0.13151   0.14531
 Alpha virt. eigenvalues --    0.14806   0.15545   0.16402   0.17384   0.20079

 Mulliken charges:
               1
     1  Si   1.593045
     2  Cl  -0.470651
     3  C    0.717817
     4  F   -0.747105
     5  F   -0.394908
     6  F   -0.406791
     7  H   -0.059474
     8  H   -0.231933
 Sum of Mulliken charges =  -0.00000

 Dipole moment (field-independent basis, Debye):
    X=             -0.7279    Y=             -0.1459    Z=             -0.3031  Tot=              0.8018

 Test job not archived.
 1\1\GINC-SE342\SP\RHF\Aug-CC-pVDZ\C1H2Cl1F3Si1\OHZDE\08-Apr-2025\0\\#t
  hf aug-cc-pvdz iop(5/13=1,5/36=2,99/5=2) pseudo=read geom=check guess
 =(read,tcheck) scf=(maxcycle=1)\\title\\0,1\Si,0,-0.329595,0.43703,0.3
 85654\Cl,0,-1.941705,-0.718494,-0.144297\C,0,1.243403,-0.303,-0.392314
 \F,0,-0.529147,1.901112,-0.223155\F,0,1.462465,-1.539539,0.16979\F,0,2
 .304804,0.507023,-0.053073\H,0,-0.224038,0.517573,1.845\H,0,1.243846,-
 0.420954,-1.479296\\Version=ES64L-G16RevC.01\State=1-A\HF=-1086.104898
 8\RMSD=4.960e-03\Dipole=-0.2863614,-0.0573983,-0.1192429\Quadrupole=-2

 Normal termination of Gaussian 16 at Tue Apr  8 23:46:19 2025.
