 Gaussian 16, Revision C.01,

 ----------------------------------------------------------------------
 #t hf aug-cc-pvdz symm=none int=(grid=ultrafine) guess=(read,tcheck) s
 table=(opt,rrhf)
 ----------------------------------------------------------------------
 -----
 title
 -----
 Symbolic Z-matrix:
 Charge =  0 Multiplicity = 1

 SCF Done:  E(RHF) =  -439.155518023     A.U. after   13 cycles
 Normal termination of Gaussian 16 at Tue Apr  8 23:57:22 2025.
 Gaussian 16:  ES64L-G16RevC.01  3-Jul-2019

 ----------------------------------------------------------------------
 #t hf aug-cc-pvdz iop(5/13=1,5/36=2,99/5=2) pseudo=read geom=check gue
 ss=(read,tcheck) scf=(maxcycle=1)
 ----------------------------------------------------------------------
 -----
 title
 -----
 Structure from the checkpoint file:  "BDE49_nonexpt_2078_mol1.chk"
 Charge =  0 Multiplicity = 1

                         Standard orientation:
 ---------------------------------------------------------------------
 Center     Atomic      Atomic             Coordinates (Angstroms)
 Number     Number       Type             X           Y           Z
 ---------------------------------------------------------------------
      1         14           0       -1.630283    0.041800    0.000001
      2          7           0        0.087149   -0.469951    0.000009
      3          7           0        0.936914    0.438047   -0.000007
      4          6           0        2.321708   -0.053883   -0.000004
      5          1           0        2.820282    0.362424   -0.880528
      6          1           0        2.364909   -1.146775    0.000023
      7          1           0        2.820296    0.362471    0.880489
      8          1           0       -2.235110   -0.564259    1.205862
      9          1           0       -2.235125   -0.564344   -1.205809
     10          1           0       -1.809976    1.511898   -0.000049
 ---------------------------------------------------------------------

 SCF Done:  E(RHF) =  -439.225841547     A.U. after    2 cycles

 The electronic state is 1-A.
 Alpha  occ. eigenvalues --  -69.08448 -15.70539 -15.66491 -11.26454  -6.83612
 Alpha  occ. eigenvalues --   -3.94458  -3.94355  -3.94348  -1.30263  -1.00921
 Alpha  occ. eigenvalues --   -0.81402  -0.70715  -0.63187  -0.61032  -0.60887
 Alpha  occ. eigenvalues --   -0.52471  -0.51101  -0.48346  -0.45409  -0.35537
 Alpha virt. eigenvalues --    0.03695   0.03997   0.04940   0.05131   0.07097
 Alpha virt. eigenvalues --    0.07673   0.07790   0.09638   0.09773   0.10889
 Alpha virt. eigenvalues --    0.11898   0.14552   0.15176   0.15930   0.16523

 Mulliken charges:
               1
     1  Si   0.649514
     2  N   -0.631439
     3  N   -0.352072
     4  C    0.777904
     5  H   -0.091694
     6  H   -0.118799
     7  H   -0.091699
     8  H   -0.042819
     9  H   -0.042816
    10  H   -0.056080
 Sum of Mulliken charges =  -0.00000

 Dipole moment (field-independent basis, Debye):
    X=              0.5900    Y=              0.1108    Z=             -0.0000  Tot=              0.6003

 Test job not archived.
 1\1\GINC-SE070\SP\RHF\Aug-CC-pVDZ\C1H6N2Si1\OHZDE\08-Apr-2025\0\\#t hf
  aug-cc-pvdz iop(5/13=1,5/36=2,99/5=2) pseudo=read geom=check guess=(r
 ead,tcheck) scf=(maxcycle=1)\\title\\0,1\Si,0,-1.630283,0.0418,0.00000
 1\N,0,0.087149,-0.469951,0.000009\N,0,0.936914,0.438047,-0.000007\C,0,
 2.321708,-0.053883,-0.000004\H,0,2.820282,0.362424,-0.880528\H,0,2.364
 909,-1.146775,0.000023\H,0,2.820296,0.362471,0.880489\H,0,-2.23511,-0.
 564259,1.205862\H,0,-2.235125,-0.564344,-1.205809\H,0,-1.809976,1.5118
 98,-0.000049\\Version=ES64L-G16RevC.01\State=1-A\HF=-439.2258415\RMSD=

 Normal termination of Gaussian 16 at Tue Apr  8 23:57:25 2025.
