 Gaussian 16, Revision C.01,

 ----------------------------------------------------------------------
 #t hf aug-cc-pvdz symm=none int=(grid=ultrafine) guess=(read,tcheck) s
 table=(opt,rrhf)
 ----------------------------------------------------------------------
 -----
 title
 -----
 Symbolic Z-matrix:
 Charge =  0 Multiplicity = 1

 SCF Done:  E(RHF) =  -452.100120932     A.U. after   13 cycles
 Normal termination of Gaussian 16 at Wed Apr  9 00:32:25 2025.
 Gaussian 16:  ES64L-G16RevC.01  3-Jul-2019

 ----------------------------------------------------------------------
 #t hf aug-cc-pvdz iop(5/13=1,5/36=2,99/5=2) pseudo=read geom=check gue
 ss=(read,tcheck) scf=(maxcycle=1)
 ----------------------------------------------------------------------
 -----
 title
 -----
 Structure from the checkpoint file:  "BDE49_nonexpt_419_mol1.chk"
 Charge =  0 Multiplicity = 1

                         Standard orientation:
 ---------------------------------------------------------------------
 Center     Atomic      Atomic             Coordinates (Angstroms)
 Number     Number       Type             X           Y           Z
 ---------------------------------------------------------------------
      1          9           0       -1.813277    0.668833    0.801220
      2          5           0       -1.192572   -0.153951   -0.033259
      3          9           0       -1.865311   -1.202884   -0.468874
      4          6           0        0.300900    0.144781   -0.471061
      5          8           0        1.076823   -0.488663    0.527707
      6          8           0        0.571566    1.529521   -0.590582
      7          6           0        2.467031   -0.578828    0.216582
      8          1           0        2.626719   -1.203858   -0.671393
      9          1           0        2.951969   -1.042170    1.074920
     10          1           0        2.894264    0.412466    0.042766
     11          1           0        0.263760    1.958098    0.217295
     12          1           0        0.538756   -0.270907   -1.458535
 ---------------------------------------------------------------------

 SCF Done:  E(RHF) =  -452.265119006     A.U. after    2 cycles

 The electronic state is 1-A.
 Alpha  occ. eigenvalues --  -26.15040 -26.14958 -20.59534 -20.59505 -11.34733
 Alpha  occ. eigenvalues --  -11.29404  -7.74916  -1.70330  -1.68115  -1.38251
 Alpha  occ. eigenvalues --   -1.31551  -0.98548  -0.89855  -0.87842  -0.83351
 Alpha  occ. eigenvalues --   -0.80275  -0.77946  -0.73244  -0.73012  -0.72206
 Alpha  occ. eigenvalues --   -0.69321  -0.68150  -0.62348  -0.60129  -0.56346
 Alpha  occ. eigenvalues --   -0.50704  -0.48371  -0.47462
 Alpha virt. eigenvalues --    0.03373   0.04609   0.04687   0.05319   0.06519
 Alpha virt. eigenvalues --    0.06803   0.07088   0.07966   0.10684   0.11901
 Alpha virt. eigenvalues --    0.13212   0.13881   0.14450   0.16528   0.16898

 Mulliken charges:
               1
     1  F   -0.428249
     2  B    0.916903
     3  F   -0.391798
     4  C    1.060127
     5  O   -0.715428
     6  O   -0.569127
     7  C    0.655641
     8  H   -0.084001
     9  H   -0.247131
    10  H   -0.024287
    11  H    0.152158
    12  H   -0.324808
 Sum of Mulliken charges =  -0.00000

 Dipole moment (field-independent basis, Debye):
    X=              1.7305    Y=             -0.0323    Z=             -0.3026  Tot=              1.7571

 Test job not archived.
 1\1\GINC-SE074\SP\RHF\Aug-CC-pVDZ\C2H5B1F2O2\OHZDE\09-Apr-2025\0\\#t h
 f aug-cc-pvdz iop(5/13=1,5/36=2,99/5=2) pseudo=read geom=check guess=(
 read,tcheck) scf=(maxcycle=1)\\title\\0,1\F,0,1.813277,0.668833,-0.801
 22\B,0,1.192572,-0.153951,0.033259\F,0,1.865311,-1.202884,0.468874\C,0
 ,-0.3009,0.144781,0.471061\O,0,-1.076823,-0.488663,-0.527707\O,0,-0.57
 1566,1.529521,0.590582\C,0,-2.467031,-0.578828,-0.216582\H,0,-2.626719
 ,-1.203858,0.671393\H,0,-2.951969,-1.04217,-1.07492\H,0,-2.894264,0.41
 2466,-0.042766\H,0,-0.26376,1.958098,-0.217295\H,0,-0.538756,-0.270907

 Normal termination of Gaussian 16 at Wed Apr  9 00:32:29 2025.
