 Gaussian 16, Revision C.01,

 ----------------------------------------------------------------------
 #t hf aug-cc-pvdz symm=none int=(grid=ultrafine) guess=(read,tcheck) s
 table=opt
 ----------------------------------------------------------------------
 -----
 title
 -----
 Symbolic Z-matrix:
 Charge =  0 Multiplicity = 2

 SCF Done:  E(UHF) =  -388.372804463     A.U. after   18 cycles
 Normal termination of Gaussian 16 at Wed Apr  9 00:32:21 2025.
 Gaussian 16:  ES64L-G16RevC.01  3-Jul-2019

 ----------------------------------------------------------------------
 #t hf aug-cc-pvdz iop(5/13=1,5/36=2,99/5=2) pseudo=read geom=check gue
 ss=(read,tcheck) scf=(maxcycle=1)
 ----------------------------------------------------------------------
 -----
 title
 -----
 Structure from the checkpoint file:  "BDE49_nonexpt_414_mol2.chk"
 Charge =  0 Multiplicity = 2

                         Standard orientation:
 ---------------------------------------------------------------------
 Center     Atomic      Atomic             Coordinates (Angstroms)
 Number     Number       Type             X           Y           Z
 ---------------------------------------------------------------------
      1          9           0       -2.151609   -0.107593   -0.039475
      2          5           0       -1.032368   -0.768355   -0.196555
      3          6           0        0.398000   -0.038063   -0.028480
      4          8           0        1.435141   -0.670465   -0.711329
      5          1           0        1.336004   -1.617943   -0.566665
      6          8           0        0.615415   -0.014085    1.363218
      7          1           0        1.518765    0.310068    1.496909
      8          8           0        0.387578    1.255540   -0.574444
      9          1           0       -0.221527    1.778448   -0.040870
 ---------------------------------------------------------------------

 SCF Done:  E(UHF) =  -388.506538382     A.U. after    2 cycles

 The electronic state is 2-A.
 Alpha  occ. eigenvalues --  -26.16536 -20.60618 -20.60388 -20.60113 -11.41403
 Alpha  occ. eigenvalues --   -7.72617  -1.70957  -1.43093  -1.32788  -1.32436
 Alpha  occ. eigenvalues --   -0.93074  -0.87254  -0.82602  -0.78800  -0.76513
 Alpha  occ. eigenvalues --   -0.71788  -0.70405  -0.66319  -0.63870  -0.57308
 Alpha  occ. eigenvalues --   -0.55284  -0.52004  -0.50954  -0.38177
 Alpha virt. eigenvalues --    0.03313   0.04460   0.04527   0.05255   0.06479
 Alpha virt. eigenvalues --    0.07561   0.09207   0.10538   0.12189   0.14611
 Alpha virt. eigenvalues --    0.15491   0.18649   0.19082   0.20719   0.21891

  Beta  occ. eigenvalues --  -26.16229 -20.60618 -20.60428 -20.60017 -11.41018
  Beta  occ. eigenvalues --   -7.70718  -1.70063  -1.42883  -1.32788  -1.32259
  Beta  occ. eigenvalues --   -0.91871  -0.86363  -0.81608  -0.76912  -0.76159
  Beta  occ. eigenvalues --   -0.70889  -0.69991  -0.66164  -0.63681  -0.57067
  Beta  occ. eigenvalues --   -0.54816  -0.51823  -0.48312
  Beta virt. eigenvalues --    0.02508   0.04049   0.04726   0.05337   0.06558
  Beta virt. eigenvalues --    0.07268   0.07939   0.11478   0.12220   0.13080
  Beta virt. eigenvalues --    0.15519   0.16468   0.19149   0.19438   0.21266

 Mulliken charges and spin densities:
               1          2
     1  F   -0.287166  -0.050394
     2  B    0.256495   1.020320
     3  C    1.277573   0.006032
     4  O   -0.544493   0.005700
     5  H    0.171299  -0.007943
     6  O   -0.557899   0.008464
     7  H    0.100350   0.000754
     8  O   -0.550630   0.020162
     9  H    0.134472  -0.003094
 Sum of Mulliken charges =   0.00000   1.00000

 Dipole moment (field-independent basis, Debye):
    X=              0.1841    Y=             -0.8530    Z=              1.1363  Tot=              1.4327
                          Isotropic Fermi Contact Couplings
        Atom                 a.u.       MegaHertz       Gauss      10(-4) cm-1
     1  F(19)              0.06699     281.83650     100.56627      94.01054
     2  B(11)              0.34918     500.84758     178.71487     167.06477
     3  C(13)              0.08453      95.02839      33.90849      31.69806
     4  O(17)             -0.00434       2.63079       0.93873       0.87754
     5  H(1)               0.00002       0.07006       0.02500       0.02337
     6  O(17)             -0.00003       0.01712       0.00611       0.00571
     7  H(1)               0.00066       2.92815       1.04484       0.97673
     8  O(17)              0.00959      -5.81285      -2.07417      -1.93896

 Normal termination of Gaussian 16 at Wed Apr  9 00:32:24 2025.
