 Gaussian 16, Revision C.01,

 ----------------------------------------------------------------------
 #t hf aug-cc-pvdz symm=none int=(grid=ultrafine) guess=(read,tcheck) s
 table=(opt,rrhf)
 ----------------------------------------------------------------------
 -----
 title
 -----
 Symbolic Z-matrix:
 Charge =  0 Multiplicity = 1

 SCF Done:  E(RHF) =  -767.733647465     A.U. after   15 cycles

 1\1\GINC-SE331\Stability\RHF\Aug-CC-pVDZ\C8H9Cl1\OHZDE\08-Apr-2025\0\\
 #t hf aug-cc-pvdz symm=none int=(grid=ultrafine) guess=(read,tcheck) s
 table=(opt,rrhf)\\title\\0,1\C,0,0.021653,1.571669,0.155295\C,0,-1.290
 048,1.843893,-0.221921\C,0,-2.22377,0.815107,-0.301786\C,0,-1.864686,-
 0.505508,-0.007627\C,0,-0.546472,-0.760862,0.372667\C,0,0.402661,0.262
 585,0.457301\H,0,0.749649,2.373549,0.215803\H,0,-1.586819,2.861492,-0.
 449949\C,0,1.806422,-0.042743,0.875316\C,0,-2.873547,-1.623247,-0.1194
 81\H,0,-3.24526,1.038242,-0.593046\H,0,-0.248365,-1.778634,0.606576\H,

 Normal termination of Gaussian 16 at Tue Apr  8 22:48:30 2025.
 Gaussian 16:  ES64L-G16RevC.01  3-Jul-2019

 ----------------------------------------------------------------------
 #t hf aug-cc-pvdz iop(5/13=1,5/36=2,99/5=2) pseudo=read geom=check gue
 ss=(read,tcheck) scf=(maxcycle=1)
 ----------------------------------------------------------------------
 -----
 title
 -----
 Structure from the checkpoint file:  "BDE49_expt_1690_mol1.chk"
 Charge =  0 Multiplicity = 1

                         Standard orientation:
 ---------------------------------------------------------------------
 Center     Atomic      Atomic             Coordinates (Angstroms)
 Number     Number       Type             X           Y           Z
 ---------------------------------------------------------------------
      1          6           0        0.021653    1.571669    0.155295
      2          6           0       -1.290048    1.843893   -0.221921
      3          6           0       -2.223770    0.815107   -0.301786
      4          6           0       -1.864686   -0.505508   -0.007627
      5          6           0       -0.546472   -0.760862    0.372667
      6          6           0        0.402661    0.262585    0.457301
      7          1           0        0.749649    2.373549    0.215803
      8          1           0       -1.586819    2.861492   -0.449949
      9          6           0        1.806422   -0.042743    0.875316
     10          6           0       -2.873547   -1.623247   -0.119481
     11          1           0       -3.245260    1.038242   -0.593046
     12          1           0       -0.248365   -1.778634    0.606576
     13          1           0        2.290952    0.810477    1.344156
     14         17           0        2.882385   -0.471649   -0.556025
     15          1           0        1.862059   -0.905599    1.535001
     16          1           0       -3.846540   -1.323027    0.277806
     17          1           0       -2.546030   -2.512427    0.422881
     18          1           0       -3.023473   -1.911396   -1.165385
 ---------------------------------------------------------------------

 SCF Done:  E(RHF) =  -767.842836163     A.U. after    2 cycles

 The electronic state is 1-A.
 Alpha  occ. eigenvalues -- -103.64368 -11.31201 -11.26198 -11.25926 -11.25192
 Alpha  occ. eigenvalues --  -11.24931 -11.24845 -11.24751 -11.24098 -10.67601
 Alpha  occ. eigenvalues --   -8.33313  -8.33031  -8.33025  -1.16897  -1.13868
 Alpha  occ. eigenvalues --   -1.05197  -1.02875  -0.94178  -0.92209  -0.82849
 Alpha  occ. eigenvalues --   -0.79543  -0.70028  -0.67100  -0.64161  -0.60548
 Alpha  occ. eigenvalues --   -0.59331  -0.58531  -0.57932  -0.56200  -0.54716
 Alpha  occ. eigenvalues --   -0.50702  -0.49855  -0.49100  -0.44385  -0.44261
 Alpha  occ. eigenvalues --   -0.34421  -0.33512
 Alpha virt. eigenvalues --    0.03239   0.03796   0.03917   0.05311   0.05526
 Alpha virt. eigenvalues --    0.05727   0.07311   0.07972   0.08113   0.08947
 Alpha virt. eigenvalues --    0.09399   0.10538   0.10948   0.12619   0.13158

 Mulliken charges:
               1
     1  C    0.287551
     2  C    0.030018
     3  C    0.659148
     4  C   -0.160185
     5  C    0.270094
     6  C    0.708739
     7  H   -0.562318
     8  H   -0.442088
     9  C    0.515879
    10  C    0.411553
    11  H   -0.567630
    12  H   -0.587238
    13  H   -0.202995
    14  Cl  -0.171855
    15  H   -0.179391
    16  H    0.004410
    17  H   -0.132430
    18  H    0.118738
 Sum of Mulliken charges =  -0.00000

 Dipole moment (field-independent basis, Debye):
    X=             -2.2045    Y=              0.3328    Z=              1.5301  Tot=              2.7040

 Test job not archived.
 1\1\GINC-SE331\SP\RHF\Aug-CC-pVDZ\C8H9Cl1\OHZDE\08-Apr-2025\0\\#t hf a
 ug-cc-pvdz iop(5/13=1,5/36=2,99/5=2) pseudo=read geom=check guess=(rea
 d,tcheck) scf=(maxcycle=1)\\title\\0,1\C,0,0.021653,1.571669,0.155295\
 C,0,-1.290048,1.843893,-0.221921\C,0,-2.22377,0.815107,-0.301786\C,0,-
 1.864686,-0.505508,-0.007627\C,0,-0.546472,-0.760862,0.372667\C,0,0.40
 2661,0.262585,0.457301\H,0,0.749649,2.373549,0.215803\H,0,-1.586819,2.
 861492,-0.449949\C,0,1.806422,-0.042743,0.875316\C,0,-2.873547,-1.6232
 47,-0.119481\H,0,-3.24526,1.038242,-0.593046\H,0,-0.248365,-1.778634,0

 Normal termination of Gaussian 16 at Tue Apr  8 22:48:39 2025.
