 Gaussian 16, Revision C.01,

 ----------------------------------------------------------------------
 #t hf aug-cc-pvdz symm=none int=(grid=ultrafine) guess=(read,tcheck) s
 table=(opt,rrhf)
 ----------------------------------------------------------------------
 -----
 title
 -----
 Symbolic Z-matrix:
 Charge =  0 Multiplicity = 1

 SCF Done:  E(RHF) =  -647.708680042     A.U. after   15 cycles
 Normal termination of Gaussian 16 at Wed Apr  9 00:06:55 2025.
 Gaussian 16:  ES64L-G16RevC.01  3-Jul-2019

 ----------------------------------------------------------------------
 #t hf aug-cc-pvdz iop(5/13=1,5/36=2,99/5=2) pseudo=read geom=check gue
 ss=(read,tcheck) scf=(maxcycle=1)
 ----------------------------------------------------------------------
 -----
 title
 -----
 Structure from the checkpoint file:  "BDE49_nonexpt_2281_mol1.chk"
 Charge =  0 Multiplicity = 1

                         Standard orientation:
 ---------------------------------------------------------------------
 Center     Atomic      Atomic             Coordinates (Angstroms)
 Number     Number       Type             X           Y           Z
 ---------------------------------------------------------------------
      1          8           0        0.704698    0.397879   -0.795530
      2          7           0        1.623598   -0.225343    0.053749
      3          8           0        1.334587   -0.239287    1.235718
      4          8           0        2.589225   -0.672022   -0.490984
      5         14           0       -0.713804    1.098107   -0.091086
      6          6           0       -1.880399   -0.184016    0.603927
      7          6           0       -2.337114   -1.257969   -0.400893
      8          1           0       -2.748382    0.372046    0.983435
      9          1           0       -1.412150   -0.644140    1.478766
     10          1           0       -2.834423   -0.812935   -1.267073
     11          1           0       -3.041186   -1.953540    0.062799
     12          1           0       -1.493039   -1.844077   -0.772849
     13          1           0       -1.262574    1.739994   -1.301632
     14          1           0       -0.303180    2.105904    0.903675
 ---------------------------------------------------------------------

 SCF Done:  E(RHF) =  -647.851356704     A.U. after    2 cycles

 The electronic state is 1-A.
 Alpha  occ. eigenvalues --  -69.11974 -20.66525 -20.65252 -20.64565 -15.99558
 Alpha  occ. eigenvalues --  -11.24707 -11.24274  -6.86811  -3.97722  -3.97540
 Alpha  occ. eigenvalues --   -3.97495  -1.61460  -1.41889  -1.36696  -1.03320
 Alpha  occ. eigenvalues --   -0.93789  -0.86467  -0.82647  -0.79025  -0.78534
 Alpha  occ. eigenvalues --   -0.70375  -0.63795  -0.61487  -0.60301  -0.57389
 Alpha  occ. eigenvalues --   -0.55963  -0.54290  -0.53251  -0.51523  -0.51068
 Alpha  occ. eigenvalues --   -0.49079  -0.45178
 Alpha virt. eigenvalues --    0.02949   0.04312   0.04474   0.05221   0.06332
 Alpha virt. eigenvalues --    0.06816   0.07189   0.07759   0.08569   0.09651
 Alpha virt. eigenvalues --    0.10489   0.12170   0.13357   0.14279   0.14690

 Mulliken charges:
               1
     1  O   -0.752676
     2  N    0.839760
     3  O   -0.449072
     4  O   -0.423735
     5  Si   0.945246
     6  C    0.137803
     7  C    0.265313
     8  H   -0.182610
     9  H   -0.174384
    10  H   -0.110229
    11  H   -0.077209
    12  H   -0.141120
    13  H    0.107397
    14  H    0.015516
 Sum of Mulliken charges =  -0.00000

 Dipole moment (field-independent basis, Debye):
    X=             -3.5149    Y=              0.9036    Z=              0.1275  Tot=              3.6315

 Test job not archived.
 1\1\GINC-SE345\SP\RHF\Aug-CC-pVDZ\C2H7N1O3Si1\OHZDE\09-Apr-2025\0\\#t
 hf aug-cc-pvdz iop(5/13=1,5/36=2,99/5=2) pseudo=read geom=check guess=
 (read,tcheck) scf=(maxcycle=1)\\title\\0,1\O,0,0.704698,0.397879,-0.79
 553\N,0,1.623598,-0.225343,0.053749\O,0,1.334587,-0.239287,1.235718\O,
 0,2.589225,-0.672022,-0.490984\Si,0,-0.713804,1.098107,-0.091086\C,0,-
 1.880399,-0.184016,0.603927\C,0,-2.337114,-1.257969,-0.400893\H,0,-2.7
 48382,0.372046,0.983435\H,0,-1.41215,-0.64414,1.478766\H,0,-2.834423,-
 0.812935,-1.267073\H,0,-3.041186,-1.95354,0.062799\H,0,-1.493039,-1.84

 Normal termination of Gaussian 16 at Wed Apr  9 00:07:00 2025.
