 Gaussian 16, Revision C.01,

 ----------------------------------------------------------------------
 #t hf aug-cc-pvdz symm=none int=(grid=ultrafine) guess=(read,tcheck) s
 table=(opt,rrhf)
 ----------------------------------------------------------------------
 -----
 title
 -----
 Symbolic Z-matrix:
 Charge =  0 Multiplicity = 1

 SCF Done:  E(RHF) =  -689.912350830     A.U. after   13 cycles
 Normal termination of Gaussian 16 at Tue Apr  8 22:39:40 2025.
 Gaussian 16:  ES64L-G16RevC.01  3-Jul-2019

 ----------------------------------------------------------------------
 #t hf aug-cc-pvdz iop(5/13=1,5/36=2,99/5=2) pseudo=read geom=check gue
 ss=(read,tcheck) scf=(maxcycle=1)
 ----------------------------------------------------------------------
 -----
 title
 -----
 Structure from the checkpoint file:  "BDE49_expt_1362_mol1.chk"
 Charge =  0 Multiplicity = 1

                         Standard orientation:
 ---------------------------------------------------------------------
 Center     Atomic      Atomic             Coordinates (Angstroms)
 Number     Number       Type             X           Y           Z
 ---------------------------------------------------------------------
      1          6           0       -1.667152    1.881641    0.000000
      2          8           0       -1.375617    0.553518    0.000000
      3          6           0        0.000000    0.185499    0.000000
      4          6           0        0.022549   -1.332997    0.000000
      5          6           0       -0.821739    2.911353    0.000000
      6          1           0       -2.742831    2.016598    0.000000
      7          1           0        0.254529    2.806270    0.000000
      8          1           0       -1.223983    3.915044    0.000000
      9          1           0        0.503026    0.580733    0.889389
     10          1           0        0.503026    0.580733   -0.889389
     11         17           0        1.730921   -1.925487    0.000000
     12          1           0       -0.458216   -1.733609   -0.889966
     13          1           0       -0.458216   -1.733609    0.889966
 ---------------------------------------------------------------------

 SCF Done:  E(RHF) =  -690.005595286     A.U. after    2 cycles

 The electronic state is 1-A'.
 Alpha  occ. eigenvalues -- -103.65710 -20.61352 -11.31667 -11.31565 -11.31314
 Alpha  occ. eigenvalues --  -11.23339 -10.68974  -8.34695  -8.34409  -8.34397
 Alpha  occ. eigenvalues --   -1.38276  -1.17018  -1.05015  -0.99534  -0.87645
 Alpha  occ. eigenvalues --   -0.79525  -0.70724  -0.70367  -0.67736  -0.61343
 Alpha  occ. eigenvalues --   -0.59068  -0.56566  -0.54108  -0.52664  -0.51378
 Alpha  occ. eigenvalues --   -0.45597  -0.45333  -0.36299
 Alpha virt. eigenvalues --    0.03413   0.04284   0.04834   0.05291   0.06237
 Alpha virt. eigenvalues --    0.07466   0.07848   0.09093   0.11591   0.12051
 Alpha virt. eigenvalues --    0.12870   0.12951   0.14285   0.14990   0.15866

 Mulliken charges:
               1
     1  C    0.601806
     2  O   -0.526258
     3  C    0.609817
     4  C    0.064977
     5  C    0.657801
     6  H   -0.411826
     7  H   -0.295784
     8  H   -0.269491
     9  H   -0.173550
    10  H   -0.173550
    11  Cl  -0.131312
    12  H    0.023685
    13  H    0.023685
 Sum of Mulliken charges =  -0.00000

 Dipole moment (field-independent basis, Debye):
    X=             -1.1039    Y=              1.0649    Z=             -0.0000  Tot=              1.5338

 Test job not archived.
 1\1\GINC-SE460\SP\RHF\Aug-CC-pVDZ\C4H7Cl1O1\OHZDE\08-Apr-2025\0\\#t hf
  aug-cc-pvdz iop(5/13=1,5/36=2,99/5=2) pseudo=read geom=check guess=(r
 ead,tcheck) scf=(maxcycle=1)\\title\\0,1\C,0,-1.667153,1.88164,0.\O,0,
 -1.375617,0.553517,0.\C,0,0.,0.185499,0.\C,0,0.02255,-1.332997,0.\C,0,
 -0.821741,2.911352,0.\H,0,-2.742832,2.016596,0.\H,0,0.254527,2.80627,0
 .\H,0,-1.223985,3.915043,0.\H,0,0.503026,0.580733,0.889389\H,0,0.50302
 6,0.580733,-0.889389\Cl,0,1.730922,-1.925486,0.\H,0,-0.458215,-1.73360
 9,-0.889966\H,0,-0.458215,-1.733609,0.889966\\Version=ES64L-G16RevC.01

 Normal termination of Gaussian 16 at Tue Apr  8 22:39:43 2025.
