 Gaussian 16, Revision C.01,

 ----------------------------------------------------------------------
 #t hf aug-cc-pvdz symm=none int=(grid=ultrafine) guess=(read,tcheck) s
 table=(opt,rrhf)
 ----------------------------------------------------------------------
 -----
 title
 -----
 Symbolic Z-matrix:
 Charge =  0 Multiplicity = 1

 SCF Done:  E(RHF) =  -444.916570418     A.U. after   15 cycles
 Normal termination of Gaussian 16 at Wed Apr  9 00:29:09 2025.
 Gaussian 16:  ES64L-G16RevC.01  3-Jul-2019

 ----------------------------------------------------------------------
 #t hf aug-cc-pvdz iop(5/13=1,5/36=2,99/5=2) pseudo=read geom=check gue
 ss=(read,tcheck) scf=(maxcycle=1)
 ----------------------------------------------------------------------
 -----
 title
 -----
 Structure from the checkpoint file:  "BDE49_nonexpt_336_mol1.chk"
 Charge =  0 Multiplicity = 1

                         Standard orientation:
 ---------------------------------------------------------------------
 Center     Atomic      Atomic             Coordinates (Angstroms)
 Number     Number       Type             X           Y           Z
 ---------------------------------------------------------------------
      1          6           0       -2.377197    1.039505   -0.539367
      2          6           0       -1.067478    1.294776   -0.139772
      3          6           0       -2.946447   -0.213713   -0.323034
      4          6           0       -2.193596   -1.207607    0.297943
      5          6           0       -0.883245   -0.948402    0.696456
      6          6           0       -0.296155    0.308285    0.487261
      7          1           0       -0.636021    2.275850   -0.311025
      8          5           0        2.216436   -0.053602   -0.110436
      9          8           0        3.526792    0.278241    0.074618
     10          8           0        1.903732   -0.914495   -1.125183
     11          1           0       -2.955006    1.822612   -1.018027
     12          1           0       -2.627242   -2.185052    0.479054
     13          1           0       -3.966555   -0.412176   -0.631268
     14          1           0       -0.311426   -1.726722    1.193244
     15          6           0        1.138614    0.565753    0.879838
     16          1           0        1.338865    0.150053    1.875744
     17          1           0        1.328251    1.639848    0.971700
     18          1           0        0.956652   -1.079034   -1.193401
     19          1           0        4.099134   -0.158915   -0.565271
 ---------------------------------------------------------------------

 SCF Done:  E(RHF) =  -445.056323318     A.U. after    2 cycles

 The electronic state is 1-A.
 Alpha  occ. eigenvalues --  -20.57976 -20.57563 -11.25963 -11.25220 -11.25114
 Alpha  occ. eigenvalues --  -11.24672 -11.24595 -11.24538 -11.22122  -7.65568
 Alpha  occ. eigenvalues --   -1.34209  -1.30445  -1.15018  -1.04366  -1.01394
 Alpha  occ. eigenvalues --   -0.93590  -0.83431  -0.81139  -0.77326  -0.74228
 Alpha  occ. eigenvalues --   -0.70057  -0.65031  -0.64156  -0.63696  -0.59677
 Alpha  occ. eigenvalues --   -0.59105  -0.58122  -0.57335  -0.53938  -0.52624
 Alpha  occ. eigenvalues --   -0.51829  -0.49667  -0.49465  -0.47991  -0.34686
 Alpha  occ. eigenvalues --   -0.33276
 Alpha virt. eigenvalues --    0.02885   0.03759   0.04014   0.05112   0.05517
 Alpha virt. eigenvalues --    0.05755   0.06912   0.07512   0.07623   0.08108
 Alpha virt. eigenvalues --    0.08728   0.09632   0.10168   0.10612   0.11397

 Mulliken charges:
               1
     1  C    0.236878
     2  C    0.429576
     3  C    0.657689
     4  C    0.166606
     5  C    0.625419
     6  C    0.328700
     7  H   -0.572717
     8  B    0.841029
     9  O   -0.561130
    10  O   -0.460887
    11  H   -0.443259
    12  H   -0.458686
    13  H   -0.432443
    14  H   -0.612437
    15  C    0.316029
    16  H   -0.179830
    17  H   -0.322085
    18  H    0.244844
    19  H    0.196703
 Sum of Mulliken charges =   0.00000

 Dipole moment (field-independent basis, Debye):
    X=             -1.2057    Y=             -0.3812    Z=             -0.2987  Tot=              1.2993

 Test job not archived.
 1\1\GINC-SE097\SP\RHF\Aug-CC-pVDZ\C7H9B1O2\OHZDE\09-Apr-2025\0\\#t hf
 aug-cc-pvdz iop(5/13=1,5/36=2,99/5=2) pseudo=read geom=check guess=(re
 ad,tcheck) scf=(maxcycle=1)\\title\\0,1\C,0,2.377197,1.039505,0.539367
 \C,0,1.067478,1.294776,0.139772\C,0,2.946447,-0.213713,0.323034\C,0,2.
 193596,-1.207607,-0.297943\C,0,0.883245,-0.948402,-0.696456\C,0,0.2961
 55,0.308285,-0.487261\H,0,0.636021,2.27585,0.311025\B,0,-2.216436,-0.0
 53602,0.110436\O,0,-3.526792,0.278241,-0.074618\O,0,-1.903732,-0.91449
 5,1.125183\H,0,2.955006,1.822612,1.018027\H,0,2.627242,-2.185052,-0.47

 Normal termination of Gaussian 16 at Wed Apr  9 00:29:19 2025.
