 Gaussian 16, Revision C.01,

 ----------------------------------------------------------------------
 #t hf aug-cc-pvdz symm=none int=(grid=ultrafine) guess=(read,tcheck) s
 table=opt
 ----------------------------------------------------------------------
 -----
 title
 -----
 Symbolic Z-matrix:
 Charge =  0 Multiplicity = 2

 SCF Done:  E(UHF) =  -631.959476410     A.U. after   15 cycles

 1\1\GINC-SE335\Stability\UHF\Aug-CC-pVDZ\H4P1Si1\OHZDE\08-Apr-2025\0\\
 #t hf aug-cc-pvdz symm=none int=(grid=ultrafine) guess=(read,tcheck) s
 table=opt\\title\\0,2\Si,0,1.144602,0.014648,-0.091854\P,0,-1.129049,-
 0.110282,-0.032925\H,0,1.748357,1.172263,0.619299\H,0,1.734416,-1.2480
 05,0.418729\H,0,-1.317086,1.18972,-0.570698\H,0,-1.254368,0.335187,1.3
 12508\\Version=ES64L-G16RevC.01\HF=-631.9594764\S2=0.756094\S2-1=0.\S2
 A=0.750018\RMSD=7.547e-09\Dipole=0.1171218,0.25482,0.1244079\Quadrupol
 e=-0.6224369,-0.0379941,0.660431,-1.089838,-0.4348178,-0.4467169\PG=Un

 Normal termination of Gaussian 16 at Tue Apr  8 23:52:17 2025.
 Gaussian 16:  ES64L-G16RevC.01  3-Jul-2019

 ----------------------------------------------------------------------
 #t hf aug-cc-pvdz iop(5/13=1,5/36=2,99/5=2) pseudo=read geom=check gue
 ss=(read,tcheck) scf=(maxcycle=1)
 ----------------------------------------------------------------------
 -----
 title
 -----
 Structure from the checkpoint file:  "BDE49_nonexpt_1951_mol2.chk"
 Charge =  0 Multiplicity = 2

                         Standard orientation:
 ---------------------------------------------------------------------
 Center     Atomic      Atomic             Coordinates (Angstroms)
 Number     Number       Type             X           Y           Z
 ---------------------------------------------------------------------
      1         14           0        1.144602    0.014648   -0.091854
      2         15           0       -1.129049   -0.110282   -0.032925
      3          1           0        1.748357    1.172263    0.619299
      4          1           0        1.734416   -1.248005    0.418729
      5          1           0       -1.317086    1.189720   -0.570698
      6          1           0       -1.254368    0.335187    1.312508
 ---------------------------------------------------------------------

 SCF Done:  E(UHF) =  -631.997588372     A.U. after    2 cycles

 The electronic state is 2-A.
 Alpha  occ. eigenvalues --  -81.25808 -69.08556  -7.76307  -6.83870  -4.90179
 Alpha  occ. eigenvalues --   -4.90142  -4.89903  -3.95193  -3.94302  -3.94273
 Alpha  occ. eigenvalues --   -0.81223  -0.68054  -0.52935  -0.50131  -0.45139
 Alpha  occ. eigenvalues --   -0.36423  -0.32553
 Alpha virt. eigenvalues --    0.03540   0.04597   0.06292   0.06560   0.08039
 Alpha virt. eigenvalues --    0.08607   0.09394   0.10606   0.11254   0.12009
 Alpha virt. eigenvalues --    0.14828   0.15492   0.16724   0.18137   0.18683

  Beta  occ. eigenvalues --  -81.25806 -69.07982  -7.76297  -6.83014  -4.90193
  Beta  occ. eigenvalues --   -4.90112  -4.89924  -3.93884  -3.93868  -3.93006
  Beta  occ. eigenvalues --   -0.80222  -0.64163  -0.52099  -0.49250  -0.44210
  Beta  occ. eigenvalues --   -0.36063
  Beta virt. eigenvalues --    0.02509   0.03924   0.04855   0.06546   0.07051
  Beta virt. eigenvalues --    0.08281   0.09375   0.10417   0.10822   0.11814
  Beta virt. eigenvalues --    0.12311   0.16208   0.16289   0.18506   0.19416

 Mulliken charges and spin densities:
               1          2
     1  Si   0.366329   1.028847
     2  P   -0.506032  -0.018301
     3  H   -0.049657   0.001692
     4  H   -0.092043  -0.016825
     5  H    0.142020  -0.008078
     6  H    0.139384   0.012666
 Sum of Mulliken charges =   0.00000   1.00000

 Dipole moment (field-independent basis, Debye):
    X=              0.2000    Y=              0.5339    Z=              0.2121  Tot=              0.6083
                          Isotropic Fermi Contact Couplings
        Atom                 a.u.       MegaHertz       Gauss      10(-4) cm-1
     1  Si(29)             0.52273    -464.56725    -165.76915    -154.96295
     2  P(31)              0.02650      47.98744      17.12311      16.00689
     3  H(1)               0.00213       9.53374       3.40188       3.18011
     4  H(1)              -0.00255     -11.39019      -4.06430      -3.79936
     5  H(1)               0.00100       4.45310       1.58898       1.48539
     6  H(1)               0.01016      45.39170      16.19689      15.14104
 --------------------------------------------------------
       Center         ----  Spin Dipole Couplings  ----

 Normal termination of Gaussian 16 at Tue Apr  8 23:52:18 2025.
