 Gaussian 16, Revision C.01,

 ----------------------------------------------------------------------
 #t hf aug-cc-pvdz symm=none int=(grid=ultrafine) guess=(read,tcheck) s
 table=opt
 ----------------------------------------------------------------------
 -----
 title
 -----
 Symbolic Z-matrix:
 Charge =  0 Multiplicity = 2

 SCF Done:  E(UHF) =  -78.6069302913     A.U. after   14 cycles
 Normal termination of Gaussian 16 at Tue Apr  8 22:29:16 2025.
 Gaussian 16:  ES64L-G16RevC.01  3-Jul-2019

 ----------------------------------------------------------------------
 #t hf aug-cc-pvdz iop(5/13=1,5/36=2,99/5=2) pseudo=read geom=check gue
 ss=(read,tcheck) scf=(maxcycle=1)
 ----------------------------------------------------------------------
 -----
 title
 -----
 Structure from the checkpoint file:  "BDE49_expt_1035_mol2.chk"
 Charge =  0 Multiplicity = 2

                         Standard orientation:
 ---------------------------------------------------------------------
 Center     Atomic      Atomic             Coordinates (Angstroms)
 Number     Number       Type             X           Y           Z
 ---------------------------------------------------------------------
      1          6           0       -0.693346    0.000001   -0.001730
      2          6           0        0.794048    0.000000   -0.019224
      3          1           0       -1.093474   -0.000034    1.025991
      4          1           0       -1.107136   -0.886160   -0.492777
      5          1           0       -1.107136    0.886192   -0.492720
      6          1           0        1.351767   -0.926241    0.042613
      7          1           0        1.351770    0.926239    0.042614
 ---------------------------------------------------------------------

 SCF Done:  E(UHF) =  -78.6340823170     A.U. after    2 cycles

 The electronic state is 2-A.
 Alpha  occ. eigenvalues --  -11.23876 -11.22927  -1.02333  -0.83919  -0.62064
 Alpha  occ. eigenvalues --   -0.57739  -0.54694  -0.50606  -0.35115
 Alpha virt. eigenvalues --    0.03784   0.05131   0.05324   0.06163   0.07824
 Alpha virt. eigenvalues --    0.12534   0.13474   0.14121   0.15647   0.16647
 Alpha virt. eigenvalues --    0.17646   0.18329   0.21230   0.26404   0.28584

  Beta  occ. eigenvalues --  -11.23259 -11.21414  -0.98724  -0.78530  -0.60980
  Beta  occ. eigenvalues --   -0.54564  -0.53416  -0.50011
  Beta virt. eigenvalues --    0.03858   0.05201   0.05348   0.06096   0.07838
  Beta virt. eigenvalues --    0.09222   0.12589   0.14174   0.15690   0.16393
  Beta virt. eigenvalues --    0.17907   0.18501   0.20367   0.21776   0.27437

 Mulliken charges and spin densities:
               1          2
     1  C    0.240174  -0.199468
     2  C    0.400771   1.351896
     3  H   -0.032957   0.041500
     4  H   -0.078759   0.009550
     5  H   -0.078766   0.009548
     6  H   -0.225232  -0.106513
     7  H   -0.225231  -0.106514
 Sum of Mulliken charges =  -0.00000   1.00000

 Dipole moment (field-independent basis, Debye):
    X=             -0.1875    Y=             -0.0000    Z=              0.1103  Tot=              0.2175
                          Isotropic Fermi Contact Couplings
        Atom                 a.u.       MegaHertz       Gauss      10(-4) cm-1
     1  C(13)             -0.06254     -70.30169     -25.08539     -23.45012
     2  C(13)              0.21639     243.25998      86.80121      81.14279
     3  H(1)               0.02826     126.33185      45.07835      42.13977
     4  H(1)               0.00806      36.01208      12.85001      12.01234
     5  H(1)               0.00806      36.00589      12.84780      12.01027
     6  H(1)              -0.02538    -113.44431     -40.47975     -37.84095
     7  H(1)              -0.02538    -113.44474     -40.47990     -37.84109
 --------------------------------------------------------

 Normal termination of Gaussian 16 at Tue Apr  8 22:29:17 2025.
