 Gaussian 16, Revision C.01,

 ----------------------------------------------------------------------
 #t hf aug-cc-pvdz symm=none int=(grid=ultrafine) guess=(read,tcheck) s
 table=(opt,rrhf)
 ----------------------------------------------------------------------
 -----
 title
 -----
 Symbolic Z-matrix:
 Charge =  0 Multiplicity = 1

 SCF Done:  E(RHF) =  -1016.72505471     A.U. after   13 cycles
 Normal termination of Gaussian 16 at Wed Apr  9 00:11:34 2025.
 Gaussian 16:  ES64L-G16RevC.01  3-Jul-2019

 ----------------------------------------------------------------------
 #t hf aug-cc-pvdz iop(5/13=1,5/36=2,99/5=2) pseudo=read geom=check gue
 ss=(read,tcheck) scf=(maxcycle=1)
 ----------------------------------------------------------------------
 -----
 title
 -----
 Structure from the checkpoint file:  "BDE49_nonexpt_2430_mol1.chk"
 Charge =  0 Multiplicity = 1

                         Standard orientation:
 ---------------------------------------------------------------------
 Center     Atomic      Atomic             Coordinates (Angstroms)
 Number     Number       Type             X           Y           Z
 ---------------------------------------------------------------------
      1         14           0        1.851148   -0.763962    0.000002
      2         14           0        0.506720    1.170807    0.000019
      3          1           0        3.269601   -0.327296   -0.000007
      4          1           0        1.603123   -1.576447   -1.211820
      5          1           0        1.603144   -1.576458    1.211822
      6          6           0       -1.340141    0.743923    0.000003
      7          1           0        0.762349    2.019462   -1.194026
      8          1           0        0.762326    2.019423    1.194096
      9         16           0       -1.932306   -0.768311   -0.000020
     10          1           0       -2.052952    1.574932   -0.000058
 ---------------------------------------------------------------------

 SCF Done:  E(RHF) =  -1016.79662238     A.U. after    2 cycles

 The electronic state is 1-A.
 Alpha  occ. eigenvalues --  -93.54046 -69.07982 -69.06690 -11.31824  -8.83844
 Alpha  occ. eigenvalues --   -6.83378  -6.82094  -6.17921  -6.17681  -6.17358
 Alpha  occ. eigenvalues --   -3.94157  -3.94112  -3.94078  -3.92851  -3.92847
 Alpha  occ. eigenvalues --   -3.92835  -1.04935  -0.80349  -0.73332  -0.66524
 Alpha  occ. eigenvalues --   -0.57883  -0.51192  -0.51079  -0.48238  -0.48124
 Alpha  occ. eigenvalues --   -0.41370  -0.40916  -0.34183
 Alpha virt. eigenvalues --    0.02569   0.03350   0.04031   0.05343   0.06502
 Alpha virt. eigenvalues --    0.06597   0.07268   0.07365   0.08182   0.09196
 Alpha virt. eigenvalues --    0.09782   0.10119   0.10127   0.11022   0.13861

 Mulliken charges:
               1
     1  Si  -0.193252
     2  Si   0.613223
     3  H    0.004432
     4  H    0.046055
     5  H    0.046049
     6  C   -0.309373
     7  H   -0.015166
     8  H   -0.015170
     9  S    0.131941
    10  H   -0.308740
 Sum of Mulliken charges =  -0.00000

 Dipole moment (field-independent basis, Debye):
    X=              0.6941    Y=              1.4857    Z=             -0.0000  Tot=              1.6398

 Test job not archived.
 1\1\GINC-SE334\SP\RHF\Aug-CC-pVDZ\C1H6S1Si2\OHZDE\09-Apr-2025\0\\#t hf
  aug-cc-pvdz iop(5/13=1,5/36=2,99/5=2) pseudo=read geom=check guess=(r
 ead,tcheck) scf=(maxcycle=1)\\title\\0,1\Si,0,1.851148,-0.763962,0.000
 002\Si,0,0.50672,1.170807,0.000019\H,0,3.269601,-0.327296,-0.000007\H,
 0,1.603123,-1.576447,-1.21182\H,0,1.603144,-1.576458,1.211822\C,0,-1.3
 40141,0.743923,0.000003\H,0,0.762349,2.019462,-1.194026\H,0,0.762326,2
 .019423,1.194096\S,0,-1.932306,-0.768311,-0.00002\H,0,-2.052952,1.5749
 32,-0.000058\\Version=ES64L-G16RevC.01\State=1-A\HF=-1016.7966224\RMSD

 Normal termination of Gaussian 16 at Wed Apr  9 00:11:37 2025.
