 Gaussian 16, Revision C.01,

 ----------------------------------------------------------------------
 #t hf aug-cc-pvdz symm=none int=(grid=ultrafine) guess=(read,tcheck) s
 table=(opt,rrhf)
 ----------------------------------------------------------------------
 -----
 title
 -----
 Symbolic Z-matrix:
 Charge =  0 Multiplicity = 1

 SCF Done:  E(RHF) =  -1529.70043231     A.U. after   14 cycles
 Normal termination of Gaussian 16 at Tue Apr  8 22:31:23 2025.
 Gaussian 16:  ES64L-G16RevC.01  3-Jul-2019

 ----------------------------------------------------------------------
 #t hf aug-cc-pvdz iop(5/13=1,5/36=2,99/5=2) pseudo=read geom=check gue
 ss=(read,tcheck) scf=(maxcycle=1)
 ----------------------------------------------------------------------
 -----
 title
 -----
 Structure from the checkpoint file:  "BDE49_expt_1077_mol1.chk"
 Charge =  0 Multiplicity = 1

                         Standard orientation:
 ---------------------------------------------------------------------
 Center     Atomic      Atomic             Coordinates (Angstroms)
 Number     Number       Type             X           Y           Z
 ---------------------------------------------------------------------
      1          6           0        0.624455   -0.000122    0.597223
      2          6           0       -0.909175   -0.002128    0.645841
      3          8           0       -1.512333   -0.002491    1.662455
      4         17           0       -1.713206   -0.000286   -0.946600
      5         17           0        1.231970    1.486739   -0.184066
      6          1           0        0.979273   -0.000280    1.622562
      7         17           0        1.235808   -1.484470   -0.185840
 ---------------------------------------------------------------------

 SCF Done:  E(RHF) =  -1529.80314402     A.U. after    2 cycles

 The electronic state is 1-A.
 Alpha  occ. eigenvalues -- -103.70362-103.70361-103.69718 -20.64226 -11.45509
 Alpha  occ. eigenvalues --  -11.42133 -10.73633 -10.73626 -10.73044  -8.39355
 Alpha  occ. eigenvalues --   -8.39351  -8.39023  -8.39021  -8.39009  -8.39008
 Alpha  occ. eigenvalues --   -8.38757  -8.38441  -8.38429  -1.44918  -1.25445
 Alpha  occ. eigenvalues --   -1.18908  -1.17104  -0.98976  -0.81626  -0.73631
 Alpha  occ. eigenvalues --   -0.71647  -0.66741  -0.64979  -0.60065  -0.54298
 Alpha  occ. eigenvalues --   -0.52016  -0.50507  -0.49829  -0.49271  -0.48719
 Alpha  occ. eigenvalues --   -0.47509
 Alpha virt. eigenvalues --    0.03911   0.05766   0.06615   0.07610   0.08475
 Alpha virt. eigenvalues --    0.09214   0.11050   0.12654   0.12725   0.13875
 Alpha virt. eigenvalues --    0.14720   0.15442   0.15601   0.16462   0.17285

 Mulliken charges:
               1
     1  C   -0.186918
     2  C    0.308812
     3  O   -0.320105
     4  Cl   0.003521
     5  Cl   0.019647
     6  H    0.155450
     7  Cl   0.019592
 Sum of Mulliken charges =  -0.00000

 Dipole moment (field-independent basis, Debye):
    X=              1.4475    Y=              0.0001    Z=              0.0475  Tot=              1.4483

 Test job not archived.
 1\1\GINC-SE423\SP\RHF\Aug-CC-pVDZ\C2H1Cl3O1\OHZDE\08-Apr-2025\0\\#t hf
  aug-cc-pvdz iop(5/13=1,5/36=2,99/5=2) pseudo=read geom=check guess=(r
 ead,tcheck) scf=(maxcycle=1)\\title\\0,1\C,0,-0.624455,0.000122,0.5972
 23\C,0,0.909175,0.002128,0.645841\O,0,1.512333,0.002491,1.662455\Cl,0,
 1.713206,0.000286,-0.9466\Cl,0,-1.23197,-1.486739,-0.184066\H,0,-0.979
 273,0.00028,1.622562\Cl,0,-1.235808,1.48447,-0.18584\\Version=ES64L-G1
 6RevC.01\State=1-A\HF=-1529.803144\RMSD=3.708e-03\Dipole=-0.569504,-0.
 0000513,0.0186907\Quadrupole=-1.4686478,1.2743627,0.194285,-0.0032563,

 Normal termination of Gaussian 16 at Tue Apr  8 22:31:27 2025.
