 Gaussian 16, Revision C.01,

 ----------------------------------------------------------------------
 #t hf aug-cc-pvdz symm=none int=(grid=ultrafine) guess=(read,tcheck) s
 table=(opt,rrhf)
 ----------------------------------------------------------------------
 -----
 title
 -----
 Symbolic Z-matrix:
 Charge =  0 Multiplicity = 1

 SCF Done:  E(RHF) =  -1682.64762117     A.U. after   13 cycles
 Normal termination of Gaussian 16 at Tue Apr  8 22:49:15 2025.
 Gaussian 16:  ES64L-G16RevC.01  3-Jul-2019

 ----------------------------------------------------------------------
 #t hf aug-cc-pvdz iop(5/13=1,5/36=2,99/5=2) pseudo=read geom=check gue
 ss=(read,tcheck) scf=(maxcycle=1)
 ----------------------------------------------------------------------
 -----
 title
 -----
 Structure from the checkpoint file:  "BDE49_expt_1719_mol1.chk"
 Charge =  0 Multiplicity = 1

                         Standard orientation:
 ---------------------------------------------------------------------
 Center     Atomic      Atomic             Coordinates (Angstroms)
 Number     Number       Type             X           Y           Z
 ---------------------------------------------------------------------
      1          6           0       -0.435068    0.765251    0.000003
      2          8           0       -0.459737    1.961443   -0.000019
      3          6           0        0.888369   -0.065814    0.000002
      4          8           0       -1.481219   -0.049722    0.000004
      5         17           0        0.929069   -1.099880   -1.470356
      6         17           0        0.929104   -1.099815    1.470405
      7         17           0        2.290850    1.022768   -0.000039
      8          6           0       -2.792022    0.587242   -0.000006
      9          6           0       -3.828054   -0.515088   -0.000003
     10          1           0       -2.860372    1.224187   -0.884239
     11          1           0       -2.860379    1.224199    0.884217
     12          1           0       -3.727887   -1.144383   -0.886369
     13          1           0       -4.828557   -0.075185   -0.000010
     14          1           0       -3.727894   -1.144370    0.886373
 ---------------------------------------------------------------------

 SCF Done:  E(RHF) =  -1682.79917266     A.U. after    2 cycles

 The electronic state is 1-A.
 Alpha  occ. eigenvalues -- -103.69683-103.69683-103.69093 -20.64362 -20.59726
 Alpha  occ. eigenvalues --  -11.46356 -11.43863 -11.32217 -11.25024 -10.72949
 Alpha  occ. eigenvalues --  -10.72936 -10.72381  -8.38666  -8.38661  -8.38327
 Alpha  occ. eigenvalues --   -8.38325  -8.38318  -8.38318  -8.38107  -8.37758
 Alpha  occ. eigenvalues --   -8.37754  -1.45673  -1.36389  -1.26758  -1.16334
 Alpha  occ. eigenvalues --   -1.16054  -1.06418  -0.95736  -0.87165  -0.80902
 Alpha  occ. eigenvalues --   -0.73848  -0.72242  -0.72115  -0.65200  -0.63901
 Alpha  occ. eigenvalues --   -0.61216  -0.60693  -0.57197  -0.54272  -0.54020
 Alpha  occ. eigenvalues --   -0.53994  -0.52093  -0.51271  -0.49460  -0.48127
 Alpha  occ. eigenvalues --   -0.47773  -0.47044  -0.46653
 Alpha virt. eigenvalues --    0.03189   0.04852   0.04895   0.05608   0.07194
 Alpha virt. eigenvalues --    0.07299   0.08160   0.08729   0.09390   0.10549
 Alpha virt. eigenvalues --    0.11027   0.12017   0.12968   0.14194   0.15091

 Mulliken charges:
               1
     1  C    0.512560
     2  O   -0.350505
     3  C   -0.478636
     4  O   -0.358272
     5  Cl   0.043813
     6  Cl   0.043813
     7  Cl   0.056071
     8  C    0.659286
     9  C    0.276496
    10  H   -0.154451
    11  H   -0.154454
    12  H   -0.041777
    13  H   -0.012166
    14  H   -0.041777
 Sum of Mulliken charges =  -0.00000

 Dipole moment (field-independent basis, Debye):
    X=             -2.8940    Y=             -1.0505    Z=              0.0000  Tot=              3.0788

 Test job not archived.
 1\1\GINC-SE331\SP\RHF\Aug-CC-pVDZ\C4H5Cl3O2\OHZDE\08-Apr-2025\0\\#t hf
  aug-cc-pvdz iop(5/13=1,5/36=2,99/5=2) pseudo=read geom=check guess=(r
 ead,tcheck) scf=(maxcycle=1)\\title\\0,1\C,0,-0.435068,0.765251,0.0000
 03\O,0,-0.459737,1.961443,-0.000019\C,0,0.888369,-0.065814,0.000002\O,
 0,-1.481219,-0.049722,0.000004\Cl,0,0.929069,-1.09988,-1.470356\Cl,0,0
 .929104,-1.099815,1.470405\Cl,0,2.29085,1.022768,-0.000039\C,0,-2.7920
 22,0.587242,-0.000006\C,0,-3.828054,-0.515088,-0.000003\H,0,-2.860372,
 1.224187,-0.884239\H,0,-2.860379,1.224199,0.884217\H,0,-3.727887,-1.14

 Normal termination of Gaussian 16 at Tue Apr  8 22:49:22 2025.
