 Gaussian 16, Revision C.01,

 ----------------------------------------------------------------------
 #t hf aug-cc-pvdz symm=none int=(grid=ultrafine) guess=(read,tcheck) s
 table=(opt,rrhf)
 ----------------------------------------------------------------------
 -----
 title
 -----
 Symbolic Z-matrix:
 Charge =  0 Multiplicity = 1

 SCF Done:  E(RHF) =  -1193.76530059     A.U. after   13 cycles
 Normal termination of Gaussian 16 at Tue Apr  8 22:57:35 2025.
 Gaussian 16:  ES64L-G16RevC.01  3-Jul-2019

 ----------------------------------------------------------------------
 #t hf aug-cc-pvdz iop(5/13=1,5/36=2,99/5=2) pseudo=read geom=check gue
 ss=(read,tcheck) scf=(maxcycle=1)
 ----------------------------------------------------------------------
 -----
 title
 -----
 Structure from the checkpoint file:  "BDE49_expt_1963_mol1.chk"
 Charge =  0 Multiplicity = 1

                         Standard orientation:
 ---------------------------------------------------------------------
 Center     Atomic      Atomic             Coordinates (Angstroms)
 Number     Number       Type             X           Y           Z
 ---------------------------------------------------------------------
      1         16           0        0.053396   -0.388920    1.695730
      2         16           0        0.053396    0.841101   -0.000000
      3          1           0       -1.281510   -0.506084    1.844524
      4         16           0        0.053396   -0.388920   -1.695730
      5          1           0       -1.281510   -0.506084   -1.844524
 ---------------------------------------------------------------------

 SCF Done:  E(RHF) =  -1193.82719360     A.U. after    2 cycles

 The electronic state is 1-A'.
 Alpha  occ. eigenvalues --  -93.59957 -93.57822 -93.57821  -8.89317  -8.87446
 Alpha  occ. eigenvalues --   -8.87431  -6.23363  -6.23086  -6.22729  -6.21549
 Alpha  occ. eigenvalues --   -6.21496  -6.21320  -6.21287  -6.20955  -6.20933
 Alpha  occ. eigenvalues --   -1.06756  -0.96994  -0.82974  -0.59142  -0.57566
 Alpha  occ. eigenvalues --   -0.49661  -0.49536  -0.39695  -0.38065  -0.37875
 Alpha virt. eigenvalues --    0.03512   0.04979   0.05113   0.09085   0.10672
 Alpha virt. eigenvalues --    0.11139   0.11955   0.12158   0.13182   0.14645
 Alpha virt. eigenvalues --    0.14815   0.15090   0.17879   0.18900   0.19528

 Mulliken charges:
               1
     1  S   -0.078620
     2  S   -0.128793
     3  H    0.143016
     4  S   -0.078620
     5  H    0.143016
 Sum of Mulliken charges =   0.00000

 Dipole moment (field-independent basis, Debye):
    X=             -1.7383    Y=             -0.5423    Z=             -0.0000  Tot=              1.8209

 Test job not archived.
 1\1\GINC-SE435\SP\RHF\Aug-CC-pVDZ\H2S3\OHZDE\08-Apr-2025\0\\#t hf aug-
 cc-pvdz iop(5/13=1,5/36=2,99/5=2) pseudo=read geom=check guess=(read,t
 check) scf=(maxcycle=1)\\title\\0,1\S,0,-0.053396,-0.38892,-1.69573\S,
 0,-0.053396,0.841101,0.\H,0,1.28151,-0.506084,-1.844524\S,0,-0.053396,
 -0.38892,1.69573\H,0,1.28151,-0.506084,1.844524\\Version=ES64L-G16RevC
 .01\State=1-A'\HF=-1193.8271936\RMSD=7.177e-03\Dipole=0.6838962,-0.213
 3739,0.\Quadrupole=1.3715563,-1.8172602,0.445704,-1.0920067,0.,0.\PG=C
 S [SG(S1),X(H2S2)]\\@

 Normal termination of Gaussian 16 at Tue Apr  8 22:57:37 2025.
