 Gaussian 16, Revision C.01,

 ----------------------------------------------------------------------
 #t hf aug-cc-pvdz symm=none int=(grid=ultrafine) guess=(read,tcheck) s
 table=(opt,rrhf)
 ----------------------------------------------------------------------
 -----
 title
 -----
 Symbolic Z-matrix:
 Charge =  0 Multiplicity = 1

 SCF Done:  E(RHF) =  -246.724480131     A.U. after   13 cycles
 Normal termination of Gaussian 16 at Tue Apr  8 23:01:45 2025.
 Gaussian 16:  ES64L-G16RevC.01  3-Jul-2019

 ----------------------------------------------------------------------
 #t hf aug-cc-pvdz iop(5/13=1,5/36=2,99/5=2) pseudo=read geom=check gue
 ss=(read,tcheck) scf=(maxcycle=1)
 ----------------------------------------------------------------------
 -----
 title
 -----
 Structure from the checkpoint file:  "BDE49_expt_339_mol1.chk"
 Charge =  0 Multiplicity = 1

                         Standard orientation:
 ---------------------------------------------------------------------
 Center     Atomic      Atomic             Coordinates (Angstroms)
 Number     Number       Type             X           Y           Z
 ---------------------------------------------------------------------
      1          7           0       -1.417025    0.000001   -0.000000
      2          6           0       -0.721131    1.140587   -0.000000
      3          6           0        0.671681    1.196200   -0.000000
      4          6           0        0.671681   -1.196200    0.000000
      5          6           0       -0.721131   -1.140587    0.000000
      6          6           0        1.382899   -0.000001    0.000000
      7          1           0        1.180392   -2.153114    0.000000
      8          1           0        2.467251   -0.000000    0.000000
      9          1           0       -1.306426    2.056236   -0.000000
     10          1           0        1.180393    2.153113   -0.000000
     11          1           0       -1.306427   -2.056236    0.000000
 ---------------------------------------------------------------------

 SCF Done:  E(RHF) =  -246.796558370     A.U. after    2 cycles

 The electronic state is 1-A'.
 Alpha  occ. eigenvalues --  -15.63173 -11.28673 -11.28661 -11.27078 -11.25319
 Alpha  occ. eigenvalues --  -11.25316  -1.23160  -1.07826  -1.02894  -0.85715
 Alpha  occ. eigenvalues --   -0.85695  -0.72512  -0.66555  -0.65552  -0.60270
 Alpha  occ. eigenvalues --   -0.57887  -0.54356  -0.52329  -0.41427  -0.38508
 Alpha  occ. eigenvalues --   -0.35061
 Alpha virt. eigenvalues --    0.03107   0.03811   0.04568   0.05941   0.06400
 Alpha virt. eigenvalues --    0.08545   0.10265   0.10570   0.11765   0.12406
 Alpha virt. eigenvalues --    0.13023   0.13692   0.14159   0.14588   0.14716

 Mulliken charges:
               1
     1  N   -0.419725
     2  C    0.451353
     3  C    0.775769
     4  C    0.775775
     5  C    0.451352
     6  C   -0.187342
     7  H   -0.391197
     8  H   -0.393711
     9  H   -0.335537
    10  H   -0.391196
    11  H   -0.335538
 Sum of Mulliken charges =  -0.00000

 Dipole moment (field-independent basis, Debye):
    X=              2.2465    Y=             -0.0000    Z=              0.0000  Tot=              2.2465

 Test job not archived.
 1\1\GINC-SE128\SP\RHF\Aug-CC-pVDZ\C5H5N1\OHZDE\08-Apr-2025\0\\#t hf au
 g-cc-pvdz iop(5/13=1,5/36=2,99/5=2) pseudo=read geom=check guess=(read
 ,tcheck) scf=(maxcycle=1)\\title\\0,1\N,0,0.,1.417025,0.\C,0,-1.140587
 ,0.721132,0.\C,0,-1.1962,-0.67168,0.\C,0,1.1962,-0.671681,0.\C,0,1.140
 587,0.721131,0.\C,0,0.,-1.382899,0.\H,0,2.153113,-1.180393,0.\H,0,-0.0
 00001,-2.467251,0.\H,0,-2.056236,1.306427,0.\H,0,-2.153114,-1.180392,0
 .\H,0,2.056236,1.306426,0.\\Version=ES64L-G16RevC.01\State=1-A'\HF=-24
 6.7965584\RMSD=9.092e-03\Dipole=0.0000001,-0.8838221,0.\Quadrupole=4.1

 Normal termination of Gaussian 16 at Tue Apr  8 23:01:50 2025.
