 Gaussian 16, Revision C.01,

 ----------------------------------------------------------------------
 #t hf aug-cc-pvdz symm=none int=(grid=ultrafine) guess=(read,tcheck) s
 table=(opt,rrhf)
 ----------------------------------------------------------------------
 -----
 title
 -----
 Symbolic Z-matrix:
 Charge =  0 Multiplicity = 1

 SCF Done:  E(RHF) =  -1125.35812592     A.U. after   13 cycles
 Normal termination of Gaussian 16 at Tue Apr  8 23:51:20 2025.
 Gaussian 16:  ES64L-G16RevC.01  3-Jul-2019

 ----------------------------------------------------------------------
 #t hf aug-cc-pvdz iop(5/13=1,5/36=2,99/5=2) pseudo=read geom=check gue
 ss=(read,tcheck) scf=(maxcycle=1)
 ----------------------------------------------------------------------
 -----
 title
 -----
 Structure from the checkpoint file:  "BDE49_nonexpt_1927_mol1.chk"
 Charge =  0 Multiplicity = 1

                         Standard orientation:
 ---------------------------------------------------------------------
 Center     Atomic      Atomic             Coordinates (Angstroms)
 Number     Number       Type             X           Y           Z
 ---------------------------------------------------------------------
      1         14           0        2.472431    0.027209   -0.016219
      2          6           0        0.691229    0.683189    0.031744
      3         16           0       -0.508214   -0.695402    0.029303
      4          1           0        3.379643    1.197585    0.015488
      5          1           0        2.703335   -0.745941   -1.255598
      6         16           0       -2.370876    0.249127   -0.103142
      7          1           0        2.738420   -0.832482    1.158132
      8          1           0       -2.597057    0.437376    1.213529
      9          1           0        0.522456    1.313811   -0.844092
     10          1           0        0.557236    1.289975    0.930565
 ---------------------------------------------------------------------

 SCF Done:  E(RHF) =  -1125.43542556     A.U. after    2 cycles

 The electronic state is 1-A.
 Alpha  occ. eigenvalues --  -93.56708 -93.56668 -69.07654 -11.26904  -8.86256
 Alpha  occ. eigenvalues --   -8.86204  -6.82951  -6.20380  -6.20319  -6.20137
 Alpha  occ. eigenvalues --   -6.20040  -6.19789  -6.19710  -3.93736  -3.93726
 Alpha  occ. eigenvalues --   -3.93712  -1.05695  -0.95613  -0.81728  -0.70272
 Alpha  occ. eigenvalues --   -0.61422  -0.58213  -0.52573  -0.50014  -0.48568
 Alpha  occ. eigenvalues --   -0.48228  -0.43508  -0.37515  -0.36397
 Alpha virt. eigenvalues --    0.03310   0.04270   0.05165   0.05504   0.06249
 Alpha virt. eigenvalues --    0.07936   0.08107   0.08693   0.09254   0.09696
 Alpha virt. eigenvalues --    0.10870   0.12739   0.13123   0.14026   0.15273

 Mulliken charges:
               1
     1  Si   0.554660
     2  C   -0.232818
     3  S    0.085060
     4  H   -0.043170
     5  H   -0.035251
     6  S   -0.119468
     7  H   -0.044683
     8  H    0.121076
     9  H   -0.137216
    10  H   -0.148191
 Sum of Mulliken charges =   0.00000

 Dipole moment (field-independent basis, Debye):
    X=              0.8329    Y=              1.4475    Z=              0.8363  Tot=              1.8678

 Test job not archived.
 1\1\GINC-SE403\SP\RHF\Aug-CC-pVDZ\C1H6S2Si1\OHZDE\08-Apr-2025\0\\#t hf
  aug-cc-pvdz iop(5/13=1,5/36=2,99/5=2) pseudo=read geom=check guess=(r
 ead,tcheck) scf=(maxcycle=1)\\title\\0,1\Si,0,2.472431,0.027209,-0.016
 219\C,0,0.691229,0.683189,0.031744\S,0,-0.508214,-0.695402,0.029303\H,
 0,3.379643,1.197585,0.015488\H,0,2.703335,-0.745941,-1.255598\S,0,-2.3
 70876,0.249127,-0.103142\H,0,2.73842,-0.832482,1.158132\H,0,-2.597057,
 0.437376,1.213529\H,0,0.522456,1.313811,-0.844092\H,0,0.557236,1.28997
 5,0.930565\\Version=ES64L-G16RevC.01\State=1-A\HF=-1125.4354256\RMSD=6

 Normal termination of Gaussian 16 at Tue Apr  8 23:51:23 2025.
