 Gaussian 16, Revision C.01,

 ----------------------------------------------------------------------
 #t hf aug-cc-pvdz symm=none int=(grid=ultrafine) guess=(read,tcheck) s
 table=(opt,rrhf)
 ----------------------------------------------------------------------
 -----
 title
 -----
 Symbolic Z-matrix:
 Charge =  0 Multiplicity = 1

 SCF Done:  E(RHF) =  -514.189847522     A.U. after   15 cycles
 Normal termination of Gaussian 16 at Tue Apr  8 23:20:02 2025.
 Gaussian 16:  ES64L-G16RevC.01  3-Jul-2019

 ----------------------------------------------------------------------
 #t hf aug-cc-pvdz iop(5/13=1,5/36=2,99/5=2) pseudo=read geom=check gue
 ss=(read,tcheck) scf=(maxcycle=1)
 ----------------------------------------------------------------------
 -----
 title
 -----
 Structure from the checkpoint file:  "BDE49_nonexpt_1160_mol1.chk"
 Charge =  0 Multiplicity = 1

                         Standard orientation:
 ---------------------------------------------------------------------
 Center     Atomic      Atomic             Coordinates (Angstroms)
 Number     Number       Type             X           Y           Z
 ---------------------------------------------------------------------
      1          9           0       -2.933382   -0.223411   -0.221931
      2          8           0       -1.626466   -0.772176   -0.335643
      3          6           0       -0.748131    0.111156    0.256259
      4          8           0       -0.984950    1.168464    0.718101
      5          8           0        0.426446   -0.575248    0.216119
      6          6           0        1.612819    0.110985   -0.160491
      7          8           0        1.589392    1.159316   -0.712292
      8          6           0        2.792763   -0.726125    0.225210
      9          1           0        2.694680   -1.726479   -0.200864
     10          1           0        2.822777   -0.833370    1.312038
     11          1           0        3.702891   -0.248393   -0.129945
 ---------------------------------------------------------------------

 SCF Done:  E(RHF) =  -514.360906665     A.U. after    2 cycles

 The electronic state is 1-A.
 Alpha  occ. eigenvalues --  -26.20840 -20.75689 -20.67922 -20.61603 -20.61420
 Alpha  occ. eigenvalues --  -11.50018 -11.44783 -11.28723  -1.71583  -1.50695
 Alpha  occ. eigenvalues --   -1.43348  -1.38731  -1.35518  -1.06760  -0.94765
 Alpha  occ. eigenvalues --   -0.86159  -0.82065  -0.78525  -0.78255  -0.74650
 Alpha  occ. eigenvalues --   -0.73783  -0.70693  -0.67949  -0.66954  -0.64089
 Alpha  occ. eigenvalues --   -0.61137  -0.59880  -0.56647  -0.54499  -0.54213
 Alpha  occ. eigenvalues --   -0.51262
 Alpha virt. eigenvalues --    0.02617   0.04809   0.05114   0.07071   0.08132
 Alpha virt. eigenvalues --    0.09815   0.10227   0.10713   0.11613   0.12463
 Alpha virt. eigenvalues --    0.13193   0.14228   0.14768   0.15606   0.15760

 Mulliken charges:
               1
     1  F   -0.293682
     2  O   -0.101090
     3  C    0.777575
     4  O   -0.258672
     5  O   -0.553873
     6  C    0.368890
     7  O   -0.345013
     8  C    0.300071
     9  H    0.050257
    10  H    0.046496
    11  H    0.009041
 Sum of Mulliken charges =  -0.00000

 Dipole moment (field-independent basis, Debye):
    X=              3.7391    Y=             -3.4072    Z=              0.6374  Tot=              5.0986

 Test job not archived.
 1\1\GINC-SE363\SP\RHF\Aug-CC-pVDZ\C3H3F1O4\OHZDE\08-Apr-2025\0\\#t hf
 aug-cc-pvdz iop(5/13=1,5/36=2,99/5=2) pseudo=read geom=check guess=(re
 ad,tcheck) scf=(maxcycle=1)\\title\\0,1\F,0,-2.933382,-0.223411,-0.221
 931\O,0,-1.626466,-0.772176,-0.335643\C,0,-0.748131,0.111156,0.256259\
 O,0,-0.98495,1.168464,0.718101\O,0,0.426446,-0.575248,0.216119\C,0,1.6
 12819,0.110985,-0.160491\O,0,1.589392,1.159316,-0.712292\C,0,2.792763,
 -0.726125,0.22521\H,0,2.69468,-1.726479,-0.200864\H,0,2.822777,-0.8333
 7,1.312038\H,0,3.702891,-0.248393,-0.129945\\Version=ES64L-G16RevC.01\

 Normal termination of Gaussian 16 at Tue Apr  8 23:20:06 2025.
