 Gaussian 16, Revision C.01,

 ----------------------------------------------------------------------
 #t hf aug-cc-pvdz symm=none int=(grid=ultrafine) guess=(read,tcheck) s
 table=(opt,rrhf)
 ----------------------------------------------------------------------
 -----
 title
 -----
 Symbolic Z-matrix:
 Charge =  0 Multiplicity = 1

 SCF Done:  E(RHF) =  -763.650659329     A.U. after   13 cycles
 Normal termination of Gaussian 16 at Wed Apr  9 00:13:31 2025.
 Gaussian 16:  ES64L-G16RevC.01  3-Jul-2019

 ----------------------------------------------------------------------
 #t hf aug-cc-pvdz iop(5/13=1,5/36=2,99/5=2) pseudo=read geom=check gue
 ss=(read,tcheck) scf=(maxcycle=1)
 ----------------------------------------------------------------------
 -----
 title
 -----
 Structure from the checkpoint file:  "BDE49_nonexpt_2501_mol1.chk"
 Charge =  0 Multiplicity = 1

                         Standard orientation:
 ---------------------------------------------------------------------
 Center     Atomic      Atomic             Coordinates (Angstroms)
 Number     Number       Type             X           Y           Z
 ---------------------------------------------------------------------
      1         16           0        0.636851   -0.683986    0.006523
      2         14           0       -1.344063    0.184786    0.001317
      3          8           0        1.527748    0.784499   -0.116143
      4          1           0        1.770162    1.016696    0.788955
      5          1           0       -2.271739   -0.965719    0.092503
      6          1           0       -1.577780    0.948342   -1.242019
      7          1           0       -1.515350    1.081460    1.166896
 ---------------------------------------------------------------------

 SCF Done:  E(RHF) =  -763.720748092     A.U. after    2 cycles

 The electronic state is 1-A.
 Alpha  occ. eigenvalues --  -93.57943 -69.09880 -20.61675  -8.87257  -6.84992
 Alpha  occ. eigenvalues --   -6.21433  -6.21061  -6.20781  -3.95817  -3.95736
 Alpha  occ. eigenvalues --   -3.95694  -1.33157  -0.92895  -0.72274  -0.68518
 Alpha  occ. eigenvalues --   -0.58975  -0.57239  -0.50600  -0.49980  -0.42634
 Alpha  occ. eigenvalues --   -0.37512
 Alpha virt. eigenvalues --    0.03450   0.04475   0.05433   0.06191   0.07264
 Alpha virt. eigenvalues --    0.08698   0.09146   0.09303   0.11046   0.14172
 Alpha virt. eigenvalues --    0.14965   0.16479   0.17675   0.18714   0.19641

 Mulliken charges:
               1
     1  S    0.084628
     2  Si   0.615749
     3  O   -0.655473
     4  H    0.165411
     5  H   -0.090670
     6  H   -0.055218
     7  H   -0.064426
 Sum of Mulliken charges =  -0.00000

 Dipole moment (field-independent basis, Debye):
    X=             -1.1158    Y=              0.3305    Z=              1.4765  Tot=              1.8799

 Test job not archived.
 1\1\GINC-SE459\SP\RHF\Aug-CC-pVDZ\H4O1S1Si1\OHZDE\09-Apr-2025\0\\#t hf
  aug-cc-pvdz iop(5/13=1,5/36=2,99/5=2) pseudo=read geom=check guess=(r
 ead,tcheck) scf=(maxcycle=1)\\title\\0,1\S,0,0.636851,-0.683986,0.0065
 23\Si,0,-1.344063,0.184786,0.001317\O,0,1.527748,0.7845,-0.116143\H,0,
 1.770162,1.016697,0.788955\H,0,-2.271739,-0.965719,0.092503\H,0,-1.577
 78,0.948342,-1.242019\H,0,-1.51535,1.08146,1.166896\\Version=ES64L-G16
 RevC.01\State=1-A\HF=-763.7207481\RMSD=5.374e-03\Dipole=-0.4389785,0.1
 300393,0.5808881\Quadrupole=0.658246,-0.3695176,-0.2887283,0.6554156,2

 Normal termination of Gaussian 16 at Wed Apr  9 00:13:33 2025.
