 Gaussian 16, Revision C.01,

 ----------------------------------------------------------------------
 #t hf aug-cc-pvdz symm=none int=(grid=ultrafine) guess=(read,tcheck) s
 table=(opt,rrhf)
 ----------------------------------------------------------------------
 -----
 title
 -----
 Symbolic Z-matrix:
 Charge =  0 Multiplicity = 1

 SCF Done:  E(RHF) =  -440.337047293     A.U. after   12 cycles
 Normal termination of Gaussian 16 at Tue Apr  8 23:58:56 2025.
 Gaussian 16:  ES64L-G16RevC.01  3-Jul-2019

 ----------------------------------------------------------------------
 #t hf aug-cc-pvdz iop(5/13=1,5/36=2,99/5=2) pseudo=read geom=check gue
 ss=(read,tcheck) scf=(maxcycle=1)
 ----------------------------------------------------------------------
 -----
 title
 -----
 Structure from the checkpoint file:  "BDE49_nonexpt_2111_mol1.chk"
 Charge =  0 Multiplicity = 1

                         Standard orientation:
 ---------------------------------------------------------------------
 Center     Atomic      Atomic             Coordinates (Angstroms)
 Number     Number       Type             X           Y           Z
 ---------------------------------------------------------------------
      1          7           0        0.374808   -0.002791   -0.102468
      2          7           0        0.855388    1.328276    0.016129
      3         14           0       -1.345630   -0.094361    0.007896
      4          6           0        1.350429   -1.068408    0.020204
      5          1           0        2.116828   -0.991437   -0.763419
      6          1           0        0.856672   -2.036581   -0.088004
      7          1           0        1.862704   -1.054247    0.995188
      8          1           0        1.486777    1.535634   -0.755610
      9          1           0        1.376413    1.439651    0.886094
     10          1           0       -1.989626    0.705908   -1.058157
     11          1           0       -1.883632    0.379657    1.310628
     12          1           0       -1.701263   -1.525481   -0.154113
 ---------------------------------------------------------------------

 SCF Done:  E(RHF) =  -440.414332645     A.U. after    2 cycles

 The electronic state is 1-A.
 Alpha  occ. eigenvalues --  -69.06934 -15.64700 -15.62376 -11.26730  -6.81922
 Alpha  occ. eigenvalues --   -3.92810  -3.92713  -3.92644  -1.23091  -1.02999
 Alpha  occ. eigenvalues --   -0.88355  -0.69971  -0.68141  -0.63903  -0.59548
 Alpha  occ. eigenvalues --   -0.57841  -0.51322  -0.47665  -0.47112  -0.40943
 Alpha  occ. eigenvalues --   -0.35775
 Alpha virt. eigenvalues --    0.03104   0.04538   0.04606   0.04855   0.07429
 Alpha virt. eigenvalues --    0.07795   0.08029   0.08136   0.08470   0.10890
 Alpha virt. eigenvalues --    0.11013   0.12969   0.14688   0.15810   0.16369

 Mulliken charges:
               1
     1  N   -0.463144
     2  N   -0.275126
     3  Si   0.236286
     4  C    0.795089
     5  H   -0.142394
     6  H   -0.244524
     7  H   -0.100341
     8  H    0.064605
     9  H    0.063127
    10  H    0.044092
    11  H    0.015962
    12  H    0.006368
 Sum of Mulliken charges =  -0.00000

 Dipole moment (field-independent basis, Debye):
    X=              2.1072    Y=             -0.5518    Z=              0.2032  Tot=              2.1877

 Test job not archived.
 1\1\GINC-SE097\SP\RHF\Aug-CC-pVDZ\C1H8N2Si1\OHZDE\08-Apr-2025\0\\#t hf
  aug-cc-pvdz iop(5/13=1,5/36=2,99/5=2) pseudo=read geom=check guess=(r
 ead,tcheck) scf=(maxcycle=1)\\title\\0,1\N,0,0.374808,-0.002791,-0.102
 468\N,0,0.855388,1.328276,0.016129\Si,0,-1.34563,-0.094361,0.007896\C,
 0,1.350429,-1.068408,0.020204\H,0,2.116828,-0.991437,-0.763419\H,0,0.8
 56672,-2.036581,-0.088004\H,0,1.862704,-1.054247,0.995188\H,0,1.486777
 ,1.535634,-0.75561\H,0,1.376413,1.439651,0.886094\H,0,-1.989626,0.7059
 08,-1.058157\H,0,-1.883632,0.379657,1.310628\H,0,-1.701263,-1.525481,-

 Normal termination of Gaussian 16 at Tue Apr  8 23:58:59 2025.
