 Gaussian 16, Revision C.01,

 ----------------------------------------------------------------------
 #t hf aug-cc-pvdz symm=none int=(grid=ultrafine) guess=(read,tcheck) s
 table=(opt,rrhf)
 ----------------------------------------------------------------------
 -----
 title
 -----
 Symbolic Z-matrix:
 Charge =  0 Multiplicity = 1

 SCF Done:  E(RHF) =  -309.105054408     A.U. after   14 cycles

 1\1\GINC-SE457\Stability\RHF\Aug-CC-pVDZ\C6H12O1\OHZDE\08-Apr-2025\0\\
 #t hf aug-cc-pvdz symm=none int=(grid=ultrafine) guess=(read,tcheck) s
 table=(opt,rrhf)\\title\\0,1\C,0,0.759771,0.972687,-0.219608\C,0,2.102
 654,0.279087,-0.464563\C,0,2.588895,-0.546465,0.730704\H,0,2.849461,1.
 040192,-0.713089\H,0,2.004356,-0.369492,-1.339081\H,0,2.704862,0.07773
 6,1.62306\H,0,3.558477,-1.005689,0.520828\H,0,1.885957,-1.349052,0.963
 955\C,0,-0.441893,0.032427,-0.189241\H,0,0.555164,1.700162,-1.017324\H
 ,0,0.778157,1.559345,0.707455\O,0,-0.375396,-1.106408,-0.595741\C,0,-1

 Normal termination of Gaussian 16 at Tue Apr  8 22:32:02 2025.
 Gaussian 16:  ES64L-G16RevC.01  3-Jul-2019

 ----------------------------------------------------------------------
 #t hf aug-cc-pvdz iop(5/13=1,5/36=2,99/5=2) pseudo=read geom=check gue
 ss=(read,tcheck) scf=(maxcycle=1)
 ----------------------------------------------------------------------
 -----
 title
 -----
 Structure from the checkpoint file:  "BDE49_expt_1089_mol1.chk"
 Charge =  0 Multiplicity = 1

                         Standard orientation:
 ---------------------------------------------------------------------
 Center     Atomic      Atomic             Coordinates (Angstroms)
 Number     Number       Type             X           Y           Z
 ---------------------------------------------------------------------
      1          6           0        0.759771    0.972687   -0.219608
      2          6           0        2.102654    0.279087   -0.464563
      3          6           0        2.588895   -0.546465    0.730704
      4          1           0        2.849461    1.040192   -0.713089
      5          1           0        2.004356   -0.369492   -1.339081
      6          1           0        2.704862    0.077736    1.623060
      7          1           0        3.558477   -1.005689    0.520828
      8          1           0        1.885957   -1.349052    0.963955
      9          6           0       -0.441893    0.032427   -0.189241
     10          1           0        0.555164    1.700162   -1.017324
     11          1           0        0.778157    1.559345    0.707455
     12          8           0       -0.375396   -1.106408   -0.595741
     13          6           0       -1.737909    0.611669    0.365136
     14          6           0       -2.953237   -0.289885    0.166191
     15          1           0       -1.894130    1.600818   -0.082708
     16          1           0       -1.567236    0.806407    1.432584
     17          1           0       -3.151641   -0.450707   -0.895673
     18          1           0       -3.843236    0.154305    0.618175
     19          1           0       -2.786708   -1.269876    0.616035
 ---------------------------------------------------------------------

 SCF Done:  E(RHF) =  -309.203158316     A.U. after    2 cycles

 The electronic state is 1-A.
 Alpha  occ. eigenvalues --  -20.55795 -11.33785 -11.24818 -11.24556 -11.23177
 Alpha  occ. eigenvalues --  -11.22732 -11.22017  -1.35070  -1.06770  -1.04043
 Alpha  occ. eigenvalues --   -0.95851  -0.88068  -0.81201  -0.73056  -0.67708
 Alpha  occ. eigenvalues --   -0.64707  -0.62762  -0.60619  -0.59192  -0.56100
 Alpha  occ. eigenvalues --   -0.53599  -0.52506  -0.51612  -0.49502  -0.48873
 Alpha  occ. eigenvalues --   -0.48158  -0.47920  -0.41426
 Alpha virt. eigenvalues --    0.03159   0.03949   0.04407   0.04792   0.05945
 Alpha virt. eigenvalues --    0.06087   0.06409   0.06998   0.07722   0.08639
 Alpha virt. eigenvalues --    0.09038   0.09397   0.12312   0.12903   0.13824

 Mulliken charges:
               1
     1  C    0.179175
     2  C    0.369437
     3  C    0.377451
     4  H   -0.066609
     5  H   -0.087624
     6  H   -0.072207
     7  H   -0.086122
     8  H   -0.092987
     9  C   -0.357304
    10  H    0.000707
    11  H   -0.103880
    12  O   -0.532833
    13  C    0.125875
    14  C    0.531367
    15  H   -0.039881
    16  H    0.009818
    17  H   -0.061041
    18  H   -0.035865
    19  H   -0.057479
 Sum of Mulliken charges =   0.00000

 Dipole moment (field-independent basis, Debye):
    X=             -0.1724    Y=              2.9875    Z=              0.9978  Tot=              3.1544

 Test job not archived.
 1\1\GINC-SE457\SP\RHF\Aug-CC-pVDZ\C6H12O1\OHZDE\08-Apr-2025\0\\#t hf a
 ug-cc-pvdz iop(5/13=1,5/36=2,99/5=2) pseudo=read geom=check guess=(rea
 d,tcheck) scf=(maxcycle=1)\\title\\0,1\C,0,0.759771,0.972687,-0.219608
 \C,0,2.102654,0.279087,-0.464563\C,0,2.588895,-0.546465,0.730704\H,0,2
 .849461,1.040192,-0.713089\H,0,2.004356,-0.369492,-1.339081\H,0,2.7048
 62,0.077736,1.62306\H,0,3.558477,-1.005689,0.520828\H,0,1.885957,-1.34
 9052,0.963955\C,0,-0.441893,0.032427,-0.189241\H,0,0.555164,1.700162,-
 1.017324\H,0,0.778157,1.559345,0.707455\O,0,-0.375396,-1.106408,-0.595

 Normal termination of Gaussian 16 at Tue Apr  8 22:32:09 2025.
