 Gaussian 16, Revision C.01,

 ----------------------------------------------------------------------
 #t hf aug-cc-pvdz symm=none int=(grid=ultrafine) guess=(read,tcheck) s
 table=opt
 ----------------------------------------------------------------------
 -----
 title
 -----
 Symbolic Z-matrix:
 Charge =  0 Multiplicity = 2

 SCF Done:  E(UHF) =  -1396.22124352     A.U. after   20 cycles
 Normal termination of Gaussian 16 at Tue Apr  8 23:44:23 2025.
 Gaussian 16:  ES64L-G16RevC.01  3-Jul-2019

 ----------------------------------------------------------------------
 #t hf aug-cc-pvdz iop(5/13=1,5/36=2,99/5=2) pseudo=read geom=check gue
 ss=(read,tcheck) scf=(maxcycle=1)
 ----------------------------------------------------------------------
 -----
 title
 -----
 Structure from the checkpoint file:  "BDE49_nonexpt_1765_mol2.chk"
 Charge =  0 Multiplicity = 2

                         Standard orientation:
 ---------------------------------------------------------------------
 Center     Atomic      Atomic             Coordinates (Angstroms)
 Number     Number       Type             X           Y           Z
 ---------------------------------------------------------------------
      1          6           0       -1.512251   -0.403976    0.019648
      2          8           0       -1.911999   -1.530326    0.026688
      3         14           0        0.315198   -0.021380    0.607258
      4          8           0       -2.297727    0.644086   -0.299843
      5         17           0        0.781069    1.898566   -0.106967
      6         17           0        1.578533   -1.407129   -0.252193
      7          1           0       -1.774682    1.458658   -0.328541
 ---------------------------------------------------------------------

 SCF Done:  E(UHF) =  -1396.33986783     A.U. after    2 cycles

 The electronic state is 2-A.
 Alpha  occ. eigenvalues -- -103.69823-103.69152 -69.20617 -20.65150 -20.59739
 Alpha  occ. eigenvalues --  -11.42187 -10.73214 -10.72560  -8.38989  -8.38686
 Alpha  occ. eigenvalues --   -8.38643  -8.38359  -8.38027  -8.37964  -6.95035
 Alpha  occ. eigenvalues --   -4.06085  -4.05457  -4.05317  -1.44666  -1.36461
 Alpha  occ. eigenvalues --   -1.18996  -1.16856  -0.88252  -0.81612  -0.70694
 Alpha  occ. eigenvalues --   -0.69107  -0.66847  -0.61596  -0.58974  -0.55471
 Alpha  occ. eigenvalues --   -0.53929  -0.53252  -0.51664  -0.50093  -0.47431
 Alpha  occ. eigenvalues --   -0.38952
 Alpha virt. eigenvalues --    0.03524   0.04239   0.04894   0.05561   0.07568
 Alpha virt. eigenvalues --    0.08331   0.10589   0.11137   0.11792   0.12028
 Alpha virt. eigenvalues --    0.12642   0.14740   0.15248   0.16061   0.16430

  Beta  occ. eigenvalues -- -103.69718-103.69038 -69.20015 -20.65098 -20.59557
  Beta  occ. eigenvalues --  -11.41935 -10.73101 -10.72437  -8.38752  -8.38589
  Beta  occ. eigenvalues --   -8.38450  -8.38096  -8.37906  -8.37771  -6.94044
  Beta  occ. eigenvalues --   -4.05058  -4.04962  -4.04064  -1.44357  -1.36092
  Beta  occ. eigenvalues --   -1.18063  -1.15974  -0.87589  -0.79843  -0.70186
  Beta  occ. eigenvalues --   -0.66702  -0.66689  -0.60754  -0.57691  -0.53764
  Beta  occ. eigenvalues --   -0.53121  -0.52389  -0.50541  -0.49887  -0.45518
  Beta virt. eigenvalues --   -0.01678   0.03913   0.04867   0.05454   0.05812
  Beta virt. eigenvalues --    0.08441   0.09462   0.11181   0.11861   0.12198
  Beta virt. eigenvalues --    0.12812   0.13209   0.15351   0.16117   0.16542

 Mulliken charges and spin densities:
               1          2
     1  C    0.394694   0.050266
     2  O   -0.395838   0.036990
     3  Si   1.140987   0.816362
     4  O   -0.442882   0.010886
     5  Cl  -0.477745   0.038802
     6  Cl  -0.416905   0.045689
     7  H    0.197690   0.001005
 Sum of Mulliken charges =  -0.00000   1.00000

 Dipole moment (field-independent basis, Debye):
    X=              1.8053    Y=              2.6958    Z=              1.2357  Tot=              3.4718
                          Isotropic Fermi Contact Couplings
        Atom                 a.u.       MegaHertz       Gauss      10(-4) cm-1
     1  C(13)              0.07201      80.95756      28.88767      27.00453
     2  O(17)              0.01418      -8.59708      -3.06765      -2.86768
     3  Si(29)             0.89177    -792.54144    -282.79850    -264.36337
     4  O(17)              0.00312      -1.89385      -0.67577      -0.63172
     5  Cl(35)             0.06010      26.34966       9.40221       8.78930
     6  Cl(35)             0.05961      26.13571       9.32587       8.71793
     7  H(1)               0.00002       0.10421       0.03719       0.03476
 --------------------------------------------------------

 Normal termination of Gaussian 16 at Tue Apr  8 23:44:27 2025.
