 Gaussian 16, Revision C.01,

 ----------------------------------------------------------------------
 #t hf aug-cc-pvdz symm=none int=(grid=ultrafine) guess=(read,tcheck) s
 table=(opt,rrhf)
 ----------------------------------------------------------------------
 -----
 title
 -----
 Symbolic Z-matrix:
 Charge =  0 Multiplicity = 1

 SCF Done:  E(RHF) =  -560.216326894     A.U. after   12 cycles
 Normal termination of Gaussian 16 at Wed Apr  9 00:04:16 2025.
 Gaussian 16:  ES64L-G16RevC.01  3-Jul-2019

 ----------------------------------------------------------------------
 #t hf aug-cc-pvdz iop(5/13=1,5/36=2,99/5=2) pseudo=read geom=check gue
 ss=(read,tcheck) scf=(maxcycle=1)
 ----------------------------------------------------------------------
 -----
 title
 -----
 Structure from the checkpoint file:  "BDE49_nonexpt_2221_mol1.chk"
 Charge =  0 Multiplicity = 1

                         Standard orientation:
 ---------------------------------------------------------------------
 Center     Atomic      Atomic             Coordinates (Angstroms)
 Number     Number       Type             X           Y           Z
 ---------------------------------------------------------------------
      1          6           0       -0.018007    1.498207   -0.506255
      2          6           0        1.237390    1.292038    0.373803
      3         14           0       -1.162762    0.008269   -0.429972
      4          1           0        0.284644    1.631589   -1.554190
      5          1           0       -0.537561    2.421763   -0.225080
      6          6           0        2.002675   -0.008175    0.066296
      7          1           0        0.944076    1.285917    1.430691
      8          1           0        1.916822    2.143126    0.252126
      9          6           0       -0.038650   -1.485366   -0.518149
     10          6           0        1.217087   -1.298043    0.366013
     11          1           0        2.929085   -0.016854    0.650567
     12          1           0        2.307701   -0.006741   -0.989107
     13          1           0        0.265988   -1.622440   -1.564274
     14          1           0       -0.580511   -2.392636   -0.232506
     15          1           0        0.919384   -1.294440    1.421166
     16          1           0        1.884344   -2.158116    0.240965
     17          8           0       -1.967641   -0.095140    1.022971
     18          1           0       -2.573042    0.609342    1.263315
     19          1           0       -2.144105    0.052874   -1.548084
 ---------------------------------------------------------------------

 SCF Done:  E(RHF) =  -560.332387960     A.U. after    2 cycles

 The electronic state is 1-A.
 Alpha  occ. eigenvalues --  -69.06975 -20.56059 -11.23096 -11.22900 -11.22613
 Alpha  occ. eigenvalues --  -11.21163 -11.20866  -6.81895  -3.92810  -3.92670
 Alpha  occ. eigenvalues --   -3.92649  -1.28907  -1.07179  -0.99090  -0.92390
 Alpha  occ. eigenvalues --   -0.82276  -0.77432  -0.73205  -0.64114  -0.62253
 Alpha  occ. eigenvalues --   -0.60162  -0.59351  -0.56003  -0.53946  -0.53495
 Alpha  occ. eigenvalues --   -0.51985  -0.49569  -0.47896  -0.47387  -0.45927
 Alpha  occ. eigenvalues --   -0.41931  -0.39347
 Alpha virt. eigenvalues --    0.03026   0.04217   0.04576   0.04718   0.06102
 Alpha virt. eigenvalues --    0.06336   0.06565   0.06852   0.07071   0.08846
 Alpha virt. eigenvalues --    0.08921   0.09174   0.09514   0.10671   0.11755

 Mulliken charges:
               1
     1  C    0.233260
     2  C    0.085883
     3  Si   1.129448
     4  H   -0.178693
     5  H   -0.199248
     6  C    0.278788
     7  H   -0.118345
     8  H   -0.107544
     9  C    0.237216
    10  C    0.122080
    11  H   -0.099624
    12  H   -0.110391
    13  H   -0.143605
    14  H   -0.195543
    15  H   -0.105946
    16  H   -0.113469
    17  O   -0.843067
    18  H    0.121240
    19  H    0.007561
 Sum of Mulliken charges =  -0.00000

 Dipole moment (field-independent basis, Debye):
    X=              0.1374    Y=              1.1762    Z=             -0.3178  Tot=              1.2261

 Test job not archived.
 1\1\GINC-SE402\SP\RHF\Aug-CC-pVDZ\C5H12O1Si1\OHZDE\09-Apr-2025\0\\#t h
 f aug-cc-pvdz iop(5/13=1,5/36=2,99/5=2) pseudo=read geom=check guess=(
 read,tcheck) scf=(maxcycle=1)\\title\\0,1\C,0,-0.018007,1.498207,-0.50
 6255\C,0,1.23739,1.292038,0.373803\Si,0,-1.162762,0.008269,-0.429972\H
 ,0,0.284644,1.631589,-1.55419\H,0,-0.537561,2.421763,-0.22508\C,0,2.00
 2675,-0.008175,0.066296\H,0,0.944076,1.285917,1.430691\H,0,1.916822,2.
 143126,0.252126\C,0,-0.03865,-1.485366,-0.518149\C,0,1.217087,-1.29804
 3,0.366013\H,0,2.929085,-0.016854,0.650567\H,0,2.307701,-0.006741,-0.9

 Normal termination of Gaussian 16 at Wed Apr  9 00:04:25 2025.
