 Gaussian 16, Revision C.01,

 ----------------------------------------------------------------------
 #t hf aug-cc-pvdz symm=none int=(grid=ultrafine) guess=(read,tcheck) s
 table=opt
 ----------------------------------------------------------------------
 -----
 title
 -----
 Symbolic Z-matrix:
 Charge =  0 Multiplicity = 2

 SCF Done:  E(UHF) =  -887.358941325     A.U. after   25 cycles
 Normal termination of Gaussian 16 at Wed Apr  9 00:16:05 2025.
 Gaussian 16:  ES64L-G16RevC.01  3-Jul-2019

 ----------------------------------------------------------------------
 #t hf aug-cc-pvdz iop(5/13=1,5/36=2,99/5=2) pseudo=read geom=check gue
 ss=(read,tcheck) scf=(maxcycle=1)
 ----------------------------------------------------------------------
 -----
 title
 -----
 Structure from the checkpoint file:  "BDE49_nonexpt_2563_mol2.chk"
 Charge =  0 Multiplicity = 2

                         Standard orientation:
 ---------------------------------------------------------------------
 Center     Atomic      Atomic             Coordinates (Angstroms)
 Number     Number       Type             X           Y           Z
 ---------------------------------------------------------------------
      1         16           0        1.536459   -0.504812    0.000000
      2          6           0       -1.403230   -0.093111    0.000000
      3          7           0       -2.419347   -0.648972    0.000001
      4         16           0        0.048216    0.823654   -0.000001
 ---------------------------------------------------------------------

 SCF Done:  E(UHF) =  -887.427451129     A.U. after    2 cycles

 The electronic state is 2-A.
 Alpha  occ. eigenvalues --  -93.65510 -93.61771 -15.67843 -11.32618  -8.94955
 Alpha  occ. eigenvalues --   -8.91449  -6.29054  -6.28751  -6.28684  -6.26519
 Alpha  occ. eigenvalues --   -6.25135  -6.24586  -1.22584  -1.12340  -0.93960
 Alpha  occ. eigenvalues --   -0.68724  -0.57934  -0.57914  -0.56895  -0.50890
 Alpha  occ. eigenvalues --   -0.48077  -0.43110  -0.40232
 Alpha virt. eigenvalues --    0.03848   0.05598   0.08389   0.09891   0.10058
 Alpha virt. eigenvalues --    0.10941   0.12029   0.12408   0.12988   0.13381
 Alpha virt. eigenvalues --    0.15164   0.16266   0.17766   0.19442   0.22399

  Beta  occ. eigenvalues --  -93.65335 -93.60924 -15.67259 -11.33092  -8.94756
  Beta  occ. eigenvalues --   -8.90508  -6.28934  -6.28650  -6.27971  -6.24675
  Beta  occ. eigenvalues --   -6.24062  -6.22792  -1.21872  -1.09749  -0.87923
  Beta  occ. eigenvalues --   -0.67368  -0.56861  -0.56114  -0.54429  -0.47039
  Beta  occ. eigenvalues --   -0.42683  -0.41149
  Beta virt. eigenvalues --   -0.02774   0.04674   0.05655   0.08416   0.10335
  Beta virt. eigenvalues --    0.10658   0.10982   0.12502   0.12538   0.13527
  Beta virt. eigenvalues --    0.13930   0.15298   0.16912   0.17834   0.19681

 Mulliken charges and spin densities:
               1          2
     1  S    0.084398   0.928110
     2  C   -0.288103  -0.217177
     3  N   -0.162220   0.188736
     4  S    0.365926   0.100331
 Sum of Mulliken charges =  -0.00000   1.00000

 Dipole moment (field-independent basis, Debye):
    X=              2.6402    Y=              1.1464    Z=             -0.0000  Tot=              2.8783
                          Isotropic Fermi Contact Couplings
        Atom                 a.u.       MegaHertz       Gauss      10(-4) cm-1
     1  S(33)              0.19419      66.69964      23.80009      22.24860
     2  C(13)             -0.05180     -58.22825     -20.77729     -19.42285
     3  N(14)              0.04230      13.66590       4.87633       4.55845
     4  S(33)              0.08043      27.62464       9.85716       9.21459
 --------------------------------------------------------
       Center         ----  Spin Dipole Couplings  ----
                      3XX-RR        3YY-RR        3ZZ-RR
 --------------------------------------------------------

 Normal termination of Gaussian 16 at Wed Apr  9 00:16:06 2025.
