 Gaussian 16, Revision C.01,

 ----------------------------------------------------------------------
 #t hf aug-cc-pvdz symm=none int=(grid=ultrafine) guess=(read,tcheck) s
 table=(opt,rrhf)
 ----------------------------------------------------------------------
 -----
 title
 -----
 Symbolic Z-matrix:
 Charge =  0 Multiplicity = 1

 SCF Done:  E(RHF) =  -1215.82327233     A.U. after   20 cycles
 Normal termination of Gaussian 16 at Tue Apr  8 22:53:51 2025.
 Gaussian 16:  ES64L-G16RevC.01  3-Jul-2019

 ----------------------------------------------------------------------
 #t hf aug-cc-pvdz iop(5/13=1,5/36=2,99/5=2) pseudo=read geom=check gue
 ss=(read,tcheck) scf=(maxcycle=1)
 ----------------------------------------------------------------------
 -----
 title
 -----
 Structure from the checkpoint file:  "BDE49_expt_1825_mol1.chk"
 Charge =  0 Multiplicity = 1

                         Standard orientation:
 ---------------------------------------------------------------------
 Center     Atomic      Atomic             Coordinates (Angstroms)
 Number     Number       Type             X           Y           Z
 ---------------------------------------------------------------------
      1          7           0       -2.458404   -0.699309    0.773779
      2          8           0       -1.800531   -0.428793    1.690451
      3         16           0       -1.527086   -0.815935   -0.947204
      4          6           0        0.134605   -0.526510   -0.439582
      5          6           0        1.007579   -1.619662   -0.310709
      6          6           0        2.323737   -1.446462    0.095573
      7          6           0        2.791545   -0.168842    0.398385
      8          6           0        1.944477    0.928993    0.293049
      9          6           0        0.626909    0.751573   -0.120961
     10          1           0        3.816137   -0.022325    0.719526
     11          1           0        2.295305    1.925242    0.528691
     12          1           0        0.630830   -2.608449   -0.541288
     13          1           0        2.979592   -2.304577    0.180831
     14         17           0       -0.391090    2.169178   -0.245122
 ---------------------------------------------------------------------

 SCF Done:  E(RHF) =  -1215.96674727     A.U. after    2 cycles

 The electronic state is 1-A.
 Alpha  occ. eigenvalues -- -103.67470 -93.56804 -20.69903 -15.83839 -11.33413
 Alpha  occ. eigenvalues --  -11.29950 -11.27735 -11.27664 -11.27177 -11.26726
 Alpha  occ. eigenvalues --  -10.70753  -8.86372  -8.36488  -8.36177  -8.36163
 Alpha  occ. eigenvalues --   -6.20497  -6.20253  -6.19938  -1.54936  -1.21333
 Alpha  occ. eigenvalues --   -1.14828  -1.07059  -1.02212  -0.98672  -0.90145
 Alpha  occ. eigenvalues --   -0.85154  -0.82067  -0.73381  -0.71871  -0.69617
 Alpha  occ. eigenvalues --   -0.67828  -0.66274  -0.64646  -0.61195  -0.57627
 Alpha  occ. eigenvalues --   -0.56183  -0.53271  -0.50187  -0.48942  -0.47517
 Alpha  occ. eigenvalues --   -0.41165  -0.38190  -0.35803  -0.34615
 Alpha virt. eigenvalues --    0.02998   0.03939   0.04937   0.05110   0.06187
 Alpha virt. eigenvalues --    0.06852   0.07792   0.08178   0.09307   0.09583
 Alpha virt. eigenvalues --    0.10653   0.11821   0.12679   0.12912   0.13414

 Mulliken charges:
               1
     1  N   -0.045038
     2  O   -0.298588
     3  S    0.438253
     4  C    0.851259
     5  C    0.138399
     6  C    0.321887
     7  C    0.515580
     8  C    0.671184
     9  C   -0.466846
    10  H   -0.418475
    11  H   -0.424831
    12  H   -0.473127
    13  H   -0.428091
    14  Cl  -0.381565
 Sum of Mulliken charges =   0.00000

 Dipole moment (field-independent basis, Debye):
    X=              2.7758    Y=             -1.2588    Z=              0.0734  Tot=              3.0488

 Test job not archived.
 1\1\GINC-SE016\SP\RHF\Aug-CC-pVDZ\C6H4Cl1N1O1S1\OHZDE\08-Apr-2025\0\\#
 t hf aug-cc-pvdz iop(5/13=1,5/36=2,99/5=2) pseudo=read geom=check gues
 s=(read,tcheck) scf=(maxcycle=1)\\title\\0,1\N,0,-2.458404,-0.699309,0
 .773779\O,0,-1.800531,-0.428793,1.690451\S,0,-1.527086,-0.815935,-0.94
 7204\C,0,0.134605,-0.52651,-0.439582\C,0,1.007579,-1.619662,-0.310709\
 C,0,2.323737,-1.446462,0.095573\C,0,2.791545,-0.168842,0.398385\C,0,1.
 944477,0.928993,0.293049\C,0,0.626909,0.751573,-0.120961\H,0,3.816137,
 -0.022325,0.719526\H,0,2.295305,1.925242,0.528691\H,0,0.63083,-2.60844

 Normal termination of Gaussian 16 at Tue Apr  8 22:53:59 2025.
