 Gaussian 16, Revision C.01,

 ----------------------------------------------------------------------
 #t hf aug-cc-pvdz symm=none int=(grid=ultrafine) guess=(read,tcheck) s
 table=opt
 ----------------------------------------------------------------------
 -----
 title
 -----
 Symbolic Z-matrix:
 Charge =  0 Multiplicity = 2

 SCF Done:  E(UHF) =  -231.567187169     A.U. after   17 cycles
 Normal termination of Gaussian 16 at Tue Apr  8 22:40:47 2025.
 Gaussian 16:  ES64L-G16RevC.01  3-Jul-2019

 ----------------------------------------------------------------------
 #t hf aug-cc-pvdz iop(5/13=1,5/36=2,99/5=2) pseudo=read geom=check gue
 ss=(read,tcheck) scf=(maxcycle=1)
 ----------------------------------------------------------------------
 -----
 title
 -----
 Structure from the checkpoint file:  "BDE49_expt_1386_mol2.chk"
 Charge =  0 Multiplicity = 2

                         Standard orientation:
 ---------------------------------------------------------------------
 Center     Atomic      Atomic             Coordinates (Angstroms)
 Number     Number       Type             X           Y           Z
 ---------------------------------------------------------------------
      1          6           0        0.000001   -0.026699    0.079757
      2          8           0       -0.000006    0.261214    1.428260
      3          6           0       -1.277142   -0.792358   -0.315075
      4          6           0        1.277180   -0.792299   -0.315075
      5          1           0        1.314641   -0.972117   -1.393213
      6          1           0        1.304467   -1.759028    0.193824
      7          1           0        2.161500   -0.224894   -0.018594
      8          6           0       -0.000033    1.389116   -0.577528
      9          1           0       -0.000030    1.262858   -1.663066
     10          1           0        0.888704    1.946603   -0.279758
     11          1           0       -0.888795    1.946562   -0.279758
     12          1           0       -1.304384   -1.759090    0.193824
     13          1           0       -1.314595   -0.972178   -1.393212
     14          1           0       -2.161491   -0.224995   -0.018594
 ---------------------------------------------------------------------

 SCF Done:  E(UHF) =  -231.641268749     A.U. after    2 cycles

 The electronic state is 2-A.
 Alpha  occ. eigenvalues --  -20.62369 -11.29972 -11.23956 -11.23011 -11.23003
 Alpha  occ. eigenvalues --   -1.36838  -1.05260  -0.94705  -0.94198  -0.76871
 Alpha  occ. eigenvalues --   -0.69982  -0.64984  -0.64714  -0.58903  -0.57348
 Alpha  occ. eigenvalues --   -0.54652  -0.54226  -0.52871  -0.52692  -0.46292
 Alpha  occ. eigenvalues --   -0.45496
 Alpha virt. eigenvalues --    0.03457   0.04745   0.04761   0.05479   0.06883
 Alpha virt. eigenvalues --    0.06901   0.07494   0.07542   0.09525   0.10286
 Alpha virt. eigenvalues --    0.14511   0.14546   0.15108   0.15553   0.15743

  Beta  occ. eigenvalues --  -20.58336 -11.30258 -11.23661 -11.22949 -11.22941
  Beta  occ. eigenvalues --   -1.24669  -1.02311  -0.94056  -0.93692  -0.74705
  Beta  occ. eigenvalues --   -0.63666  -0.63351  -0.60862  -0.56542  -0.55454
  Beta  occ. eigenvalues --   -0.52905  -0.52668  -0.51770  -0.48154  -0.43502
  Beta virt. eigenvalues --    0.03467   0.04459   0.04768   0.05491   0.06887
  Beta virt. eigenvalues --    0.06897   0.07456   0.07542   0.08975   0.09527
  Beta virt. eigenvalues --    0.10412   0.14576   0.15141   0.15314   0.15632

 Mulliken charges and spin densities:
               1          2
     1  C   -1.989602  -0.252231
     2  O   -0.450732   1.070036
     3  C    0.810062   0.022448
     4  C    0.810063   0.022448
     5  H    0.039220  -0.001938
     6  H   -0.012175   0.004174
     7  H   -0.011084  -0.004395
     8  C    0.793012   0.130780
     9  H    0.053836   0.006851
    10  H   -0.029281   0.001993
    11  H   -0.029282   0.001993
    12  H   -0.012173   0.004174
    13  H    0.039217  -0.001938
    14  H   -0.011082  -0.004395
 Sum of Mulliken charges =  -0.00000   1.00000

 Dipole moment (field-independent basis, Debye):
    X=              0.0000    Y=             -0.2833    Z=             -2.0109  Tot=              2.0307
                          Isotropic Fermi Contact Couplings
        Atom                 a.u.       MegaHertz       Gauss      10(-4) cm-1
     1  C(13)             -0.05255     -59.08060     -21.08143     -19.70717
     2  O(17)              0.28825    -174.73496     -62.34978     -58.28531
     3  C(13)              0.01139      12.80969       4.57082       4.27285
     4  C(13)              0.01139      12.80964       4.57080       4.27284
     5  H(1)              -0.00041      -1.82399      -0.65085      -0.60842
     6  H(1)              -0.00087      -3.88938      -1.38783      -1.29736
     7  H(1)              -0.00057      -2.53300      -0.90384      -0.84492
     8  C(13)              0.06218      69.89709      24.94102      23.31516

 Normal termination of Gaussian 16 at Tue Apr  8 22:40:51 2025.
