 Gaussian 16, Revision C.01,

 ----------------------------------------------------------------------
 #t hf aug-cc-pvdz symm=none int=(grid=ultrafine) guess=(read,tcheck) s
 table=(opt,rrhf)
 ----------------------------------------------------------------------
 -----
 title
 -----
 Symbolic Z-matrix:
 Charge =  0 Multiplicity = 1

 SCF Done:  E(RHF) =  -691.037689481     A.U. after   15 cycles
 Normal termination of Gaussian 16 at Tue Apr  8 23:16:15 2025.
 Gaussian 16:  ES64L-G16RevC.01  3-Jul-2019

 ----------------------------------------------------------------------
 #t hf aug-cc-pvdz iop(5/13=1,5/36=2,99/5=2) pseudo=read geom=check gue
 ss=(read,tcheck) scf=(maxcycle=1)
 ----------------------------------------------------------------------
 -----
 title
 -----
 Structure from the checkpoint file:  "BDE49_nonexpt_1037_mol1.chk"
 Charge =  0 Multiplicity = 1

                         Standard orientation:
 ---------------------------------------------------------------------
 Center     Atomic      Atomic             Coordinates (Angstroms)
 Number     Number       Type             X           Y           Z
 ---------------------------------------------------------------------
      1         17           0        2.038022   -0.582171    0.086463
      2          8           0        0.421659   -0.399551   -0.527228
      3          6           0       -0.374794    0.515742    0.265008
      4          6           0       -1.808237    0.223623   -0.190602
      5          6           0        0.049771    1.959810    0.039194
      6          1           0       -0.073839    2.234027   -1.011523
      7          1           0        1.095883    2.106631    0.314393
      8          1           0       -0.557399    2.633195    0.650271
      9          1           0       -0.263605    0.243279    1.321081
     10          6           0       -2.302791   -1.179103    0.168776
     11          1           0       -1.862318    0.381837   -1.273106
     12          1           0       -2.451176    0.982753    0.268179
     13          1           0       -1.665837   -1.942457   -0.280377
     14          1           0       -3.324281   -1.333592   -0.187344
     15          1           0       -2.300763   -1.332780    1.252126
 ---------------------------------------------------------------------

 SCF Done:  E(RHF) =  -691.130145281     A.U. after    2 cycles

 The electronic state is 1-A.
 Alpha  occ. eigenvalues -- -103.70335 -20.64288 -11.30854 -11.24314 -11.23479
 Alpha  occ. eigenvalues --  -11.22787 -10.73036  -8.38793  -8.38400  -8.38378
 Alpha  occ. eigenvalues --   -1.36022  -1.12069  -1.04081  -0.99068  -0.87328
 Alpha  occ. eigenvalues --   -0.80441  -0.69000  -0.65461  -0.63470  -0.59649
 Alpha  occ. eigenvalues --   -0.57833  -0.56740  -0.54201  -0.52484  -0.49886
 Alpha  occ. eigenvalues --   -0.49109  -0.47495  -0.46636  -0.44085
 Alpha virt. eigenvalues --    0.03467   0.04412   0.04705   0.05279   0.06126
 Alpha virt. eigenvalues --    0.06869   0.06940   0.07522   0.08371   0.09526
 Alpha virt. eigenvalues --    0.11729   0.11955   0.13276   0.14988   0.15847

 Mulliken charges:
               1
     1  Cl   0.193238
     2  O   -0.754826
     3  C    0.165175
     4  C    0.226155
     5  C    0.354830
     6  H    0.030224
     7  H   -0.064918
     8  H   -0.001260
     9  H   -0.217145
    10  C    0.407993
    11  H   -0.095284
    12  H   -0.074849
    13  H   -0.038639
    14  H   -0.053054
    15  H   -0.077640
 Sum of Mulliken charges =  -0.00000

 Dipole moment (field-independent basis, Debye):
    X=             -1.4035    Y=              1.3684    Z=              0.9959  Tot=              2.1987

 Test job not archived.
 1\1\GINC-SE029\SP\RHF\Aug-CC-pVDZ\C4H9Cl1O1\OHZDE\08-Apr-2025\0\\#t hf
  aug-cc-pvdz iop(5/13=1,5/36=2,99/5=2) pseudo=read geom=check guess=(r
 ead,tcheck) scf=(maxcycle=1)\\title\\0,1\Cl,0,2.038022,-0.582171,0.086
 463\O,0,0.421659,-0.399551,-0.527228\C,0,-0.374794,0.515742,0.265008\C
 ,0,-1.808237,0.223623,-0.190602\C,0,0.049771,1.95981,0.039194\H,0,-0.0
 73839,2.234027,-1.011523\H,0,1.095883,2.106631,0.314393\H,0,-0.557399,
 2.633195,0.650271\H,0,-0.263605,0.243279,1.321081\C,0,-2.302791,-1.179
 103,0.168776\H,0,-1.862318,0.381837,-1.273106\H,0,-2.451176,0.982753,0

 Normal termination of Gaussian 16 at Tue Apr  8 23:16:20 2025.
