 Gaussian 16, Revision C.01,

 ----------------------------------------------------------------------
 #t hf aug-cc-pvdz symm=none int=(grid=ultrafine) guess=(read,tcheck) s
 table=(opt,rrhf)
 ----------------------------------------------------------------------
 -----
 title
 -----
 Symbolic Z-matrix:
 Charge =  0 Multiplicity = 1

 SCF Done:  E(RHF) =  -724.610535639     A.U. after   14 cycles

 1\1\GINC-SE097\Stability\RHF\Aug-CC-pVDZ\C1F4Si1\OHZDE\08-Apr-2025\0\\
 #t hf aug-cc-pvdz symm=none int=(grid=ultrafine) guess=(read,tcheck) s
 table=(opt,rrhf)\\title\\0,1\Si,0,0.458089,-0.74125,0.\F,0,-0.13323,-1
 .509127,1.28058\C,0,-0.269491,0.996788,0.\F,0,-0.13323,-1.509127,-1.28
 058\F,0,-0.13323,1.753393,1.069537\F,0,-0.13323,1.753393,-1.069537\\Ve
 rsion=ES64L-G16RevC.01\HF=-724.6105356\RMSD=3.266e-09\Dipole=0.1465426
 ,0.3991194,0.\Quadrupole=1.841592,-0.3648501,-1.4767418,-1.8948098,0.,
 0.\PG=Unknown\\@

 Normal termination of Gaussian 16 at Tue Apr  8 23:54:49 2025.
 Gaussian 16:  ES64L-G16RevC.01  3-Jul-2019

 ----------------------------------------------------------------------
 #t hf aug-cc-pvdz iop(5/13=1,5/36=2,99/5=2) pseudo=read geom=check gue
 ss=(read,tcheck) scf=(maxcycle=1)
 ----------------------------------------------------------------------
 -----
 title
 -----
 Structure from the checkpoint file:  "BDE49_nonexpt_2000_mol1.chk"
 Charge =  0 Multiplicity = 1

                         Standard orientation:
 ---------------------------------------------------------------------
 Center     Atomic      Atomic             Coordinates (Angstroms)
 Number     Number       Type             X           Y           Z
 ---------------------------------------------------------------------
      1         14           0        0.458089   -0.741250   -0.000000
      2          9           0       -0.133230   -1.509127    1.280580
      3          6           0       -0.269491    0.996788    0.000000
      4          9           0       -0.133230   -1.509127   -1.280580
      5          9           0       -0.133230    1.753393    1.069537
      6          9           0       -0.133230    1.753393   -1.069537
 ---------------------------------------------------------------------

 SCF Done:  E(RHF) =  -724.805529348     A.U. after    2 cycles

 The electronic state is 1-A'.
 Alpha  occ. eigenvalues --  -69.18196 -26.21953 -26.21943 -26.13613 -26.13612
 Alpha  occ. eigenvalues --  -11.50580  -6.92326  -4.03065  -4.03023  -4.02769
 Alpha  occ. eigenvalues --   -1.79369  -1.74132  -1.66842  -1.65613  -1.04264
 Alpha  occ. eigenvalues --   -0.89919  -0.89533  -0.85543  -0.83948  -0.79125
 Alpha  occ. eigenvalues --   -0.78630  -0.77299  -0.75986  -0.75681  -0.73398
 Alpha  occ. eigenvalues --   -0.71949  -0.64814  -0.35113
 Alpha virt. eigenvalues --   -0.02230   0.05080   0.05605   0.06209   0.07615
 Alpha virt. eigenvalues --    0.11045   0.11514   0.11872   0.15797   0.16495
 Alpha virt. eigenvalues --    0.19457   0.22390   0.22924   0.24454   0.24773

 Mulliken charges:
               1
     1  Si   1.510481
     2  F   -0.700696
     3  C    0.388752
     4  F   -0.700696
     5  F   -0.248921
     6  F   -0.248921
 Sum of Mulliken charges =  -0.00000

 Dipole moment (field-independent basis, Debye):
    X=              0.6739    Y=              0.6783    Z=              0.0000  Tot=              0.9562

 Test job not archived.
 1\1\GINC-SE097\SP\RHF\Aug-CC-pVDZ\C1F4Si1\OHZDE\08-Apr-2025\0\\#t hf a
 ug-cc-pvdz iop(5/13=1,5/36=2,99/5=2) pseudo=read geom=check guess=(rea
 d,tcheck) scf=(maxcycle=1)\\title\\0,1\Si,0,0.458089,-0.74125,0.\F,0,-
 0.13323,-1.509127,1.28058\C,0,-0.269491,0.996788,0.\F,0,-0.13323,-1.50
 9127,-1.28058\F,0,-0.13323,1.753393,1.069537\F,0,-0.13323,1.753393,-1.
 069537\\Version=ES64L-G16RevC.01\State=1-A'\HF=-724.8055293\RMSD=5.449
 e-03\Dipole=0.2651515,0.2668719,0.\Quadrupole=2.4411874,-0.760362,-1.6
 808254,-2.1122881,0.,0.\PG=CS [SG(C1Si1),X(F4)]\\@

 Normal termination of Gaussian 16 at Tue Apr  8 23:54:51 2025.
