 Gaussian 16, Revision C.01,

 ----------------------------------------------------------------------
 #t hf aug-cc-pvdz symm=none int=(grid=ultrafine) guess=(read,tcheck) s
 table=(opt,rrhf)
 ----------------------------------------------------------------------
 -----
 title
 -----
 Symbolic Z-matrix:
 Charge =  0 Multiplicity = 1

 SCF Done:  E(RHF) =  -571.627300386     A.U. after   14 cycles

 1\1\GINC-SE252\Stability\RHF\Aug-CC-pVDZ\C7H12O4\OHZDE\08-Apr-2025\0\\
 #t hf aug-cc-pvdz symm=none int=(grid=ultrafine) guess=(read,tcheck) s
 table=(opt,rrhf)\\title\\0,1\C,0,1.113819,-1.160727,-0.254434\O,0,1.72
 1245,-1.657503,-1.165971\O,0,1.438497,0.011344,0.324586\C,0,2.588906,0
 .702127,-0.226351\C,0,-0.096239,-1.778367,0.427129\C,0,-1.276609,-0.82
 9306,0.549352\O,0,-1.869753,-0.596202,1.569919\O,0,-1.587834,-0.309963
 ,-0.654965\C,0,-2.698881,0.623601,-0.702308\C,0,2.796325,1.961485,0.58
 8742\H,0,2.392062,0.918492,-1.278851\H,0,3.451252,0.033509,-0.179283\H

 Normal termination of Gaussian 16 at Tue Apr  8 23:03:37 2025.
 Gaussian 16:  ES64L-G16RevC.01  3-Jul-2019

 ----------------------------------------------------------------------
 #t hf aug-cc-pvdz iop(5/13=1,5/36=2,99/5=2) pseudo=read geom=check gue
 ss=(read,tcheck) scf=(maxcycle=1)
 ----------------------------------------------------------------------
 -----
 title
 -----
 Structure from the checkpoint file:  "BDE49_expt_273_mol1.chk"
 Charge =  0 Multiplicity = 1

                         Standard orientation:
 ---------------------------------------------------------------------
 Center     Atomic      Atomic             Coordinates (Angstroms)
 Number     Number       Type             X           Y           Z
 ---------------------------------------------------------------------
      1          6           0        1.113819   -1.160727   -0.254434
      2          8           0        1.721245   -1.657503   -1.165971
      3          8           0        1.438497    0.011344    0.324586
      4          6           0        2.588906    0.702127   -0.226351
      5          6           0       -0.096239   -1.778367    0.427129
      6          6           0       -1.276609   -0.829306    0.549352
      7          8           0       -1.869753   -0.596202    1.569919
      8          8           0       -1.587834   -0.309963   -0.654965
      9          6           0       -2.698881    0.623601   -0.702308
     10          6           0        2.796325    1.961485    0.588742
     11          1           0        2.392062    0.918492   -1.278851
     12          1           0        3.451252    0.033509   -0.179283
     13          1           0        1.921334    2.612404    0.532224
     14          1           0        3.660045    2.511663    0.206400
     15          1           0        2.978826    1.720190    1.638026
     16          6           0       -2.239434    2.039396   -0.398610
     17          1           0       -3.460768    0.293160    0.004343
     18          1           0       -3.079650    0.533584   -1.719557
     19          1           0       -1.870530    2.113521    0.625606
     20          1           0       -3.077865    2.732462   -0.512146
     21          1           0       -1.446015    2.344783   -1.084426
     22          1           0        0.175476   -2.093107    1.435469
     23          1           0       -0.388722   -2.651323   -0.157469
 ---------------------------------------------------------------------

 SCF Done:  E(RHF) =  -571.810415699     A.U. after    2 cycles

 The electronic state is 1-A.
 Alpha  occ. eigenvalues --  -20.62209 -20.62157 -20.56990 -20.56976 -11.40721
 Alpha  occ. eigenvalues --  -11.40630 -11.30615 -11.30540 -11.27528 -11.24071
 Alpha  occ. eigenvalues --  -11.23732  -1.43035  -1.42217  -1.33392  -1.33327
 Alpha  occ. eigenvalues --   -1.08050  -1.04118  -1.01272  -0.89829  -0.87582
 Alpha  occ. eigenvalues --   -0.80274  -0.78199  -0.74424  -0.71072  -0.70245
 Alpha  occ. eigenvalues --   -0.69699  -0.67942  -0.66017  -0.61877  -0.61633
 Alpha  occ. eigenvalues --   -0.58676  -0.57986  -0.57533  -0.55688  -0.54454
 Alpha  occ. eigenvalues --   -0.54075  -0.52606  -0.52152  -0.50625  -0.49051
 Alpha  occ. eigenvalues --   -0.48162  -0.47755  -0.46080
 Alpha virt. eigenvalues --    0.03262   0.03883   0.04395   0.04749   0.05429
 Alpha virt. eigenvalues --    0.05748   0.05914   0.06700   0.07043   0.08253
 Alpha virt. eigenvalues --    0.08401   0.09346   0.10289   0.12053   0.12152

 Mulliken charges:
               1
     1  C    0.277229
     2  O   -0.451985
     3  O   -0.553374
     4  C    0.709660
     5  C    0.281291
     6  C    0.406745
     7  O   -0.473710
     8  O   -0.583571
     9  C    0.720544
    10  C    0.313567
    11  H   -0.186025
    12  H   -0.169712
    13  H   -0.077858
    14  H   -0.028793
    15  H   -0.052592
    16  C    0.243999
    17  H   -0.058737
    18  H   -0.283715
    19  H   -0.068357
    20  H   -0.054314
    21  H   -0.047001
    22  H    0.079364
    23  H    0.057346
 Sum of Mulliken charges =   0.00000

 Dipole moment (field-independent basis, Debye):
    X=              0.0548    Y=              1.9705    Z=             -0.4386  Tot=              2.0195

 Test job not archived.
 1\1\GINC-SE252\SP\RHF\Aug-CC-pVDZ\C7H12O4\OHZDE\08-Apr-2025\0\\#t hf a
 ug-cc-pvdz iop(5/13=1,5/36=2,99/5=2) pseudo=read geom=check guess=(rea
 d,tcheck) scf=(maxcycle=1)\\title\\0,1\C,0,1.113819,-1.160727,-0.25443
 4\O,0,1.721245,-1.657503,-1.165971\O,0,1.438497,0.011344,0.324586\C,0,
 2.588906,0.702127,-0.226351\C,0,-0.096239,-1.778367,0.427129\C,0,-1.27
 6609,-0.829306,0.549352\O,0,-1.869753,-0.596202,1.569919\O,0,-1.587834
 ,-0.309963,-0.654965\C,0,-2.698881,0.623601,-0.702308\C,0,2.796325,1.9
 61485,0.588742\H,0,2.392062,0.918492,-1.278851\H,0,3.451252,0.033509,-

 Normal termination of Gaussian 16 at Tue Apr  8 23:03:52 2025.
