 Gaussian 16, Revision C.01,

 ----------------------------------------------------------------------
 #t hf aug-cc-pvdz symm=none int=(grid=ultrafine) guess=(read,tcheck) s
 table=(opt,rrhf)
 ----------------------------------------------------------------------
 -----
 title
 -----
 Symbolic Z-matrix:
 Charge =  0 Multiplicity = 1

 SCF Done:  E(RHF) =  -346.313911798     A.U. after   11 cycles

 1\1\GINC-SE396\Stability\RHF\Aug-CC-pVDZ\H5N1Si1\OHZDE\08-Apr-2025\0\\
 #t hf aug-cc-pvdz symm=none int=(grid=ultrafine) guess=(read,tcheck) s
 table=(opt,rrhf)\\title\\0,1\N,0,-1.147542,0.,-0.05859\Si,0,0.575922,0
 .,0.00325\H,0,-1.662198,0.830684,0.196234\H,0,-1.662199,-0.830684,0.19
 6235\H,0,1.052816,1.216048,-0.694282\H,0,1.052821,-1.216032,-0.694307\
 H,0,1.188648,-0.000013,1.360747\\Version=ES64L-G16RevC.01\HF=-346.3139
 118\RMSD=3.183e-09\Dipole=-0.3856611,-0.0000011,0.2998203\Quadrupole=0
 .9136716,0.8274823,-1.7411539,0.0000041,-1.3350721,-0.0000009\PG=Unkno

 Normal termination of Gaussian 16 at Tue Apr  8 23:55:17 2025.
 Gaussian 16:  ES64L-G16RevC.01  3-Jul-2019

 ----------------------------------------------------------------------
 #t hf aug-cc-pvdz iop(5/13=1,5/36=2,99/5=2) pseudo=read geom=check gue
 ss=(read,tcheck) scf=(maxcycle=1)
 ----------------------------------------------------------------------
 -----
 title
 -----
 Structure from the checkpoint file:  "BDE49_nonexpt_2010_mol1.chk"
 Charge =  0 Multiplicity = 1

                         Standard orientation:
 ---------------------------------------------------------------------
 Center     Atomic      Atomic             Coordinates (Angstroms)
 Number     Number       Type             X           Y           Z
 ---------------------------------------------------------------------
      1          7           0       -1.147542   -0.000000   -0.058590
      2         14           0        0.575922    0.000000    0.003250
      3          1           0       -1.662198    0.830684    0.196234
      4          1           0       -1.662199   -0.830684    0.196235
      5          1           0        1.052816    1.216048   -0.694282
      6          1           0        1.052821   -1.216032   -0.694307
      7          1           0        1.188648   -0.000013    1.360747
 ---------------------------------------------------------------------

 SCF Done:  E(RHF) =  -346.362262611     A.U. after    2 cycles

 The electronic state is 1-A.
 Alpha  occ. eigenvalues --  -69.07406 -15.60297  -6.82418  -3.93303  -3.93221
 Alpha  occ. eigenvalues --   -3.93163  -1.10109  -0.70878  -0.65661  -0.55196
 Alpha  occ. eigenvalues --   -0.49052  -0.47375  -0.39633
 Alpha virt. eigenvalues --    0.03366   0.04934   0.05053   0.06259   0.07709
 Alpha virt. eigenvalues --    0.08400   0.09716   0.09808   0.15550   0.17105
 Alpha virt. eigenvalues --    0.17792   0.19214   0.20509   0.21357   0.21780

 Mulliken charges:
               1
     1  N   -0.487030
     2  Si   0.874841
     3  H   -0.012278
     4  H   -0.012277
     5  H   -0.106585
     6  H   -0.106586
     7  H   -0.150085
 Sum of Mulliken charges =  -0.00000

 Dipole moment (field-independent basis, Debye):
    X=             -1.0520    Y=             -0.0000    Z=              0.7661  Tot=              1.3014

 Test job not archived.
 1\1\GINC-SE396\SP\RHF\Aug-CC-pVDZ\H5N1Si1\OHZDE\08-Apr-2025\0\\#t hf a
 ug-cc-pvdz iop(5/13=1,5/36=2,99/5=2) pseudo=read geom=check guess=(rea
 d,tcheck) scf=(maxcycle=1)\\title\\0,1\N,0,-1.147542,0.,-0.05859\Si,0,
 0.575922,0.,0.00325\H,0,-1.662198,0.830684,0.196234\H,0,-1.662199,-0.8
 30684,0.196235\H,0,1.052816,1.216048,-0.694282\H,0,1.052821,-1.216032,
 -0.694307\H,0,1.188648,-0.000013,1.360747\\Version=ES64L-G16RevC.01\St
 ate=1-A\HF=-346.3622626\RMSD=4.397e-03\Dipole=-0.413886,-0.0000012,0.3
 013994\Quadrupole=0.9132743,0.8177714,-1.7310457,0.0000043,-1.3330698,

 Normal termination of Gaussian 16 at Tue Apr  8 23:55:18 2025.
