 Gaussian 16, Revision C.01,

 ----------------------------------------------------------------------
 #t hf aug-cc-pvdz symm=none int=(grid=ultrafine) guess=(read,tcheck) s
 table=opt
 ----------------------------------------------------------------------
 -----
 title
 -----
 Symbolic Z-matrix:
 Charge =  0 Multiplicity = 2

 SCF Done:  E(UHF) =  -251.894413219     A.U. after   16 cycles
 Normal termination of Gaussian 16 at Wed Apr  9 00:16:03 2025.
 Gaussian 16:  ES64L-G16RevC.01  3-Jul-2019

 ----------------------------------------------------------------------
 #t hf aug-cc-pvdz iop(5/13=1,5/36=2,99/5=2) pseudo=read geom=check gue
 ss=(read,tcheck) scf=(maxcycle=1)
 ----------------------------------------------------------------------
 -----
 title
 -----
 Structure from the checkpoint file:  "BDE49_nonexpt_254_mol2.chk"
 Charge =  0 Multiplicity = 2

                         Standard orientation:
 ---------------------------------------------------------------------
 Center     Atomic      Atomic             Coordinates (Angstroms)
 Number     Number       Type             X           Y           Z
 ---------------------------------------------------------------------
      1          7           0       -1.224748   -0.843617   -0.024809
      2          7           0        1.224747   -0.843618   -0.024809
      3          6           0       -1.274525    0.604675    0.210344
      4          6           0       -0.000000    1.265702   -0.329176
      5          6           0        1.274526    0.604674    0.210342
      6          5           0       -0.000001   -1.527159   -0.116611
      7          1           0       -2.109404   -1.321324   -0.051043
      8          1           0        2.109402   -1.321326   -0.051039
      9          1           0        2.146545    1.033368   -0.294759
     10          1           0        1.382737    0.826401    1.281949
     11          1           0        0.000001    2.328672   -0.069627
     12          1           0       -0.000000    1.190573   -1.421358
     13          1           0       -1.382734    0.826401    1.281951
     14          1           0       -2.146544    1.033371   -0.294756
 ---------------------------------------------------------------------

 SCF Done:  E(UHF) =  -251.972858235     A.U. after    2 cycles

 The electronic state is 2-A.
 Alpha  occ. eigenvalues --  -15.59666 -15.59664 -11.26677 -11.26672 -11.23417
 Alpha  occ. eigenvalues --   -7.61260  -1.17665  -1.11746  -1.00935  -0.88826
 Alpha  occ. eigenvalues --   -0.80694  -0.72942  -0.65752  -0.61861  -0.60186
 Alpha  occ. eigenvalues --   -0.59479  -0.58418  -0.52603  -0.50616  -0.47149
 Alpha  occ. eigenvalues --   -0.41545  -0.34289  -0.31636
 Alpha virt. eigenvalues --    0.03259   0.04041   0.04402   0.04584   0.06669
 Alpha virt. eigenvalues --    0.06887   0.07281   0.07360   0.07808   0.09374
 Alpha virt. eigenvalues --    0.09799   0.12527   0.13733   0.14113   0.14726

  Beta  occ. eigenvalues --  -15.59711 -15.59709 -11.26548 -11.26542 -11.23436
  Beta  occ. eigenvalues --   -7.59307  -1.17217  -1.11590  -1.00585  -0.88439
  Beta  occ. eigenvalues --   -0.79855  -0.72344  -0.65066  -0.61526  -0.58880
  Beta  occ. eigenvalues --   -0.58843  -0.58193  -0.51972  -0.50393  -0.46954
  Beta  occ. eigenvalues --   -0.41257  -0.35157
  Beta virt. eigenvalues --    0.03261   0.04053   0.04168   0.04446   0.06536
  Beta virt. eigenvalues --    0.06719   0.07290   0.07374   0.07926   0.09364
  Beta virt. eigenvalues --    0.09817   0.10681   0.13747   0.14033   0.14671

 Mulliken charges and spin densities:
               1          2
     1  N   -0.293630  -0.065349
     2  N   -0.293630  -0.065349
     3  C    0.801589   0.029021
     4  C   -0.013543  -0.011163
     5  C    0.801589   0.029021
     6  B   -0.092161   1.098252
     7  H   -0.101302  -0.001447
     8  H   -0.101303  -0.001447
     9  H   -0.149237  -0.000339
    10  H   -0.126723  -0.004038
    11  H   -0.049549   0.000722
    12  H   -0.106143  -0.003508
    13  H   -0.126723  -0.004038
    14  H   -0.149235  -0.000339
 Sum of Mulliken charges =  -0.00000   1.00000

 Dipole moment (field-independent basis, Debye):
    X=             -0.0000    Y=              1.6887    Z=              0.2988  Tot=              1.7149
                          Isotropic Fermi Contact Couplings
        Atom                 a.u.       MegaHertz       Gauss      10(-4) cm-1
     1  N(14)              0.02934       9.47900       3.38234       3.16185
     2  N(14)              0.02934       9.47903       3.38235       3.16186
     3  C(13)              0.02550      28.66156      10.22716       9.56047
     4  C(13)             -0.00401      -4.50538      -1.60763      -1.50283
     5  C(13)              0.02550      28.66153      10.22715       9.56046
     6  B(11)              0.33881     485.98084     173.41005     162.10576
     7  H(1)               0.00401      17.91334       6.39192       5.97525
     8  H(1)               0.00401      17.91329       6.39191       5.97523

 Normal termination of Gaussian 16 at Wed Apr  9 00:16:07 2025.
