 Gaussian 16, Revision C.01,

 ----------------------------------------------------------------------
 #t hf aug-cc-pvdz symm=none int=(grid=ultrafine) guess=(read,tcheck) s
 table=opt
 ----------------------------------------------------------------------
 -----
 title
 -----
 Symbolic Z-matrix:
 Charge =  0 Multiplicity = 2

 SCF Done:  E(UHF) =  -550.946470165     A.U. after   19 cycles
 Normal termination of Gaussian 16 at Tue Apr  8 23:53:23 2025.
 Gaussian 16:  ES64L-G16RevC.01  3-Jul-2019

 ----------------------------------------------------------------------
 #t hf aug-cc-pvdz iop(5/13=1,5/36=2,99/5=2) pseudo=read geom=check gue
 ss=(read,tcheck) scf=(maxcycle=1)
 ----------------------------------------------------------------------
 -----
 title
 -----
 Structure from the checkpoint file:  "BDE49_nonexpt_1964_mol2.chk"
 Charge =  0 Multiplicity = 2

                         Standard orientation:
 ---------------------------------------------------------------------
 Center     Atomic      Atomic             Coordinates (Angstroms)
 Number     Number       Type             X           Y           Z
 ---------------------------------------------------------------------
      1          6           0       -1.021015    1.202838    0.228158
      2         16           0       -0.122593   -0.145953   -0.387855
      3          8           0       -0.508190   -1.408446    0.299755
      4          6           0        1.558446    0.332693    0.189191
      5          1           0        1.799389    1.328525   -0.184895
      6          1           0        2.245677   -0.406905   -0.221326
      7          1           0        1.560844    0.302394    1.278117
      8          1           0       -0.791411    2.184183   -0.172162
      9          1           0       -2.012077    0.981435    0.603819
 ---------------------------------------------------------------------

 SCF Done:  E(UHF) =  -551.040759890     A.U. after    2 cycles

 The electronic state is 2-A.
 Alpha  occ. eigenvalues --  -93.66516 -20.52187 -11.29257 -11.28282  -8.94922
 Alpha  occ. eigenvalues --   -6.29219  -6.28991  -6.28758  -1.31146  -1.06693
 Alpha  occ. eigenvalues --   -0.98227  -0.81302  -0.65661  -0.64467  -0.62986
 Alpha  occ. eigenvalues --   -0.58739  -0.57919  -0.54366  -0.45785  -0.44978
 Alpha  occ. eigenvalues --   -0.35357
 Alpha virt. eigenvalues --    0.02979   0.04496   0.05113   0.06019   0.07085
 Alpha virt. eigenvalues --    0.08622   0.11589   0.11829   0.13077   0.14245
 Alpha virt. eigenvalues --    0.15245   0.15811   0.16342   0.17545   0.18006

  Beta  occ. eigenvalues --  -93.66557 -20.52232 -11.28002 -11.26825  -8.94964
  Beta  occ. eigenvalues --   -6.29324  -6.29169  -6.28701  -1.31025  -1.04241
  Beta  occ. eigenvalues --   -0.94113  -0.78764  -0.64492  -0.63597  -0.62276
  Beta  occ. eigenvalues --   -0.58098  -0.57023  -0.53742  -0.44533  -0.38200
  Beta virt. eigenvalues --    0.02698   0.03984   0.04871   0.05638   0.06664
  Beta virt. eigenvalues --    0.07131   0.08726   0.11831   0.12663   0.13370
  Beta virt. eigenvalues --    0.15045   0.15939   0.16318   0.16668   0.17902

 Mulliken charges and spin densities:
               1          2
     1  C    0.140539   1.262330
     2  S    1.188841  -0.128474
     3  O   -1.048152  -0.004153
     4  C    0.043305   0.082106
     5  H   -0.057085  -0.009769
     6  H   -0.011316  -0.003713
     7  H    0.010495  -0.007142
     8  H   -0.145859  -0.100289
     9  H   -0.120768  -0.090895
 Sum of Mulliken charges =   0.00000   1.00000

 Dipole moment (field-independent basis, Debye):
    X=              1.6158    Y=              4.3854    Z=             -0.5882  Tot=              4.7105
                          Isotropic Fermi Contact Couplings
        Atom                 a.u.       MegaHertz       Gauss      10(-4) cm-1
     1  C(13)              0.23178     260.55979      92.97421      86.91339
     2  S(33)              0.01735       5.96067       2.12692       1.98827
     3  O(17)             -0.00457       2.77164       0.98899       0.92452
     4  C(13)              0.05910      66.43448      23.70547      22.16016
     5  H(1)              -0.00159      -7.10287      -2.53448      -2.36926
     6  H(1)              -0.00093      -4.17445      -1.48955      -1.39245
     7  H(1)              -0.00147      -6.58377      -2.34925      -2.19611
     8  H(1)              -0.02120     -94.74452     -33.80720     -31.60337

 Normal termination of Gaussian 16 at Tue Apr  8 23:53:25 2025.
