 Gaussian 16, Revision C.01,

 ----------------------------------------------------------------------
 #t hf aug-cc-pvdz symm=none int=(grid=ultrafine) guess=(read,tcheck) s
 table=opt
 ----------------------------------------------------------------------
 -----
 title
 -----
 Symbolic Z-matrix:
 Charge =  0 Multiplicity = 2

 SCF Done:  E(UHF) =  -181.919728197     A.U. after   18 cycles

 1\1\GINC-SE049\Stability\UHF\Aug-CC-pVDZ\C4H10B1\OHZDE\09-Apr-2025\0\\
 #t hf aug-cc-pvdz symm=none int=(grid=ultrafine) guess=(read,tcheck) s
 table=opt\\title\\0,2\H,0,-0.360922,2.600062,-0.39117\B,0,-0.940707,1.
 559449,-0.470886\C,0,-0.675355,0.256264,0.312812\C,0,0.805447,0.021396
 ,0.716429\C,0,-1.372931,-1.018312,-0.20223\H,0,-0.94993,-1.345745,-1.1
 55134\H,0,-2.43841,-0.843122,-0.365121\H,0,-1.266457,-1.84357,0.509664
 \H,0,-1.205943,0.560986,1.244941\C,0,1.73602,-0.261555,-0.468035\H,0,0
 .853219,-0.817486,1.422276\H,0,1.169565,0.901631,1.255406\H,0,1.437682

 Normal termination of Gaussian 16 at Wed Apr  9 00:34:26 2025.
 Gaussian 16:  ES64L-G16RevC.01  3-Jul-2019

 ----------------------------------------------------------------------
 #t hf aug-cc-pvdz iop(5/13=1,5/36=2,99/5=2) pseudo=read geom=check gue
 ss=(read,tcheck) scf=(maxcycle=1)
 ----------------------------------------------------------------------
 -----
 title
 -----
 Structure from the checkpoint file:  "BDE49_nonexpt_470_mol2.chk"
 Charge =  0 Multiplicity = 2

                         Standard orientation:
 ---------------------------------------------------------------------
 Center     Atomic      Atomic             Coordinates (Angstroms)
 Number     Number       Type             X           Y           Z
 ---------------------------------------------------------------------
      1          1           0       -0.360922    2.600062   -0.391170
      2          5           0       -0.940707    1.559449   -0.470886
      3          6           0       -0.675355    0.256264    0.312812
      4          6           0        0.805447    0.021396    0.716429
      5          6           0       -1.372931   -1.018312   -0.202230
      6          1           0       -0.949930   -1.345745   -1.155134
      7          1           0       -2.438410   -0.843122   -0.365121
      8          1           0       -1.266457   -1.843570    0.509664
      9          1           0       -1.205943    0.560986    1.244941
     10          6           0        1.736020   -0.261555   -0.468035
     11          1           0        0.853219   -0.817486    1.422276
     12          1           0        1.169565    0.901631    1.255406
     13          1           0        1.437682   -1.159453   -1.015318
     14          1           0        2.764716   -0.411765   -0.129478
     15          1           0        1.740932    0.574463   -1.175487
 ---------------------------------------------------------------------

 SCF Done:  E(UHF) =  -181.977437104     A.U. after    2 cycles

 The electronic state is 2-A.
 Alpha  occ. eigenvalues --  -11.23552 -11.22625 -11.22584 -11.22446  -7.62900
 Alpha  occ. eigenvalues --   -1.06627  -0.97707  -0.88000  -0.79727  -0.65513
 Alpha  occ. eigenvalues --   -0.62555  -0.59875  -0.57934  -0.54092  -0.53670
 Alpha  occ. eigenvalues --   -0.50778  -0.47313  -0.46917  -0.44859  -0.31653
 Alpha virt. eigenvalues --    0.03197   0.04178   0.04649   0.04791   0.05897
 Alpha virt. eigenvalues --    0.06556   0.06728   0.06866   0.07082   0.09328
 Alpha virt. eigenvalues --    0.09572   0.09919   0.10780   0.11901   0.13773

  Beta  occ. eigenvalues --  -11.23446 -11.22633 -11.22530 -11.22457  -7.61138
  Beta  occ. eigenvalues --   -1.06300  -0.97535  -0.87688  -0.78913  -0.63827
  Beta  occ. eigenvalues --   -0.62473  -0.58190  -0.57008  -0.54053  -0.53309
  Beta  occ. eigenvalues --   -0.50357  -0.46954  -0.46399  -0.44024
  Beta virt. eigenvalues --    0.03112   0.04264   0.04406   0.04811   0.06215
  Beta virt. eigenvalues --    0.06482   0.06740   0.06946   0.07129   0.09280
  Beta virt. eigenvalues --    0.09597   0.09894   0.10813   0.11996   0.12142

 Mulliken charges and spin densities:
               1          2
     1  H    0.510244   0.000030
     2  B   -0.571543   1.061515
     3  C   -0.227894  -0.101897
     4  C    0.266009   0.022725
     5  C    0.472635   0.033757
     6  H   -0.097784  -0.001578
     7  H   -0.128561  -0.006584
     8  H   -0.048537   0.003510
     9  H   -0.057225  -0.021744
    10  C    0.394002   0.004420
    11  H   -0.111754   0.006179
    12  H   -0.124150   0.000525
    13  H   -0.125121  -0.000297
    14  H   -0.067274   0.000279
    15  H   -0.083048  -0.000841
 Sum of Mulliken charges =  -0.00000   1.00000

 Dipole moment (field-independent basis, Debye):
    X=              0.5483    Y=             -0.5402    Z=              0.7152  Tot=              1.0508
                          Isotropic Fermi Contact Couplings
        Atom                 a.u.       MegaHertz       Gauss      10(-4) cm-1
     1  H(1)               0.00599      26.77359       9.55348       8.93071
     2  B(11)              0.25338     363.43832     129.68383     121.22998
     3  C(13)              0.00255       2.86898       1.02372       0.95699
     4  C(13)              0.02467      27.73069       9.89500       9.24996
     5  C(13)              0.01755      19.73188       7.04082       6.58185
     6  H(1)              -0.00037      -1.65192      -0.58944      -0.55102
     7  H(1)              -0.00034      -1.52404      -0.54382      -0.50837
     8  H(1)              -0.00006      -0.28209      -0.10066      -0.09409

 Normal termination of Gaussian 16 at Wed Apr  9 00:34:30 2025.
