 Gaussian 16, Revision C.01,

 ----------------------------------------------------------------------
 #t hf aug-cc-pvdz symm=none int=(grid=ultrafine) guess=(read,tcheck) s
 table=(opt,rrhf)
 ----------------------------------------------------------------------
 -----
 title
 -----
 Symbolic Z-matrix:
 Charge =  0 Multiplicity = 1

 SCF Done:  E(RHF) =  -608.179758611     A.U. after   15 cycles
 Normal termination of Gaussian 16 at Tue Apr  8 23:32:19 2025.
 Gaussian 16:  ES64L-G16RevC.01  3-Jul-2019

 ----------------------------------------------------------------------
 #t hf aug-cc-pvdz iop(5/13=1,5/36=2,99/5=2) pseudo=read geom=check gue
 ss=(read,tcheck) scf=(maxcycle=1)
 ----------------------------------------------------------------------
 -----
 title
 -----
 Structure from the checkpoint file:  "BDE49_nonexpt_1453_mol1.chk"
 Charge =  0 Multiplicity = 1

                         Standard orientation:
 ---------------------------------------------------------------------
 Center     Atomic      Atomic             Coordinates (Angstroms)
 Number     Number       Type             X           Y           Z
 ---------------------------------------------------------------------
      1          6           0        0.598973    0.437412    0.018998
      2         15           0        2.137177   -0.623905   -0.122914
      3          8           0       -0.509673   -0.327036    0.026703
      4          8           0        0.603148    1.639801    0.000265
      5          6           0       -1.780384    0.382927    0.002401
      6          6           0       -2.878922   -0.658659   -0.011082
      7          1           0       -1.803302    1.021504   -0.883269
      8          1           0       -1.833264    1.027666    0.882265
      9          1           0       -2.801102   -1.296010   -0.894363
     10          1           0       -3.854951   -0.166646   -0.026487
     11          1           0       -2.826835   -1.291391    0.877403
     12          1           0        1.771906   -1.581268    0.852889
     13          1           0        2.904081    0.172521    0.757637
 ---------------------------------------------------------------------

 SCF Done:  E(RHF) =  -608.287110468     A.U. after    2 cycles

 The electronic state is 1-A.
 Alpha  occ. eigenvalues --  -81.27804 -20.62277 -20.57050 -11.40140 -11.30676
 Alpha  occ. eigenvalues --  -11.24144  -7.78245  -4.92228  -4.92154  -4.91855
 Alpha  occ. eigenvalues --   -1.42344  -1.33309  -1.04557  -0.90743  -0.83398
 Alpha  occ. eigenvalues --   -0.78507  -0.70082  -0.69650  -0.66319  -0.60188
 Alpha  occ. eigenvalues --   -0.57216  -0.56430  -0.53091  -0.52711  -0.52021
 Alpha  occ. eigenvalues --   -0.48093  -0.45583  -0.37957
 Alpha virt. eigenvalues --    0.03304   0.04378   0.05129   0.05207   0.06356
 Alpha virt. eigenvalues --    0.07339   0.07773   0.08707   0.09962   0.10784
 Alpha virt. eigenvalues --    0.12173   0.12349   0.12948   0.15000   0.15408

 Mulliken charges:
               1
     1  C    0.119321
     2  P    0.078279
     3  O   -0.503206
     4  O   -0.437193
     5  C    0.667836
     6  C    0.237181
     7  H   -0.156378
     8  H   -0.161102
     9  H   -0.046552
    10  H   -0.013521
    11  H   -0.048863
    12  H    0.144973
    13  H    0.119224
 Sum of Mulliken charges =  -0.00000

 Dipole moment (field-independent basis, Debye):
    X=             -1.2768    Y=             -1.8237    Z=              0.6004  Tot=              2.3057

 Test job not archived.
 1\1\GINC-SE402\SP\RHF\Aug-CC-pVDZ\C3H7O2P1\OHZDE\08-Apr-2025\0\\#t hf
 aug-cc-pvdz iop(5/13=1,5/36=2,99/5=2) pseudo=read geom=check guess=(re
 ad,tcheck) scf=(maxcycle=1)\\title\\0,1\C,0,0.598973,0.437412,0.018998
 \P,0,2.137177,-0.623905,-0.122914\O,0,-0.509673,-0.327036,0.026703\O,0
 ,0.603148,1.639801,0.000265\C,0,-1.780384,0.382927,0.002401\C,0,-2.878
 922,-0.658659,-0.011082\H,0,-1.803302,1.021504,-0.883269\H,0,-1.833264
 ,1.027666,0.882265\H,0,-2.801102,-1.29601,-0.894363\H,0,-3.854951,-0.1
 66645,-0.026487\H,0,-2.826835,-1.291391,0.877403\H,0,1.771906,-1.58126

 Normal termination of Gaussian 16 at Tue Apr  8 23:32:23 2025.
