 Gaussian 16, Revision C.01,

 ----------------------------------------------------------------------
 #t hf aug-cc-pvdz symm=none int=(grid=ultrafine) guess=(read,tcheck) s
 table=(opt,rrhf)
 ----------------------------------------------------------------------
 -----
 title
 -----
 Symbolic Z-matrix:
 Charge =  0 Multiplicity = 1

 SCF Done:  E(RHF) =  -1091.61057798     A.U. after   13 cycles
 Normal termination of Gaussian 16 at Wed Apr  9 00:11:38 2025.
 Gaussian 16:  ES64L-G16RevC.01  3-Jul-2019

 ----------------------------------------------------------------------
 #t hf aug-cc-pvdz iop(5/13=1,5/36=2,99/5=2) pseudo=read geom=check gue
 ss=(read,tcheck) scf=(maxcycle=1)
 ----------------------------------------------------------------------
 -----
 title
 -----
 Structure from the checkpoint file:  "BDE49_nonexpt_2435_mol1.chk"
 Charge =  0 Multiplicity = 1

                         Standard orientation:
 ---------------------------------------------------------------------
 Center     Atomic      Atomic             Coordinates (Angstroms)
 Number     Number       Type             X           Y           Z
 ---------------------------------------------------------------------
      1         14           0        2.298299   -0.439719   -0.361309
      2         14           0        0.574367    0.806786    0.653488
      3          6           0       -1.119354    0.304200   -0.067585
      4          1           0        0.761280    2.261425    0.371165
      5          1           0        0.524980    0.618124    2.118199
      6         16           0       -1.671490   -1.214804    0.159203
      7          8           0       -1.833426    1.200767   -0.775894
      8          1           0        2.173729   -1.871076   -0.013164
      9          1           0        3.604451    0.075984    0.115245
     10          1           0       -1.375480    2.052891   -0.785308
     11          1           0        2.221082   -0.270753   -1.831240
 ---------------------------------------------------------------------

 SCF Done:  E(RHF) =  -1091.70581099     A.U. after    2 cycles

 The electronic state is 1-A.
 Alpha  occ. eigenvalues --  -93.51368 -69.09311 -69.07740 -20.65092 -11.38084
 Alpha  occ. eigenvalues --   -8.81320  -6.84689  -6.83147  -6.15485  -6.15090
 Alpha  occ. eigenvalues --   -6.14884  -3.95478  -3.95429  -3.95379  -3.93901
 Alpha  occ. eigenvalues --   -3.93893  -3.93889  -1.41221  -1.03327  -0.82394
 Alpha  occ. eigenvalues --   -0.79680  -0.72226  -0.65671  -0.63234  -0.59524
 Alpha  occ. eigenvalues --   -0.51705  -0.50333  -0.48957  -0.48363  -0.42823
 Alpha  occ. eigenvalues --   -0.37439  -0.34281
 Alpha virt. eigenvalues --    0.02829   0.03610   0.04529   0.04926   0.05978
 Alpha virt. eigenvalues --    0.06645   0.07025   0.07519   0.08340   0.08657
 Alpha virt. eigenvalues --    0.08895   0.09579   0.09777   0.11064   0.12929

 Mulliken charges:
               1
     1  Si  -0.158771
     2  Si   0.338354
     3  C   -0.017556
     4  H   -0.049808
     5  H    0.055516
     6  S    0.017133
     7  O   -0.492216
     8  H    0.058303
     9  H    0.020918
    10  H    0.162715
    11  H    0.065413
 Sum of Mulliken charges =  -0.00000

 Dipole moment (field-independent basis, Debye):
    X=              2.6062    Y=              2.7757    Z=              0.1546  Tot=              3.8106

 Test job not archived.
 1\1\GINC-SE082\SP\RHF\Aug-CC-pVDZ\C1H6O1S1Si2\OHZDE\09-Apr-2025\0\\#t
 hf aug-cc-pvdz iop(5/13=1,5/36=2,99/5=2) pseudo=read geom=check guess=
 (read,tcheck) scf=(maxcycle=1)\\title\\0,1\Si,0,2.298299,-0.439719,-0.
 361309\Si,0,0.574367,0.806786,0.653488\C,0,-1.119354,0.3042,-0.067585\
 H,0,0.76128,2.261425,0.371165\H,0,0.52498,0.618124,2.118199\S,0,-1.671
 49,-1.214804,0.159203\O,0,-1.833426,1.200767,-0.775894\H,0,2.173729,-1
 .871076,-0.013164\H,0,3.604451,0.075985,0.115245\H,0,-1.37548,2.052891
 ,-0.785308\H,0,2.221082,-0.270753,-1.83124\\Version=ES64L-G16RevC.01\S

 Normal termination of Gaussian 16 at Wed Apr  9 00:11:42 2025.
