 Gaussian 16, Revision C.01,

 ----------------------------------------------------------------------
 #t hf aug-cc-pvdz symm=none int=(grid=ultrafine) guess=(read,tcheck) s
 table=(opt,rrhf)
 ----------------------------------------------------------------------
 -----
 title
 -----
 Symbolic Z-matrix:
 Charge =  0 Multiplicity = 1

 SCF Done:  E(RHF) =  -178.178378096     A.U. after   13 cycles
 Normal termination of Gaussian 16 at Wed Apr  9 00:24:40 2025.
 Gaussian 16:  ES64L-G16RevC.01  3-Jul-2019

 ----------------------------------------------------------------------
 #t hf aug-cc-pvdz iop(5/13=1,5/36=2,99/5=2) pseudo=read geom=check gue
 ss=(read,tcheck) scf=(maxcycle=1)
 ----------------------------------------------------------------------
 -----
 title
 -----
 Structure from the checkpoint file:  "BDE49_nonexpt_293_mol1.chk"
 Charge =  0 Multiplicity = 1

                         Standard orientation:
 ---------------------------------------------------------------------
 Center     Atomic      Atomic             Coordinates (Angstroms)
 Number     Number       Type             X           Y           Z
 ---------------------------------------------------------------------
      1          6           0        1.482241   -0.287924    0.000016
      2          6           0        0.014544   -0.032526    0.000037
      3          1           0        2.040747    0.649811   -0.000039
      4          1           0        1.745751   -0.885590   -0.878612
      5          1           0        1.745780   -0.885504    0.878693
      6          5           0       -1.350130   -0.749030    0.000033
      7          8           0       -0.499085    1.088694   -0.000075
      8          1           0       -1.884793   -0.960277    1.040316
      9          1           0       -1.884862   -0.960143   -1.040244
 ---------------------------------------------------------------------

 SCF Done:  E(RHF) =  -178.236215029     A.U. after    2 cycles

 The electronic state is 1-A.
 Alpha  occ. eigenvalues --  -20.58828 -11.33753 -11.26033  -7.62834  -1.36967
 Alpha  occ. eigenvalues --   -1.02079  -0.81901  -0.71645  -0.64003  -0.62365
 Alpha  occ. eigenvalues --   -0.60740  -0.55046  -0.54712  -0.47870  -0.41971
 Alpha virt. eigenvalues --    0.02913   0.04656   0.04657   0.05613   0.06769
 Alpha virt. eigenvalues --    0.06801   0.07179   0.10098   0.10718   0.11442
 Alpha virt. eigenvalues --    0.12828   0.13528   0.15391   0.15544   0.17180

 Mulliken charges:
               1
     1  C    0.094127
     2  C    0.395207
     3  H   -0.017626
     4  H    0.038972
     5  H    0.038972
     6  B   -0.413649
     7  O   -0.600588
     8  H    0.232307
     9  H    0.232279
 Sum of Mulliken charges =  -0.00000

 Dipole moment (field-independent basis, Debye):
    X=              2.1955    Y=             -2.5599    Z=              0.0002  Tot=              3.3725

 Test job not archived.
 1\1\GINC-SE073\SP\RHF\Aug-CC-pVDZ\C2H5B1O1\OHZDE\09-Apr-2025\0\\#t hf
 aug-cc-pvdz iop(5/13=1,5/36=2,99/5=2) pseudo=read geom=check guess=(re
 ad,tcheck) scf=(maxcycle=1)\\title\\0,1\C,0,1.482241,-0.287924,0.00001
 6\C,0,0.014544,-0.032526,0.000037\H,0,2.040747,0.649811,-0.000039\H,0,
 1.745751,-0.88559,-0.878612\H,0,1.74578,-0.885504,0.878693\B,0,-1.3501
 3,-0.74903,0.000033\O,0,-0.499085,1.088694,-0.000075\H,0,-1.884793,-0.
 960277,1.040316\H,0,-1.884862,-0.960143,-1.040244\\Version=ES64L-G16Re
 vC.01\State=1-A\HF=-178.236215\RMSD=3.771e-03\Dipole=0.8637761,-1.0071

 Normal termination of Gaussian 16 at Wed Apr  9 00:24:42 2025.
