 Gaussian 16, Revision C.01,

 ----------------------------------------------------------------------
 #t hf aug-cc-pvdz symm=none int=(grid=ultrafine) guess=(read,tcheck) s
 table=(opt,rrhf)
 ----------------------------------------------------------------------
 -----
 title
 -----
 Symbolic Z-matrix:
 Charge =  0 Multiplicity = 1

 SCF Done:  E(RHF) =  -382.515065320     A.U. after   16 cycles
 Normal termination of Gaussian 16 at Tue Apr  8 23:00:44 2025.
 Gaussian 16:  ES64L-G16RevC.01  3-Jul-2019

 ----------------------------------------------------------------------
 #t hf aug-cc-pvdz iop(5/13=1,5/36=2,99/5=2) pseudo=read geom=check gue
 ss=(read,tcheck) scf=(maxcycle=1)
 ----------------------------------------------------------------------
 -----
 title
 -----
 Structure from the checkpoint file:  "BDE49_expt_207_mol1.chk"
 Charge =  0 Multiplicity = 1

                         Standard orientation:
 ---------------------------------------------------------------------
 Center     Atomic      Atomic             Coordinates (Angstroms)
 Number     Number       Type             X           Y           Z
 ---------------------------------------------------------------------
      1          6           0        2.515950    0.365918    0.000000
      2          8           0        3.308095   -0.548769    0.000002
      3          6           0        1.045448    0.212993   -0.000001
      4          1           0        2.867338    1.421298    0.000003
      5          6           0        0.460946   -1.061171   -0.000001
      6          6           0       -0.917280   -1.192901   -0.000001
      7          6           0       -1.752777   -0.063271   -0.000001
      8          6           0       -1.161388    1.203105   -0.000001
      9          6           0        0.223339    1.341510   -0.000001
     10          1           0        1.110904   -1.928361   -0.000001
     11          1           0       -1.362844   -2.182627   -0.000001
     12          1           0        0.670935    2.330867   -0.000001
     13          6           0       -3.252048   -0.225133    0.000001
     14          1           0       -1.791335    2.086204   -0.000002
     15          1           0       -3.759320    0.741054   -0.000024
     16          1           0       -3.586789   -0.782270    0.880407
     17          1           0       -3.586787   -0.782316   -0.880375
 ---------------------------------------------------------------------

 SCF Done:  E(RHF) =  -382.629805844     A.U. after    2 cycles

 The electronic state is 1-A.
 Alpha  occ. eigenvalues --  -20.56724 -11.34490 -11.27475 -11.26911 -11.26170
 Alpha  occ. eigenvalues --  -11.25555 -11.25471 -11.25328 -11.24905  -1.35410
 Alpha  occ. eigenvalues --   -1.16433  -1.06584  -1.02660  -0.96469  -0.86549
 Alpha  occ. eigenvalues --   -0.84721  -0.78922  -0.71400  -0.67970  -0.65349
 Alpha  occ. eigenvalues --   -0.63280  -0.61387  -0.60568  -0.59339  -0.56053
 Alpha  occ. eigenvalues --   -0.55616  -0.52433  -0.50511  -0.49772  -0.43916
 Alpha  occ. eigenvalues --   -0.35635  -0.34593
 Alpha virt. eigenvalues --    0.02941   0.03539   0.04252   0.05139   0.05331
 Alpha virt. eigenvalues --    0.06222   0.06443   0.07481   0.08284   0.08973
 Alpha virt. eigenvalues --    0.09845   0.10059   0.11783   0.13038   0.13299

 Mulliken charges:
               1
     1  C    0.937767
     2  O   -0.531289
     3  C    0.826905
     4  H   -0.278600
     5  C    0.002701
     6  C    0.460408
     7  C   -0.139121
     8  C    0.324129
     9  C    0.135243
    10  H   -0.586678
    11  H   -0.592209
    12  H   -0.600512
    13  C    0.620087
    14  H   -0.578154
    15  H   -0.168986
    16  H    0.084161
    17  H    0.084149
 Sum of Mulliken charges =   0.00000

 Dipole moment (field-independent basis, Debye):
    X=             -4.0706    Y=              1.8232    Z=             -0.0000  Tot=              4.4602

 Test job not archived.
 1\1\GINC-SE086\SP\RHF\Aug-CC-pVDZ\C8H8O1\OHZDE\08-Apr-2025\0\\#t hf au
 g-cc-pvdz iop(5/13=1,5/36=2,99/5=2) pseudo=read geom=check guess=(read
 ,tcheck) scf=(maxcycle=1)\\title\\0,1\C,0,2.51595,0.365918,0.\O,0,3.30
 8095,-0.548769,0.000002\C,0,1.045448,0.212993,-0.000001\H,0,2.867338,1
 .421298,0.000003\C,0,0.460946,-1.061171,-0.000001\C,0,-0.91728,-1.1929
 01,-0.000001\C,0,-1.752777,-0.063271,-0.000001\C,0,-1.161388,1.203105,
 -0.000001\C,0,0.223339,1.34151,-0.000001\H,0,1.110904,-1.928361,-0.000
 001\H,0,-1.362844,-2.182627,-0.000001\H,0,0.670935,2.330867,-0.000001\

 Normal termination of Gaussian 16 at Tue Apr  8 23:00:52 2025.
