 Gaussian 16, Revision C.01,

 ----------------------------------------------------------------------
 #t hf aug-cc-pvdz symm=none int=(grid=ultrafine) guess=(read,tcheck) s
 table=(opt,rrhf)
 ----------------------------------------------------------------------
 -----
 title
 -----
 Symbolic Z-matrix:
 Charge =  0 Multiplicity = 1

 SCF Done:  E(RHF) =  -522.681398621     A.U. after   14 cycles
 Normal termination of Gaussian 16 at Wed Apr  9 00:41:17 2025.
 Gaussian 16:  ES64L-G16RevC.01  3-Jul-2019

 ----------------------------------------------------------------------
 #t hf aug-cc-pvdz iop(5/13=1,5/36=2,99/5=2) pseudo=read geom=check gue
 ss=(read,tcheck) scf=(maxcycle=1)
 ----------------------------------------------------------------------
 -----
 title
 -----
 Structure from the checkpoint file:  "BDE49_nonexpt_717_mol1.chk"
 Charge =  0 Multiplicity = 1

                         Standard orientation:
 ---------------------------------------------------------------------
 Center     Atomic      Atomic             Coordinates (Angstroms)
 Number     Number       Type             X           Y           Z
 ---------------------------------------------------------------------
      1          5           0       -2.735596    0.654251   -0.268083
      2          6           0        0.271518   -0.018670   -0.403189
      3          6           0        1.482146   -0.975850   -0.193556
      4          6           0        1.087944    1.099925    0.308673
      5          6           0        2.373720    0.275532    0.031852
      6          1           0        0.860020    1.145075    1.376371
      7          1           0        1.015049    2.106195   -0.107826
      8          1           0        2.866011    0.591528   -0.890682
      9          1           0        3.118808    0.224005    0.827400
     10          1           0        1.733022   -1.649916   -1.014144
     11          1           0        1.378877   -1.564022    0.722233
     12         15           0       -1.403195   -0.532460    0.183491
     13          1           0        0.155236    0.213708   -1.465830
     14          1           0       -3.704645    0.721663    0.418195
     15          1           0       -2.700380    1.194971   -1.328090
     16          1           0       -1.288048   -0.553187    1.587745
 ---------------------------------------------------------------------

 SCF Done:  E(RHF) =  -522.756928018     A.U. after    2 cycles

 The electronic state is 1-A.
 Alpha  occ. eigenvalues --  -81.23460 -11.25374 -11.23961 -11.23906 -11.23639
 Alpha  occ. eigenvalues --   -7.74278  -7.61822  -4.88378  -4.88370  -4.88030
 Alpha  occ. eigenvalues --   -1.12436  -0.91265  -0.90267  -0.79425  -0.75027
 Alpha  occ. eigenvalues --   -0.66940  -0.65559  -0.61484  -0.55070  -0.52733
 Alpha  occ. eigenvalues --   -0.51420  -0.50848  -0.47437  -0.45939  -0.45489
 Alpha  occ. eigenvalues --   -0.41774  -0.31916
 Alpha virt. eigenvalues --    0.03350   0.04149   0.04425   0.04885   0.05208
 Alpha virt. eigenvalues --    0.05911   0.06294   0.07064   0.07209   0.07943
 Alpha virt. eigenvalues --    0.09056   0.09114   0.10889   0.11619   0.12075

 Mulliken charges:
               1
     1  B   -0.509563
     2  C   -0.016911
     3  C    0.353437
     4  C    0.262634
     5  C    0.577400
     6  H   -0.239941
     7  H   -0.204153
     8  H   -0.216802
     9  H   -0.162665
    10  H   -0.169040
    11  H   -0.233345
    12  P    0.182238
    13  H   -0.274794
    14  H    0.326593
    15  H    0.253025
    16  H    0.071887
 Sum of Mulliken charges =  -0.00000

 Dipole moment (field-independent basis, Debye):
    X=              1.6324    Y=              0.6090    Z=              0.1628  Tot=              1.7498

 Test job not archived.
 1\1\GINC-SE462\SP\RHF\Aug-CC-pVDZ\C4H10B1P1\OHZDE\09-Apr-2025\0\\#t hf
  aug-cc-pvdz iop(5/13=1,5/36=2,99/5=2) pseudo=read geom=check guess=(r
 ead,tcheck) scf=(maxcycle=1)\\title\\0,1\B,0,-2.735596,0.654251,-0.268
 083\C,0,0.271518,-0.01867,-0.403189\C,0,1.482146,-0.97585,-0.193556\C,
 0,1.087944,1.099925,0.308673\C,0,2.37372,0.275532,0.031852\H,0,0.86002
 ,1.145075,1.376371\H,0,1.015049,2.106195,-0.107826\H,0,2.866011,0.5915
 28,-0.890682\H,0,3.118808,0.224005,0.8274\H,0,1.733022,-1.649916,-1.01
 4144\H,0,1.378877,-1.564022,0.722233\P,0,-1.403195,-0.53246,0.183491\H

 Normal termination of Gaussian 16 at Wed Apr  9 00:41:22 2025.
