 Gaussian 16, Revision C.01,

 ----------------------------------------------------------------------
 #t hf aug-cc-pvdz symm=none int=(grid=ultrafine) guess=(read,tcheck) s
 table=(opt,rrhf)
 ----------------------------------------------------------------------
 -----
 title
 -----
 Symbolic Z-matrix:
 Charge =  0 Multiplicity = 1

 SCF Done:  E(RHF) =  -845.087840452     A.U. after   12 cycles
 Normal termination of Gaussian 16 at Wed Apr  9 00:06:48 2025.
 Gaussian 16:  ES64L-G16RevC.01  3-Jul-2019

 ----------------------------------------------------------------------
 #t hf aug-cc-pvdz iop(5/13=1,5/36=2,99/5=2) pseudo=read geom=check gue
 ss=(read,tcheck) scf=(maxcycle=1)
 ----------------------------------------------------------------------
 -----
 title
 -----
 Structure from the checkpoint file:  "BDE49_nonexpt_2276_mol1.chk"
 Charge =  0 Multiplicity = 1

                         Standard orientation:
 ---------------------------------------------------------------------
 Center     Atomic      Atomic             Coordinates (Angstroms)
 Number     Number       Type             X           Y           Z
 ---------------------------------------------------------------------
      1         14           0       -1.448229   -0.712584    0.220828
      2          6           0       -0.024332    0.153600   -0.684082
      3         14           0        1.723600   -0.476264   -0.393135
      4          8           0        2.105669    0.308817    1.022621
      5          1           0        3.012434    0.341517    1.333053
      6          8           0       -0.104821    1.562996   -0.288656
      7          1           0       -0.237645    0.126819   -1.758803
      8          1           0        0.473454    1.670690    0.478705
      9          8           0       -2.752466    0.295715    0.125040
     10          1           0       -2.508014    1.227196    0.084190
     11          1           0        2.669901   -0.081004   -1.464694
     12          1           0        1.763346   -1.951205   -0.242206
     13          1           0       -1.053831   -0.955543    1.630743
     14          1           0       -1.815904   -1.996421   -0.416241
 ---------------------------------------------------------------------

 SCF Done:  E(RHF) =  -845.236591256     A.U. after    2 cycles

 The electronic state is 1-A.
 Alpha  occ. eigenvalues --  -69.10517 -69.08757 -20.58963 -20.58457 -20.55979
 Alpha  occ. eigenvalues --  -11.26962  -6.85367  -6.83607  -3.96297  -3.96152
 Alpha  occ. eigenvalues --   -3.96109  -3.94522  -3.94419  -3.94357  -1.32655
 Alpha  occ. eigenvalues --   -1.31184  -1.28951  -0.91974  -0.78187  -0.74106
 Alpha  occ. eigenvalues --   -0.68010  -0.66887  -0.64954  -0.60986  -0.58415
 Alpha  occ. eigenvalues --   -0.56971  -0.55913  -0.55124  -0.54006  -0.48622
 Alpha  occ. eigenvalues --   -0.46788  -0.45160  -0.40580
 Alpha virt. eigenvalues --    0.02577   0.04074   0.04607   0.05322   0.06437
 Alpha virt. eigenvalues --    0.06607   0.06906   0.07651   0.08044   0.09079
 Alpha virt. eigenvalues --    0.09779   0.10320   0.10792   0.11272   0.12517

 Mulliken charges:
               1
     1  Si   0.804119
     2  C    0.481468
     3  Si   0.785057
     4  O   -0.801306
     5  H    0.121843
     6  O   -0.695672
     7  H   -0.370601
     8  H    0.196866
     9  O   -0.821221
    10  H    0.195604
    11  H    0.011781
    12  H    0.040468
    13  H    0.033020
    14  H    0.018574
 Sum of Mulliken charges =  -0.00000

 Dipole moment (field-independent basis, Debye):
    X=              3.7039    Y=             -0.5669    Z=              0.1421  Tot=              3.7497

 Test job not archived.
 1\1\GINC-SE396\SP\RHF\Aug-CC-pVDZ\C1H8O3Si2\OHZDE\09-Apr-2025\0\\#t hf
  aug-cc-pvdz iop(5/13=1,5/36=2,99/5=2) pseudo=read geom=check guess=(r
 ead,tcheck) scf=(maxcycle=1)\\title\\0,1\Si,0,-1.448229,-0.712584,0.22
 0828\C,0,-0.024332,0.1536,-0.684082\Si,0,1.7236,-0.476264,-0.393135\O,
 0,2.105669,0.308817,1.022621\H,0,3.012434,0.341517,1.333053\O,0,-0.104
 821,1.562996,-0.288656\H,0,-0.237645,0.126819,-1.758803\H,0,0.473454,1
 .67069,0.478705\O,0,-2.752466,0.295715,0.12504\H,0,-2.508014,1.227196,
 0.08419\H,0,2.669901,-0.081004,-1.464694\H,0,1.763346,-1.951205,-0.242

 Normal termination of Gaussian 16 at Wed Apr  9 00:06:52 2025.
