 Gaussian 16, Revision C.01,

 ----------------------------------------------------------------------
 #t hf aug-cc-pvdz symm=none int=(grid=ultrafine) guess=(read,tcheck) s
 table=(opt,rrhf)
 ----------------------------------------------------------------------
 -----
 title
 -----
 Symbolic Z-matrix:
 Charge =  0 Multiplicity = 1

 SCF Done:  E(RHF) =  -800.920685818     A.U. after   13 cycles

 1\1\GINC-SE126\Stability\RHF\Aug-CC-pVDZ\C3H10P2\OHZDE\08-Apr-2025\0\\
 #t hf aug-cc-pvdz symm=none int=(grid=ultrafine) guess=(read,tcheck) s
 table=(opt,rrhf)\\title\\0,1\P,0,0.729028,0.129688,-0.61457\P,0,-1.087
 602,-0.772683,0.325814\C,0,2.000327,-1.045214,0.070312\C,0,1.071545,1.
 62343,0.44443\C,0,-2.391063,0.420417,-0.277803\H,0,-2.150268,1.469242,
 -0.097554\H,0,-3.333842,0.186235,0.221908\H,0,-2.5314,0.269276,-1.3497
 81\H,0,1.844338,-2.036081,-0.360393\H,0,1.971737,-1.124185,1.160578\H,
 0,2.993143,-0.69921,-0.228948\H,0,0.282377,2.363805,0.29756\H,0,2.0137

 Normal termination of Gaussian 16 at Tue Apr  8 23:39:30 2025.
 Gaussian 16:  ES64L-G16RevC.01  3-Jul-2019

 ----------------------------------------------------------------------
 #t hf aug-cc-pvdz iop(5/13=1,5/36=2,99/5=2) pseudo=read geom=check gue
 ss=(read,tcheck) scf=(maxcycle=1)
 ----------------------------------------------------------------------
 -----
 title
 -----
 Structure from the checkpoint file:  "BDE49_nonexpt_1623_mol1.chk"
 Charge =  0 Multiplicity = 1

                         Standard orientation:
 ---------------------------------------------------------------------
 Center     Atomic      Atomic             Coordinates (Angstroms)
 Number     Number       Type             X           Y           Z
 ---------------------------------------------------------------------
      1         15           0        0.729028    0.129688   -0.614570
      2         15           0       -1.087602   -0.772683    0.325814
      3          6           0        2.000327   -1.045214    0.070312
      4          6           0        1.071545    1.623430    0.444430
      5          6           0       -2.391063    0.420417   -0.277803
      6          1           0       -2.150268    1.469242   -0.097554
      7          1           0       -3.333842    0.186235    0.221908
      8          1           0       -2.531400    0.269276   -1.349781
      9          1           0        1.844338   -2.036081   -0.360393
     10          1           0        1.971737   -1.124185    1.160578
     11          1           0        2.993143   -0.699210   -0.228948
     12          1           0        0.282377    2.363805    0.297560
     13          1           0        2.013794    2.077634    0.124064
     14          1           0        1.137697    1.380829    1.508292
     15          1           0       -0.933817   -0.234415    1.633982
 ---------------------------------------------------------------------

 SCF Done:  E(RHF) =  -801.003876665     A.U. after    2 cycles

 The electronic state is 1-A.
 Alpha  occ. eigenvalues --  -81.25238 -81.25043 -11.24003 -11.23866 -11.23692
 Alpha  occ. eigenvalues --   -7.75507  -7.75391  -4.89454  -4.89422  -4.89310
 Alpha  occ. eigenvalues --   -4.89259  -4.89099  -4.88993  -0.98511  -0.95832
 Alpha  occ. eigenvalues --   -0.93441  -0.76510  -0.66608  -0.59235  -0.58819
 Alpha  occ. eigenvalues --   -0.58060  -0.56926  -0.55835  -0.55587  -0.48479
 Alpha  occ. eigenvalues --   -0.46747  -0.42453  -0.34138  -0.31410
 Alpha virt. eigenvalues --    0.03683   0.04201   0.05035   0.05368   0.06492
 Alpha virt. eigenvalues --    0.06952   0.07156   0.07610   0.08307   0.09032
 Alpha virt. eigenvalues --    0.09632   0.11318   0.11552   0.11883   0.13403

 Mulliken charges:
               1
     1  P    0.356583
     2  P    0.120607
     3  C    0.326502
     4  C    0.280499
     5  C    0.222435
     6  H   -0.205911
     7  H   -0.187075
     8  H   -0.114856
     9  H   -0.162078
    10  H   -0.169432
    11  H   -0.179533
    12  H   -0.195453
    13  H   -0.143920
    14  H   -0.156723
    15  H    0.208356
 Sum of Mulliken charges =  -0.00000

 Dipole moment (field-independent basis, Debye):
    X=              0.3142    Y=              1.1029    Z=              0.9454  Tot=              1.4862

 Test job not archived.
 1\1\GINC-SE126\SP\RHF\Aug-CC-pVDZ\C3H10P2\OHZDE\08-Apr-2025\0\\#t hf a
 ug-cc-pvdz iop(5/13=1,5/36=2,99/5=2) pseudo=read geom=check guess=(rea
 d,tcheck) scf=(maxcycle=1)\\title\\0,1\P,0,0.729028,0.129688,-0.61457\
 P,0,-1.087602,-0.772683,0.325814\C,0,2.000327,-1.045214,0.070312\C,0,1
 .071545,1.62343,0.44443\C,0,-2.391063,0.420417,-0.277803\H,0,-2.150268
 ,1.469242,-0.097554\H,0,-3.333842,0.186235,0.221908\H,0,-2.5314,0.2692
 76,-1.349781\H,0,1.844338,-2.036081,-0.360393\H,0,1.971737,-1.124185,1
 .160578\H,0,2.993143,-0.69921,-0.228948\H,0,0.282377,2.363805,0.29756\

 Normal termination of Gaussian 16 at Tue Apr  8 23:39:35 2025.
