 Gaussian 16, Revision C.01,

 ----------------------------------------------------------------------
 #t hf aug-cc-pvdz symm=none int=(grid=ultrafine) guess=(read,tcheck) s
 table=(opt,rrhf)
 ----------------------------------------------------------------------
 -----
 title
 -----
 Symbolic Z-matrix:
 Charge =  0 Multiplicity = 1

 SCF Done:  E(RHF) =  -720.582746792     A.U. after   12 cycles
 Normal termination of Gaussian 16 at Wed Apr  9 00:12:48 2025.
 Gaussian 16:  ES64L-G16RevC.01  3-Jul-2019

 ----------------------------------------------------------------------
 #t hf aug-cc-pvdz iop(5/13=1,5/36=2,99/5=2) pseudo=read geom=check gue
 ss=(read,tcheck) scf=(maxcycle=1)
 ----------------------------------------------------------------------
 -----
 title
 -----
 Structure from the checkpoint file:  "BDE49_nonexpt_2456_mol1.chk"
 Charge =  0 Multiplicity = 1

                         Standard orientation:
 ---------------------------------------------------------------------
 Center     Atomic      Atomic             Coordinates (Angstroms)
 Number     Number       Type             X           Y           Z
 ---------------------------------------------------------------------
      1         14           0        2.193436    0.356122   -0.394149
      2         14           0        0.370974   -0.669241    0.704572
      3          5           0       -1.430710   -0.025397   -0.031972
      4          1           0        0.509790   -0.387987    2.158627
      5          1           0        0.515023   -2.143865    0.522619
      6          1           0        2.150716    0.063732   -1.849032
      7          1           0        3.490528   -0.128530    0.138350
      8          8           0       -2.172112   -0.846631   -0.825482
      9          6           0       -1.999845    1.407323    0.262255
     10          1           0        2.139290    1.829160   -0.220576
     11          1           0       -1.788890   -1.718603   -0.962209
     12          1           0       -1.290453    2.186192   -0.042170
     13          1           0       -2.145104    1.549497    1.340183
     14          1           0       -2.953135    1.590157   -0.241534
 ---------------------------------------------------------------------

 SCF Done:  E(RHF) =  -720.670136750     A.U. after    2 cycles

 The electronic state is 1-A.
 Alpha  occ. eigenvalues --  -69.06052 -69.04663 -20.59635 -11.20702  -7.64221
 Alpha  occ. eigenvalues --   -6.81449  -6.80268  -3.92205  -3.92201  -3.92176
 Alpha  occ. eigenvalues --   -3.91024  -3.90996  -3.90949  -1.33706  -0.94692
 Alpha  occ. eigenvalues --   -0.77278  -0.73845  -0.67344  -0.61893  -0.57745
 Alpha  occ. eigenvalues --   -0.56207  -0.53606  -0.52572  -0.49311  -0.48360
 Alpha  occ. eigenvalues --   -0.46729  -0.41312  -0.37615
 Alpha virt. eigenvalues --    0.03141   0.04024   0.04984   0.05170   0.06295
 Alpha virt. eigenvalues --    0.06655   0.07019   0.07215   0.07586   0.08482
 Alpha virt. eigenvalues --    0.08967   0.09493   0.09571   0.10053   0.10305

 Mulliken charges:
               1
     1  Si  -0.096639
     2  Si  -0.542163
     3  B    0.760253
     4  H    0.098288
     5  H    0.069143
     6  H    0.041634
     7  H    0.017902
     8  O   -0.438469
     9  C    0.485900
    10  H    0.056541
    11  H    0.213412
    12  H   -0.144547
    13  H   -0.163253
    14  H   -0.358002
 Sum of Mulliken charges =  -0.00000

 Dipole moment (field-independent basis, Debye):
    X=              0.1037    Y=             -0.5686    Z=              0.1623  Tot=              0.6003

 Test job not archived.
 1\1\GINC-SE252\SP\RHF\Aug-CC-pVDZ\C1H9B1O1Si2\OHZDE\09-Apr-2025\0\\#t
 hf aug-cc-pvdz iop(5/13=1,5/36=2,99/5=2) pseudo=read geom=check guess=
 (read,tcheck) scf=(maxcycle=1)\\title\\0,1\Si,0,2.193436,0.356122,-0.3
 94149\Si,0,0.370974,-0.669241,0.704572\B,0,-1.43071,-0.025397,-0.03197
 2\H,0,0.50979,-0.387987,2.158627\H,0,0.515023,-2.143865,0.522619\H,0,2
 .150716,0.063732,-1.849032\H,0,3.490528,-0.12853,0.13835\O,0,-2.172112
 ,-0.846631,-0.825482\C,0,-1.999845,1.407323,0.262255\H,0,2.13929,1.829
 16,-0.220576\H,0,-1.78889,-1.718603,-0.962209\H,0,-1.290453,2.186192,-

 Normal termination of Gaussian 16 at Wed Apr  9 00:12:53 2025.
