 Gaussian 16, Revision C.01,

 ----------------------------------------------------------------------
 #t hf aug-cc-pvdz symm=none int=(grid=ultrafine) guess=(read,tcheck) s
 table=opt
 ----------------------------------------------------------------------
 -----
 title
 -----
 Symbolic Z-matrix:
 Charge =  0 Multiplicity = 2

 SCF Done:  E(UHF) =  -476.168334262     A.U. after   15 cycles
 Normal termination of Gaussian 16 at Tue Apr  8 22:44:42 2025.
 Gaussian 16:  ES64L-G16RevC.01  3-Jul-2019

 ----------------------------------------------------------------------
 #t hf aug-cc-pvdz iop(5/13=1,5/36=2,99/5=2) pseudo=read geom=check gue
 ss=(read,tcheck) scf=(maxcycle=1)
 ----------------------------------------------------------------------
 -----
 title
 -----
 Structure from the checkpoint file:  "BDE49_expt_1563_mol2.chk"
 Charge =  0 Multiplicity = 2

                         Standard orientation:
 ---------------------------------------------------------------------
 Center     Atomic      Atomic             Coordinates (Angstroms)
 Number     Number       Type             X           Y           Z
 ---------------------------------------------------------------------
      1         16           0       -1.195574   -0.159439   -0.000000
      2          6           0        0.440361    0.620884   -0.000000
      3          6           0        1.629250   -0.335857   -0.000000
      4          1           0        0.456732    1.287039    0.871073
      5          1           0        0.456733    1.287042   -0.871070
      6          1           0        1.613945   -0.978705    0.882544
      7          1           0        2.570168    0.224201    0.000001
      8          1           0        1.613946   -0.978703   -0.882546
 ---------------------------------------------------------------------

 SCF Done:  E(UHF) =  -476.212342558     A.U. after    2 cycles

 The electronic state is 2-A.
 Alpha  occ. eigenvalues --  -93.54826 -11.27802 -11.23916  -8.84553  -6.19888
 Alpha  occ. eigenvalues --   -6.18213  -6.17771  -1.06731  -0.93885  -0.81256
 Alpha  occ. eigenvalues --   -0.64010  -0.59457  -0.54783  -0.52514  -0.47067
 Alpha  occ. eigenvalues --   -0.42350  -0.36718
 Alpha virt. eigenvalues --    0.03496   0.05059   0.05130   0.06058   0.07806
 Alpha virt. eigenvalues --    0.08482   0.12377   0.12740   0.13324   0.14831
 Alpha virt. eigenvalues --    0.16170   0.16994   0.17010   0.18172   0.18176

  Beta  occ. eigenvalues --  -93.53929 -11.27933 -11.23915  -8.83555  -6.17676
  Beta  occ. eigenvalues --   -6.17223  -6.15951  -1.05280  -0.90192  -0.76678
  Beta  occ. eigenvalues --   -0.62684  -0.58985  -0.54546  -0.51330  -0.45864
  Beta  occ. eigenvalues --   -0.34491
  Beta virt. eigenvalues --    0.01999   0.03518   0.05072   0.05405   0.06110
  Beta virt. eigenvalues --    0.07855   0.08651   0.12515   0.12821   0.14897
  Beta virt. eigenvalues --    0.14940   0.16242   0.17065   0.17680   0.18363

 Mulliken charges and spin densities:
               1          2
     1  S    0.206698   1.083686
     2  C   -0.336577  -0.110046
     3  C    0.306204  -0.012176
     4  H   -0.017914   0.019637
     5  H   -0.017916   0.019637
     6  H   -0.044844  -0.000619
     7  H   -0.050809   0.000499
     8  H   -0.044843  -0.000618
 Sum of Mulliken charges =  -0.00000   1.00000

 Dipole moment (field-independent basis, Debye):
    X=              1.6955    Y=              0.7377    Z=              0.0000  Tot=              1.8490
                          Isotropic Fermi Contact Couplings
        Atom                 a.u.       MegaHertz       Gauss      10(-4) cm-1
     1  S(33)              0.18639      64.02045      22.84409      21.35492
     2  C(13)             -0.02724     -30.62287     -10.92700     -10.21469
     3  C(13)             -0.00061      -0.69100      -0.24656      -0.23049
     4  H(1)               0.01222      54.63135      19.49382      18.22306
     5  H(1)               0.01222      54.63065      19.49357      18.22282
     6  H(1)              -0.00027      -1.20820      -0.43112      -0.40301
     7  H(1)              -0.00078      -3.48597      -1.24388      -1.16279
     8  H(1)              -0.00027      -1.20821      -0.43112      -0.40301

 Normal termination of Gaussian 16 at Tue Apr  8 22:44:46 2025.
