 Gaussian 16, Revision C.01,

 ----------------------------------------------------------------------
 #t hf aug-cc-pvdz symm=none int=(grid=ultrafine) guess=(read,tcheck) s
 table=(opt,rrhf)
 ----------------------------------------------------------------------
 -----
 title
 -----
 Symbolic Z-matrix:
 Charge =  0 Multiplicity = 1

 SCF Done:  E(RHF) =  -1462.36730834     A.U. after   13 cycles
 Normal termination of Gaussian 16 at Tue Apr  8 23:53:45 2025.
 Gaussian 16:  ES64L-G16RevC.01  3-Jul-2019

 ----------------------------------------------------------------------
 #t hf aug-cc-pvdz iop(5/13=1,5/36=2,99/5=2) pseudo=read geom=check gue
 ss=(read,tcheck) scf=(maxcycle=1)
 ----------------------------------------------------------------------
 -----
 title
 -----
 Structure from the checkpoint file:  "BDE49_nonexpt_1954_mol1.chk"
 Charge =  0 Multiplicity = 1

                         Standard orientation:
 ---------------------------------------------------------------------
 Center     Atomic      Atomic             Coordinates (Angstroms)
 Number     Number       Type             X           Y           Z
 ---------------------------------------------------------------------
      1         14           0        0.670228    1.741465    0.029341
      2          6           0       -1.212295    1.511294   -0.197756
      3         15           0       -1.755245   -0.183159    0.064856
      4          8           0       -3.345510   -0.054090    0.105551
      5          8           0       -1.492556   -0.982710   -1.274807
      6          1           0       -3.784663   -0.882970    0.335560
      7          1           0       -0.526347   -1.190672   -1.389813
      8          8           0       -1.146846   -0.785141    1.280179
      9         15           0        1.688508   -0.301840   -0.047252
     10          1           0        0.950741    2.400205    1.320802
     11          1           0        1.207332    2.545096   -1.088870
     12          8           0        3.265346   -0.025043   -0.112183
     13          1           0        3.691063   -0.540687   -0.809239
     14          8           0        1.534349   -0.993272    1.371766
     15          1           0        0.568920   -1.095519    1.567997
     16          8           0        1.187813   -1.083497   -1.216811
     17          1           0       -1.518680    1.839143   -1.193297
     18          1           0       -1.717497    2.142136    0.538989
 ---------------------------------------------------------------------

 SCF Done:  E(RHF) =  -1462.67397328     A.U. after    2 cycles

 The electronic state is 1-A.
 Alpha  occ. eigenvalues --  -81.42915 -81.41679 -69.10611 -20.62533 -20.62195
 Alpha  occ. eigenvalues --  -20.59817 -20.59722 -20.54203 -20.54175 -11.26412
 Alpha  occ. eigenvalues --   -7.91230  -7.90144  -6.85845  -5.05908  -5.05828
 Alpha  occ. eigenvalues --   -5.05499  -5.04793  -5.04708  -5.04258  -3.96611
 Alpha  occ. eigenvalues --   -3.96592  -3.96572  -1.38485  -1.37928  -1.34447
 Alpha  occ. eigenvalues --   -1.33979  -1.27630  -1.27043  -1.00326  -0.85180
 Alpha  occ. eigenvalues --   -0.84108  -0.76766  -0.75182  -0.72819  -0.70411
 Alpha  occ. eigenvalues --   -0.68682  -0.67189  -0.65151  -0.63253  -0.62656
 Alpha  occ. eigenvalues --   -0.61081  -0.60611  -0.58974  -0.58235  -0.57826
 Alpha  occ. eigenvalues --   -0.54138  -0.52853  -0.50871  -0.50407  -0.49845
 Alpha  occ. eigenvalues --   -0.49454  -0.48570  -0.43266
 Alpha virt. eigenvalues --    0.02781   0.03827   0.04176   0.05110   0.05858
 Alpha virt. eigenvalues --    0.06453   0.07367   0.07771   0.08234   0.08910
 Alpha virt. eigenvalues --    0.10513   0.10752   0.11547   0.11727   0.12097

 Mulliken charges:
               1
     1  Si  -0.037734
     2  C   -0.170594
     3  P    2.349047
     4  O   -0.699265
     5  O   -0.763722
     6  H    0.167328
     7  H    0.243874
     8  O   -1.080455
     9  P    2.212122
    10  H    0.167686
    11  H    0.136392
    12  O   -0.687251
    13  H    0.128618
    14  O   -0.825546
    15  H    0.284072
    16  O   -1.120252
    17  H   -0.129195
    18  H   -0.175125
 Sum of Mulliken charges =  -0.00000

 Dipole moment (field-independent basis, Debye):
    X=             -0.8536    Y=              3.0386    Z=             -0.8573  Tot=              3.2706

 Test job not archived.
 1\1\GINC-SE343\SP\RHF\Aug-CC-pVDZ\C1H8O6P2Si1\OHZDE\08-Apr-2025\0\\#t
 hf aug-cc-pvdz iop(5/13=1,5/36=2,99/5=2) pseudo=read geom=check guess=
 (read,tcheck) scf=(maxcycle=1)\\title\\0,1\Si,0,0.670228,1.741465,0.02
 9341\C,0,-1.212295,1.511294,-0.197756\P,0,-1.755245,-0.183159,0.064856
 \O,0,-3.34551,-0.05409,0.105551\O,0,-1.492556,-0.98271,-1.274807\H,0,-
 3.784663,-0.88297,0.33556\H,0,-0.526347,-1.190672,-1.389813\O,0,-1.146
 846,-0.785141,1.280179\P,0,1.688508,-0.30184,-0.047252\H,0,0.950741,2.
 400205,1.320802\H,0,1.207332,2.545096,-1.08887\O,0,3.265346,-0.025043,

 Normal termination of Gaussian 16 at Tue Apr  8 23:53:55 2025.
