 Gaussian 16, Revision C.01,

 ----------------------------------------------------------------------
 #t hf aug-cc-pvdz symm=none int=(grid=ultrafine) guess=(read,tcheck) s
 table=(opt,rrhf)
 ----------------------------------------------------------------------
 -----
 title
 -----
 Symbolic Z-matrix:
 Charge =  0 Multiplicity = 1

 SCF Done:  E(RHF) =  -1063.08730137     A.U. after   16 cycles
 Normal termination of Gaussian 16 at Tue Apr  8 23:10:54 2025.
 Gaussian 16:  ES64L-G16RevC.01  3-Jul-2019

 ----------------------------------------------------------------------
 #t hf aug-cc-pvdz iop(5/13=1,5/36=2,99/5=2) pseudo=read geom=check gue
 ss=(read,tcheck) scf=(maxcycle=1)
 ----------------------------------------------------------------------
 -----
 title
 -----
 Structure from the checkpoint file:  "BDE49_expt_534_mol1.chk"
 Charge =  0 Multiplicity = 1

                         Standard orientation:
 ---------------------------------------------------------------------
 Center     Atomic      Atomic             Coordinates (Angstroms)
 Number     Number       Type             X           Y           Z
 ---------------------------------------------------------------------
      1          6           0        2.437417    0.864630   -0.195037
      2          6           0        1.403118    0.088361    0.637270
      3          6           0        1.771779   -1.374756    0.378116
      4          7           0        2.830977   -1.379474   -0.520823
      5          7           0        3.352868   -0.066242   -0.676219
      6          1           0        3.730695    0.130482   -1.596213
      7          1           0        3.527715   -2.102997   -0.387393
      8          6           0       -0.044467    0.496473    0.388330
      9          8           0        1.298244   -2.369248    0.871572
     10          8           0        2.491971    2.046404   -0.426216
     11          1           0        1.637679    0.267466    1.695128
     12          6           0       -1.027487   -0.457610    0.116061
     13          6           0       -2.339845   -0.043103   -0.088930
     14          6           0       -2.703469    1.295718   -0.023561
     15          6           0       -1.717248    2.237783    0.257881
     16          6           0       -0.398209    1.848273    0.465856
     17          1           0        0.362654    2.590979    0.663375
     18          1           0       -1.982559    3.287106    0.314835
     19          1           0       -0.787529   -1.510885    0.086622
     20         17           0       -3.567928   -1.252023   -0.434734
     21          1           0       -3.732047    1.590383   -0.185346
 ---------------------------------------------------------------------

 SCF Done:  E(RHF) =  -1063.28130517     A.U. after    2 cycles

 The electronic state is 1-A.
 Alpha  occ. eigenvalues -- -103.66697 -20.58252 -20.58113 -15.71459 -15.71411
 Alpha  occ. eigenvalues --  -11.40691 -11.40666 -11.31810 -11.30610 -11.28646
 Alpha  occ. eigenvalues --  -11.26524 -11.26475 -11.26366 -11.25900 -10.69959
 Alpha  occ. eigenvalues --   -8.35696  -8.35392  -8.35373  -1.40786  -1.38753
 Alpha  occ. eigenvalues --   -1.31773  -1.20263  -1.14946  -1.10686  -1.09086
 Alpha  occ. eigenvalues --   -1.02096  -1.00413  -0.87884  -0.84732  -0.81812
 Alpha  occ. eigenvalues --   -0.80877  -0.75893  -0.72891  -0.70999  -0.68955
 Alpha  occ. eigenvalues --   -0.67812  -0.66193  -0.65020  -0.64628  -0.62250
 Alpha  occ. eigenvalues --   -0.60179  -0.59606  -0.59051  -0.55220  -0.53852
 Alpha  occ. eigenvalues --   -0.52625  -0.51736  -0.49380  -0.47691  -0.46869
 Alpha  occ. eigenvalues --   -0.45531  -0.39949  -0.35917  -0.34600
 Alpha virt. eigenvalues --    0.02530   0.03381   0.03773   0.04605   0.05422
 Alpha virt. eigenvalues --    0.06063   0.07479   0.08163   0.08987   0.09135
 Alpha virt. eigenvalues --    0.09641   0.10359   0.10652   0.11274   0.11698

 Mulliken charges:
               1
     1  C    0.707296
     2  C   -0.403179
     3  C    0.887309
     4  N   -0.311705
     5  N   -0.262932
     6  H    0.049587
     7  H    0.053721
     8  C    0.466816
     9  O   -0.503599
    10  O   -0.445768
    11  H    0.154915
    12  C    1.212132
    13  C   -0.663437
    14  C    0.833713
    15  C    0.555393
    16  C    0.096546
    17  H   -0.673200
    18  H   -0.436852
    19  H   -0.487325
    20  Cl  -0.377401
    21  H   -0.452031
 Sum of Mulliken charges =  -0.00000

 Dipole moment (field-independent basis, Debye):
    X=              3.0139    Y=              0.8041    Z=             -0.6335  Tot=              3.1830

 Test job not archived.
 1\1\GINC-SE212\SP\RHF\Aug-CC-pVDZ\C9H7Cl1N2O2\OHZDE\08-Apr-2025\0\\#t
 hf aug-cc-pvdz iop(5/13=1,5/36=2,99/5=2) pseudo=read geom=check guess=
 (read,tcheck) scf=(maxcycle=1)\\title\\0,1\C,0,2.437417,0.86463,-0.195
 037\C,0,1.403118,0.088361,0.63727\C,0,1.771779,-1.374756,0.378116\N,0,
 2.830977,-1.379474,-0.520823\N,0,3.352868,-0.066242,-0.676219\H,0,3.73
 0695,0.130482,-1.596213\H,0,3.527715,-2.102997,-0.387393\C,0,-0.044467
 ,0.496473,0.38833\O,0,1.298244,-2.369248,0.871572\O,0,2.491971,2.04640
 4,-0.426216\H,0,1.637679,0.267466,1.695128\C,0,-1.027487,-0.45761,0.11

 Normal termination of Gaussian 16 at Tue Apr  8 23:11:13 2025.
