 Gaussian 16, Revision C.01,

 ----------------------------------------------------------------------
 #t hf aug-cc-pvdz symm=none int=(grid=ultrafine) guess=(read,tcheck) s
 table=(opt,rrhf)
 ----------------------------------------------------------------------
 -----
 title
 -----
 Symbolic Z-matrix:
 Charge =  0 Multiplicity = 1

 SCF Done:  E(RHF) =  -1517.14804290     A.U. after   13 cycles
 Normal termination of Gaussian 16 at Wed Apr  9 00:27:15 2025.
 Gaussian 16:  ES64L-G16RevC.01  3-Jul-2019

 ----------------------------------------------------------------------
 #t hf aug-cc-pvdz iop(5/13=1,5/36=2,99/5=2) pseudo=read geom=check gue
 ss=(read,tcheck) scf=(maxcycle=1)
 ----------------------------------------------------------------------
 -----
 title
 -----
 Structure from the checkpoint file:  "BDE49_nonexpt_331_mol1.chk"
 Charge =  0 Multiplicity = 1

                         Standard orientation:
 ---------------------------------------------------------------------
 Center     Atomic      Atomic             Coordinates (Angstroms)
 Number     Number       Type             X           Y           Z
 ---------------------------------------------------------------------
      1          6           0        0.092735    0.000004   -0.083058
      2          5           0       -0.968376    0.000094   -1.290080
      3         17           0        1.108666    1.474088   -0.237507
      4         17           0        1.108832   -1.473924   -0.237882
      5         17           0       -0.709298   -0.000249    1.539626
      6          8           0       -2.285377    0.000080   -1.076081
      7          1           0       -2.527885   -0.000080   -0.138433
      8          1           0       -0.543038    0.000388   -2.396197
 ---------------------------------------------------------------------

 SCF Done:  E(RHF) =  -1517.24918388     A.U. after    2 cycles

 The electronic state is 1-A.
 Alpha  occ. eigenvalues -- -103.69905-103.69654-103.69654 -20.62146 -11.43382
 Alpha  occ. eigenvalues --  -10.73195 -10.72923 -10.72914  -8.38902  -8.38636
 Alpha  occ. eigenvalues --   -8.38631  -8.38597  -8.38580  -8.38304  -8.38302
 Alpha  occ. eigenvalues --   -8.38300  -8.38299  -7.68142  -1.36830  -1.25967
 Alpha  occ. eigenvalues --   -1.16377  -1.16251  -0.89236  -0.80613  -0.70354
 Alpha  occ. eigenvalues --   -0.66315  -0.64245  -0.61379  -0.58676  -0.54360
 Alpha  occ. eigenvalues --   -0.52386  -0.51967  -0.48503  -0.48475  -0.47155
 Alpha  occ. eigenvalues --   -0.46039
 Alpha virt. eigenvalues --    0.04030   0.04808   0.05299   0.06110   0.08208
 Alpha virt. eigenvalues --    0.08376   0.08455   0.08963   0.11476   0.11941
 Alpha virt. eigenvalues --    0.12470   0.14700   0.14840   0.17118   0.17573

 Mulliken charges:
               1
     1  C   -0.570663
     2  B    0.626337
     3  Cl  -0.018886
     4  Cl  -0.018886
     5  Cl  -0.029170
     6  O   -0.441665
     7  H    0.218647
     8  H    0.234285
 Sum of Mulliken charges =   0.00000

 Dipole moment (field-independent basis, Debye):
    X=             -0.6516    Y=             -0.0003    Z=              0.3724  Tot=              0.7505

 Test job not archived.
 1\1\GINC-SE340\SP\RHF\Aug-CC-pVDZ\C1H2B1Cl3O1\OHZDE\09-Apr-2025\0\\#t
 hf aug-cc-pvdz iop(5/13=1,5/36=2,99/5=2) pseudo=read geom=check guess=
 (read,tcheck) scf=(maxcycle=1)\\title\\0,1\C,0,-0.092735,-0.000004,-0.
 083058\B,0,0.968376,-0.000094,-1.29008\Cl,0,-1.108665,-1.474088,-0.237
 507\Cl,0,-1.108832,1.473924,-0.237882\Cl,0,0.709298,0.000249,1.539626\
 O,0,2.285377,-0.000079,-1.076081\H,0,2.527885,0.000081,-0.138433\H,0,0
 .543038,-0.000388,-2.396197\\Version=ES64L-G16RevC.01\State=1-A\HF=-15
 17.2491839\RMSD=3.444e-03\Dipole=0.2563599,0.0001106,0.146524\Quadrupo

 Normal termination of Gaussian 16 at Wed Apr  9 00:27:18 2025.
