 Gaussian 16, Revision C.01,

 ----------------------------------------------------------------------
 #t hf aug-cc-pvdz symm=none int=(grid=ultrafine) guess=(read,tcheck) s
 table=(opt,rrhf)
 ----------------------------------------------------------------------
 -----
 title
 -----
 Symbolic Z-matrix:
 Charge =  0 Multiplicity = 1

 SCF Done:  E(RHF) =  -1212.99144087     A.U. after   15 cycles
 Normal termination of Gaussian 16 at Wed Apr  9 00:13:50 2025.
 Gaussian 16:  ES64L-G16RevC.01  3-Jul-2019

 ----------------------------------------------------------------------
 #t hf aug-cc-pvdz iop(5/13=1,5/36=2,99/5=2) pseudo=read geom=check gue
 ss=(read,tcheck) scf=(maxcycle=1)
 ----------------------------------------------------------------------
 -----
 title
 -----
 Structure from the checkpoint file:  "BDE49_nonexpt_245_mol1.chk"
 Charge =  0 Multiplicity = 1

                         Standard orientation:
 ---------------------------------------------------------------------
 Center     Atomic      Atomic             Coordinates (Angstroms)
 Number     Number       Type             X           Y           Z
 ---------------------------------------------------------------------
      1         17           0       -2.538726    1.505803    0.003223
      2         17           0       -2.538695   -1.505829    0.003212
      3          5           0       -1.600328   -0.000003    0.000715
      4          6           0       -0.062119    0.000010   -0.002413
      5          6           0        0.672237   -1.202919   -0.005566
      6          1           0        0.144234   -2.148971   -0.007484
      7          6           0        2.059483   -1.201307   -0.010303
      8          1           0        2.596424   -2.144265   -0.016618
      9          6           0        2.778998    0.000041   -0.009958
     10          6           0        4.285722   -0.000013    0.016673
     11          6           0        0.672203    1.202939   -0.005549
     12          1           0        0.144187    2.148984   -0.007454
     13          6           0        2.059469    1.201355   -0.010283
     14          1           0        2.596390    2.144321   -0.016580
     15          1           0        4.693970   -0.884578   -0.476790
     16          1           0        4.652628   -0.002406    1.049133
     17          1           0        4.694000    0.886743   -0.472782
 ---------------------------------------------------------------------

 SCF Done:  E(RHF) =  -1213.11111796     A.U. after    2 cycles

 The electronic state is 1-A.
 Alpha  occ. eigenvalues -- -103.66139-103.66138 -11.27706 -11.26611 -11.26609
 Alpha  occ. eigenvalues --  -11.25090 -11.25087 -11.24984 -11.24065 -10.69633
 Alpha  occ. eigenvalues --  -10.69601  -8.35312  -8.35307  -8.35093  -8.35091
 Alpha  occ. eigenvalues --   -8.35071  -8.35068  -7.72281  -1.17755  -1.15591
 Alpha  occ. eigenvalues --   -1.13661  -1.05341  -1.02381  -0.94830  -0.84293
 Alpha  occ. eigenvalues --   -0.82139  -0.72829  -0.66744  -0.66199  -0.63866
 Alpha  occ. eigenvalues --   -0.60314  -0.59333  -0.58454  -0.57239  -0.55097
 Alpha  occ. eigenvalues --   -0.53088  -0.51382  -0.50209  -0.49718  -0.47390
 Alpha  occ. eigenvalues --   -0.47027  -0.45898  -0.35408  -0.34832
 Alpha virt. eigenvalues --    0.02954   0.03968   0.04216   0.04330   0.05276
 Alpha virt. eigenvalues --    0.05882   0.05917   0.06441   0.07423   0.07992
 Alpha virt. eigenvalues --    0.08203   0.09314   0.10379   0.10942   0.13027

 Mulliken charges:
               1
     1  Cl  -0.356080
     2  Cl  -0.356074
     3  B    0.548946
     4  C    0.322249
     5  C    0.137822
     6  H   -0.689313
     7  C    0.913708
     8  H   -0.583865
     9  C   -0.235858
    10  C    0.591033
    11  C    0.137262
    12  H   -0.689229
    13  C    0.912987
    14  H   -0.583819
    15  H   -0.084715
    16  H    0.101116
    17  H   -0.086169
 Sum of Mulliken charges =  -0.00000

 Dipole moment (field-independent basis, Debye):
    X=              3.6811    Y=             -0.0001    Z=              0.0346  Tot=              3.6813

 Test job not archived.
 1\1\GINC-SE335\SP\RHF\Aug-CC-pVDZ\C7H7B1Cl2\OHZDE\09-Apr-2025\0\\#t hf
  aug-cc-pvdz iop(5/13=1,5/36=2,99/5=2) pseudo=read geom=check guess=(r
 ead,tcheck) scf=(maxcycle=1)\\title\\0,1\Cl,0,-2.538726,1.505803,0.003
 223\Cl,0,-2.538695,-1.505829,0.003212\B,0,-1.600328,-0.000003,0.000715
 \C,0,-0.062119,0.00001,-0.002413\C,0,0.672237,-1.202919,-0.005566\H,0,
 0.144234,-2.148971,-0.007484\C,0,2.059483,-1.201307,-0.010303\H,0,2.59
 6424,-2.144265,-0.016618\C,0,2.778998,0.000041,-0.009958\C,0,4.285722,
 -0.000013,0.016673\C,0,0.672203,1.202939,-0.005549\H,0,0.144187,2.1489

 Normal termination of Gaussian 16 at Wed Apr  9 00:14:00 2025.
