 Gaussian 16, Revision C.01,

 ----------------------------------------------------------------------
 #t hf aug-cc-pvdz symm=none int=(grid=ultrafine) guess=(read,tcheck) s
 table=(opt,rrhf)
 ----------------------------------------------------------------------
 -----
 title
 -----
 Symbolic Z-matrix:
 Charge =  0 Multiplicity = 1

 SCF Done:  E(RHF) =  -407.378238396     A.U. after   12 cycles
 Normal termination of Gaussian 16 at Wed Apr  9 00:39:49 2025.
 Gaussian 16:  ES64L-G16RevC.01  3-Jul-2019

 ----------------------------------------------------------------------
 #t hf aug-cc-pvdz iop(5/13=1,5/36=2,99/5=2) pseudo=read geom=check gue
 ss=(read,tcheck) scf=(maxcycle=1)
 ----------------------------------------------------------------------
 -----
 title
 -----
 Structure from the checkpoint file:  "BDE49_nonexpt_647_mol1.chk"
 Charge =  0 Multiplicity = 1

                         Standard orientation:
 ---------------------------------------------------------------------
 Center     Atomic      Atomic             Coordinates (Angstroms)
 Number     Number       Type             X           Y           Z
 ---------------------------------------------------------------------
      1          8           0        0.700278    0.494208    0.623621
      2          5           0        1.785789   -0.057214    0.008153
      3          8           0        2.915232    0.700576   -0.172417
      4          6           0       -0.502066   -0.256699    0.835833
      5          6           0       -1.517280   -0.047971   -0.291177
      6          6           0       -2.752638   -0.923388   -0.043754
      7          1           0       -2.488808   -1.982980    0.022008
      8          1           0       -3.478997   -0.810119   -0.852792
      9          1           0       -3.252808   -0.643212    0.889840
     10          6           0       -1.893728    1.429808   -0.446629
     11          1           0       -1.038363   -0.385887   -1.218698
     12          1           0       -2.407474    1.796551    0.449153
     13          1           0       -2.563804    1.576459   -1.298434
     14          1           0       -1.006445    2.046832   -0.600054
     15          1           0       -0.919338    0.092701    1.785981
     16          1           0       -0.261581   -1.318918    0.931769
     17          8           0        1.768142   -1.354507   -0.430323
     18          1           0        2.607192   -1.604862   -0.826614
     19          1           0        2.806538    1.586786    0.184386
 ---------------------------------------------------------------------

 SCF Done:  E(RHF) =  -407.517296580     A.U. after    2 cycles

 The electronic state is 1-A.
 Alpha  occ. eigenvalues --  -20.57908 -20.57711 -20.56930 -11.28577 -11.23589
 Alpha  occ. eigenvalues --  -11.22545 -11.21929  -7.68084  -1.35699  -1.31057
 Alpha  occ. eigenvalues --   -1.30732  -1.07058  -0.92720  -0.92337  -0.79347
 Alpha  occ. eigenvalues --   -0.77311  -0.75517  -0.69809  -0.65326  -0.63581
 Alpha  occ. eigenvalues --   -0.60232  -0.59102  -0.58527  -0.57458  -0.55085
 Alpha  occ. eigenvalues --   -0.53612  -0.52590  -0.52418  -0.50635  -0.47591
 Alpha  occ. eigenvalues --   -0.46454  -0.44535
 Alpha virt. eigenvalues --    0.03285   0.04283   0.04679   0.04759   0.06085
 Alpha virt. eigenvalues --    0.06492   0.06585   0.06792   0.07137   0.08623
 Alpha virt. eigenvalues --    0.09028   0.09157   0.09440   0.10544   0.12440

 Mulliken charges:
               1
     1  O   -0.584987
     2  B    0.778119
     3  O   -0.521770
     4  C    1.284064
     5  C   -1.543590
     6  C    0.762421
     7  H   -0.067778
     8  H   -0.065727
     9  H    0.001328
    10  C    0.731587
    11  H   -0.147637
    12  H   -0.008441
    13  H   -0.047966
    14  H   -0.076918
    15  H   -0.202954
    16  H   -0.172398
    17  O   -0.475837
    18  H    0.179174
    19  H    0.179309
 Sum of Mulliken charges =  -0.00000

 Dipole moment (field-independent basis, Debye):
    X=             -0.4005    Y=              0.0619    Z=              0.0332  Tot=              0.4066

 Test job not archived.
 1\1\GINC-SE106\SP\RHF\Aug-CC-pVDZ\C4H11B1O3\OHZDE\09-Apr-2025\0\\#t hf
  aug-cc-pvdz iop(5/13=1,5/36=2,99/5=2) pseudo=read geom=check guess=(r
 ead,tcheck) scf=(maxcycle=1)\\title\\0,1\O,0,0.700278,0.494208,0.62362
 1\B,0,1.785789,-0.057214,0.008153\O,0,2.915232,0.700576,-0.172417\C,0,
 -0.502066,-0.256699,0.835833\C,0,-1.51728,-0.047971,-0.291177\C,0,-2.7
 52638,-0.923388,-0.043754\H,0,-2.488808,-1.98298,0.022008\H,0,-3.47899
 7,-0.810119,-0.852792\H,0,-3.252808,-0.643212,0.88984\C,0,-1.893728,1.
 429808,-0.446629\H,0,-1.038363,-0.385887,-1.218698\H,0,-2.407474,1.796

 Normal termination of Gaussian 16 at Wed Apr  9 00:39:58 2025.
