 Gaussian 16, Revision C.01,

 ----------------------------------------------------------------------
 #t hf aug-cc-pvdz symm=none int=(grid=ultrafine) guess=(read,tcheck) s
 table=opt
 ----------------------------------------------------------------------
 -----
 title
 -----
 Symbolic Z-matrix:
 Charge =  0 Multiplicity = 2

 SCF Done:  E(UHF) =  -497.461065838     A.U. after   19 cycles
 Normal termination of Gaussian 16 at Wed Apr  9 00:09:41 2025.
 Gaussian 16:  ES64L-G16RevC.01  3-Jul-2019

 ----------------------------------------------------------------------
 #t hf aug-cc-pvdz iop(5/13=1,5/36=2,99/5=2) pseudo=read geom=check gue
 ss=(read,tcheck) scf=(maxcycle=1)
 ----------------------------------------------------------------------
 -----
 title
 -----
 Structure from the checkpoint file:  "BDE49_nonexpt_2371_mol3.chk"
 Charge =  0 Multiplicity = 2

                         Standard orientation:
 ---------------------------------------------------------------------
 Center     Atomic      Atomic             Coordinates (Angstroms)
 Number     Number       Type             X           Y           Z
 ---------------------------------------------------------------------
      1         14           0        1.860311   -0.396254   -0.000002
      2          6           0        0.031746    0.241353    0.000034
      3          1           0        2.512013    0.168521   -1.209610
      4          1           0        2.512048    0.168505    1.209593
      5          8           0       -0.102988    1.457138   -0.000004
      6          7           0       -1.000016   -0.640510    0.000002
      7          6           0       -2.400468   -0.237058   -0.000013
      8          1           0       -0.770690   -1.622310   -0.000001
      9          1           0       -2.431334    0.851027   -0.000089
     10          1           0       -2.915015   -0.608683    0.890400
     11          1           0       -2.915024   -0.608812   -0.890367
 ---------------------------------------------------------------------

 SCF Done:  E(UHF) =  -497.546837672     A.U. after    2 cycles

 The electronic state is 2-A.
 Alpha  occ. eigenvalues --  -69.08711 -20.54318 -15.66083 -11.35583 -11.27703
 Alpha  occ. eigenvalues --   -6.84059  -3.95399  -3.94497  -3.94478  -1.34784
 Alpha  occ. eigenvalues --   -1.20165  -0.96115  -0.80131  -0.76035  -0.65669
 Alpha  occ. eigenvalues --   -0.65213  -0.62966  -0.56201  -0.55559  -0.55525
 Alpha  occ. eigenvalues --   -0.48909  -0.42832  -0.40065  -0.34074
 Alpha virt. eigenvalues --    0.02771   0.04073   0.04517   0.05376   0.06427
 Alpha virt. eigenvalues --    0.06854   0.07709   0.08311   0.09182   0.11782
 Alpha virt. eigenvalues --    0.12552   0.13128   0.14294   0.14650   0.14854

  Beta  occ. eigenvalues --  -69.08163 -20.54069 -15.66104 -11.35457 -11.27710
  Beta  occ. eigenvalues --   -6.83239  -3.94147  -3.94104  -3.93255  -1.34240
  Beta  occ. eigenvalues --   -1.20081  -0.96024  -0.79652  -0.73943  -0.65195
  Beta  occ. eigenvalues --   -0.63418  -0.62953  -0.55552  -0.55291  -0.54822
  Beta  occ. eigenvalues --   -0.47936  -0.40272  -0.40055
  Beta virt. eigenvalues --    0.01557   0.03389   0.04611   0.04842   0.05951
  Beta virt. eigenvalues --    0.06650   0.06938   0.08337   0.08699   0.09577
  Beta virt. eigenvalues --    0.12028   0.12707   0.13459   0.14735   0.14919

 Mulliken charges and spin densities:
               1          2
     1  Si   0.330854   0.893294
     2  C    0.214353   0.053357
     3  H   -0.046672   0.032332
     4  H   -0.046669   0.032328
     5  O   -0.531611   0.031495
     6  N   -0.258817  -0.040343
     7  C    0.791128  -0.006389
     8  H   -0.083595   0.003936
     9  H   -0.152057  -0.000426
    10  H   -0.108448   0.000208
    11  H   -0.108466   0.000208
 Sum of Mulliken charges =  -0.00000   1.00000

 Dipole moment (field-independent basis, Debye):
    X=             -0.9914    Y=             -4.0662    Z=              0.0000  Tot=              4.1853
                          Isotropic Fermi Contact Couplings
        Atom                 a.u.       MegaHertz       Gauss      10(-4) cm-1
     1  Si(29)             0.50645    -450.09438    -160.60487    -150.13532
     2  C(13)              0.03073      34.54635      12.32700      11.52342
     3  H(1)               0.00605      27.03107       9.64536       9.01659
     4  H(1)               0.00605      27.02588       9.64351       9.01486
     5  O(17)              0.03568     -21.62649      -7.71687      -7.21382
     6  N(14)             -0.01085      -3.50509      -1.25070      -1.16917
     7  C(13)             -0.00084      -0.94223      -0.33621      -0.31429
     8  H(1)              -0.00020      -0.90864      -0.32423      -0.30309

 1\1\GINC-SE402\SP\UHF\Aug-CC-pVDZ\C2H6N1O1Si1(2)\OHZDE\09-Apr-2025\0\\
 #t hf aug-cc-pvdz iop(5/13=1,5/36=2,99/5=2) pseudo=read geom=check gue
 ss=(read,tcheck) scf=(maxcycle=1)\\title\\0,2\Si,0,1.860311,-0.396254,
 -0.000002\C,0,0.031746,0.241353,0.000034\H,0,2.512013,0.168521,-1.2096
 1\H,0,2.512048,0.168505,1.209593\O,0,-0.102988,1.457138,-0.000004\N,0,
 -1.000016,-0.64051,0.000002\C,0,-2.400468,-0.237058,-0.000013\H,0,-0.7
 7069,-1.62231,-0.000001\H,0,-2.431334,0.851027,-0.000089\H,0,-2.915015
 ,-0.608683,0.8904\H,0,-2.915024,-0.608812,-0.890367\\Version=ES64L-G16

 Normal termination of Gaussian 16 at Wed Apr  9 00:09:45 2025.
