 Gaussian 16, Revision C.01,

 ----------------------------------------------------------------------
 #t hf aug-cc-pvdz symm=none int=(grid=ultrafine) guess=(read,tcheck) s
 table=opt
 ----------------------------------------------------------------------
 -----
 title
 -----
 Symbolic Z-matrix:
 Charge =  0 Multiplicity = 2

 SCF Done:  E(UHF) =  -1013.16972037     A.U. after   25 cycles
 Normal termination of Gaussian 16 at Wed Apr  9 00:24:31 2025.
 Gaussian 16:  ES64L-G16RevC.01  3-Jul-2019

 ----------------------------------------------------------------------
 #t hf aug-cc-pvdz iop(5/13=1,5/36=2,99/5=2) pseudo=read geom=check gue
 ss=(read,tcheck) scf=(maxcycle=1)
 ----------------------------------------------------------------------
 -----
 title
 -----
 Structure from the checkpoint file:  "BDE49_nonexpt_2731_mol2.chk"
 Charge =  0 Multiplicity = 2

                         Standard orientation:
 ---------------------------------------------------------------------
 Center     Atomic      Atomic             Coordinates (Angstroms)
 Number     Number       Type             X           Y           Z
 ---------------------------------------------------------------------
      1         16           0        0.956547    1.480677    0.038578
      2          6           0        0.635925   -0.331745    0.015747
      3          6           0        1.810754   -0.952414   -0.775479
      4          1           0        1.863232   -0.566806   -1.795925
      5          1           0        1.681928   -2.038912   -0.822672
      6          1           0        2.760230   -0.747319   -0.277731
      7          6           0        0.598488   -0.898205    1.441915
      8          1           0        1.548690   -0.716016    1.945551
      9          1           0        0.420108   -1.979121    1.412310
     10          1           0       -0.196001   -0.440095    2.031478
     11          6           0       -0.652628   -0.632410   -0.759275
     12         17           0       -2.135172    0.095398   -0.004921
     13          1           0       -0.836415   -1.707280   -0.796157
     14          1           0       -0.603834   -0.228410   -1.767880
 ---------------------------------------------------------------------

 SCF Done:  E(UHF) =  -1013.25238494     A.U. after    2 cycles

 The electronic state is 2-A.
 Alpha  occ. eigenvalues -- -103.65223 -93.55182 -11.31511 -11.30490 -11.25668
 Alpha  occ. eigenvalues --  -11.24192 -10.68498  -8.84873  -8.34211  -8.33943
 Alpha  occ. eigenvalues --   -8.33927  -6.20273  -6.18560  -6.18118  -1.17403
 Alpha  occ. eigenvalues --   -1.10352  -0.95576  -0.94227  -0.93080  -0.75191
 Alpha  occ. eigenvalues --   -0.65570  -0.64278  -0.61717  -0.59612  -0.56963
 Alpha  occ. eigenvalues --   -0.54242  -0.52400  -0.50889  -0.46485  -0.44958
 Alpha  occ. eigenvalues --   -0.44721  -0.42726  -0.37376
 Alpha virt. eigenvalues --    0.03133   0.04598   0.04875   0.05489   0.06911
 Alpha virt. eigenvalues --    0.07146   0.07271   0.07841   0.08543   0.10545
 Alpha virt. eigenvalues --    0.12460   0.13075   0.13994   0.14852   0.15455

  Beta  occ. eigenvalues -- -103.65217 -93.54271 -11.31479 -11.30632 -11.25558
  Beta  occ. eigenvalues --  -11.24166 -10.68491  -8.83859  -8.34211  -8.33929
  Beta  occ. eigenvalues --   -8.33910  -6.18000  -6.17562  -6.16293  -1.17209
  Beta  occ. eigenvalues --   -1.09655  -0.95370  -0.93041  -0.87502  -0.73376
  Beta  occ. eigenvalues --   -0.64941  -0.63766  -0.61283  -0.58880  -0.56589
  Beta  occ. eigenvalues --   -0.54197  -0.52322  -0.50237  -0.45688  -0.44920
  Beta  occ. eigenvalues --   -0.44016  -0.35139
  Beta virt. eigenvalues --    0.01858   0.03270   0.04630   0.05101   0.05584
  Beta virt. eigenvalues --    0.06922   0.07169   0.07374   0.07898   0.08665
  Beta virt. eigenvalues --    0.10559   0.12566   0.13519   0.14080   0.15005

 Mulliken charges and spin densities:
               1          2
     1  S    0.130280   1.128584
     2  C   -1.733930  -0.222013
     3  C    0.822440   0.052359
     4  H   -0.072748  -0.000567
     5  H    0.001668   0.009620
     6  H   -0.080496  -0.001621
     7  C    0.764736   0.030875
     8  H   -0.026581  -0.012190
     9  H   -0.004272   0.000525
    10  H   -0.062186  -0.002513
    11  C    0.354007   0.022212
    12  Cl  -0.150105   0.007087
    13  H    0.047897  -0.000374
    14  H    0.009291  -0.011984
 Sum of Mulliken charges =  -0.00000   1.00000

 Dipole moment (field-independent basis, Debye):
    X=              1.7934    Y=             -2.5593    Z=             -0.7635  Tot=              3.2170
                          Isotropic Fermi Contact Couplings
        Atom                 a.u.       MegaHertz       Gauss      10(-4) cm-1
     1  S(33)              0.18579      63.81357      22.77027      21.28592
     2  C(13)             -0.02728     -30.66694     -10.94273     -10.22939
     3  C(13)              0.02899      32.58707      11.62788      10.86988
     4  H(1)              -0.00024      -1.07415      -0.38329      -0.35830
     5  H(1)               0.00387      17.28429       6.16747       5.76542
     6  H(1)              -0.00010      -0.46810      -0.16703      -0.15614
     7  C(13)              0.00478       5.37139       1.91665       1.79170
     8  H(1)              -0.00029      -1.30130      -0.46434      -0.43407

 Normal termination of Gaussian 16 at Wed Apr  9 00:24:37 2025.
