 Gaussian 16, Revision C.01,

 ----------------------------------------------------------------------
 #t hf aug-cc-pvdz symm=none int=(grid=ultrafine) guess=(read,tcheck) s
 table=opt
 ----------------------------------------------------------------------
 -----
 title
 -----
 Symbolic Z-matrix:
 Charge =  0 Multiplicity = 2

 SCF Done:  E(UHF) =  -557.452587849     A.U. after   16 cycles
 Normal termination of Gaussian 16 at Tue Apr  8 23:58:01 2025.
 Gaussian 16:  ES64L-G16RevC.01  3-Jul-2019

 ----------------------------------------------------------------------
 #t hf aug-cc-pvdz iop(5/13=1,5/36=2,99/5=2) pseudo=read geom=check gue
 ss=(read,tcheck) scf=(maxcycle=1)
 ----------------------------------------------------------------------
 -----
 title
 -----
 Structure from the checkpoint file:  "BDE49_nonexpt_2070_mol2.chk"
 Charge =  0 Multiplicity = 2

                         Standard orientation:
 ---------------------------------------------------------------------
 Center     Atomic      Atomic             Coordinates (Angstroms)
 Number     Number       Type             X           Y           Z
 ---------------------------------------------------------------------
      1         14           0        1.803959   -0.668307   -0.150752
      2          6           0        0.023876   -0.218806    0.453509
      3          8           0       -0.874468   -0.771841   -0.480241
      4          8           0       -0.197882    1.153133    0.701244
      5          6           0       -2.211845   -0.890203    0.004330
      6          1           0       -2.256241   -1.574087    0.861819
      7          1           0       -2.807250   -1.298453   -0.811859
      8          1           0       -2.614046    0.082747    0.302093
      9          6           0       -0.067432    1.997649   -0.437147
     10          1           0       -0.238582    3.015700   -0.088899
     11          1           0       -0.795084    1.744163   -1.213360
     12          1           0        0.941059    1.929402   -0.869574
     13          1           0       -0.124018   -0.683022    1.441120
     14          1           0        1.945388   -2.146456   -0.192314
     15          1           0        2.804553   -0.095867    0.789329
 ---------------------------------------------------------------------

 SCF Done:  E(UHF) =  -557.560397585     A.U. after    2 cycles

 The electronic state is 2-A.
 Alpha  occ. eigenvalues --  -69.07079 -20.58293 -20.58053 -11.33701 -11.28674
 Alpha  occ. eigenvalues --  -11.28575  -6.82470  -3.93816  -3.92913  -3.92898
 Alpha  occ. eigenvalues --   -1.37273  -1.30832  -0.98353  -0.93730  -0.84033
 Alpha  occ. eigenvalues --   -0.72339  -0.70461  -0.69135  -0.64430  -0.61973
 Alpha  occ. eigenvalues --   -0.61059  -0.57575  -0.53342  -0.52240  -0.48542
 Alpha  occ. eigenvalues --   -0.47264  -0.46240  -0.42456  -0.32440
 Alpha virt. eigenvalues --    0.03374   0.04433   0.04727   0.05018   0.06309
 Alpha virt. eigenvalues --    0.06743   0.07037   0.07154   0.08218   0.09291
 Alpha virt. eigenvalues --    0.09657   0.10796   0.12757   0.13943   0.14712

  Beta  occ. eigenvalues --  -69.06506 -20.58311 -20.58053 -11.33645 -11.28680
  Beta  occ. eigenvalues --  -11.28543  -6.81609  -3.92515  -3.92503  -3.91623
  Beta  occ. eigenvalues --   -1.37258  -1.30854  -0.98173  -0.93662  -0.83551
  Beta  occ. eigenvalues --   -0.70807  -0.69992  -0.68928  -0.62996  -0.61504
  Beta  occ. eigenvalues --   -0.60955  -0.56997  -0.53292  -0.51957  -0.47793
  Beta  occ. eigenvalues --   -0.47072  -0.46138  -0.41319
  Beta virt. eigenvalues --    0.03074   0.03739   0.04590   0.04835   0.05604
  Beta virt. eigenvalues --    0.06412   0.06926   0.07144   0.07424   0.08964
  Beta virt. eigenvalues --    0.09738   0.10031   0.11102   0.12827   0.14377

 Mulliken charges and spin densities:
               1          2
     1  Si   0.080972   1.001370
     2  C    0.738691   0.042706
     3  O   -0.587625  -0.029880
     4  O   -0.665582  -0.007463
     5  C    0.697798  -0.005570
     6  H   -0.082990  -0.000497
     7  H   -0.243497   0.000304
     8  H   -0.049961  -0.000346
     9  C    0.755039   0.000847
    10  H   -0.230034  -0.001275
    11  H   -0.085208   0.002700
    12  H   -0.068413  -0.013548
    13  H   -0.340298  -0.006111
    14  H    0.016684   0.009172
    15  H    0.064424   0.007591
 Sum of Mulliken charges =  -0.00000   1.00000

 Dipole moment (field-independent basis, Debye):
    X=             -0.8512    Y=              0.1652    Z=             -0.1283  Tot=              0.8765
                          Isotropic Fermi Contact Couplings
        Atom                 a.u.       MegaHertz       Gauss      10(-4) cm-1
     1  Si(29)             0.53964    -479.59356    -171.13091    -159.97519
     2  C(13)             -0.00142      -1.60147      -0.57144      -0.53419
     3  O(17)             -0.00717       4.34567       1.55064       1.44956
     4  O(17)              0.00230      -1.39315      -0.49711      -0.46470
     5  C(13)             -0.00081      -0.91086      -0.32502      -0.30383
     6  H(1)               0.00012       0.52593       0.18766       0.17543
     7  H(1)               0.00004       0.19102       0.06816       0.06372
     8  H(1)               0.00002       0.11155       0.03980       0.03721

 Normal termination of Gaussian 16 at Tue Apr  8 23:58:06 2025.
