 Gaussian 16, Revision C.01,

 ----------------------------------------------------------------------
 #t hf aug-cc-pvdz symm=none int=(grid=ultrafine) guess=(read,tcheck) s
 table=(opt,rrhf)
 ----------------------------------------------------------------------
 -----
 title
 -----
 Symbolic Z-matrix:
 Charge =  0 Multiplicity = 1

 SCF Done:  E(RHF) =  -666.119647702     A.U. after   15 cycles
 Normal termination of Gaussian 16 at Tue Apr  8 23:34:23 2025.
 Gaussian 16:  ES64L-G16RevC.01  3-Jul-2019

 ----------------------------------------------------------------------
 #t hf aug-cc-pvdz iop(5/13=1,5/36=2,99/5=2) pseudo=read geom=check gue
 ss=(read,tcheck) scf=(maxcycle=1)
 ----------------------------------------------------------------------
 -----
 title
 -----
 Structure from the checkpoint file:  "BDE49_nonexpt_1482_mol1.chk"
 Charge =  0 Multiplicity = 1

                         Standard orientation:
 ---------------------------------------------------------------------
 Center     Atomic      Atomic             Coordinates (Angstroms)
 Number     Number       Type             X           Y           Z
 ---------------------------------------------------------------------
      1          6           0        2.289772   -0.142965   -0.010038
      2          6           0        1.787379    1.161109   -0.007570
      3          6           0        0.421177    1.415239   -0.002444
      4          6           0        1.357288   -1.183539   -0.012571
      5          6           0       -0.013649   -0.947801   -0.007627
      6          6           0       -0.506628    0.363663   -0.001082
      7          1           0        2.476141    2.000387   -0.011743
      8          1           0        0.065809    2.441627   -0.004089
      9          1           0        1.706880   -2.211452   -0.020817
     10          1           0       -0.700703   -1.784902   -0.013194
     11          7           0       -1.879034    0.665399    0.001322
     12         15           0       -3.168263   -0.465057    0.005109
     13          1           0       -2.082017    1.653673    0.003722
     14          6           0        3.774857   -0.414814    0.017714
     15          1           0        4.333989    0.371543   -0.495813
     16          1           0        4.014690   -1.365322   -0.465312
     17          1           0        4.154249   -0.466430    1.044755
     18          1           0       -3.980526    0.088404   -1.022864
     19          1           0       -3.972495    0.085184    1.041183
 ---------------------------------------------------------------------

 SCF Done:  E(RHF) =  -666.242557105     A.U. after    2 cycles

 The electronic state is 1-A.
 Alpha  occ. eigenvalues --  -81.28649 -15.63521 -11.29039 -11.24028 -11.23918
 Alpha  occ. eigenvalues --  -11.23504 -11.23442 -11.23071 -11.22918  -7.78624
 Alpha  occ. eigenvalues --   -4.92799  -4.92465  -4.92327  -1.19517  -1.11977
 Alpha  occ. eigenvalues --   -1.01565  -1.00494  -0.91834  -0.84077  -0.81117
 Alpha  occ. eigenvalues --   -0.77067  -0.70494  -0.65752  -0.63535  -0.60264
 Alpha  occ. eigenvalues --   -0.58402  -0.57503  -0.57239  -0.56224  -0.53342
 Alpha  occ. eigenvalues --   -0.50217  -0.50052  -0.48517  -0.42608  -0.36545
 Alpha  occ. eigenvalues --   -0.33857  -0.28586
 Alpha virt. eigenvalues --    0.03167   0.03970   0.04145   0.05389   0.05670
 Alpha virt. eigenvalues --    0.05965   0.06866   0.07540   0.07926   0.09178
 Alpha virt. eigenvalues --    0.09772   0.10238   0.10951   0.11281   0.12959

 Mulliken charges:
               1
     1  C   -0.157062
     2  C    0.654904
     3  C    0.452731
     4  C    0.603494
     5  C    0.748238
     6  C    0.245508
     7  H   -0.575506
     8  H   -0.647481
     9  H   -0.585479
    10  H   -0.633565
    11  N   -0.756326
    12  P    0.316817
    13  H   -0.125296
    14  C    0.478878
    15  H   -0.076567
    16  H   -0.094540
    17  H    0.081059
    18  H    0.035384
    19  H    0.034806
 Sum of Mulliken charges =  -0.00000

 Dipole moment (field-independent basis, Debye):
    X=             -0.4481    Y=              1.1761    Z=              0.0300  Tot=              1.2590

 Test job not archived.
 1\1\GINC-SE082\SP\RHF\Aug-CC-pVDZ\C7H10N1P1\OHZDE\08-Apr-2025\0\\#t hf
  aug-cc-pvdz iop(5/13=1,5/36=2,99/5=2) pseudo=read geom=check guess=(r
 ead,tcheck) scf=(maxcycle=1)\\title\\0,1\C,0,2.289772,-0.142965,-0.010
 038\C,0,1.787379,1.161109,-0.00757\C,0,0.421177,1.415239,-0.002444\C,0
 ,1.357288,-1.183539,-0.012571\C,0,-0.013649,-0.947801,-0.007627\C,0,-0
 .506628,0.363663,-0.001082\H,0,2.476141,2.000387,-0.011743\H,0,0.06580
 9,2.441627,-0.004089\H,0,1.70688,-2.211452,-0.020817\H,0,-0.700703,-1.
 784902,-0.013194\N,0,-1.879034,0.665399,0.001322\P,0,-3.168263,-0.4650

 Normal termination of Gaussian 16 at Tue Apr  8 23:34:33 2025.
