 Gaussian 16, Revision C.01,

 ----------------------------------------------------------------------
 #t hf aug-cc-pvdz symm=none int=(grid=ultrafine) guess=(read,tcheck) s
 table=(opt,rrhf)
 ----------------------------------------------------------------------
 -----
 title
 -----
 Symbolic Z-matrix:
 Charge =  0 Multiplicity = 1

 SCF Done:  E(RHF) =  -365.829071771     A.U. after   14 cycles
 Normal termination of Gaussian 16 at Wed Apr  9 00:35:00 2025.
 Gaussian 16:  ES64L-G16RevC.01  3-Jul-2019

 ----------------------------------------------------------------------
 #t hf aug-cc-pvdz iop(5/13=1,5/36=2,99/5=2) pseudo=read geom=check gue
 ss=(read,tcheck) scf=(maxcycle=1)
 ----------------------------------------------------------------------
 -----
 title
 -----
 Structure from the checkpoint file:  "BDE49_nonexpt_512_mol1.chk"
 Charge =  0 Multiplicity = 1

                         Standard orientation:
 ---------------------------------------------------------------------
 Center     Atomic      Atomic             Coordinates (Angstroms)
 Number     Number       Type             X           Y           Z
 ---------------------------------------------------------------------
      1          1           0       -3.004326   -0.595602   -1.421024
      2          5           0       -2.538134   -0.812145   -0.351094
      3          1           0       -3.060869   -1.551298    0.416687
      4          6           0       -1.274755   -0.003423    0.100643
      5          8           0       -1.423448    1.060093    0.636868
      6          8           0       -0.050402   -0.618571   -0.102621
      7          6           0        1.160363    0.103479   -0.146624
      8          8           0        1.228959    1.229465   -0.520976
      9          6           0        2.288865   -0.787503    0.287452
     10          1           0        2.266935   -1.722674   -0.275508
     11          1           0        2.165211   -1.038952    1.344008
     12          1           0        3.236005   -0.273964    0.136315
 ---------------------------------------------------------------------

 SCF Done:  E(RHF) =  -365.947151047     A.U. after    2 cycles

 The electronic state is 1-A.
 Alpha  occ. eigenvalues --  -20.64435 -20.58823 -20.58544 -11.42097 -11.39821
 Alpha  occ. eigenvalues --  -11.26959  -7.65990  -1.45166  -1.38705  -1.34084
 Alpha  occ. eigenvalues --   -1.04432  -0.92499  -0.79427  -0.75092  -0.71790
 Alpha  occ. eigenvalues --   -0.70111  -0.67428  -0.63066  -0.61635  -0.59614
 Alpha  occ. eigenvalues --   -0.58169  -0.55701  -0.52614  -0.50431  -0.50400
 Alpha  occ. eigenvalues --   -0.45237
 Alpha virt. eigenvalues --    0.02596   0.03582   0.04507   0.04594   0.05763
 Alpha virt. eigenvalues --    0.05946   0.06750   0.08398   0.09549   0.10540
 Alpha virt. eigenvalues --    0.11269   0.11749   0.12761   0.13652   0.14291

 Mulliken charges:
               1
     1  H    0.353439
     2  B   -0.634181
     3  H    0.329784
     4  C    0.664365
     5  O   -0.438247
     6  O   -0.624744
     7  C    0.383561
     8  O   -0.373561
     9  C    0.273664
    10  H    0.031276
    11  H    0.041592
    12  H   -0.006950
 Sum of Mulliken charges =  -0.00000

 Dipole moment (field-independent basis, Debye):
    X=              0.6788    Y=             -4.5753    Z=             -0.1331  Tot=              4.6273

 Test job not archived.
 1\1\GINC-SE344\SP\RHF\Aug-CC-pVDZ\C3H5B1O3\OHZDE\09-Apr-2025\0\\#t hf
 aug-cc-pvdz iop(5/13=1,5/36=2,99/5=2) pseudo=read geom=check guess=(re
 ad,tcheck) scf=(maxcycle=1)\\title\\0,1\H,0,-3.004326,-0.595602,-1.421
 024\B,0,-2.538134,-0.812145,-0.351094\H,0,-3.060869,-1.551298,0.416687
 \C,0,-1.274755,-0.003423,0.100643\O,0,-1.423448,1.060093,0.636868\O,0,
 -0.050402,-0.618571,-0.102621\C,0,1.160363,0.103479,-0.146624\O,0,1.22
 8959,1.229465,-0.520976\C,0,2.288865,-0.787503,0.287452\H,0,2.266935,-
 1.722674,-0.275508\H,0,2.165211,-1.038952,1.344008\H,0,3.236005,-0.273

 Normal termination of Gaussian 16 at Wed Apr  9 00:35:05 2025.
