 Gaussian 16, Revision C.01,

 ----------------------------------------------------------------------
 #t hf aug-cc-pvdz symm=none int=(grid=ultrafine) guess=(read,tcheck) s
 table=(opt,rrhf)
 ----------------------------------------------------------------------
 -----
 title
 -----
 Symbolic Z-matrix:
 Charge =  0 Multiplicity = 1

 SCF Done:  E(RHF) =  -1304.79797053     A.U. after   16 cycles
 Normal termination of Gaussian 16 at Wed Apr  9 00:09:21 2025.
 Gaussian 16:  ES64L-G16RevC.01  3-Jul-2019

 ----------------------------------------------------------------------
 #t hf aug-cc-pvdz iop(5/13=1,5/36=2,99/5=2) pseudo=read geom=check gue
 ss=(read,tcheck) scf=(maxcycle=1)
 ----------------------------------------------------------------------
 -----
 title
 -----
 Structure from the checkpoint file:  "BDE49_nonexpt_2349_mol1.chk"
 Charge =  0 Multiplicity = 1

                         Standard orientation:
 ---------------------------------------------------------------------
 Center     Atomic      Atomic             Coordinates (Angstroms)
 Number     Number       Type             X           Y           Z
 ---------------------------------------------------------------------
      1         14           0        0.894667    1.536906    0.088217
      2         14           0       -1.255111    1.062766   -0.748574
      3          6           0        1.763825   -0.130413    0.496801
      4          8           0        2.333568   -0.509284    1.446160
      5          1           0        0.899013    2.340023    1.328455
      6          1           0        1.765605    2.162297   -0.930937
      7         17           0        1.616118   -1.284765   -1.030029
      8          6           0       -1.925785   -0.329782    0.433111
      9          1           0       -1.254792    0.694220   -2.182864
     10          1           0       -2.126196    2.252546   -0.568359
     11          8           0       -1.425193   -0.376695    1.539209
     12          6           0       -3.022765   -1.273937    0.001710
     13          1           0       -2.672228   -1.873889   -0.845022
     14          1           0       -3.893902   -0.709152   -0.347094
     15          1           0       -3.303948   -1.927817    0.828638
 ---------------------------------------------------------------------

 SCF Done:  E(RHF) =  -1304.93876890     A.U. after    2 cycles

 The electronic state is 1-A.
 Alpha  occ. eigenvalues -- -103.65180 -69.10685 -69.09408 -20.63346 -20.59076
 Alpha  occ. eigenvalues --  -11.41600 -11.35332 -11.25907 -10.68486  -8.34158
 Alpha  occ. eigenvalues --   -8.33916  -8.33907  -6.85985  -6.84811  -3.96793
 Alpha  occ. eigenvalues --   -3.96693  -3.96667  -3.95559  -3.95536  -3.95527
 Alpha  occ. eigenvalues --   -1.43444  -1.37305  -1.13285  -1.01887  -0.84637
 Alpha  occ. eigenvalues --   -0.80636  -0.74743  -0.71172  -0.67318  -0.65123
 Alpha  occ. eigenvalues --   -0.64037  -0.62254  -0.61679  -0.61185  -0.56131
 Alpha  occ. eigenvalues --   -0.53566  -0.51953  -0.50073  -0.47099  -0.46586
 Alpha  occ. eigenvalues --   -0.44104  -0.42627  -0.40701
 Alpha virt. eigenvalues --    0.02697   0.03615   0.04606   0.05164   0.05693
 Alpha virt. eigenvalues --    0.06379   0.06476   0.06966   0.07435   0.07933
 Alpha virt. eigenvalues --    0.08462   0.08955   0.09249   0.10015   0.10168

 Mulliken charges:
               1
     1  Si   0.187769
     2  Si   0.074185
     3  C    0.223428
     4  O   -0.383277
     5  H    0.081779
     6  H    0.092146
     7  Cl  -0.301491
     8  C    0.075421
     9  H    0.144084
    10  H    0.095838
    11  O   -0.491093
    12  C    0.213957
    13  H    0.029790
    14  H    0.010195
    15  H   -0.052733
 Sum of Mulliken charges =  -0.00000

 Dipole moment (field-independent basis, Debye):
    X=             -3.4799    Y=              2.7557    Z=             -2.7987  Tot=              5.2475

 Test job not archived.
 1\1\GINC-SE082\SP\RHF\Aug-CC-pVDZ\C3H7Cl1O2Si2\OHZDE\09-Apr-2025\0\\#t
  hf aug-cc-pvdz iop(5/13=1,5/36=2,99/5=2) pseudo=read geom=check guess
 =(read,tcheck) scf=(maxcycle=1)\\title\\0,1\Si,0,0.894667,1.536906,0.0
 88217\Si,0,-1.255111,1.062766,-0.748574\C,0,1.763825,-0.130413,0.49680
 1\O,0,2.333568,-0.509283,1.44616\H,0,0.899012,2.340023,1.328455\H,0,1.
 765604,2.162297,-0.930937\Cl,0,1.616118,-1.284765,-1.030029\C,0,-1.925
 785,-0.329782,0.433111\H,0,-1.254792,0.69422,-2.182864\H,0,-2.126197,2
 .252546,-0.568359\O,0,-1.425193,-0.376695,1.539209\C,0,-3.022765,-1.27

 Normal termination of Gaussian 16 at Wed Apr  9 00:09:28 2025.
