 Gaussian 16, Revision C.01,

 ----------------------------------------------------------------------
 #t hf aug-cc-pvdz symm=none int=(grid=ultrafine) guess=(read,tcheck) s
 table=(opt,rrhf)
 ----------------------------------------------------------------------
 -----
 title
 -----
 Symbolic Z-matrix:
 Charge =  0 Multiplicity = 1

 SCF Done:  E(RHF) =  -798.721590166     A.U. after   16 cycles
 Normal termination of Gaussian 16 at Tue Apr  8 23:30:03 2025.
 Gaussian 16:  ES64L-G16RevC.01  3-Jul-2019

 ----------------------------------------------------------------------
 #t hf aug-cc-pvdz iop(5/13=1,5/36=2,99/5=2) pseudo=read geom=check gue
 ss=(read,tcheck) scf=(maxcycle=1)
 ----------------------------------------------------------------------
 -----
 title
 -----
 Structure from the checkpoint file:  "BDE49_nonexpt_1348_mol1.chk"
 Charge =  0 Multiplicity = 1

                         Standard orientation:
 ---------------------------------------------------------------------
 Center     Atomic      Atomic             Coordinates (Angstroms)
 Number     Number       Type             X           Y           Z
 ---------------------------------------------------------------------
      1          6           0       -2.364169   -0.679870   -0.344330
      2          6           0       -2.015901    0.779131   -0.569617
      3          8           0       -3.417198   -1.051152    0.092598
      4          8           0       -1.399383   -1.582545   -0.663514
      5         15           0       -0.782246    1.551493    0.632261
      6          1           0       -2.938218    1.353461   -0.479890
      7          1           0       -1.614304    0.940098   -1.574649
      8          6           0        0.749685    0.575837    0.308233
      9          1           0       -0.575593   -1.132976   -0.893236
     10          6           0        1.141139   -0.526212    1.084082
     11          6           0        1.602516    1.006572   -0.721306
     12          6           0        2.796820    0.341054   -0.983679
     13          6           0        3.173270   -0.750981   -0.203339
     14          6           0        2.346520   -1.178788    0.833007
     15          1           0        2.634430   -2.026771    1.443919
     16          1           0        0.499138   -0.879599    1.882351
     17          1           0        1.335814    1.877333   -1.312217
     18          1           0        3.439985    0.684307   -1.786064
     19          1           0        4.108292   -1.262937   -0.399638
     20          1           0       -1.202491    0.843800    1.784522
 ---------------------------------------------------------------------

 SCF Done:  E(RHF) =  -798.880962961     A.U. after    2 cycles

 The electronic state is 1-A.
 Alpha  occ. eigenvalues --  -81.28384 -20.61982 -20.55833 -11.40023 -11.27468
 Alpha  occ. eigenvalues --  -11.27401 -11.27238 -11.27115 -11.26926 -11.26742
 Alpha  occ. eigenvalues --  -11.26632  -7.78623  -4.92716  -4.92589  -4.92316
 Alpha  occ. eigenvalues --   -1.41579  -1.32821  -1.16580  -1.04266  -1.03346
 Alpha  occ. eigenvalues --   -1.01711  -0.86144  -0.85132  -0.83864  -0.78054
 Alpha  occ. eigenvalues --   -0.72983  -0.71016  -0.68206  -0.65884  -0.65135
 Alpha  occ. eigenvalues --   -0.63878  -0.61966  -0.61373  -0.58151  -0.56417
 Alpha  occ. eigenvalues --   -0.53600  -0.52106  -0.51036  -0.49867  -0.48250
 Alpha  occ. eigenvalues --   -0.46813  -0.39197  -0.36393  -0.34122
 Alpha virt. eigenvalues --    0.02621   0.03530   0.03991   0.05011   0.05289
 Alpha virt. eigenvalues --    0.05858   0.06616   0.07321   0.07565   0.08328
 Alpha virt. eigenvalues --    0.08662   0.08901   0.09894   0.10739   0.11540

 Mulliken charges:
               1
     1  C    0.546840
     2  C   -0.006119
     3  O   -0.448884
     4  O   -0.457775
     5  P    0.152134
     6  H   -0.178877
     7  H   -0.020859
     8  C   -0.269184
     9  H    0.242666
    10  C    0.868193
    11  C    0.397816
    12  C    0.498367
    13  C    0.658871
    14  C    0.316566
    15  H   -0.449181
    16  H   -0.625334
    17  H   -0.544454
    18  H   -0.440570
    19  H   -0.427482
    20  H    0.187265
 Sum of Mulliken charges =  -0.00000

 Dipole moment (field-independent basis, Debye):
    X=              4.6804    Y=              2.1004    Z=             -1.2634  Tot=              5.2834

 Test job not archived.
 1\1\GINC-SE009\SP\RHF\Aug-CC-pVDZ\C8H9O2P1\OHZDE\08-Apr-2025\0\\#t hf
 aug-cc-pvdz iop(5/13=1,5/36=2,99/5=2) pseudo=read geom=check guess=(re
 ad,tcheck) scf=(maxcycle=1)\\title\\0,1\C,0,-2.364169,-0.67987,-0.3443
 3\C,0,-2.015901,0.779131,-0.569617\O,0,-3.417198,-1.051152,0.092598\O,
 0,-1.399383,-1.582545,-0.663514\P,0,-0.782246,1.551493,0.632261\H,0,-2
 .938218,1.353461,-0.47989\H,0,-1.614304,0.940098,-1.574649\C,0,0.74968
 5,0.575837,0.308233\H,0,-0.575593,-1.132976,-0.893236\C,0,1.141139,-0.
 526212,1.084082\C,0,1.602516,1.006572,-0.721306\C,0,2.79682,0.341054,-

 Normal termination of Gaussian 16 at Tue Apr  8 23:30:16 2025.
