 Gaussian 16, Revision C.01,

 ----------------------------------------------------------------------
 #t hf aug-cc-pvdz symm=none int=(grid=ultrafine) guess=(read,tcheck) s
 table=opt
 ----------------------------------------------------------------------
 -----
 title
 -----
 Symbolic Z-matrix:
 Charge =  0 Multiplicity = 2

 SCF Done:  E(UHF) =  -635.795877956     A.U. after   15 cycles

 1\1\GINC-SE080\Stability\UHF\Aug-CC-pVDZ\H6N1Si2\OHZDE\08-Apr-2025\0\\
 #t hf aug-cc-pvdz symm=none int=(grid=ultrafine) guess=(read,tcheck) s
 table=opt\\title\\0,2\Si,0,-0.621001,-0.588378,0.053133\Si,0,1.58249,0
 .218829,-0.10992\N,0,-1.705245,0.749398,-0.077588\H,0,-1.630505,1.5366
 66,0.550062\H,0,-2.665024,0.59522,-0.35178\H,0,-0.754702,-1.410524,1.2
 93167\H,0,-0.911646,-1.491946,-1.085397\H,0,2.619401,-0.775309,0.27720
 2\H,0,1.818341,1.473793,0.654885\\Version=ES64L-G16RevC.01\HF=-635.795
 878\S2=0.758297\S2-1=0.\S2A=0.750028\RMSD=4.370e-09\Dipole=-0.4912469,

 Normal termination of Gaussian 16 at Tue Apr  8 23:59:25 2025.
 Gaussian 16:  ES64L-G16RevC.01  3-Jul-2019

 ----------------------------------------------------------------------
 #t hf aug-cc-pvdz iop(5/13=1,5/36=2,99/5=2) pseudo=read geom=check gue
 ss=(read,tcheck) scf=(maxcycle=1)
 ----------------------------------------------------------------------
 -----
 title
 -----
 Structure from the checkpoint file:  "BDE49_nonexpt_2134_mol2.chk"
 Charge =  0 Multiplicity = 2

                         Standard orientation:
 ---------------------------------------------------------------------
 Center     Atomic      Atomic             Coordinates (Angstroms)
 Number     Number       Type             X           Y           Z
 ---------------------------------------------------------------------
      1         14           0       -0.621001   -0.588378    0.053133
      2         14           0        1.582490    0.218829   -0.109920
      3          7           0       -1.705245    0.749398   -0.077588
      4          1           0       -1.630505    1.536666    0.550062
      5          1           0       -2.665024    0.595220   -0.351780
      6          1           0       -0.754702   -1.410524    1.293167
      7          1           0       -0.911646   -1.491946   -1.085397
      8          1           0        2.619401   -0.775309    0.277202
      9          1           0        1.818341    1.473793    0.654885
 ---------------------------------------------------------------------

 SCF Done:  E(UHF) =  -635.858814038     A.U. after    2 cycles

 The electronic state is 2-A.
 Alpha  occ. eigenvalues --  -69.07977 -69.06252 -15.60654  -6.82975  -6.81766
 Alpha  occ. eigenvalues --   -3.93843  -3.93766  -3.93675  -3.93111  -3.92217
 Alpha  occ. eigenvalues --   -3.92166  -1.10386  -0.73353  -0.66944  -0.65285
 Alpha  occ. eigenvalues --   -0.55298  -0.49315  -0.48069  -0.42688  -0.38981
 Alpha  occ. eigenvalues --   -0.31235
 Alpha virt. eigenvalues --    0.03401   0.04226   0.05167   0.05811   0.07160
 Alpha virt. eigenvalues --    0.07679   0.07857   0.08427   0.09111   0.09809
 Alpha virt. eigenvalues --    0.10081   0.11252   0.14214   0.15205   0.15906

  Beta  occ. eigenvalues --  -69.07979 -69.05695 -15.60673  -6.82977  -6.80951
  Beta  occ. eigenvalues --   -3.93842  -3.93732  -3.93715  -3.91811  -3.91772
  Beta  occ. eigenvalues --   -3.90930  -1.10422  -0.71620  -0.66249  -0.63023
  Beta  occ. eigenvalues --   -0.55012  -0.48894  -0.47552  -0.42239  -0.37949
  Beta virt. eigenvalues --    0.03007   0.03493   0.04428   0.05254   0.06173
  Beta virt. eigenvalues --    0.07321   0.07872   0.08041   0.09091   0.09941
  Beta virt. eigenvalues --    0.10022   0.10495   0.11949   0.14621   0.15813

 Mulliken charges and spin densities:
               1          2
     1  Si   0.693250  -0.072780
     2  Si  -0.013739   1.103857
     3  N   -0.475263  -0.006258
     4  H   -0.012067   0.000330
     5  H   -0.034009   0.000308
     6  H   -0.039403   0.023763
     7  H   -0.034725   0.002781
     8  H   -0.052844  -0.023356
     9  H   -0.031200  -0.028646
 Sum of Mulliken charges =  -0.00000   1.00000

 Dipole moment (field-independent basis, Debye):
    X=             -1.2873    Y=              0.5072    Z=              0.4686  Tot=              1.4609
                          Isotropic Fermi Contact Couplings
        Atom                 a.u.       MegaHertz       Gauss      10(-4) cm-1
     1  Si(29)            -0.00279       2.47664       0.88373       0.82612
     2  Si(29)             0.45781    -406.86694    -145.18024    -135.71620
     3  N(14)             -0.00422      -1.36420      -0.48678      -0.45505
     4  H(1)               0.00012       0.55711       0.19879       0.18583
     5  H(1)               0.00004       0.18677       0.06664       0.06230
     6  H(1)               0.00909      40.61322      14.49181      13.54711
     7  H(1)              -0.00049      -2.18998      -0.78144      -0.73050
     8  H(1)              -0.00388     -17.34328      -6.18851      -5.78510

 Normal termination of Gaussian 16 at Tue Apr  8 23:59:28 2025.
