 Gaussian 16, Revision C.01,

 ----------------------------------------------------------------------
 #t hf aug-cc-pvdz symm=none int=(grid=ultrafine) guess=(read,tcheck) s
 table=(opt,rrhf)
 ----------------------------------------------------------------------
 -----
 title
 -----
 Symbolic Z-matrix:
 Charge =  0 Multiplicity = 1

 SCF Done:  E(RHF) =  -706.334669784     A.U. after   15 cycles

 1\1\GINC-SE110\Stability\RHF\Aug-CC-pVDZ\C8H10S1\OHZDE\08-Apr-2025\0\\
 #t hf aug-cc-pvdz symm=none int=(grid=ultrafine) guess=(read,tcheck) s
 table=(opt,rrhf)\\title\\0,1\S,0,-2.421748,-0.477804,-0.10005\C,0,-1.0
 82915,-0.262352,1.146037\C,0,0.307303,-0.142676,0.574635\C,0,0.929849,
 -1.236878,-0.038633\C,0,2.215186,-1.124696,-0.556492\C,0,1.003636,1.06
 6869,0.647807\C,0,2.291973,1.183653,0.12619\C,0,2.901523,0.08778,-0.47
 6565\H,0,3.903568,0.174517,-0.881202\H,0,2.684454,-1.983612,-1.023361\
 H,0,0.396298,-2.178378,-0.11471\H,0,0.537062,1.923473,1.124079\H,0,2.8

 Normal termination of Gaussian 16 at Tue Apr  8 22:46:49 2025.
 Gaussian 16:  ES64L-G16RevC.01  3-Jul-2019

 ----------------------------------------------------------------------
 #t hf aug-cc-pvdz iop(5/13=1,5/36=2,99/5=2) pseudo=read geom=check gue
 ss=(read,tcheck) scf=(maxcycle=1)
 ----------------------------------------------------------------------
 -----
 title
 -----
 Structure from the checkpoint file:  "BDE49_expt_1582_mol1.chk"
 Charge =  0 Multiplicity = 1

                         Standard orientation:
 ---------------------------------------------------------------------
 Center     Atomic      Atomic             Coordinates (Angstroms)
 Number     Number       Type             X           Y           Z
 ---------------------------------------------------------------------
      1         16           0       -2.421748   -0.477804   -0.100050
      2          6           0       -1.082915   -0.262352    1.146037
      3          6           0        0.307303   -0.142676    0.574635
      4          6           0        0.929849   -1.236878   -0.038633
      5          6           0        2.215186   -1.124696   -0.556492
      6          6           0        1.003636    1.066869    0.647807
      7          6           0        2.291973    1.183653    0.126190
      8          6           0        2.901523    0.087780   -0.476565
      9          1           0        3.903568    0.174517   -0.881202
     10          1           0        2.684454   -1.983612   -1.023361
     11          1           0        0.396298   -2.178378   -0.114710
     12          1           0        0.537062    1.923473    1.124079
     13          1           0        2.816863    2.130129    0.193650
     14          6           0       -2.280528    1.086618   -1.020002
     15          1           0       -2.491466    1.942826   -0.376325
     16          1           0       -3.029126    1.047134   -1.812193
     17          1           0       -1.292033    1.189032   -1.468847
     18          1           0       -1.171849   -1.152807    1.773176
     19          1           0       -1.321962    0.602644    1.768681
 ---------------------------------------------------------------------

 SCF Done:  E(RHF) =  -706.447343386     A.U. after    2 cycles

 The electronic state is 1-A.
 Alpha  occ. eigenvalues --  -93.52571 -11.27400 -11.25985 -11.25665 -11.24876
 Alpha  occ. eigenvalues --  -11.24805 -11.24699 -11.24595 -11.24467  -8.82256
 Alpha  occ. eigenvalues --   -6.16401  -6.16193  -6.15868  -1.15087  -1.06714
 Alpha  occ. eigenvalues --   -1.01272  -1.00910  -0.93916  -0.83605  -0.82784
 Alpha  occ. eigenvalues --   -0.78307  -0.70260  -0.65081  -0.64261  -0.60178
 Alpha  occ. eigenvalues --   -0.59580  -0.59106  -0.58071  -0.56537  -0.52223
 Alpha  occ. eigenvalues --   -0.50597  -0.49748  -0.48360  -0.43121  -0.34817
 Alpha  occ. eigenvalues --   -0.34019  -0.32567
 Alpha virt. eigenvalues --    0.03264   0.03971   0.04238   0.04691   0.05657
 Alpha virt. eigenvalues --    0.05727   0.07194   0.07407   0.07740   0.08184
 Alpha virt. eigenvalues --    0.09556   0.10277   0.10671   0.11953   0.13443

 Mulliken charges:
               1
     1  S    0.380367
     2  C    0.237755
     3  C    0.662590
     4  C    0.297925
     5  C    0.275967
     6  C    0.480271
     7  C    0.207105
     8  C    0.620535
     9  H   -0.440393
    10  H   -0.445487
    11  H   -0.586122
    12  H   -0.619956
    13  H   -0.446792
    14  C    0.133107
    15  H   -0.099158
    16  H   -0.109248
    17  H   -0.103383
    18  H   -0.144762
    19  H   -0.300322
 Sum of Mulliken charges =  -0.00000

 Dipole moment (field-independent basis, Debye):
    X=              1.0432    Y=              1.2177    Z=              0.0908  Tot=              1.6060

 Test job not archived.
 1\1\GINC-SE110\SP\RHF\Aug-CC-pVDZ\C8H10S1\OHZDE\08-Apr-2025\0\\#t hf a
 ug-cc-pvdz iop(5/13=1,5/36=2,99/5=2) pseudo=read geom=check guess=(rea
 d,tcheck) scf=(maxcycle=1)\\title\\0,1\S,0,-2.421748,-0.477804,-0.1000
 5\C,0,-1.082915,-0.262352,1.146037\C,0,0.307303,-0.142676,0.574635\C,0
 ,0.929849,-1.236878,-0.038633\C,0,2.215186,-1.124696,-0.556492\C,0,1.0
 03636,1.066869,0.647807\C,0,2.291973,1.183653,0.12619\C,0,2.901523,0.0
 8778,-0.476565\H,0,3.903568,0.174517,-0.881202\H,0,2.684454,-1.983612,
 -1.023361\H,0,0.396298,-2.178378,-0.11471\H,0,0.537062,1.923473,1.1240

 Normal termination of Gaussian 16 at Tue Apr  8 22:46:59 2025.
