 Gaussian 16, Revision C.01,

 ----------------------------------------------------------------------
 #t hf aug-cc-pvdz symm=none int=(grid=ultrafine) guess=(read,tcheck) s
 table=(opt,rrhf)
 ----------------------------------------------------------------------
 -----
 title
 -----
 Symbolic Z-matrix:
 Charge =  0 Multiplicity = 1

 SCF Done:  E(RHF) =  -259.474968453     A.U. after   12 cycles

 1\1\GINC-SE179\Stability\RHF\Aug-CC-pVDZ\C6H13B1\OHZDE\09-Apr-2025\0\\
 #t hf aug-cc-pvdz symm=none int=(grid=ultrafine) guess=(read,tcheck) s
 table=(opt,rrhf)\\title\\0,1\C,0,-1.169366,0.,0.384309\C,0,-0.319106,-
 1.269542,0.600794\C,0,0.903407,-1.271372,-0.330116\C,0,1.747585,0.,-0.
 1572\C,0,0.903407,1.271372,-0.330116\C,0,-0.319107,1.269542,0.600794\B
 ,0,-2.115447,0.,-0.850019\H,0,-0.924034,-2.165349,0.431305\H,0,0.02807
 6,-1.312071,1.641625\H,0,0.560324,-1.339973,-1.37166\H,0,1.517072,-2.1
 59437,-0.147238\H,0,2.582331,0.,-0.865723\H,0,2.191913,0.,0.846811\H,0

 Normal termination of Gaussian 16 at Wed Apr  9 00:26:35 2025.
 Gaussian 16:  ES64L-G16RevC.01  3-Jul-2019

 ----------------------------------------------------------------------
 #t hf aug-cc-pvdz iop(5/13=1,5/36=2,99/5=2) pseudo=read geom=check gue
 ss=(read,tcheck) scf=(maxcycle=1)
 ----------------------------------------------------------------------
 -----
 title
 -----
 Structure from the checkpoint file:  "BDE49_nonexpt_300_mol1.chk"
 Charge =  0 Multiplicity = 1

                         Standard orientation:
 ---------------------------------------------------------------------
 Center     Atomic      Atomic             Coordinates (Angstroms)
 Number     Number       Type             X           Y           Z
 ---------------------------------------------------------------------
      1          6           0       -1.169366   -0.000000    0.384309
      2          6           0       -0.319106   -1.269542    0.600794
      3          6           0        0.903407   -1.271372   -0.330116
      4          6           0        1.747585    0.000000   -0.157200
      5          6           0        0.903407    1.271372   -0.330116
      6          6           0       -0.319107    1.269542    0.600794
      7          5           0       -2.115447   -0.000001   -0.850019
      8          1           0       -0.924033   -2.165349    0.431305
      9          1           0        0.028076   -1.312071    1.641625
     10          1           0        0.560324   -1.339973   -1.371660
     11          1           0        1.517073   -2.159437   -0.147238
     12          1           0        2.582331    0.000001   -0.865723
     13          1           0        2.191913    0.000001    0.846811
     14          1           0        0.560324    1.339973   -1.371660
     15          1           0        1.517071    2.159437   -0.147238
     16          1           0        0.028076    1.312071    1.641625
     17          1           0       -0.924035    2.165349    0.431305
     18          1           0       -1.980451   -0.000001    1.151604
     19          1           0       -2.530177   -1.026931   -1.300728
     20          1           0       -2.530177    1.026929   -1.300728
 ---------------------------------------------------------------------

 SCF Done:  E(RHF) =  -259.553713542     A.U. after    2 cycles

 The electronic state is 1-A.
 Alpha  occ. eigenvalues --  -11.22555 -11.22553 -11.22510 -11.22498 -11.22434
 Alpha  occ. eigenvalues --  -11.21291  -7.60481  -1.10021  -0.99419  -0.99359
 Alpha  occ. eigenvalues --   -0.83428  -0.82722  -0.75872  -0.66233  -0.63661
 Alpha  occ. eigenvalues --   -0.61017  -0.60446  -0.56750  -0.52882  -0.52642
 Alpha  occ. eigenvalues --   -0.52622  -0.48923  -0.46967  -0.46404  -0.43548
 Alpha  occ. eigenvalues --   -0.42407  -0.42175
 Alpha virt. eigenvalues --    0.03131   0.04145   0.04251   0.04399   0.05706
 Alpha virt. eigenvalues --    0.05884   0.06315   0.06375   0.06773   0.08567
 Alpha virt. eigenvalues --    0.08847   0.08939   0.09118   0.09217   0.11197

 Mulliken charges:
               1
     1  C   -0.238090
     2  C    0.357101
     3  C    0.266655
     4  C    0.236744
     5  C    0.266655
     6  C    0.357101
     7  B   -0.902634
     8  H   -0.159533
     9  H   -0.073174
    10  H   -0.098370
    11  H   -0.120925
    12  H   -0.131067
    13  H   -0.109246
    14  H   -0.098370
    15  H   -0.120925
    16  H   -0.073173
    17  H   -0.159535
    18  H   -0.086436
    19  H    0.443611
    20  H    0.443611
 Sum of Mulliken charges =  -0.00000

 Dipole moment (field-independent basis, Debye):
    X=              0.3749    Y=              0.0000    Z=              0.4694  Tot=              0.6007

 Test job not archived.
 1\1\GINC-SE179\SP\RHF\Aug-CC-pVDZ\C6H13B1\OHZDE\09-Apr-2025\0\\#t hf a
 ug-cc-pvdz iop(5/13=1,5/36=2,99/5=2) pseudo=read geom=check guess=(rea
 d,tcheck) scf=(maxcycle=1)\\title\\0,1\C,0,-1.169366,0.,0.384309\C,0,-
 0.319106,-1.269542,0.600794\C,0,0.903407,-1.271372,-0.330116\C,0,1.747
 585,0.,-0.1572\C,0,0.903407,1.271372,-0.330116\C,0,-0.319107,1.269542,
 0.600794\B,0,-2.115447,0.,-0.850019\H,0,-0.924034,-2.165349,0.431305\H
 ,0,0.028076,-1.312071,1.641625\H,0,0.560324,-1.339973,-1.37166\H,0,1.5
 17072,-2.159437,-0.147238\H,0,2.582331,0.,-0.865723\H,0,2.191913,0.,0.

 Normal termination of Gaussian 16 at Wed Apr  9 00:26:44 2025.
