 Gaussian 16, Revision C.01,

 ----------------------------------------------------------------------
 #t hf aug-cc-pvdz symm=none int=(grid=ultrafine) guess=(read,tcheck) s
 table=(opt,rrhf)
 ----------------------------------------------------------------------
 -----
 title
 -----
 Symbolic Z-matrix:
 Charge =  0 Multiplicity = 1

 SCF Done:  E(RHF) =  -727.093807143     A.U. after   15 cycles
 Normal termination of Gaussian 16 at Wed Apr  9 00:22:08 2025.
 Gaussian 16:  ES64L-G16RevC.01  3-Jul-2019

 ----------------------------------------------------------------------
 #t hf aug-cc-pvdz iop(5/13=1,5/36=2,99/5=2) pseudo=read geom=check gue
 ss=(read,tcheck) scf=(maxcycle=1)
 ----------------------------------------------------------------------
 -----
 title
 -----
 Structure from the checkpoint file:  "BDE49_nonexpt_2693_mol1.chk"
 Charge =  0 Multiplicity = 1

                         Standard orientation:
 ---------------------------------------------------------------------
 Center     Atomic      Atomic             Coordinates (Angstroms)
 Number     Number       Type             X           Y           Z
 ---------------------------------------------------------------------
      1          9           0        2.482151    0.000004    1.036341
      2         16           0        1.892978   -0.000003   -0.548800
      3          6           0        0.154869   -0.000001   -0.239541
      4          6           0       -0.538870    1.213521   -0.131001
      5          1           0        0.007262    2.144751   -0.216007
      6          6           0       -1.912694    1.210326    0.085845
      7          1           0       -2.449448    2.148139    0.170039
      8          6           0       -2.597400    0.000001    0.193919
      9          6           0       -0.538872   -1.213522   -0.130998
     10          1           0        0.007260   -2.144753   -0.216001
     11          6           0       -1.912695   -1.210325    0.085847
     12          1           0       -2.449451   -2.148136    0.170044
     13          1           0       -3.668656    0.000002    0.361230
 ---------------------------------------------------------------------

 SCF Done:  E(RHF) =  -727.218665320     A.U. after    2 cycles

 The electronic state is 1-A.
 Alpha  occ. eigenvalues --  -93.61689 -26.11145 -11.28929 -11.27538 -11.27530
 Alpha  occ. eigenvalues --  -11.27493 -11.26507 -11.26501  -8.90514  -6.24706
 Alpha  occ. eigenvalues --   -6.24398  -6.23968  -1.61873  -1.17145  -1.06144
 Alpha  occ. eigenvalues --   -1.03584  -0.94878  -0.85410  -0.82824  -0.73630
 Alpha  occ. eigenvalues --   -0.71449  -0.71049  -0.68267  -0.65731  -0.64235
 Alpha  occ. eigenvalues --   -0.61687  -0.56549  -0.53037  -0.52401  -0.48622
 Alpha  occ. eigenvalues --   -0.38073  -0.37194  -0.36248
 Alpha virt. eigenvalues --    0.02970   0.03822   0.04375   0.04536   0.05960
 Alpha virt. eigenvalues --    0.06292   0.08533   0.08993   0.09277   0.11623
 Alpha virt. eigenvalues --    0.12099   0.12334   0.13473   0.14085   0.14340

 Mulliken charges:
               1
     1  F   -0.617171
     2  S    0.615767
     3  C    0.514141
     4  C    0.002275
     5  H   -0.435839
     6  C    0.670468
     7  H   -0.422525
     8  C    0.282763
     9  C    0.002271
    10  H   -0.435838
    11  C    0.670473
    12  H   -0.422526
    13  H   -0.424260
 Sum of Mulliken charges =  -0.00000

 Dipole moment (field-independent basis, Debye):
    X=             -3.7084    Y=             -0.0000    Z=             -1.3113  Tot=              3.9334

 Test job not archived.
 1\1\GINC-SE461\SP\RHF\Aug-CC-pVDZ\C6H5F1S1\OHZDE\09-Apr-2025\0\\#t hf
 aug-cc-pvdz iop(5/13=1,5/36=2,99/5=2) pseudo=read geom=check guess=(re
 ad,tcheck) scf=(maxcycle=1)\\title\\0,1\F,0,2.482151,0.000004,1.036341
 \S,0,1.892978,-0.000003,-0.5488\C,0,0.154869,-0.000001,-0.239541\C,0,-
 0.53887,1.213521,-0.131001\H,0,0.007262,2.144751,-0.216007\C,0,-1.9126
 94,1.210326,0.085845\H,0,-2.449448,2.148139,0.170039\C,0,-2.5974,0.000
 001,0.193919\C,0,-0.538872,-1.213522,-0.130998\H,0,0.00726,-2.144753,-
 0.216001\C,0,-1.912695,-1.210325,0.085847\H,0,-2.449451,-2.148136,0.17

 Normal termination of Gaussian 16 at Wed Apr  9 00:22:13 2025.
