 Gaussian 16, Revision C.01,

 ----------------------------------------------------------------------
 #t hf aug-cc-pvdz symm=none int=(grid=ultrafine) guess=(read,tcheck) s
 table=(opt,rrhf)
 ----------------------------------------------------------------------
 -----
 title
 -----
 Symbolic Z-matrix:
 Charge =  0 Multiplicity = 1

 SCF Done:  E(RHF) =  -852.335347964     A.U. after   18 cycles
 Normal termination of Gaussian 16 at Wed Apr  9 00:50:36 2025.
 Gaussian 16:  ES64L-G16RevC.01  3-Jul-2019

 ----------------------------------------------------------------------
 #t hf aug-cc-pvdz iop(5/13=1,5/36=2,99/5=2) pseudo=read geom=check gue
 ss=(read,tcheck) scf=(maxcycle=1)
 ----------------------------------------------------------------------
 -----
 title
 -----
 Structure from the checkpoint file:  "BDE49_nonexpt_934_mol1.chk"
 Charge =  0 Multiplicity = 1

                         Standard orientation:
 ---------------------------------------------------------------------
 Center     Atomic      Atomic             Coordinates (Angstroms)
 Number     Number       Type             X           Y           Z
 ---------------------------------------------------------------------
      1         17           0        2.614013   -0.744630   -0.000014
      2          7           0        1.199518    0.192674   -0.000002
      3          7           0        1.265115    1.561039    0.000039
      4          7           0        0.060884    2.009275   -0.000023
      5          6           0       -0.094179   -0.253975    0.000003
      6          6           0       -0.822848    0.947629    0.000002
      7          6           0       -2.224162    0.925850    0.000004
      8          1           0       -2.785656    1.851633   -0.000003
      9          6           0       -2.840778   -0.311353    0.000005
     10          1           0       -3.922431   -0.371952    0.000001
     11          6           0       -2.089777   -1.510147    0.000005
     12          1           0       -2.616516   -2.457311    0.000003
     13          6           0       -0.705195   -1.510785    0.000004
     14          1           0       -0.130589   -2.427885    0.000002
 ---------------------------------------------------------------------

 SCF Done:  E(RHF) =  -852.465656662     A.U. after    2 cycles

 The electronic state is 1-A.
 Alpha  occ. eigenvalues -- -103.73870 -15.76818 -15.74562 -15.69037 -11.31792
 Alpha  occ. eigenvalues --  -11.28844 -11.27565 -11.27456 -11.27429 -11.26291
 Alpha  occ. eigenvalues --  -10.76713  -8.42502  -8.42078  -8.42035  -1.42183
 Alpha  occ. eigenvalues --   -1.26528  -1.17391  -1.11258  -1.05657  -1.02900
 Alpha  occ. eigenvalues --   -0.89699  -0.85935  -0.82731  -0.73490  -0.73300
 Alpha  occ. eigenvalues --   -0.68050  -0.66942  -0.64193  -0.62904  -0.55723
 Alpha  occ. eigenvalues --   -0.55440  -0.54823  -0.52826  -0.51919  -0.50467
 Alpha  occ. eigenvalues --   -0.44569  -0.43978  -0.35001  -0.33744
 Alpha virt. eigenvalues --    0.02880   0.03586   0.04909   0.05725   0.06236
 Alpha virt. eigenvalues --    0.07549   0.09261   0.10280   0.11069   0.11469
 Alpha virt. eigenvalues --    0.12334   0.12458   0.13501   0.13634   0.13769

 Mulliken charges:
               1
     1  Cl   0.370648
     2  N   -0.568610
     3  N   -0.280894
     4  N   -0.604940
     5  C    0.187268
     6  C   -0.072729
     7  C    0.946048
     8  H   -0.450288
     9  C    0.536124
    10  H   -0.446153
    11  C    0.624154
    12  H   -0.441570
    13  C    0.695132
    14  H   -0.494191
 Sum of Mulliken charges =  -0.00000

 Dipole moment (field-independent basis, Debye):
    X=             -1.6270    Y=             -3.2462    Z=             -0.0000  Tot=              3.6311

 Test job not archived.
 1\1\GINC-SE112\SP\RHF\Aug-CC-pVDZ\C6H4Cl1N3\OHZDE\09-Apr-2025\0\\#t hf
  aug-cc-pvdz iop(5/13=1,5/36=2,99/5=2) pseudo=read geom=check guess=(r
 ead,tcheck) scf=(maxcycle=1)\\title\\0,1\Cl,0,-2.614013,-0.744631,0.00
 0014\N,0,-1.199518,0.192674,0.000002\N,0,-1.265115,1.561039,-0.000039\
 N,0,-0.060884,2.009275,0.000023\C,0,0.094179,-0.253975,-0.000003\C,0,0
 .822848,0.947629,-0.000002\C,0,2.224162,0.92585,-0.000004\H,0,2.785656
 ,1.851633,0.000003\C,0,2.840778,-0.311353,-0.000005\H,0,3.922431,-0.37
 1952,-0.000001\C,0,2.089777,-1.510147,-0.000005\H,0,2.616516,-2.457311

 Normal termination of Gaussian 16 at Wed Apr  9 00:50:43 2025.
