 Gaussian 16, Revision C.01,

 ----------------------------------------------------------------------
 #t hf aug-cc-pvdz symm=none int=(grid=ultrafine) guess=(read,tcheck) s
 table=opt
 ----------------------------------------------------------------------
 -----
 title
 -----
 Symbolic Z-matrix:
 Charge =  0 Multiplicity = 2

 SCF Done:  E(UHF) =  -497.501064827     A.U. after   18 cycles
 Normal termination of Gaussian 16 at Tue Apr  8 23:50:31 2025.
 Gaussian 16:  ES64L-G16RevC.01  3-Jul-2019

 ----------------------------------------------------------------------
 #t hf aug-cc-pvdz iop(5/13=1,5/36=2,99/5=2) pseudo=read geom=check gue
 ss=(read,tcheck) scf=(maxcycle=1)
 ----------------------------------------------------------------------
 -----
 title
 -----
 Structure from the checkpoint file:  "BDE49_nonexpt_1909_mol2.chk"
 Charge =  0 Multiplicity = 2

                         Standard orientation:
 ---------------------------------------------------------------------
 Center     Atomic      Atomic             Coordinates (Angstroms)
 Number     Number       Type             X           Y           Z
 ---------------------------------------------------------------------
      1         14           0        1.835199    0.069406   -0.098305
      2          7           0        0.261092   -0.687179    0.039572
      3          1           0        1.887880    1.265928    0.782350
      4          1           0        2.800131   -0.967670    0.346998
      5          6           0       -1.028759   -0.160014    0.005925
      6          8           0       -2.000780   -0.886348    0.010246
      7          1           0        0.221069   -1.701747    0.027674
      8          6           0       -1.129975    1.351921   -0.018354
      9          1           0       -0.728165    1.779854    0.904124
     10          1           0       -2.178106    1.626177   -0.115218
     11          1           0       -0.564601    1.775374   -0.854058
 ---------------------------------------------------------------------

 SCF Done:  E(UHF) =  -497.591566131     A.U. after    2 cycles

 The electronic state is 2-A.
 Alpha  occ. eigenvalues --  -69.10911 -20.54830 -15.64535 -11.37480 -11.25440
 Alpha  occ. eigenvalues --   -6.85995  -3.97222  -3.96531  -3.96424  -1.35878
 Alpha  occ. eigenvalues --   -1.16887  -1.00551  -0.80021  -0.73594  -0.68230
 Alpha  occ. eigenvalues --   -0.64256  -0.62842  -0.56735  -0.56348  -0.54181
 Alpha  occ. eigenvalues --   -0.50937  -0.45805  -0.44663  -0.33027
 Alpha virt. eigenvalues --    0.03047   0.04403   0.04582   0.05338   0.06580
 Alpha virt. eigenvalues --    0.07083   0.08071   0.09470   0.10005   0.10201
 Alpha virt. eigenvalues --    0.12209   0.13170   0.14063   0.14907   0.15905

  Beta  occ. eigenvalues --  -69.10375 -20.54629 -15.64209 -11.37561 -11.25435
  Beta  occ. eigenvalues --   -6.85160  -3.96196  -3.96084  -3.95222  -1.35499
  Beta  occ. eigenvalues --   -1.16018  -1.00494  -0.79338  -0.71823  -0.68040
  Beta  occ. eigenvalues --   -0.62949  -0.62305  -0.56595  -0.55296  -0.53344
  Beta  occ. eigenvalues --   -0.49476  -0.44423  -0.42289
  Beta virt. eigenvalues --    0.02108   0.03453   0.04459   0.04761   0.06479
  Beta virt. eigenvalues --    0.06827   0.07602   0.08658   0.09694   0.10378
  Beta virt. eigenvalues --    0.10436   0.12708   0.13391   0.15012   0.15244

 Mulliken charges and spin densities:
               1          2
     1  Si   0.371953   0.887207
     2  N   -0.496119   0.020700
     3  H    0.031909   0.050683
     4  H    0.003073   0.035235
     5  C    0.368245  -0.021437
     6  O   -0.509055   0.042896
     7  H   -0.092799  -0.005341
     8  C    0.327244  -0.006895
     9  H    0.025720  -0.001025
    10  H   -0.061134  -0.001296
    11  H    0.030963  -0.000728
 Sum of Mulliken charges =  -0.00000   1.00000

 Dipole moment (field-independent basis, Debye):
    X=              2.9783    Y=              1.7733    Z=             -0.1281  Tot=              3.4686
                          Isotropic Fermi Contact Couplings
        Atom                 a.u.       MegaHertz       Gauss      10(-4) cm-1
     1  Si(29)             0.60085    -533.99323    -190.54206    -178.12097
     2  N(14)              0.04350      14.05654       5.01572       4.68876
     3  H(1)               0.01583      70.77914      25.25576      23.60938
     4  H(1)               0.01059      47.32442      16.88653      15.78573
     5  C(13)             -0.01017     -11.43529      -4.08040      -3.81440
     6  O(17)              0.01762     -10.67846      -3.81034      -3.56195
     7  H(1)              -0.00159      -7.09623      -2.53211      -2.36705
     8  C(13)              0.00068       0.76197       0.27189       0.25417

 1\1\GINC-SE460\SP\UHF\Aug-CC-pVDZ\C2H6N1O1Si1(2)\OHZDE\08-Apr-2025\0\\
 #t hf aug-cc-pvdz iop(5/13=1,5/36=2,99/5=2) pseudo=read geom=check gue
 ss=(read,tcheck) scf=(maxcycle=1)\\title\\0,2\Si,0,1.835199,0.069406,-
 0.098305\N,0,0.261092,-0.687179,0.039572\H,0,1.88788,1.265928,0.78235\
 H,0,2.800131,-0.967669,0.346998\C,0,-1.028759,-0.160014,0.005925\O,0,-
 2.00078,-0.886348,0.010246\H,0,0.221069,-1.701747,0.027674\C,0,-1.1299
 75,1.351921,-0.018354\H,0,-0.728165,1.779854,0.904124\H,0,-2.178106,1.
 626177,-0.115218\H,0,-0.564601,1.775374,-0.854058\\Version=ES64L-G16Re

 Normal termination of Gaussian 16 at Tue Apr  8 23:50:35 2025.
