 Gaussian 16, Revision C.01,

 ----------------------------------------------------------------------
 #t hf aug-cc-pvdz symm=none int=(grid=ultrafine) guess=(read,tcheck) s
 table=(opt,rrhf)
 ----------------------------------------------------------------------
 -----
 title
 -----
 Symbolic Z-matrix:
 Charge =  0 Multiplicity = 1

 SCF Done:  E(RHF) =  -643.690235946     A.U. after   12 cycles
 Normal termination of Gaussian 16 at Wed Apr  9 00:29:21 2025.
 Gaussian 16:  ES64L-G16RevC.01  3-Jul-2019

 ----------------------------------------------------------------------
 #t hf aug-cc-pvdz iop(5/13=1,5/36=2,99/5=2) pseudo=read geom=check gue
 ss=(read,tcheck) scf=(maxcycle=1)
 ----------------------------------------------------------------------
 -----
 title
 -----
 Structure from the checkpoint file:  "BDE49_nonexpt_362_mol1.chk"
 Charge =  0 Multiplicity = 1

                         Standard orientation:
 ---------------------------------------------------------------------
 Center     Atomic      Atomic             Coordinates (Angstroms)
 Number     Number       Type             X           Y           Z
 ---------------------------------------------------------------------
      1          9           0       -1.773900    1.131653    0.110949
      2          9           0       -1.773902   -1.131652    0.110947
      3          5           0       -1.089527   -0.000000   -0.035482
      4         15           0        0.740075   -0.000001   -0.597366
      5          6           0        1.413035   -1.461111    0.339691
      6          6           0        1.413035    1.461111    0.339690
      7          1           0        0.871744   -2.355683    0.026057
      8          1           0        1.322977   -1.356725    1.423057
      9          1           0        2.465433   -1.597037    0.083158
     10          1           0        0.871744    2.355682    0.026055
     11          1           0        2.465434    1.597036    0.083156
     12          1           0        1.322978    1.356726    1.423055
 ---------------------------------------------------------------------

 SCF Done:  E(RHF) =  -643.830136876     A.U. after    2 cycles

 The electronic state is 1-A.
 Alpha  occ. eigenvalues --  -81.25107 -26.13942 -26.13935 -11.24838 -11.24836
 Alpha  occ. eigenvalues --   -7.75641  -7.74383  -4.89655  -4.89649  -4.89318
 Alpha  occ. eigenvalues --   -1.69148  -1.66885  -0.99035  -0.94564  -0.87935
 Alpha  occ. eigenvalues --   -0.81904  -0.79771  -0.76842  -0.72222  -0.71652
 Alpha  occ. eigenvalues --   -0.70428  -0.59862  -0.59436  -0.57058  -0.56865
 Alpha  occ. eigenvalues --   -0.47205  -0.46816  -0.33633
 Alpha virt. eigenvalues --    0.03072   0.04635   0.04941   0.05408   0.06831
 Alpha virt. eigenvalues --    0.06921   0.07309   0.07542   0.07900   0.09419
 Alpha virt. eigenvalues --    0.10849   0.11882   0.12876   0.14866   0.15820

 Mulliken charges:
               1
     1  F   -0.502459
     2  F   -0.502459
     3  B    1.261068
     4  P    0.248830
     5  C    0.251177
     6  C    0.251178
     7  H   -0.173494
     8  H   -0.178531
     9  H   -0.151642
    10  H   -0.173495
    11  H   -0.151638
    12  H   -0.178535
 Sum of Mulliken charges =  -0.00000

 Dipole moment (field-independent basis, Debye):
    X=              2.2570    Y=             -0.0000    Z=              0.9617  Tot=              2.4534

 Test job not archived.
 1\1\GINC-SE141\SP\RHF\Aug-CC-pVDZ\C2H6B1F2P1\OHZDE\09-Apr-2025\0\\#t h
 f aug-cc-pvdz iop(5/13=1,5/36=2,99/5=2) pseudo=read geom=check guess=(
 read,tcheck) scf=(maxcycle=1)\\title\\0,1\F,0,1.7739,-1.131653,0.11094
 9\F,0,1.773902,1.131652,0.110947\B,0,1.089527,0.,-0.035482\P,0,-0.7400
 75,0.000001,-0.597366\C,0,-1.413035,1.461111,0.339691\C,0,-1.413035,-1
 .461111,0.33969\H,0,-0.871744,2.355683,0.026057\H,0,-1.322977,1.356725
 ,1.423057\H,0,-2.465433,1.597037,0.083158\H,0,-0.871744,-2.355682,0.02
 6055\H,0,-2.465434,-1.597036,0.083156\H,0,-1.322978,-1.356726,1.423055

 Normal termination of Gaussian 16 at Wed Apr  9 00:29:26 2025.
