 Gaussian 16, Revision C.01,

 ----------------------------------------------------------------------
 #t hf aug-cc-pvdz symm=none int=(grid=ultrafine) guess=(read,tcheck) s
 table=(opt,rrhf)
 ----------------------------------------------------------------------
 -----
 title
 -----
 Symbolic Z-matrix:
 Charge =  0 Multiplicity = 1

 SCF Done:  E(RHF) =  -611.282964518     A.U. after   18 cycles
 Normal termination of Gaussian 16 at Tue Apr  8 23:17:49 2025.
 Gaussian 16:  ES64L-G16RevC.01  3-Jul-2019

 ----------------------------------------------------------------------
 #t hf aug-cc-pvdz iop(5/13=1,5/36=2,99/5=2) pseudo=read geom=check gue
 ss=(read,tcheck) scf=(maxcycle=1)
 ----------------------------------------------------------------------
 -----
 title
 -----
 Structure from the checkpoint file:  "BDE49_nonexpt_1100_mol1.chk"
 Charge =  0 Multiplicity = 1

                         Standard orientation:
 ---------------------------------------------------------------------
 Center     Atomic      Atomic             Coordinates (Angstroms)
 Number     Number       Type             X           Y           Z
 ---------------------------------------------------------------------
      1          9           0        1.796337    0.586651   -0.251094
      2         16           0       -0.501190   -0.646252   -0.230322
      3          8           0        0.780363   -0.378547    0.609140
      4          6           0       -1.531086    0.806907    0.102464
      5          1           0       -2.487373    0.640275   -0.399069
      6          1           0       -1.038325    1.683162   -0.319246
      7          1           0       -1.678680    0.923678    1.175405
 ---------------------------------------------------------------------

 SCF Done:  E(RHF) =  -611.385007225     A.U. after    2 cycles

 The electronic state is 1-A.
 Alpha  occ. eigenvalues --  -93.63841 -26.10848 -20.74350 -11.29630  -8.93089
 Alpha  occ. eigenvalues --   -6.27409  -6.26859  -6.26630  -1.58252  -1.38669
 Alpha  occ. eigenvalues --   -1.04675  -0.88220  -0.72259  -0.70518  -0.68902
 Alpha  occ. eigenvalues --   -0.64538  -0.63726  -0.61667  -0.59698  -0.48281
 Alpha  occ. eigenvalues --   -0.40671
 Alpha virt. eigenvalues --   -0.00094   0.02984   0.05008   0.05912   0.07172
 Alpha virt. eigenvalues --    0.09688   0.11705   0.13109   0.14371   0.14627
 Alpha virt. eigenvalues --    0.16052   0.19430   0.21728   0.22019   0.22481

 Mulliken charges:
               1
     1  F   -0.436031
     2  S    0.898694
     3  O   -0.371864
     4  C   -0.037247
     5  H   -0.023047
     6  H    0.005953
     7  H   -0.036459
 Sum of Mulliken charges =  -0.00000

 Dipole moment (field-independent basis, Debye):
    X=             -5.0152    Y=             -0.1979    Z=              0.1525  Tot=              5.0214

 Test job not archived.
 1\1\GINC-SE368\SP\RHF\Aug-CC-pVDZ\C1H3F1O1S1\OHZDE\08-Apr-2025\0\\#t h
 f aug-cc-pvdz iop(5/13=1,5/36=2,99/5=2) pseudo=read geom=check guess=(
 read,tcheck) scf=(maxcycle=1)\\title\\0,1\F,0,1.796337,0.586651,-0.251
 094\S,0,-0.50119,-0.646252,-0.230322\O,0,0.780363,-0.378547,0.60914\C,
 0,-1.531086,0.806907,0.102464\H,0,-2.487373,0.640275,-0.399069\H,0,-1.
 038325,1.683162,-0.319246\H,0,-1.67868,0.923678,1.175405\\Version=ES64
 L-G16RevC.01\State=1-A\HF=-611.3850072\RMSD=4.161e-03\Dipole=-1.973133
 ,-0.0778403,0.0600152\Quadrupole=-0.9537274,0.7470909,0.2066365,-2.202

 Normal termination of Gaussian 16 at Tue Apr  8 23:17:50 2025.
