 Gaussian 16, Revision C.01,

 ----------------------------------------------------------------------
 #t hf aug-cc-pvdz symm=none int=(grid=ultrafine) guess=(read,tcheck) s
 table=(opt,rrhf)
 ----------------------------------------------------------------------
 -----
 title
 -----
 Symbolic Z-matrix:
 Charge =  0 Multiplicity = 1

 SCF Done:  E(RHF) =  -433.600743113     A.U. after   11 cycles
 Normal termination of Gaussian 16 at Wed Apr  9 00:45:12 2025.
 Gaussian 16:  ES64L-G16RevC.01  3-Jul-2019

 ----------------------------------------------------------------------
 #t hf aug-cc-pvdz iop(5/13=1,5/36=2,99/5=2) pseudo=read geom=check gue
 ss=(read,tcheck) scf=(maxcycle=1)
 ----------------------------------------------------------------------
 -----
 title
 -----
 Structure from the checkpoint file:  "BDE49_nonexpt_819_mol1.chk"
 Charge =  0 Multiplicity = 1

                         Standard orientation:
 ---------------------------------------------------------------------
 Center     Atomic      Atomic             Coordinates (Angstroms)
 Number     Number       Type             X           Y           Z
 ---------------------------------------------------------------------
      1          5           0        2.098674    0.000007    1.072158
      2         14           0        1.002024   -0.000035   -0.621438
      3          6           0       -0.887570   -0.000010   -0.399986
      4          6           0       -1.379142   -1.271039    0.316155
      5          1           0       -0.980285   -1.334541    1.334303
      6          1           0       -1.082366   -2.180574   -0.214165
      7          6           0       -1.379119    1.271077    0.316068
      8          1           0       -2.471932   -1.277427    0.396063
      9          1           0       -1.306668   -0.000042   -1.414967
     10          1           0       -2.471909    1.277490    0.395975
     11          1           0       -0.980261    1.334643    1.334211
     12          1           0       -1.082327    2.180570   -0.214316
     13          1           0        3.289264    0.000133    0.993639
     14          1           0        1.631904    0.000166    2.169909
     15          1           0        1.403917   -1.196202   -1.417319
     16          1           0        1.403939    1.196070   -1.417402
 ---------------------------------------------------------------------

 SCF Done:  E(RHF) =  -433.669223218     A.U. after    2 cycles

 The electronic state is 1-A.
 Alpha  occ. eigenvalues --  -69.03955 -11.22911 -11.22910 -11.22581  -7.62245
 Alpha  occ. eigenvalues --   -6.79470  -3.90248  -3.90209  -3.90172  -1.04507
 Alpha  occ. eigenvalues --   -0.92742  -0.80230  -0.71722  -0.63838  -0.61656
 Alpha  occ. eigenvalues --   -0.57993  -0.56331  -0.53951  -0.49779  -0.48592
 Alpha  occ. eigenvalues --   -0.48300  -0.46054  -0.41548  -0.39524
 Alpha virt. eigenvalues --    0.03280   0.03368   0.04218   0.04692   0.05271
 Alpha virt. eigenvalues --    0.06037   0.06315   0.07096   0.07208   0.08546
 Alpha virt. eigenvalues --    0.08973   0.09328   0.09398   0.10076   0.10469

 Mulliken charges:
               1
     1  B   -0.655137
     2  Si  -0.445241
     3  C   -0.181279
     4  C    0.447416
     5  H   -0.101265
     6  H   -0.108380
     7  C    0.447422
     8  H   -0.082434
     9  H   -0.170806
    10  H   -0.082432
    11  H   -0.101263
    12  H   -0.108375
    13  H    0.423882
    14  H    0.423862
    15  H    0.147015
    16  H    0.147013
 Sum of Mulliken charges =  -0.00000

 Dipole moment (field-independent basis, Debye):
    X=             -0.6558    Y=             -0.0001    Z=              0.3536  Tot=              0.7451

 Test job not archived.
 1\1\GINC-SE162\SP\RHF\Aug-CC-pVDZ\C3H11B1Si1\OHZDE\09-Apr-2025\0\\#t h
 f aug-cc-pvdz iop(5/13=1,5/36=2,99/5=2) pseudo=read geom=check guess=(
 read,tcheck) scf=(maxcycle=1)\\title\\0,1\B,0,2.098674,0.000007,1.0721
 58\Si,0,1.002024,-0.000035,-0.621438\C,0,-0.88757,-0.00001,-0.399986\C
 ,0,-1.379142,-1.271039,0.316155\H,0,-0.980285,-1.334541,1.334303\H,0,-
 1.082366,-2.180574,-0.214165\C,0,-1.379119,1.271077,0.316068\H,0,-2.47
 1932,-1.277427,0.396063\H,0,-1.306668,-0.000042,-1.414967\H,0,-2.47190
 9,1.27749,0.395975\H,0,-0.980261,1.334643,1.334211\H,0,-1.082327,2.180

 Normal termination of Gaussian 16 at Wed Apr  9 00:45:17 2025.
