 Gaussian 16, Revision C.01,

 ----------------------------------------------------------------------
 #t hf aug-cc-pvdz symm=none int=(grid=ultrafine) guess=(read,tcheck) s
 table=(opt,rrhf)
 ----------------------------------------------------------------------
 -----
 title
 -----
 Symbolic Z-matrix:
 Charge =  0 Multiplicity = 1

 SCF Done:  E(RHF) =  -1092.27846524     A.U. after   14 cycles
 Normal termination of Gaussian 16 at Wed Apr  9 00:08:33 2025.
 Gaussian 16:  ES64L-G16RevC.01  3-Jul-2019

 ----------------------------------------------------------------------
 #t hf aug-cc-pvdz iop(5/13=1,5/36=2,99/5=2) pseudo=read geom=check gue
 ss=(read,tcheck) scf=(maxcycle=1)
 ----------------------------------------------------------------------
 -----
 title
 -----
 Structure from the checkpoint file:  "BDE49_nonexpt_234_mol1.chk"
 Charge =  0 Multiplicity = 1

                         Standard orientation:
 ---------------------------------------------------------------------
 Center     Atomic      Atomic             Coordinates (Angstroms)
 Number     Number       Type             X           Y           Z
 ---------------------------------------------------------------------
      1         17           0       -1.367668   -1.542610    0.024477
      2          5           0       -0.501825    0.000005   -0.018701
      3         17           0       -1.367631    1.542636    0.024461
      4          7           0        0.885841   -0.000025    0.069882
      5          7           0        1.927450   -0.000090   -0.566083
      6          6           0        3.152015    0.000030    0.249406
      7          1           0        3.730980    0.880517   -0.041632
      8          1           0        3.730982   -0.880534   -0.041393
      9          1           0        2.942121    0.000176    1.321564
 ---------------------------------------------------------------------

 SCF Done:  E(RHF) =  -1092.36561278     A.U. after    2 cycles

 The electronic state is 1-A.
 Alpha  occ. eigenvalues -- -103.67019-103.67019 -15.74240 -15.70163 -11.28785
 Alpha  occ. eigenvalues --  -10.70490 -10.70453  -8.36177  -8.36167  -8.35934
 Alpha  occ. eigenvalues --   -8.35932  -8.35915  -8.35915  -7.75091  -1.34817
 Alpha  occ. eigenvalues --   -1.18157  -1.14606  -1.04566  -0.90031  -0.72132
 Alpha  occ. eigenvalues --   -0.66736  -0.64654  -0.64448  -0.59536  -0.56313
 Alpha  occ. eigenvalues --   -0.52235  -0.49908  -0.49864  -0.48281  -0.46713
 Alpha  occ. eigenvalues --   -0.37753
 Alpha virt. eigenvalues --    0.03118   0.04505   0.04696   0.05322   0.07440
 Alpha virt. eigenvalues --    0.07486   0.07923   0.08402   0.11057   0.11910
 Alpha virt. eigenvalues --    0.13017   0.13027   0.13906   0.15394   0.16297

 Mulliken charges:
               1
     1  Cl  -0.310867
     2  B    0.398355
     3  Cl  -0.310851
     4  N    0.113429
     5  N   -0.392739
     6  C    0.770545
     7  H   -0.068058
     8  H   -0.068055
     9  H   -0.131759
 Sum of Mulliken charges =  -0.00000

 Dipole moment (field-independent basis, Debye):
    X=              2.9800    Y=              0.0001    Z=              0.5901  Tot=              3.0378

 Test job not archived.
 1\1\GINC-SE435\SP\RHF\Aug-CC-pVDZ\C1H3B1Cl2N2\OHZDE\09-Apr-2025\0\\#t
 hf aug-cc-pvdz iop(5/13=1,5/36=2,99/5=2) pseudo=read geom=check guess=
 (read,tcheck) scf=(maxcycle=1)\\title\\0,1\Cl,0,1.367668,1.54261,0.024
 477\B,0,0.501825,-0.000005,-0.018701\Cl,0,1.367631,-1.542636,0.024461\
 N,0,-0.885841,0.000025,0.069882\N,0,-1.92745,0.00009,-0.566083\C,0,-3.
 152015,-0.00003,0.249406\H,0,-3.73098,-0.880517,-0.041632\H,0,-3.73098
 2,0.880534,-0.041393\H,0,-2.942121,-0.000176,1.321564\\Version=ES64L-G
 16RevC.01\State=1-A\HF=-1092.3656128\RMSD=2.641e-03\Dipole=-1.1724101,

 Normal termination of Gaussian 16 at Wed Apr  9 00:08:36 2025.
