 Gaussian 16, Revision C.01,

 ----------------------------------------------------------------------
 #t hf aug-cc-pvdz symm=none int=(grid=ultrafine) guess=(read,tcheck) s
 table=opt
 ----------------------------------------------------------------------
 -----
 title
 -----
 Symbolic Z-matrix:
 Charge =  0 Multiplicity = 2

 SCF Done:  E(UHF) =  -458.969122858     A.U. after   18 cycles
 Normal termination of Gaussian 16 at Tue Apr  8 23:26:06 2025.
 Gaussian 16:  ES64L-G16RevC.01  3-Jul-2019

 ----------------------------------------------------------------------
 #t hf aug-cc-pvdz iop(5/13=1,5/36=2,99/5=2) pseudo=read geom=check gue
 ss=(read,tcheck) scf=(maxcycle=1)
 ----------------------------------------------------------------------
 -----
 title
 -----
 Structure from the checkpoint file:  "BDE49_nonexpt_1316_mol2.chk"
 Charge =  0 Multiplicity = 2

                         Standard orientation:
 ---------------------------------------------------------------------
 Center     Atomic      Atomic             Coordinates (Angstroms)
 Number     Number       Type             X           Y           Z
 ---------------------------------------------------------------------
      1          6           0        1.445511   -0.802199    0.240571
      2         15           0       -0.000000    0.082723   -0.512490
      3          1           0        1.368998   -0.858831    1.328952
      4          1           0        2.364101   -0.274538   -0.025584
      5          1           0        1.506036   -1.811160   -0.173677
      6          6           0       -1.445508   -0.802204    0.240571
      7          1           0       -1.506028   -1.811166   -0.173677
      8          1           0       -2.364100   -0.274548   -0.025585
      9          1           0       -1.368995   -0.858836    1.328952
     10          6           0       -0.000003    1.642043    0.300922
     11          1           0        0.921342    2.211200    0.367793
     12          1           0       -0.921352    2.211196    0.367794
 ---------------------------------------------------------------------

 SCF Done:  E(UHF) =  -459.034422986     A.U. after    2 cycles

 The electronic state is 2-A.
 Alpha  occ. eigenvalues --  -81.24835 -11.24177 -11.23478 -11.23476  -7.75173
 Alpha  occ. eigenvalues --   -4.89191  -4.89152  -4.88856  -0.99943  -0.93563
 Alpha  occ. eigenvalues --   -0.93336  -0.68959  -0.60255  -0.59112  -0.58586
 Alpha  occ. eigenvalues --   -0.55748  -0.54768  -0.49084  -0.45927  -0.42733
 Alpha  occ. eigenvalues --   -0.28880
 Alpha virt. eigenvalues --    0.03729   0.04634   0.04651   0.05860   0.06774
 Alpha virt. eigenvalues --    0.07047   0.07701   0.08868   0.08904   0.12026
 Alpha virt. eigenvalues --    0.12538   0.14093   0.14711   0.16585   0.16847

  Beta  occ. eigenvalues --  -81.24858 -11.23323 -11.23321 -11.21937  -7.75198
  Beta  occ. eigenvalues --   -4.89308  -4.89234  -4.88786  -0.98414  -0.93229
  Beta  occ. eigenvalues --   -0.87041  -0.67984  -0.59179  -0.58633  -0.58385
  Beta  occ. eigenvalues --   -0.55681  -0.54411  -0.47255  -0.45213  -0.32078
  Beta virt. eigenvalues --    0.03432   0.04653   0.04669   0.05749   0.06792
  Beta virt. eigenvalues --    0.07064   0.07718   0.07829   0.08912   0.08973
  Beta virt. eigenvalues --    0.12570   0.13391   0.14658   0.15429   0.16597

 Mulliken charges and spin densities:
               1          2
     1  C    0.264561   0.041210
     2  P    0.444065  -0.143970
     3  H   -0.122767   0.003265
     4  H   -0.146214  -0.002275
     5  H   -0.124912  -0.005019
     6  C    0.264561   0.041210
     7  H   -0.124910  -0.005019
     8  H   -0.146217  -0.002275
     9  H   -0.122766   0.003265
    10  C    0.383915   1.244021
    11  H   -0.284659  -0.087207
    12  H   -0.284657  -0.087207
 Sum of Mulliken charges =  -0.00000   1.00000

 Dipole moment (field-independent basis, Debye):
    X=              0.0000    Y=             -0.3392    Z=              1.0679  Tot=              1.1204
                          Isotropic Fermi Contact Couplings
        Atom                 a.u.       MegaHertz       Gauss      10(-4) cm-1
     1  C(13)              0.03737      42.01607      14.99238      14.01505
     2  P(31)              0.01147      20.76913       7.41094       6.92783
     3  H(1)              -0.00031      -1.37369      -0.49017      -0.45822
     4  H(1)              -0.00129      -5.74747      -2.05084      -1.91715
     5  H(1)              -0.00111      -4.97578      -1.77548      -1.65974
     6  C(13)              0.03737      42.01594      14.99233      14.01501
     7  H(1)              -0.00111      -4.97579      -1.77548      -1.65974
     8  H(1)              -0.00129      -5.74746      -2.05084      -1.91715

 Normal termination of Gaussian 16 at Tue Apr  8 23:26:10 2025.
