 Gaussian 16, Revision C.01,

 ----------------------------------------------------------------------
 #t hf aug-cc-pvdz symm=none int=(grid=ultrafine) guess=(read,tcheck) s
 table=opt
 ----------------------------------------------------------------------
 -----
 title
 -----
 Symbolic Z-matrix:
 Charge =  0 Multiplicity = 2

 SCF Done:  E(UHF) =  -156.687826687     A.U. after   16 cycles
 Normal termination of Gaussian 16 at Tue Apr  8 22:33:34 2025.
 Gaussian 16:  ES64L-G16RevC.01  3-Jul-2019

 ----------------------------------------------------------------------
 #t hf aug-cc-pvdz iop(5/13=1,5/36=2,99/5=2) pseudo=read geom=check gue
 ss=(read,tcheck) scf=(maxcycle=1)
 ----------------------------------------------------------------------
 -----
 title
 -----
 Structure from the checkpoint file:  "BDE49_expt_1117_mol2.chk"
 Charge =  0 Multiplicity = 2

                         Standard orientation:
 ---------------------------------------------------------------------
 Center     Atomic      Atomic             Coordinates (Angstroms)
 Number     Number       Type             X           Y           Z
 ---------------------------------------------------------------------
      1          6           0       -0.581232    0.443427    0.048816
      2          6           0        0.570771   -0.504954    0.091211
      3          6           0        1.937412    0.168348   -0.081221
      4          1           0        0.437254   -1.278054   -0.679058
      5          1           0        0.565214   -1.060555    1.046986
      6          1           0        2.002541    0.679817   -1.045482
      7          1           0        2.749829   -0.561219   -0.029964
      8          1           0        2.108321    0.912729    0.702277
      9          6           0       -1.985278   -0.043001   -0.067308
     10          1           0       -0.407669    1.476882    0.335014
     11          1           0       -2.083069   -0.812838   -0.842775
     12          1           0       -2.680180    0.766587   -0.304578
     13          1           0       -2.342278   -0.506273    0.868596
 ---------------------------------------------------------------------

 SCF Done:  E(UHF) =  -156.739260929     A.U. after    2 cycles

 The electronic state is 2-A.
 Alpha  occ. eigenvalues --  -11.23249 -11.22909 -11.22487 -11.22263  -1.06882
 Alpha  occ. eigenvalues --   -0.98070  -0.86509  -0.78008  -0.62692  -0.59751
 Alpha  occ. eigenvalues --   -0.59116  -0.56487  -0.52352  -0.49514  -0.48318
 Alpha  occ. eigenvalues --   -0.48052  -0.32656
 Alpha virt. eigenvalues --    0.03707   0.04458   0.04816   0.05218   0.06783
 Alpha virt. eigenvalues --    0.06954   0.07158   0.08234   0.09732   0.11760
 Alpha virt. eigenvalues --    0.13162   0.14616   0.15253   0.16313   0.16765

  Beta  occ. eigenvalues --  -11.23244 -11.22824 -11.22218 -11.20742  -1.04166
  Beta  occ. eigenvalues --   -0.97081  -0.85538  -0.74014  -0.60790  -0.58924
  Beta  occ. eigenvalues --   -0.58230  -0.54419  -0.51907  -0.48684  -0.47862
  Beta  occ. eigenvalues --   -0.47293
  Beta virt. eigenvalues --    0.03720   0.04467   0.04848   0.05247   0.06786
  Beta virt. eigenvalues --    0.06948   0.07092   0.08105   0.09702   0.11131
  Beta virt. eigenvalues --    0.12102   0.13317   0.15059   0.16108   0.16543

 Mulliken charges and spin densities:
               1          2
     1  C    0.135596   1.484083
     2  C   -0.048176  -0.265860
     3  C    0.454202   0.014426
     4  H   -0.037646   0.016157
     5  H   -0.029657   0.047414
     6  H   -0.051944   0.000016
     7  H   -0.079563  -0.001664
     8  H   -0.073707  -0.002312
     9  C    0.259287  -0.255311
    10  H   -0.433550  -0.105985
    11  H   -0.048935   0.016446
    12  H   -0.058008   0.004352
    13  H    0.012102   0.048238
 Sum of Mulliken charges =  -0.00000   1.00000

 Dipole moment (field-independent basis, Debye):
    X=             -0.0395    Y=             -0.1243    Z=              0.1417  Tot=              0.1926
                          Isotropic Fermi Contact Couplings
        Atom                 a.u.       MegaHertz       Gauss      10(-4) cm-1
     1  C(13)              0.23431     263.40731      93.99028      87.86322
     2  C(13)             -0.06205     -69.75096     -24.88888     -23.26641
     3  C(13)              0.01035      11.63213       4.15063       3.88006
     4  H(1)               0.01079      48.24756      17.21593      16.09365
     5  H(1)               0.02396     107.09548      38.21433      35.72321
     6  H(1)              -0.00080      -3.58433      -1.27898      -1.19560
     7  H(1)              -0.00091      -4.05529      -1.44703      -1.35270
     8  H(1)              -0.00073      -3.27135      -1.16730      -1.09120

 Normal termination of Gaussian 16 at Tue Apr  8 22:33:37 2025.
