 Gaussian 16, Revision C.01,

 ----------------------------------------------------------------------
 #t hf aug-cc-pvdz symm=none int=(grid=ultrafine) guess=(read,tcheck) s
 table=opt
 ----------------------------------------------------------------------
 -----
 title
 -----
 Symbolic Z-matrix:
 Charge =  0 Multiplicity = 2

 SCF Done:  E(UHF) =  -711.412908618     A.U. after   22 cycles
 Normal termination of Gaussian 16 at Tue Apr  8 23:50:06 2025.
 Gaussian 16:  ES64L-G16RevC.01  3-Jul-2019

 ----------------------------------------------------------------------
 #t hf aug-cc-pvdz iop(5/13=1,5/36=2,99/5=2) pseudo=read geom=check gue
 ss=(read,tcheck) scf=(maxcycle=1)
 ----------------------------------------------------------------------
 -----
 title
 -----
 Structure from the checkpoint file:  "BDE49_nonexpt_188_mol2.chk"
 Charge =  0 Multiplicity = 2

                         Standard orientation:
 ---------------------------------------------------------------------
 Center     Atomic      Atomic             Coordinates (Angstroms)
 Number     Number       Type             X           Y           Z
 ---------------------------------------------------------------------
      1         17           0        2.390142   -0.223379    0.181979
      2          5           0        0.944589    0.039304   -0.704758
      3          6           0       -0.498355    0.324125   -0.192422
      4          8           0       -0.822324    1.456102    0.101630
      5          8           0       -1.324259   -0.736717   -0.182415
      6          6           0       -2.688383   -0.472471    0.216427
      7          1           0       -3.198973   -1.429430    0.145613
      8          1           0       -3.143608    0.259254   -0.452045
      9          1           0       -2.719687   -0.093908    1.238826
 ---------------------------------------------------------------------

 SCF Done:  E(UHF) =  -711.511238314     A.U. after    2 cycles

 The electronic state is 2-A.
 Alpha  occ. eigenvalues -- -103.69530 -20.63264 -20.58150 -11.39545 -11.30899
 Alpha  occ. eigenvalues --  -10.73005  -8.38727  -8.38496  -8.38415  -7.72412
 Alpha  occ. eigenvalues --   -1.43047  -1.34066  -1.19249  -0.99778  -0.84126
 Alpha  occ. eigenvalues --   -0.76888  -0.70322  -0.69457  -0.66185  -0.60460
 Alpha  occ. eigenvalues --   -0.58498  -0.55236  -0.53796  -0.52404  -0.50051
 Alpha  occ. eigenvalues --   -0.48551  -0.36769
 Alpha virt. eigenvalues --    0.03488   0.04130   0.05064   0.05192   0.05979
 Alpha virt. eigenvalues --    0.06980   0.07080   0.07153   0.12202   0.13112
 Alpha virt. eigenvalues --    0.13333   0.14108   0.14715   0.15869   0.16445

  Beta  occ. eigenvalues -- -103.69466 -20.63273 -20.57689 -11.39578 -11.30900
  Beta  occ. eigenvalues --  -10.72931  -8.38658  -8.38452  -8.38216  -7.70396
  Beta  occ. eigenvalues --   -1.42802  -1.33329  -1.18508  -0.99560  -0.82727
  Beta  occ. eigenvalues --   -0.75964  -0.69870  -0.69230  -0.64424  -0.59971
  Beta  occ. eigenvalues --   -0.56458  -0.55031  -0.52503  -0.51378  -0.48364
  Beta  occ. eigenvalues --   -0.47126
  Beta virt. eigenvalues --    0.03028   0.03994   0.04976   0.05211   0.06348
  Beta virt. eigenvalues --    0.06450   0.07019   0.08061   0.09064   0.12522
  Beta virt. eigenvalues --    0.13269   0.13846   0.14882   0.15839   0.16331

 Mulliken charges and spin densities:
               1          2
     1  Cl  -0.200694   0.011472
     2  B    0.151259   0.985993
     3  C    0.608178  -0.095785
     4  O   -0.457979   0.110006
     5  O   -0.504199  -0.004415
     6  C    0.773527  -0.006422
     7  H   -0.226556   0.000251
     8  H   -0.071782  -0.000247
     9  H   -0.071754  -0.000853
 Sum of Mulliken charges =  -0.00000   1.00000

 Dipole moment (field-independent basis, Debye):
    X=             -1.0789    Y=             -1.8671    Z=             -0.0958  Tot=              2.1585
                          Isotropic Fermi Contact Couplings
        Atom                 a.u.       MegaHertz       Gauss      10(-4) cm-1
     1  Cl(35)             0.05991      26.26724       9.37281       8.76181
     2  B(11)              0.33373     478.68481     170.80665     159.67207
     3  C(13)              0.01922      21.60857       7.71048       7.20784
     4  O(17)              0.03817     -23.13939      -8.25671      -7.71847
     5  O(17)             -0.00552       3.34450       1.19340       1.11561
     6  C(13)             -0.00036      -0.40754      -0.14542      -0.13594
     7  H(1)               0.00007       0.30404       0.10849       0.10142
     8  H(1)               0.00020       0.90186       0.32181       0.30083

 1\1\GINC-SE059\SP\UHF\Aug-CC-pVDZ\C2H3B1Cl1O2(2)\OHZDE\08-Apr-2025\0\\
 #t hf aug-cc-pvdz iop(5/13=1,5/36=2,99/5=2) pseudo=read geom=check gue
 ss=(read,tcheck) scf=(maxcycle=1)\\title\\0,2\Cl,0,2.390142,-0.223379,
 0.181979\B,0,0.944589,0.039304,-0.704758\C,0,-0.498355,0.324125,-0.192
 422\O,0,-0.822324,1.456102,0.10163\O,0,-1.324259,-0.736717,-0.182415\C
 ,0,-2.688383,-0.472471,0.216427\H,0,-3.198973,-1.42943,0.145613\H,0,-3
 .143608,0.259254,-0.452045\H,0,-2.719687,-0.093908,1.238826\\Version=E
 S64L-G16RevC.01\State=2-A\HF=-711.5112383\S2=0.763965\S2-1=0.\S2A=0.75

 Normal termination of Gaussian 16 at Tue Apr  8 23:50:10 2025.
