 Gaussian 16, Revision C.01,

 ----------------------------------------------------------------------
 #t hf aug-cc-pvdz symm=none int=(grid=ultrafine) guess=(read,tcheck) s
 table=(opt,rrhf)
 ----------------------------------------------------------------------
 -----
 title
 -----
 Symbolic Z-matrix:
 Charge =  0 Multiplicity = 1

 SCF Done:  E(RHF) =  -1007.80452929     A.U. after   14 cycles
 Normal termination of Gaussian 16 at Wed Apr  9 00:20:37 2025.
 Gaussian 16:  ES64L-G16RevC.01  3-Jul-2019

 ----------------------------------------------------------------------
 #t hf aug-cc-pvdz iop(5/13=1,5/36=2,99/5=2) pseudo=read geom=check gue
 ss=(read,tcheck) scf=(maxcycle=1)
 ----------------------------------------------------------------------
 -----
 title
 -----
 Structure from the checkpoint file:  "BDE49_nonexpt_2664_mol1.chk"
 Charge =  0 Multiplicity = 1

                         Standard orientation:
 ---------------------------------------------------------------------
 Center     Atomic      Atomic             Coordinates (Angstroms)
 Number     Number       Type             X           Y           Z
 ---------------------------------------------------------------------
      1          9           0        1.567329   -1.169673   -0.000043
      2         16           0        1.299817    0.481322    0.000027
      3          6           0       -0.483644    0.623224    0.000149
      4          8           0       -0.900338    1.748433   -0.000078
      5         16           0       -1.517792   -0.823909   -0.000022
      6          1           0       -0.513796   -1.718367    0.000037
 ---------------------------------------------------------------------

 SCF Done:  E(RHF) =  -1007.91790039     A.U. after    2 cycles

 The electronic state is 1-A.
 Alpha  occ. eigenvalues --  -93.66595 -93.59408 -26.16881 -20.61517 -11.43960
 Alpha  occ. eigenvalues --   -8.95522  -8.89253  -6.29676  -6.29287  -6.28843
 Alpha  occ. eigenvalues --   -6.23374  -6.23185  -6.22809  -1.67943  -1.41836
 Alpha  occ. eigenvalues --   -1.07530  -1.00974  -0.81658  -0.77548  -0.77204
 Alpha  occ. eigenvalues --   -0.74085  -0.67261  -0.62653  -0.61337  -0.54848
 Alpha  occ. eigenvalues --   -0.45191  -0.43184  -0.41655
 Alpha virt. eigenvalues --    0.03548   0.05147   0.06914   0.07872   0.07882
 Alpha virt. eigenvalues --    0.09810   0.11405   0.11908   0.13195   0.13476
 Alpha virt. eigenvalues --    0.14939   0.15317   0.16093   0.17028   0.19426

 Mulliken charges:
               1
     1  F   -0.637241
     2  S    0.887594
     3  C   -0.309438
     4  O   -0.397273
     5  S    0.322133
     6  H    0.134225
 Sum of Mulliken charges =  -0.00000

 Dipole moment (field-independent basis, Debye):
    X=              0.5883    Y=             -1.6140    Z=              0.0004  Tot=              1.7179

 Test job not archived.
 1\1\GINC-SE074\SP\RHF\Aug-CC-pVDZ\C1H1F1O1S2\OHZDE\09-Apr-2025\0\\#t h
 f aug-cc-pvdz iop(5/13=1,5/36=2,99/5=2) pseudo=read geom=check guess=(
 read,tcheck) scf=(maxcycle=1)\\title\\0,1\F,0,1.567329,-1.169673,-0.00
 0043\S,0,1.299817,0.481322,0.000027\C,0,-0.483644,0.623224,0.000149\O,
 0,-0.900338,1.748434,-0.000078\S,0,-1.517792,-0.823908,-0.000022\H,0,-
 0.513797,-1.718367,0.000037\\Version=ES64L-G16RevC.01\State=1-A\HF=-10
 07.9179004\RMSD=5.744e-03\Dipole=0.2314708,-0.634983,0.000159\Quadrupo
 le=0.4817653,-0.7350074,0.2532421,4.0399399,-0.0001039,0.0004963\PG=C0

 Normal termination of Gaussian 16 at Wed Apr  9 00:20:39 2025.
