 Gaussian 16, Revision C.01,

 ----------------------------------------------------------------------
 #t hf aug-cc-pvdz symm=none int=(grid=ultrafine) guess=(read,tcheck) s
 table=(opt,rrhf)
 ----------------------------------------------------------------------
 -----
 title
 -----
 Symbolic Z-matrix:
 Charge =  0 Multiplicity = 1

 SCF Done:  E(RHF) =  -1678.03636909     A.U. after   13 cycles
 Normal termination of Gaussian 16 at Wed Apr  9 00:46:58 2025.
 Gaussian 16:  ES64L-G16RevC.01  3-Jul-2019

 ----------------------------------------------------------------------
 #t hf aug-cc-pvdz iop(5/13=1,5/36=2,99/5=2) pseudo=read geom=check gue
 ss=(read,tcheck) scf=(maxcycle=1)
 ----------------------------------------------------------------------
 -----
 title
 -----
 Structure from the checkpoint file:  "BDE49_nonexpt_868_mol1.chk"
 Charge =  0 Multiplicity = 1

                         Standard orientation:
 ---------------------------------------------------------------------
 Center     Atomic      Atomic             Coordinates (Angstroms)
 Number     Number       Type             X           Y           Z
 ---------------------------------------------------------------------
      1         17           0        2.429891   -0.032453   -0.000253
      2         16           0        0.667309   -1.143234    0.000318
      3          5           0       -0.693955    0.058106    0.000536
      4         16           0       -0.599317    1.857005   -0.000012
      5         16           0       -2.355969   -0.694753   -0.000191
      6          1           0       -1.974380   -1.986144   -0.000197
      7          1           0        0.743647    1.943022   -0.000028
 ---------------------------------------------------------------------

 SCF Done:  E(RHF) =  -1678.11854708     A.U. after    2 cycles

 The electronic state is 1-A.
 Alpha  occ. eigenvalues -- -103.69839 -93.61018 -93.56201 -93.55810 -10.72967
 Alpha  occ. eigenvalues --   -8.90557  -8.86132  -8.85798  -8.38697  -8.38358
 Alpha  occ. eigenvalues --   -8.38319  -7.71873  -6.24675  -6.24327  -6.24040
 Alpha  occ. eigenvalues --   -6.20303  -6.20065  -6.19966  -6.19785  -6.19744
 Alpha  occ. eigenvalues --   -6.19476  -1.18376  -1.02640  -0.97103  -0.93649
 Alpha  occ. eigenvalues --   -0.67098  -0.62122  -0.56355  -0.54645  -0.53937
 Alpha  occ. eigenvalues --   -0.48956  -0.47958  -0.46048  -0.45040  -0.38928
 Alpha  occ. eigenvalues --   -0.38230
 Alpha virt. eigenvalues --    0.02664   0.04016   0.05696   0.06284   0.06393
 Alpha virt. eigenvalues --    0.07841   0.08568   0.09173   0.10752   0.11158
 Alpha virt. eigenvalues --    0.11607   0.12876   0.13599   0.14208   0.15556

 Mulliken charges:
               1
     1  Cl  -0.381866
     2  S    0.011805
     3  B    0.759001
     4  S   -0.169564
     5  S   -0.254083
     6  H   -0.001535
     7  H    0.036242
 Sum of Mulliken charges =  -0.00000

 Dipole moment (field-independent basis, Debye):
    X=             -0.1054    Y=             -0.6553    Z=              0.0004  Tot=              0.6637

 Test job not archived.
 1\1\GINC-SE141\SP\RHF\Aug-CC-pVDZ\B1Cl1H2S3\OHZDE\09-Apr-2025\0\\#t hf
  aug-cc-pvdz iop(5/13=1,5/36=2,99/5=2) pseudo=read geom=check guess=(r
 ead,tcheck) scf=(maxcycle=1)\\title\\0,1\Cl,0,2.429891,-0.032453,-0.00
 0253\S,0,0.667309,-1.143234,0.000318\B,0,-0.693955,0.058106,0.000536\S
 ,0,-0.599317,1.857005,-0.000012\S,0,-2.355969,-0.694753,-0.000191\H,0,
 -1.97438,-1.986144,-0.000197\H,0,0.743647,1.943022,-0.000028\\Version=
 ES64L-G16RevC.01\State=1-A\HF=-1678.1185471\RMSD=6.275e-03\Dipole=-0.0
 414598,-0.2577963,0.0001636\Quadrupole=-1.0117772,3.0508218,-2.0390446

 Normal termination of Gaussian 16 at Wed Apr  9 00:47:01 2025.
