 Gaussian 16, Revision C.01,

 ----------------------------------------------------------------------
 #t hf aug-cc-pvdz symm=none int=(grid=ultrafine) guess=(read,tcheck) s
 table=(opt,rrhf)
 ----------------------------------------------------------------------
 -----
 title
 -----
 Symbolic Z-matrix:
 Charge =  0 Multiplicity = 1

 SCF Done:  E(RHF) =  -498.626201940     A.U. after   12 cycles

 1\1\GINC-SE082\Stability\RHF\Aug-CC-pVDZ\C4H11P1\OHZDE\08-Apr-2025\0\\
 #t hf aug-cc-pvdz symm=none int=(grid=ultrafine) guess=(read,tcheck) s
 table=(opt,rrhf)\\title\\0,1\P,0,-0.038317,-1.12518,-0.060766\C,0,1.35
 875,-0.021586,-0.637413\C,0,1.949891,0.980369,0.358357\H,0,0.999892,0.
 493671,-1.534944\H,0,2.136479,-0.708579,-0.987906\H,0,1.209632,1.71405
 3,0.686461\H,0,2.779794,1.534836,-0.091489\H,0,2.332196,0.473575,1.248
 735\C,0,-1.266965,0.086454,0.665748\H,0,0.553698,-1.518139,1.170291\C,
 0,-2.037564,0.8618,-0.409649\H,0,-0.783321,0.774572,1.363861\H,0,-1.96

 Normal termination of Gaussian 16 at Tue Apr  8 23:11:05 2025.
 Gaussian 16:  ES64L-G16RevC.01  3-Jul-2019

 ----------------------------------------------------------------------
 #t hf aug-cc-pvdz iop(5/13=1,5/36=2,99/5=2) pseudo=read geom=check gue
 ss=(read,tcheck) scf=(maxcycle=1)
 ----------------------------------------------------------------------
 -----
 title
 -----
 Structure from the checkpoint file:  "BDE49_expt_822_mol1.chk"
 Charge =  0 Multiplicity = 1

                         Standard orientation:
 ---------------------------------------------------------------------
 Center     Atomic      Atomic             Coordinates (Angstroms)
 Number     Number       Type             X           Y           Z
 ---------------------------------------------------------------------
      1         15           0       -0.038317   -1.125180   -0.060766
      2          6           0        1.358750   -0.021586   -0.637413
      3          6           0        1.949891    0.980369    0.358357
      4          1           0        0.999892    0.493671   -1.534944
      5          1           0        2.136479   -0.708579   -0.987906
      6          1           0        1.209632    1.714053    0.686461
      7          1           0        2.779794    1.534836   -0.091489
      8          1           0        2.332196    0.473575    1.248735
      9          6           0       -1.266965    0.086454    0.665748
     10          1           0        0.553698   -1.518139    1.170291
     11          6           0       -2.037564    0.861800   -0.409649
     12          1           0       -0.783321    0.774572    1.363861
     13          1           0       -1.962940   -0.520313    1.254240
     14          1           0       -1.376732    1.509902   -0.992413
     15          1           0       -2.804024    1.498786    0.040857
     16          1           0       -2.534595    0.183118   -1.108464
 ---------------------------------------------------------------------

 SCF Done:  E(RHF) =  -498.700750051     A.U. after    2 cycles

 The electronic state is 1-A.
 Alpha  occ. eigenvalues --  -81.24195 -11.23833 -11.23723 -11.23127 -11.23121
 Alpha  occ. eigenvalues --   -7.74497  -4.88497  -4.88467  -4.88140  -1.03355
 Alpha  occ. eigenvalues --   -1.01033  -0.86791  -0.84418  -0.70948  -0.62838
 Alpha  occ. eigenvalues --   -0.61303  -0.57887  -0.56768  -0.53457  -0.51992
 Alpha  occ. eigenvalues --   -0.50687  -0.49654  -0.45359  -0.42764  -0.32655
 Alpha virt. eigenvalues --    0.03484   0.04393   0.04712   0.05081   0.06500
 Alpha virt. eigenvalues --    0.06728   0.06837   0.07614   0.07889   0.09417
 Alpha virt. eigenvalues --    0.09939   0.11194   0.12532   0.13231   0.13586

 Mulliken charges:
               1
     1  P    0.393194
     2  C   -0.026067
     3  C    0.342068
     4  H   -0.092769
     5  H   -0.137191
     6  H   -0.154478
     7  H   -0.090934
     8  H   -0.101415
     9  C    0.019919
    10  H    0.122710
    11  C    0.349035
    12  H   -0.159817
    13  H   -0.174673
    14  H   -0.152080
    15  H   -0.072541
    16  H   -0.064961
 Sum of Mulliken charges =  -0.00000

 Dipole moment (field-independent basis, Debye):
    X=              0.2798    Y=              1.2801    Z=              0.4676  Tot=              1.3912

 Test job not archived.
 1\1\GINC-SE082\SP\RHF\Aug-CC-pVDZ\C4H11P1\OHZDE\08-Apr-2025\0\\#t hf a
 ug-cc-pvdz iop(5/13=1,5/36=2,99/5=2) pseudo=read geom=check guess=(rea
 d,tcheck) scf=(maxcycle=1)\\title\\0,1\P,0,-0.038317,-1.12518,-0.06076
 6\C,0,1.35875,-0.021586,-0.637413\C,0,1.949891,0.980369,0.358357\H,0,0
 .999892,0.493671,-1.534944\H,0,2.136479,-0.708579,-0.987906\H,0,1.2096
 32,1.714053,0.686461\H,0,2.779794,1.534836,-0.091489\H,0,2.332196,0.47
 3575,1.248735\C,0,-1.266965,0.086454,0.665748\H,0,0.553698,-1.518139,1
 .170291\C,0,-2.037564,0.8618,-0.409649\H,0,-0.783321,0.774572,1.363861

 Normal termination of Gaussian 16 at Tue Apr  8 23:11:10 2025.
