 Gaussian 16, Revision C.01,

 ----------------------------------------------------------------------
 #t hf aug-cc-pvdz symm=none int=(grid=ultrafine) guess=(read,tcheck) s
 table=(opt,rrhf)
 ----------------------------------------------------------------------
 -----
 title
 -----
 Symbolic Z-matrix:
 Charge =  0 Multiplicity = 1

 SCF Done:  E(RHF) =  -1109.54312310     A.U. after   14 cycles
 Normal termination of Gaussian 16 at Tue Apr  8 22:39:06 2025.
 Gaussian 16:  ES64L-G16RevC.01  3-Jul-2019

 ----------------------------------------------------------------------
 #t hf aug-cc-pvdz iop(5/13=1,5/36=2,99/5=2) pseudo=read geom=check gue
 ss=(read,tcheck) scf=(maxcycle=1)
 ----------------------------------------------------------------------
 -----
 title
 -----
 Structure from the checkpoint file:  "BDE49_expt_1268_mol1.chk"
 Charge =  0 Multiplicity = 1

                         Standard orientation:
 ---------------------------------------------------------------------
 Center     Atomic      Atomic             Coordinates (Angstroms)
 Number     Number       Type             X           Y           Z
 ---------------------------------------------------------------------
      1          6           0       -0.000032   -0.000424    0.230553
      2          7           0        0.219489    1.436004   -0.358146
      3          7           0        1.132885   -0.907750   -0.362172
      4          7           0       -1.353591   -0.526922   -0.360015
      5         17           0        0.001069   -0.002944    1.948166
      6          8           0       -1.253100   -1.260057   -1.314847
      7          8           0        1.280415   -1.970099    0.188009
      8          8           0       -0.467688    1.717025   -1.311088
      9          8           0        1.718628   -0.450981   -1.314827
     10          8           0        1.066724    2.092789    0.193106
     11          8           0       -2.346163   -0.123268    0.192171
 ---------------------------------------------------------------------

 SCF Done:  E(RHF) =  -1109.75930091     A.U. after    2 cycles

 The electronic state is 1-A.
 Alpha  occ. eigenvalues -- -103.76774 -20.69265 -20.69265 -20.69264 -20.69093
 Alpha  occ. eigenvalues --  -20.69093 -20.69093 -15.99816 -15.99815 -15.99812
 Alpha  occ. eigenvalues --  -11.55067 -10.80044  -8.45794  -8.45401  -8.45401
 Alpha  occ. eigenvalues --   -1.64567  -1.62336  -1.62334  -1.45314  -1.45270
 Alpha  occ. eigenvalues --   -1.45270  -1.31204  -1.15712  -1.01214  -1.01213
 Alpha  occ. eigenvalues --   -0.88906  -0.87106  -0.87104  -0.82121  -0.80565
 Alpha  occ. eigenvalues --   -0.80564  -0.79449  -0.78774  -0.78773  -0.73351
 Alpha  occ. eigenvalues --   -0.61623  -0.61622  -0.61141  -0.58620  -0.57261
 Alpha  occ. eigenvalues --   -0.57259  -0.54903  -0.54204  -0.54203  -0.52721
 Alpha  occ. eigenvalues --   -0.52719
 Alpha virt. eigenvalues --    0.00896   0.00907   0.01144   0.05097   0.08097
 Alpha virt. eigenvalues --    0.08853   0.08856   0.10763   0.12883   0.12884
 Alpha virt. eigenvalues --    0.13833   0.13835   0.14796   0.15964   0.15966

 Mulliken charges:
               1
     1  C    1.792735
     2  N    0.439169
     3  N    0.439210
     4  N    0.439014
     5  Cl   0.115497
     6  O   -0.525381
     7  O   -0.549859
     8  O   -0.525329
     9  O   -0.525321
    10  O   -0.549889
    11  O   -0.549846
 Sum of Mulliken charges =  -0.00000

 Dipole moment (field-independent basis, Debye):
    X=             -0.0004    Y=             -0.0052    Z=              2.9256  Tot=              2.9256

 Test job not archived.
 1\1\GINC-SE095\SP\RHF\Aug-CC-pVDZ\C1Cl1N3O6\OHZDE\08-Apr-2025\0\\#t hf
  aug-cc-pvdz iop(5/13=1,5/36=2,99/5=2) pseudo=read geom=check guess=(r
 ead,tcheck) scf=(maxcycle=1)\\title\\0,1\C,0,0.000032,0.000424,0.23055
 3\N,0,-0.219128,-1.436059,-0.358146\N,0,-1.133113,0.907465,-0.362172\N
 ,0,1.353458,0.527263,-0.360015\Cl,0,-0.00107,0.002944,1.948166\O,0,1.2
 52783,1.260372,-1.314847\O,0,-1.280911,1.969777,0.188009\O,0,0.46812,-
 1.716907,-1.311088\O,0,-1.718741,0.450549,-1.314827\O,0,-1.066197,-2.0
 93057,0.193106\O,0,2.346132,0.123858,0.192171\\Version=ES64L-G16RevC.0

 Normal termination of Gaussian 16 at Tue Apr  8 22:39:14 2025.
