 Gaussian 16, Revision C.01,

 ----------------------------------------------------------------------
 #t hf aug-cc-pvdz symm=none int=(grid=ultrafine) guess=(read,tcheck) s
 table=(opt,rrhf)
 ----------------------------------------------------------------------
 -----
 title
 -----
 Symbolic Z-matrix:
 Charge =  0 Multiplicity = 1

 SCF Done:  E(RHF) =  -693.706804592     A.U. after   13 cycles
 Normal termination of Gaussian 16 at Tue Apr  8 23:49:56 2025.
 Gaussian 16:  ES64L-G16RevC.01  3-Jul-2019

 ----------------------------------------------------------------------
 #t hf aug-cc-pvdz iop(5/13=1,5/36=2,99/5=2) pseudo=read geom=check gue
 ss=(read,tcheck) scf=(maxcycle=1)
 ----------------------------------------------------------------------
 -----
 title
 -----
 Structure from the checkpoint file:  "BDE49_nonexpt_1878_mol1.chk"
 Charge =  0 Multiplicity = 1

                         Standard orientation:
 ---------------------------------------------------------------------
 Center     Atomic      Atomic             Coordinates (Angstroms)
 Number     Number       Type             X           Y           Z
 ---------------------------------------------------------------------
      1          6           0       -1.113584    0.748182    0.671937
      2         14           0        0.424004    1.135510   -0.377011
      3          6           0       -2.010820   -0.250754    0.032185
      4          8           0       -3.141985   -0.162385   -0.297244
      5          9           0       -1.318347   -1.420983   -0.205553
      6          6           0        1.790623   -0.117846    0.198480
      7          1           0        0.904697    2.496182   -0.044282
      8          1           0        0.131257    1.057701   -1.826384
      9          8           0        1.765643   -0.426407    1.373102
     10          6           0        2.838255   -0.646784   -0.752808
     11          1           0        3.349352    0.182534   -1.254020
     12          1           0        2.351554   -1.238170   -1.536128
     13          1           0        3.560425   -1.264066   -0.216360
     14          1           0       -1.686060    1.645008    0.905329
     15          1           0       -0.698270    0.326067    1.594355
 ---------------------------------------------------------------------

 SCF Done:  E(RHF) =  -693.861755047     A.U. after    2 cycles

 The electronic state is 1-A.
 Alpha  occ. eigenvalues --  -69.10089 -26.15110 -20.60076 -20.58854 -11.44589
 Alpha  occ. eigenvalues --  -11.34964 -11.26985 -11.25893  -6.85372  -3.96145
 Alpha  occ. eigenvalues --   -3.96127  -3.96119  -1.69012  -1.40636  -1.37061
 Alpha  occ. eigenvalues --   -1.04810  -1.01810  -0.88320  -0.80600  -0.77556
 Alpha  occ. eigenvalues --   -0.76894  -0.74189  -0.70950  -0.65541  -0.64511
 Alpha  occ. eigenvalues --   -0.63808  -0.61899  -0.60195  -0.58082  -0.55744
 Alpha  occ. eigenvalues --   -0.53310  -0.52317  -0.50064  -0.48289  -0.40948
 Alpha virt. eigenvalues --    0.02662   0.03835   0.04650   0.05082   0.06076
 Alpha virt. eigenvalues --    0.06565   0.06968   0.07779   0.08341   0.08684
 Alpha virt. eigenvalues --    0.09365   0.11110   0.11689   0.12783   0.12846

 Mulliken charges:
               1
     1  C    0.088216
     2  Si   0.393397
     3  C    0.413628
     4  O   -0.355789
     5  F   -0.409052
     6  C    0.179224
     7  H    0.055000
     8  H    0.154711
     9  O   -0.555057
    10  C    0.179199
    11  H    0.019927
    12  H    0.022175
    13  H   -0.055397
    14  H   -0.152589
    15  H    0.022405
 Sum of Mulliken charges =  -0.00000

 Dipole moment (field-independent basis, Debye):
    X=              2.8564    Y=              2.5724    Z=             -1.4246  Tot=              4.0995

 Test job not archived.
 1\1\GINC-SE336\SP\RHF\Aug-CC-pVDZ\C4H7F1O2Si1\OHZDE\08-Apr-2025\0\\#t
 hf aug-cc-pvdz iop(5/13=1,5/36=2,99/5=2) pseudo=read geom=check guess=
 (read,tcheck) scf=(maxcycle=1)\\title\\0,1\C,0,-1.113584,0.748182,0.67
 1937\Si,0,0.424004,1.13551,-0.377011\C,0,-2.01082,-0.250754,0.032185\O
 ,0,-3.141985,-0.162385,-0.297244\F,0,-1.318347,-1.420983,-0.205553\C,0
 ,1.790623,-0.117846,0.19848\H,0,0.904697,2.496182,-0.044282\H,0,0.1312
 57,1.057701,-1.826384\O,0,1.765643,-0.426407,1.373102\C,0,2.838255,-0.
 646784,-0.752808\H,0,3.349352,0.182534,-1.25402\H,0,2.351554,-1.23817,

 Normal termination of Gaussian 16 at Tue Apr  8 23:50:02 2025.
