 Gaussian 16, Revision C.01,

 ----------------------------------------------------------------------
 #t hf aug-cc-pvdz symm=none int=(grid=ultrafine) guess=(read,tcheck) s
 table=(opt,rrhf)
 ----------------------------------------------------------------------
 -----
 title
 -----
 Symbolic Z-matrix:
 Charge =  0 Multiplicity = 1

 SCF Done:  E(RHF) =  -1039.68250446     A.U. after   20 cycles
 Normal termination of Gaussian 16 at Tue Apr  8 22:56:13 2025.
 Gaussian 16:  ES64L-G16RevC.01  3-Jul-2019

 ----------------------------------------------------------------------
 #t hf aug-cc-pvdz iop(5/13=1,5/36=2,99/5=2) pseudo=read geom=check gue
 ss=(read,tcheck) scf=(maxcycle=1)
 ----------------------------------------------------------------------
 -----
 title
 -----
 Structure from the checkpoint file:  "BDE49_expt_1754_mol1.chk"
 Charge =  0 Multiplicity = 1

                         Standard orientation:
 ---------------------------------------------------------------------
 Center     Atomic      Atomic             Coordinates (Angstroms)
 Number     Number       Type             X           Y           Z
 ---------------------------------------------------------------------
      1          6           0        3.184911    0.285990   -0.170977
      2          6           0        2.574596   -0.691299   -0.962994
      3          6           0        1.245564   -1.053802   -0.763577
      4          6           0        2.428142    0.897301    0.839055
      5          6           0        1.102857    0.548096    1.057527
      6          6           0        0.519595   -0.425323    0.244638
      7          1           0        3.145919   -1.180832   -1.744020
      8          1           0        0.780210   -1.822847   -1.366196
      9          1           0        2.886299    1.654629    1.466145
     10          1           0        0.522992    1.016167    1.842170
     11         16           0       -1.174532   -0.884248    0.517200
     12          8           0       -1.450340   -2.100031   -0.203412
     13          8           0       -1.487539   -0.707839    1.904830
     14          7           0       -2.071199    0.325224   -0.341941
     15          7           0       -2.109315    1.543750    0.261285
     16          8           0       -2.661360    2.396654   -0.396099
     17          6           0       -2.581645    0.131589   -1.700958
     18          1           0       -2.500109   -0.922976   -1.945093
     19          1           0       -2.013794    0.742146   -2.407204
     20          1           0       -3.625513    0.445648   -1.729820
     21          6           0        4.630247    0.663541   -0.376324
     22          1           0        5.018321    0.265377   -1.315231
     23          1           0        5.252461    0.271910    0.434969
     24          1           0        4.757628    1.749089   -0.387227
 ---------------------------------------------------------------------

 SCF Done:  E(RHF) =  -1039.95468141     A.U. after    2 cycles

 The electronic state is 1-A.
 Alpha  occ. eigenvalues --  -93.82992 -20.63175 -20.58493 -20.58112 -15.81859
 Alpha  occ. eigenvalues --  -15.71867 -11.29720 -11.29417 -11.28925 -11.28674
 Alpha  occ. eigenvalues --  -11.28491 -11.27005 -11.26953 -11.25884  -9.09221
 Alpha  occ. eigenvalues --   -6.43905  -6.43765  -6.43601  -1.49389  -1.45554
 Alpha  occ. eigenvalues --   -1.33881  -1.24715  -1.18425  -1.08458  -1.04506
 Alpha  occ. eigenvalues --   -1.01495  -0.98649  -0.92936  -0.86798  -0.85138
 Alpha  occ. eigenvalues --   -0.80120  -0.77324  -0.74054  -0.72235  -0.68985
 Alpha  occ. eigenvalues --   -0.68534  -0.66913  -0.66294  -0.64806  -0.64603
 Alpha  occ. eigenvalues --   -0.62596  -0.60371  -0.59372  -0.58925  -0.57139
 Alpha  occ. eigenvalues --   -0.55409  -0.54463  -0.54154  -0.53371  -0.52558
 Alpha  occ. eigenvalues --   -0.51893  -0.49237  -0.44655  -0.43777  -0.37225
 Alpha  occ. eigenvalues --   -0.36718
 Alpha virt. eigenvalues --    0.02465   0.03334   0.04029   0.04412   0.04774
 Alpha virt. eigenvalues --    0.05942   0.05998   0.06657   0.06989   0.07433
 Alpha virt. eigenvalues --    0.07870   0.08916   0.09561   0.10291   0.10746

 Mulliken charges:
               1
     1  C   -0.404049
     2  C    0.748549
     3  C   -0.003927
     4  C    0.920255
     5  C   -0.242101
     6  C    0.380015
     7  H   -0.585659
     8  H   -0.633733
     9  H   -0.588345
    10  H   -0.620439
    11  S    2.913180
    12  O   -0.970659
    13  O   -1.014819
    14  N   -0.523791
    15  N   -0.024713
    16  O   -0.477432
    17  C    0.871477
    18  H   -0.208790
    19  H   -0.066412
    20  H   -0.129256
    21  C    0.685556
    22  H   -0.154838
    23  H    0.100894
    24  H    0.029035
 Sum of Mulliken charges =  -0.00000

 Dipole moment (field-independent basis, Debye):
    X=              5.1668    Y=              0.4197    Z=             -3.1442  Tot=              6.0629

 Test job not archived.
 1\1\GINC-SE453\SP\RHF\Aug-CC-pVDZ\C8H10N2O3S1\OHZDE\08-Apr-2025\0\\#t
 hf aug-cc-pvdz iop(5/13=1,5/36=2,99/5=2) pseudo=read geom=check guess=
 (read,tcheck) scf=(maxcycle=1)\\title\\0,1\C,0,3.184911,0.28599,-0.170
 977\C,0,2.574596,-0.691299,-0.962994\C,0,1.245564,-1.053802,-0.763577\
 C,0,2.428142,0.897301,0.839055\C,0,1.102857,0.548096,1.057527\C,0,0.51
 9595,-0.425323,0.244638\H,0,3.145919,-1.180832,-1.74402\H,0,0.78021,-1
 .822847,-1.366196\H,0,2.886299,1.654629,1.466145\H,0,0.522992,1.016167
 ,1.84217\S,0,-1.174532,-0.884248,0.5172\O,0,-1.45034,-2.100031,-0.2034

 Normal termination of Gaussian 16 at Tue Apr  8 22:56:34 2025.
