 Gaussian 16, Revision C.01,

 ----------------------------------------------------------------------
 #t hf aug-cc-pvdz symm=none int=(grid=ultrafine) guess=(read,tcheck) s
 table=(opt,rrhf)
 ----------------------------------------------------------------------
 -----
 title
 -----
 Symbolic Z-matrix:
 Charge =  0 Multiplicity = 1

 SCF Done:  E(RHF) =  -194.259165177     A.U. after   13 cycles
 Normal termination of Gaussian 16 at Wed Apr  9 00:36:48 2025.
 Gaussian 16:  ES64L-G16RevC.01  3-Jul-2019

 ----------------------------------------------------------------------
 #t hf aug-cc-pvdz iop(5/13=1,5/36=2,99/5=2) pseudo=read geom=check gue
 ss=(read,tcheck) scf=(maxcycle=1)
 ----------------------------------------------------------------------
 -----
 title
 -----
 Structure from the checkpoint file:  "BDE49_nonexpt_585_mol1.chk"
 Charge =  0 Multiplicity = 1

                         Standard orientation:
 ---------------------------------------------------------------------
 Center     Atomic      Atomic             Coordinates (Angstroms)
 Number     Number       Type             X           Y           Z
 ---------------------------------------------------------------------
      1          6           0       -0.637175    0.361743   -0.000012
      2          5           0        1.848517    0.144816    0.000002
      3          8           0       -1.737660   -0.122875    0.000009
      4          7           0        0.543611   -0.385667   -0.000003
      5          1           0        2.772207   -0.601186    0.000006
      6          1           0        1.976718    1.327103   -0.000003
      7          1           0       -0.442313    1.447691    0.000010
      8          1           0        0.369855   -1.385483   -0.000001
 ---------------------------------------------------------------------

 SCF Done:  E(RHF) =  -194.323345420     A.U. after    2 cycles

 The electronic state is 1-A.
 Alpha  occ. eigenvalues --  -20.57246 -15.66450 -11.38480  -7.63990  -1.37750
 Alpha  occ. eigenvalues --   -1.19099  -0.86099  -0.78086  -0.69537  -0.65674
 Alpha  occ. eigenvalues --   -0.59483  -0.58846  -0.50824  -0.46728  -0.45409
 Alpha virt. eigenvalues --    0.03518   0.03939   0.04040   0.05013   0.07268
 Alpha virt. eigenvalues --    0.09051   0.09449   0.09994   0.12471   0.12782
 Alpha virt. eigenvalues --    0.13073   0.15525   0.16600   0.17365   0.17761

 Mulliken charges:
               1
     1  C    0.807660
     2  B   -0.332714
     3  O   -0.413271
     4  N   -0.274061
     5  H    0.294678
     6  H    0.132081
     7  H   -0.194042
     8  H   -0.020331
 Sum of Mulliken charges =  -0.00000

 Dipole moment (field-independent basis, Debye):
    X=              2.7641    Y=              0.3250    Z=             -0.0000  Tot=              2.7831

 Test job not archived.
 1\1\GINC-SE332\SP\RHF\Aug-CC-pVDZ\C1H4B1N1O1\OHZDE\09-Apr-2025\0\\#t h
 f aug-cc-pvdz iop(5/13=1,5/36=2,99/5=2) pseudo=read geom=check guess=(
 read,tcheck) scf=(maxcycle=1)\\title\\0,1\C,0,-0.637175,0.361743,-0.00
 0012\B,0,1.848517,0.144816,0.000002\O,0,-1.73766,-0.122875,0.000009\N,
 0,0.543611,-0.385667,-0.000003\H,0,2.772207,-0.601186,0.000006\H,0,1.9
 76718,1.327103,-0.000003\H,0,-0.442313,1.447691,0.00001\H,0,0.369855,-
 1.385483,-0.000001\\Version=ES64L-G16RevC.01\State=1-A\HF=-194.3233454
 \RMSD=2.479e-03\Dipole=1.0874812,0.1278462,-0.0000125\Quadrupole=-4.79

 Normal termination of Gaussian 16 at Wed Apr  9 00:36:50 2025.
