 Gaussian 16, Revision C.01,

 ----------------------------------------------------------------------
 #t hf aug-cc-pvdz symm=none int=(grid=ultrafine) guess=(read,tcheck) s
 table=(opt,rrhf)
 ----------------------------------------------------------------------
 -----
 title
 -----
 Symbolic Z-matrix:
 Charge =  0 Multiplicity = 1

 SCF Done:  E(RHF) =  -382.520121724     A.U. after   15 cycles
 Normal termination of Gaussian 16 at Tue Apr  8 22:32:40 2025.
 Gaussian 16:  ES64L-G16RevC.01  3-Jul-2019

 ----------------------------------------------------------------------
 #t hf aug-cc-pvdz iop(5/13=1,5/36=2,99/5=2) pseudo=read geom=check gue
 ss=(read,tcheck) scf=(maxcycle=1)
 ----------------------------------------------------------------------
 -----
 title
 -----
 Structure from the checkpoint file:  "BDE49_expt_1098_mol1.chk"
 Charge =  0 Multiplicity = 1

                         Standard orientation:
 ---------------------------------------------------------------------
 Center     Atomic      Atomic             Coordinates (Angstroms)
 Number     Number       Type             X           Y           Z
 ---------------------------------------------------------------------
      1          6           0        0.432881    1.193210   -0.000032
      2          6           0       -0.203960   -0.053876   -0.000045
      3          6           0       -1.698397   -0.204835   -0.000096
      4          8           0       -2.209078   -1.307241    0.000041
      5          6           0       -2.560301    1.045341    0.000022
      6          1           0       -2.358647    1.660368    0.881906
      7          1           0       -3.606406    0.744299    0.000103
      8          1           0       -2.358796    1.660418   -0.881859
      9          6           0        1.823037    1.274896    0.000008
     10          6           0        2.589394    0.111694    0.000038
     11          6           0        1.963361   -1.135775    0.000028
     12          6           0        0.577285   -1.217191   -0.000013
     13          1           0        0.068733   -2.173326   -0.000023
     14          1           0        3.671798    0.176065    0.000070
     15          1           0        2.558983   -2.041622    0.000051
     16          1           0       -0.150068    2.106151   -0.000055
     17          1           0        2.307229    2.244794    0.000016
 ---------------------------------------------------------------------

 SCF Done:  E(RHF) =  -382.634703929     A.U. after    2 cycles

 The electronic state is 1-A.
 Alpha  occ. eigenvalues --  -20.56009 -11.34802 -11.26517 -11.26289 -11.25864
 Alpha  occ. eigenvalues --  -11.25666 -11.25634 -11.25417 -11.24662  -1.35246
 Alpha  occ. eigenvalues --   -1.15788  -1.04651  -1.02413  -0.99331  -0.86677
 Alpha  occ. eigenvalues --   -0.83973  -0.76722  -0.71772  -0.66331  -0.65852
 Alpha  occ. eigenvalues --   -0.63236  -0.61091  -0.60904  -0.60567  -0.55783
 Alpha  occ. eigenvalues --   -0.53138  -0.52897  -0.50794  -0.50228  -0.43264
 Alpha  occ. eigenvalues --   -0.35526  -0.35091
 Alpha virt. eigenvalues --    0.02972   0.03611   0.04254   0.05275   0.05379
 Alpha virt. eigenvalues --    0.06207   0.06731   0.07263   0.08931   0.09313
 Alpha virt. eigenvalues --    0.09966   0.11290   0.11693   0.13470   0.13727

 Mulliken charges:
               1
     1  C    0.357540
     2  C    1.327581
     3  C   -0.456699
     4  O   -0.521577
     5  C    0.455851
     6  H    0.107732
     7  H   -0.150941
     8  H    0.107758
     9  C    0.365118
    10  C    0.537624
    11  C    0.520958
    12  C   -0.101546
    13  H   -0.598200
    14  H   -0.438031
    15  H   -0.423857
    16  H   -0.653247
    17  H   -0.436064
 Sum of Mulliken charges =  -0.00000

 Dipole moment (field-independent basis, Debye):
    X=              2.0981    Y=              2.9715    Z=             -0.0002  Tot=              3.6375

 Test job not archived.
 1\1\GINC-SE186\SP\RHF\Aug-CC-pVDZ\C8H8O1\OHZDE\08-Apr-2025\0\\#t hf au
 g-cc-pvdz iop(5/13=1,5/36=2,99/5=2) pseudo=read geom=check guess=(read
 ,tcheck) scf=(maxcycle=1)\\title\\0,1\C,0,-0.432881,1.19321,0.000032\C
 ,0,0.20396,-0.053876,0.000045\C,0,1.698397,-0.204835,0.000096\O,0,2.20
 9078,-1.307241,-0.000041\C,0,2.560301,1.045341,-0.000022\H,0,2.358647,
 1.660368,-0.881906\H,0,3.606406,0.744299,-0.000103\H,0,2.358796,1.6604
 18,0.881859\C,0,-1.823037,1.274896,-0.000008\C,0,-2.589394,0.111694,-0
 .000038\C,0,-1.963361,-1.135775,-0.000028\C,0,-0.577285,-1.217191,0.00

 Normal termination of Gaussian 16 at Tue Apr  8 22:32:48 2025.
