 Gaussian 16, Revision C.01,

 ----------------------------------------------------------------------
 #t hf aug-cc-pvdz symm=none int=(grid=ultrafine) guess=(read,tcheck) s
 table=opt
 ----------------------------------------------------------------------
 -----
 title
 -----
 Symbolic Z-matrix:
 Charge =  0 Multiplicity = 2

 SCF Done:  E(UHF) =  -699.612247146     A.U. after   19 cycles
 Normal termination of Gaussian 16 at Wed Apr  9 00:17:44 2025.
 Gaussian 16:  ES64L-G16RevC.01  3-Jul-2019

 ----------------------------------------------------------------------
 #t hf aug-cc-pvdz iop(5/13=1,5/36=2,99/5=2) pseudo=read geom=check gue
 ss=(read,tcheck) scf=(maxcycle=1)
 ----------------------------------------------------------------------
 -----
 title
 -----
 Structure from the checkpoint file:  "BDE49_nonexpt_2589_mol2.chk"
 Charge =  0 Multiplicity = 2

                         Standard orientation:
 ---------------------------------------------------------------------
 Center     Atomic      Atomic             Coordinates (Angstroms)
 Number     Number       Type             X           Y           Z
 ---------------------------------------------------------------------
      1         16           0        2.252345   -0.000846   -0.000006
      2          8           0        0.744279   -0.700327    0.000000
      3          6           0       -0.378554    0.122198    0.000007
      4          8           0       -0.382630    1.313686    0.000002
      5          8           0       -1.418956   -0.701752    0.000004
      6          6           0       -2.706920   -0.049459    0.000000
      7          1           0       -2.815721    0.570358    0.890604
      8          1           0       -3.434771   -0.856472   -0.000002
      9          1           0       -2.815716    0.570358   -0.890604
 ---------------------------------------------------------------------

 SCF Done:  E(UHF) =  -699.734288612     A.U. after    2 cycles

 The electronic state is 2-A.
 Alpha  occ. eigenvalues --  -93.62231 -20.66595 -20.64488 -20.58617 -11.46902
 Alpha  occ. eigenvalues --  -11.31740  -8.91309  -6.26518  -6.25110  -6.24393
 Alpha  occ. eigenvalues --   -1.48195  -1.38305  -1.36130  -1.02974  -0.95008
 Alpha  occ. eigenvalues --   -0.81111  -0.77271  -0.73653  -0.72417  -0.65753
 Alpha  occ. eigenvalues --   -0.64643  -0.60611  -0.56748  -0.56670  -0.51639
 Alpha  occ. eigenvalues --   -0.50835  -0.44453  -0.39866
 Alpha virt. eigenvalues --    0.03351   0.05559   0.05758   0.06167   0.07137
 Alpha virt. eigenvalues --    0.10434   0.10607   0.12223   0.13548   0.14308
 Alpha virt. eigenvalues --    0.14843   0.15572   0.16585   0.17276   0.18542

  Beta  occ. eigenvalues --  -93.61347 -20.66084 -20.64470 -20.58627 -11.46917
  Beta  occ. eigenvalues --  -11.31743  -8.90325  -6.24708  -6.23864  -6.22524
  Beta  occ. eigenvalues --   -1.47818  -1.37428  -1.35806  -1.01600  -0.90866
  Beta  occ. eigenvalues --   -0.79871  -0.76034  -0.72519  -0.71389  -0.64499
  Beta  occ. eigenvalues --   -0.62882  -0.58735  -0.56733  -0.54436  -0.51585
  Beta  occ. eigenvalues --   -0.50724  -0.37757
  Beta virt. eigenvalues --    0.00400   0.03354   0.05565   0.05790   0.06597
  Beta virt. eigenvalues --    0.07389   0.10744   0.11672   0.12506   0.13723
  Beta virt. eigenvalues --    0.14365   0.15590   0.15891   0.17125   0.17940

 Mulliken charges and spin densities:
               1          2
     1  S    0.480957   0.974859
     2  O   -0.775941   0.021659
     3  C    0.649595   0.001053
     4  O   -0.307425  -0.001537
     5  O   -0.458103   0.004070
     6  C    0.731276  -0.000712
     7  H   -0.046334   0.000291
     8  H   -0.227690   0.000026
     9  H   -0.046336   0.000291
 Sum of Mulliken charges =  -0.00000   1.00000

 Dipole moment (field-independent basis, Debye):
    X=             -1.7167    Y=             -0.4144    Z=              0.0000  Tot=              1.7660
                          Isotropic Fermi Contact Couplings
        Atom                 a.u.       MegaHertz       Gauss      10(-4) cm-1
     1  S(33)              0.20710      71.13229      25.38177      23.72718
     2  O(17)              0.05461     -33.10294     -11.81195     -11.04195
     3  C(13)             -0.00385      -4.32961      -1.54491      -1.44420
     4  O(17)             -0.00185       1.12136       0.40013       0.37404
     5  O(17)              0.00015      -0.09286      -0.03314      -0.03098
     6  C(13)             -0.00042      -0.47689      -0.17017      -0.15907
     7  H(1)               0.00008       0.34947       0.12470       0.11657
     8  H(1)               0.00000       0.00407       0.00145       0.00136

 Normal termination of Gaussian 16 at Wed Apr  9 00:17:47 2025.
