 Gaussian 16, Revision C.01,

 ----------------------------------------------------------------------
 #t hf aug-cc-pvdz symm=none int=(grid=ultrafine) guess=(read,tcheck) s
 table=(opt,rrhf)
 ----------------------------------------------------------------------
 -----
 title
 -----
 Symbolic Z-matrix:
 Charge =  0 Multiplicity = 1

 SCF Done:  E(RHF) =  -1156.93734411     A.U. after   15 cycles
 Normal termination of Gaussian 16 at Tue Apr  8 23:15:51 2025.
 Gaussian 16:  ES64L-G16RevC.01  3-Jul-2019

 ----------------------------------------------------------------------
 #t hf aug-cc-pvdz iop(5/13=1,5/36=2,99/5=2) pseudo=read geom=check gue
 ss=(read,tcheck) scf=(maxcycle=1)
 ----------------------------------------------------------------------
 -----
 title
 -----
 Structure from the checkpoint file:  "BDE49_nonexpt_1041_mol1.chk"
 Charge =  0 Multiplicity = 1

                         Standard orientation:
 ---------------------------------------------------------------------
 Center     Atomic      Atomic             Coordinates (Angstroms)
 Number     Number       Type             X           Y           Z
 ---------------------------------------------------------------------
      1         17           0       -2.070740    0.023641   -0.014598
      2          8           0       -0.582799   -0.807954   -0.363448
      3         16           0        0.794474   -0.039497    0.134693
      4          8           0        0.636247    0.481035    1.444165
      5          8           0        1.785059   -0.986974   -0.260805
      6          8           0        0.832667    1.226072   -0.843095
      7          1           0        1.121602    0.932619   -1.721457
 ---------------------------------------------------------------------

 SCF Done:  E(RHF) =  -1157.14506903     A.U. after    2 cycles

 The electronic state is 1-A.
 Alpha  occ. eigenvalues -- -103.76193 -93.90368 -20.71600 -20.68574 -20.61802
 Alpha  occ. eigenvalues --  -20.61786 -10.78800  -9.15877  -8.44568  -8.44101
 Alpha  occ. eigenvalues --   -8.44078  -6.50561  -6.50456  -6.50411  -1.54318
 Alpha  occ. eigenvalues --   -1.41397  -1.39689  -1.38083  -1.15462  -0.93090
 Alpha  occ. eigenvalues --   -0.82963  -0.77413  -0.75973  -0.70694  -0.68393
 Alpha  occ. eigenvalues --   -0.66038  -0.62836  -0.60123  -0.58229  -0.56441
 Alpha  occ. eigenvalues --   -0.55023  -0.51727  -0.50658
 Alpha virt. eigenvalues --    0.01049   0.02968   0.08530   0.09294   0.09895
 Alpha virt. eigenvalues --    0.11932   0.13410   0.14021   0.14105   0.17007
 Alpha virt. eigenvalues --    0.18363   0.20039   0.21703   0.23139   0.23504

 Mulliken charges:
               1
     1  Cl   0.363288
     2  O   -0.855351
     3  S    2.512216
     4  O   -0.763790
     5  O   -0.775720
     6  O   -0.660917
     7  H    0.180273
 Sum of Mulliken charges =  -0.00000

 Dipole moment (field-independent basis, Debye):
    X=             -1.4262    Y=              1.2143    Z=             -2.7635  Tot=              3.3385

 Test job not archived.
 1\1\GINC-SE118\SP\RHF\Aug-CC-pVDZ\Cl1H1O4S1\OHZDE\08-Apr-2025\0\\#t hf
  aug-cc-pvdz iop(5/13=1,5/36=2,99/5=2) pseudo=read geom=check guess=(r
 ead,tcheck) scf=(maxcycle=1)\\title\\0,1\Cl,0,-2.07074,0.023641,-0.014
 598\O,0,-0.582799,-0.807954,-0.363448\S,0,0.794474,-0.039497,0.134693\
 O,0,0.636247,0.481035,1.444165\O,0,1.785059,-0.986974,-0.260805\O,0,0.
 832667,1.226072,-0.843095\H,0,1.121602,0.932619,-1.721457\\Version=ES6
 4L-G16RevC.01\State=1-A\HF=-1157.145069\RMSD=3.175e-03\Dipole=-0.56112
 33,0.47774,-1.0872439\Quadrupole=1.3507382,-2.4743661,1.1236279,1.3898

 Normal termination of Gaussian 16 at Tue Apr  8 23:15:54 2025.
