 Gaussian 16, Revision C.01,

 ----------------------------------------------------------------------
 #t hf aug-cc-pvdz symm=none int=(grid=ultrafine) guess=(read,tcheck) s
 table=(opt,rrhf)
 ----------------------------------------------------------------------
 -----
 title
 -----
 Symbolic Z-matrix:
 Charge =  0 Multiplicity = 1

 SCF Done:  E(RHF) =  -660.889371103     A.U. after   13 cycles
 Normal termination of Gaussian 16 at Wed Apr  9 00:28:13 2025.
 Gaussian 16:  ES64L-G16RevC.01  3-Jul-2019

 ----------------------------------------------------------------------
 #t hf aug-cc-pvdz iop(5/13=1,5/36=2,99/5=2) pseudo=read geom=check gue
 ss=(read,tcheck) scf=(maxcycle=1)
 ----------------------------------------------------------------------
 -----
 title
 -----
 Structure from the checkpoint file:  "BDE49_nonexpt_349_mol1.chk"
 Charge =  0 Multiplicity = 1

                         Standard orientation:
 ---------------------------------------------------------------------
 Center     Atomic      Atomic             Coordinates (Angstroms)
 Number     Number       Type             X           Y           Z
 ---------------------------------------------------------------------
      1          9           0        0.873823    1.407498    0.000008
      2          9           0        1.978346   -0.584167   -0.000001
      3         16           0       -0.721140   -0.835280   -0.000005
      4          5           0        0.830088    0.078955    0.000002
      5          6           0       -1.946559    0.533682   -0.000001
      6          1           0       -2.929440    0.064564   -0.000003
      7          1           0       -1.836463    1.146537   -0.892250
      8          1           0       -1.836464    1.146531    0.892253
 ---------------------------------------------------------------------

 SCF Done:  E(RHF) =  -661.014958385     A.U. after    2 cycles

 The electronic state is 1-A.
 Alpha  occ. eigenvalues --  -93.54749 -26.14830 -26.14413 -11.28535  -8.84729
 Alpha  occ. eigenvalues --   -7.76831  -6.18877  -6.18654  -6.18396  -1.69850
 Alpha  occ. eigenvalues --   -1.67741  -1.04589  -0.90552  -0.86649  -0.82867
 Alpha  occ. eigenvalues --   -0.77743  -0.77257  -0.73087  -0.72473  -0.61372
 Alpha  occ. eigenvalues --   -0.60874  -0.53398  -0.46190  -0.38834
 Alpha virt. eigenvalues --    0.03271   0.05097   0.05460   0.05706   0.07003
 Alpha virt. eigenvalues --    0.07454   0.08199   0.12063   0.12979   0.13485
 Alpha virt. eigenvalues --    0.13815   0.16268   0.17080   0.17081   0.18477

 Mulliken charges:
               1
     1  F   -0.429508
     2  F   -0.431954
     3  S    0.013963
     4  B    1.093479
     5  C    0.068561
     6  H   -0.086417
     7  H   -0.114063
     8  H   -0.114062
 Sum of Mulliken charges =  -0.00000

 Dipole moment (field-independent basis, Debye):
    X=             -2.3661    Y=              0.7671    Z=              0.0000  Tot=              2.4874

 Test job not archived.
 1\1\GINC-SE049\SP\RHF\Aug-CC-pVDZ\C1H3B1F2S1\OHZDE\09-Apr-2025\0\\#t h
 f aug-cc-pvdz iop(5/13=1,5/36=2,99/5=2) pseudo=read geom=check guess=(
 read,tcheck) scf=(maxcycle=1)\\title\\0,1\F,0,0.873823,1.407498,0.0000
 08\F,0,1.978346,-0.584167,-0.000001\S,0,-0.72114,-0.83528,-0.000005\B,
 0,0.830088,0.078955,0.000002\C,0,-1.946559,0.533682,-0.000001\H,0,-2.9
 2944,0.064564,-0.000003\H,0,-1.836463,1.146537,-0.89225\H,0,-1.836464,
 1.146531,0.892253\\Version=ES64L-G16RevC.01\State=1-A\HF=-661.0149584\
 RMSD=5.312e-03\Dipole=-0.9309042,0.3018037,0.0000011\Quadrupole=1.0378

 Normal termination of Gaussian 16 at Wed Apr  9 00:28:15 2025.
