 Gaussian 16, Revision C.01,

 ----------------------------------------------------------------------
 #t hf aug-cc-pvdz symm=none int=(grid=ultrafine) guess=(read,tcheck) s
 table=(opt,rrhf)
 ----------------------------------------------------------------------
 -----
 title
 -----
 Symbolic Z-matrix:
 Charge =  0 Multiplicity = 1

 SCF Done:  E(RHF) =  -800.265033505     A.U. after   12 cycles
 Normal termination of Gaussian 16 at Tue Apr  8 23:29:27 2025.
 Gaussian 16:  ES64L-G16RevC.01  3-Jul-2019

 ----------------------------------------------------------------------
 #t hf aug-cc-pvdz iop(5/13=1,5/36=2,99/5=2) pseudo=read geom=check gue
 ss=(read,tcheck) scf=(maxcycle=1)
 ----------------------------------------------------------------------
 -----
 title
 -----
 Structure from the checkpoint file:  "BDE49_nonexpt_1333_mol1.chk"
 Charge =  0 Multiplicity = 1

                         Standard orientation:
 ---------------------------------------------------------------------
 Center     Atomic      Atomic             Coordinates (Angstroms)
 Number     Number       Type             X           Y           Z
 ---------------------------------------------------------------------
      1          6           0       -2.373536    1.267116   -0.219555
      2          6           0       -0.881202    1.275306    0.142502
      3          6           0       -3.075335    0.000023    0.287220
      4          1           0       -2.480712    1.329786   -1.310123
      5          1           0       -2.855504    2.159360    0.192214
      6          6           0       -2.373557   -1.267106   -0.219494
      7          1           0       -4.125399    0.000025   -0.021677
      8          1           0       -3.071844    0.000049    1.384687
      9          6           0       -0.881223   -1.275304    0.142561
     10          1           0       -2.480736   -1.329827   -1.310059
     11          1           0       -2.855540   -2.159322    0.192318
     12          6           0       -0.176305   -0.000016   -0.367309
     13          1           0       -0.393642   -2.160181   -0.273658
     14          1           0       -0.768421   -1.330637    1.231501
     15          1           0       -0.768404    1.330687    1.231440
     16          1           0       -0.393608    2.160157   -0.273759
     17         15           0        1.571373   -0.000014    0.095356
     18          1           0       -0.189048   -0.000040   -1.465396
     19          8           0        1.935991   -0.000006    1.523139
     20          8           0        2.141198    1.276639   -0.711868
     21          8           0        2.141100   -1.276662   -0.711921
     22          1           0        2.816625   -1.736703   -0.199280
     23          1           0        2.816262    1.736980   -0.198891
 ---------------------------------------------------------------------

 SCF Done:  E(RHF) =  -800.469792766     A.U. after    2 cycles

 The electronic state is 1-A.
 Alpha  occ. eigenvalues --  -81.40455 -20.60766 -20.60764 -20.51985 -11.25325
 Alpha  occ. eigenvalues --  -11.23960 -11.23953 -11.23416 -11.23413 -11.23142
 Alpha  occ. eigenvalues --   -7.88910  -5.03558  -5.03476  -5.03193  -1.36983
 Alpha  occ. eigenvalues --   -1.34001  -1.25095  -1.11668  -1.01563  -1.00618
 Alpha  occ. eigenvalues --   -0.87291  -0.84318  -0.80910  -0.76143  -0.74575
 Alpha  occ. eigenvalues --   -0.68203  -0.67348  -0.64246  -0.63918  -0.61472
 Alpha  occ. eigenvalues --   -0.61091  -0.60072  -0.56361  -0.55998  -0.53767
 Alpha  occ. eigenvalues --   -0.52793  -0.52501  -0.50522  -0.49662  -0.47981
 Alpha  occ. eigenvalues --   -0.47960  -0.46358  -0.44368  -0.42932
 Alpha virt. eigenvalues --    0.03198   0.03976   0.04150   0.04685   0.05396
 Alpha virt. eigenvalues --    0.05904   0.06602   0.06851   0.07814   0.08090
 Alpha virt. eigenvalues --    0.08687   0.09126   0.09357   0.10718   0.12434

 Mulliken charges:
               1
     1  C    0.395932
     2  C    0.292883
     3  C    0.207069
     4  H   -0.091831
     5  H   -0.093036
     6  C    0.395953
     7  H   -0.112348
     8  H   -0.097737
     9  C    0.292869
    10  H   -0.091833
    11  H   -0.093041
    12  C   -0.469192
    13  H   -0.186264
    14  H   -0.112791
    15  H   -0.112789
    16  H   -0.186267
    17  P    2.437829
    18  H   -0.221352
    19  O   -0.918854
    20  O   -0.787846
    21  O   -0.787816
    22  H    0.170224
    23  H    0.170237
 Sum of Mulliken charges =  -0.00000

 Dipole moment (field-independent basis, Debye):
    X=             -0.8147    Y=              0.0004    Z=             -1.4961  Tot=              1.7035

 Test job not archived.
 1\1\GINC-SE059\SP\RHF\Aug-CC-pVDZ\C6H13O3P1\OHZDE\08-Apr-2025\0\\#t hf
  aug-cc-pvdz iop(5/13=1,5/36=2,99/5=2) pseudo=read geom=check guess=(r
 ead,tcheck) scf=(maxcycle=1)\\title\\0,1\C,0,-2.373536,1.267116,-0.219
 555\C,0,-0.881202,1.275306,0.142502\C,0,-3.075335,0.000023,0.28722\H,0
 ,-2.480712,1.329786,-1.310123\H,0,-2.855504,2.15936,0.192214\C,0,-2.37
 3557,-1.267106,-0.219494\H,0,-4.125399,0.000025,-0.021677\H,0,-3.07184
 4,0.000049,1.384687\C,0,-0.881223,-1.275304,0.142561\H,0,-2.480736,-1.
 329827,-1.310059\H,0,-2.85554,-2.159322,0.192318\C,0,-0.176305,-0.0000

 Normal termination of Gaussian 16 at Tue Apr  8 23:29:44 2025.
