 Gaussian 16, Revision C.01,

 ----------------------------------------------------------------------
 #t hf aug-cc-pvdz symm=none int=(grid=ultrafine) guess=(read,tcheck) s
 table=(opt,rrhf)
 ----------------------------------------------------------------------
 -----
 title
 -----
 Symbolic Z-matrix:
 Charge =  0 Multiplicity = 1

 SCF Done:  E(RHF) =  -741.011597639     A.U. after   16 cycles
 Normal termination of Gaussian 16 at Tue Apr  8 23:12:36 2025.
 Gaussian 16:  ES64L-G16RevC.01  3-Jul-2019

 ----------------------------------------------------------------------
 #t hf aug-cc-pvdz iop(5/13=1,5/36=2,99/5=2) pseudo=read geom=check gue
 ss=(read,tcheck) scf=(maxcycle=1)
 ----------------------------------------------------------------------
 -----
 title
 -----
 Structure from the checkpoint file:  "BDE49_expt_847_mol1.chk"
 Charge =  0 Multiplicity = 1

                         Standard orientation:
 ---------------------------------------------------------------------
 Center     Atomic      Atomic             Coordinates (Angstroms)
 Number     Number       Type             X           Y           Z
 ---------------------------------------------------------------------
      1          6           0        1.041529    1.218096   -0.186870
      2          6           0        2.405380    0.962968   -0.255918
      3          6           0        2.884455   -0.332123   -0.060521
      4          6           0        1.994348   -1.370391    0.205536
      5          6           0        0.626084   -1.121659    0.258129
      6          6           0        0.138837    0.173615    0.053704
      7          1           0        0.653168    2.220076   -0.318571
      8          1           0        3.095970    1.773788   -0.457001
      9          1           0        2.365314   -2.373955    0.378190
     10          1           0       -0.052432   -1.931360    0.495259
     11          1           0        3.949181   -0.530275   -0.108412
     12          6           0       -1.308781    0.545280    0.133351
     13          8           0       -1.684999    1.655746    0.407816
     14         16           0       -2.588591   -0.698924   -0.215007
     15          1           0       -1.804849   -1.676171   -0.696337
 ---------------------------------------------------------------------

 SCF Done:  E(RHF) =  -741.132560258     A.U. after    2 cycles

 The electronic state is 1-A.
 Alpha  occ. eigenvalues --  -93.56180 -20.58094 -11.39061 -11.27775 -11.27605
 Alpha  occ. eigenvalues --  -11.27210 -11.26966 -11.26639 -11.26428  -8.86001
 Alpha  occ. eigenvalues --   -6.20143  -6.19943  -6.19583  -1.38060  -1.17017
 Alpha  occ. eigenvalues --   -1.05841  -1.03554  -0.99789  -0.88100  -0.85121
 Alpha  occ. eigenvalues --   -0.77868  -0.73098  -0.67925  -0.66970  -0.64079
 Alpha  occ. eigenvalues --   -0.62739  -0.61646  -0.58977  -0.54300  -0.52554
 Alpha  occ. eigenvalues --   -0.52049  -0.51209  -0.43379  -0.39233  -0.36491
 Alpha  occ. eigenvalues --   -0.36198
 Alpha virt. eigenvalues --    0.02777   0.03635   0.04351   0.05136   0.05700
 Alpha virt. eigenvalues --    0.06418   0.06905   0.08894   0.08957   0.10138
 Alpha virt. eigenvalues --    0.10614   0.11535   0.12768   0.13126   0.13520

 Mulliken charges:
               1
     1  C   -0.025765
     2  C    0.600035
     3  C    0.354470
     4  C    0.462362
     5  C    0.363720
     6  C    1.067906
     7  H   -0.571260
     8  H   -0.413727
     9  H   -0.432095
    10  H   -0.533374
    11  H   -0.425218
    12  C   -0.265519
    13  O   -0.505006
    14  S    0.277114
    15  H    0.046357
 Sum of Mulliken charges =  -0.00000

 Dipole moment (field-independent basis, Debye):
    X=              3.4434    Y=             -2.8561    Z=             -0.8362  Tot=              4.5512

 Test job not archived.
 1\1\GINC-SE435\SP\RHF\Aug-CC-pVDZ\C7H6O1S1\OHZDE\08-Apr-2025\0\\#t hf
 aug-cc-pvdz iop(5/13=1,5/36=2,99/5=2) pseudo=read geom=check guess=(re
 ad,tcheck) scf=(maxcycle=1)\\title\\0,1\C,0,1.041529,1.218096,-0.18687
 \C,0,2.40538,0.962968,-0.255918\C,0,2.884455,-0.332123,-0.060521\C,0,1
 .994348,-1.370391,0.205536\C,0,0.626084,-1.121659,0.258129\C,0,0.13883
 7,0.173615,0.053704\H,0,0.653168,2.220076,-0.318571\H,0,3.09597,1.7737
 88,-0.457001\H,0,2.365314,-2.373955,0.37819\H,0,-0.052432,-1.93136,0.4
 95259\H,0,3.949181,-0.530275,-0.108412\C,0,-1.308781,0.54528,0.133351\

 Normal termination of Gaussian 16 at Tue Apr  8 23:12:43 2025.
