 Gaussian 16, Revision C.01,

 ----------------------------------------------------------------------
 #t hf aug-cc-pvdz symm=none int=(grid=ultrafine) guess=(read,tcheck) s
 table=(opt,rrhf)
 ----------------------------------------------------------------------
 -----
 title
 -----
 Symbolic Z-matrix:
 Charge =  0 Multiplicity = 1

 SCF Done:  E(RHF) =  -399.664624171     A.U. after   16 cycles
 Normal termination of Gaussian 16 at Tue Apr  8 23:06:45 2025.
 Gaussian 16:  ES64L-G16RevC.01  3-Jul-2019

 ----------------------------------------------------------------------
 #t hf aug-cc-pvdz iop(5/13=1,5/36=2,99/5=2) pseudo=read geom=check gue
 ss=(read,tcheck) scf=(maxcycle=1)
 ----------------------------------------------------------------------
 -----
 title
 -----
 Structure from the checkpoint file:  "BDE49_expt_470_mol1.chk"
 Charge =  0 Multiplicity = 1

                         Standard orientation:
 ---------------------------------------------------------------------
 Center     Atomic      Atomic             Coordinates (Angstroms)
 Number     Number       Type             X           Y           Z
 ---------------------------------------------------------------------
      1          6           0       -2.280819   -0.655172    0.006996
      2          6           0       -1.847498    0.671186   -0.000634
      3          6           0       -0.487922    0.985566   -0.010106
      4          6           0       -1.356318   -1.690183    0.003978
      5          6           0        0.012144   -1.397701   -0.001130
      6          6           0        0.444782   -0.077457   -0.006941
      7          1           0       -3.343260   -0.869919    0.013220
      8          1           0       -2.571202    1.480280   -0.007380
      9          7           0       -0.022320    2.297033   -0.078897
     10          1           0       -0.637653    2.990393    0.319309
     11          1           0        0.938226    2.405751    0.211915
     12          1           0        0.730334   -2.207103    0.002438
     13          8           0        1.759052    0.325092    0.000956
     14          1           0       -1.682739   -2.723236    0.007555
     15          6           0        2.768279   -0.671495    0.004769
     16          1           0        3.718035   -0.138388    0.007306
     17          1           0        2.710677   -1.302435   -0.889254
     18          1           0        2.705510   -1.303769    0.897930
 ---------------------------------------------------------------------

 SCF Done:  E(RHF) =  -399.786980949     A.U. after    2 cycles

 The electronic state is 1-A.
 Alpha  occ. eigenvalues --  -20.59894 -15.62194 -11.30004 -11.29767 -11.28175
 Alpha  occ. eigenvalues --  -11.24017 -11.23534 -11.23330 -11.23192  -1.36693
 Alpha  occ. eigenvalues --   -1.18818  -1.11166  -1.01012  -0.98710  -0.93744
 Alpha  occ. eigenvalues --   -0.82661  -0.80978  -0.72523  -0.70153  -0.67827
 Alpha  occ. eigenvalues --   -0.66586  -0.63084  -0.62079  -0.60165  -0.58142
 Alpha  occ. eigenvalues --   -0.54498  -0.53739  -0.50825  -0.49515  -0.48484
 Alpha  occ. eigenvalues --   -0.44397  -0.32848  -0.28464
 Alpha virt. eigenvalues --    0.03312   0.03813   0.04055   0.05349   0.05722
 Alpha virt. eigenvalues --    0.05973   0.07283   0.08110   0.09214   0.11125
 Alpha virt. eigenvalues --    0.11639   0.12449   0.13425   0.13473   0.13596

 Mulliken charges:
               1
     1  C    0.343722
     2  C    1.169726
     3  C   -0.141420
     4  C    0.497735
     5  C    0.535235
     6  C    0.641695
     7  H   -0.447347
     8  H   -0.567891
     9  N   -0.319637
    10  H   -0.043194
    11  H    0.001107
    12  H   -0.752903
    13  O   -0.779723
    14  H   -0.460725
    15  C    0.803169
    16  H   -0.309296
    17  H   -0.083746
    18  H   -0.086506
 Sum of Mulliken charges =  -0.00000

 Dipole moment (field-independent basis, Debye):
    X=              1.0744    Y=             -0.2948    Z=              0.9796  Tot=              1.4835

 Test job not archived.
 1\1\GINC-SE338\SP\RHF\Aug-CC-pVDZ\C7H9N1O1\OHZDE\08-Apr-2025\0\\#t hf
 aug-cc-pvdz iop(5/13=1,5/36=2,99/5=2) pseudo=read geom=check guess=(re
 ad,tcheck) scf=(maxcycle=1)\\title\\0,1\C,0,-2.280819,-0.655172,0.0069
 96\C,0,-1.847498,0.671186,-0.000634\C,0,-0.487922,0.985566,-0.010106\C
 ,0,-1.356318,-1.690183,0.003978\C,0,0.012144,-1.397701,-0.00113\C,0,0.
 444782,-0.077457,-0.006941\H,0,-3.34326,-0.869918,0.01322\H,0,-2.57120
 2,1.48028,-0.00738\N,0,-0.02232,2.297033,-0.078897\H,0,-0.637653,2.990
 393,0.319309\H,0,0.938226,2.405751,0.211915\H,0,0.730333,-2.207103,0.0

 Normal termination of Gaussian 16 at Tue Apr  8 23:06:53 2025.
