 Gaussian 16, Revision C.01,

 ----------------------------------------------------------------------
 #t hf aug-cc-pvdz symm=none int=(grid=ultrafine) guess=(read,tcheck) s
 table=(opt,rrhf)
 ----------------------------------------------------------------------
 -----
 title
 -----
 Symbolic Z-matrix:
 Charge =  0 Multiplicity = 1

 SCF Done:  E(RHF) =  -688.247755451     A.U. after   12 cycles
 Normal termination of Gaussian 16 at Wed Apr  9 00:45:57 2025.
 Gaussian 16:  ES64L-G16RevC.01  3-Jul-2019

 ----------------------------------------------------------------------
 #t hf aug-cc-pvdz iop(5/13=1,5/36=2,99/5=2) pseudo=read geom=check gue
 ss=(read,tcheck) scf=(maxcycle=1)
 ----------------------------------------------------------------------
 -----
 title
 -----
 Structure from the checkpoint file:  "BDE49_nonexpt_844_mol1.chk"
 Charge =  0 Multiplicity = 1

                         Standard orientation:
 ---------------------------------------------------------------------
 Center     Atomic      Atomic             Coordinates (Angstroms)
 Number     Number       Type             X           Y           Z
 ---------------------------------------------------------------------
      1         14           0        0.409553   -0.025996    0.000002
      2          5           0       -1.493736   -0.695380    0.000006
      3          9           0        1.203609   -0.555064    1.277467
      4          9           0        0.551665    1.558818   -0.000019
      5          9           0        1.203617   -0.555099   -1.277444
      6          8           0       -2.473988    0.226444   -0.000010
      7          1           0       -3.364914   -0.142682   -0.000011
      8          1           0       -1.738271   -1.865919    0.000012
 ---------------------------------------------------------------------

 SCF Done:  E(RHF) =  -688.440780649     A.U. after    2 cycles

 The electronic state is 1-A.
 Alpha  occ. eigenvalues --  -69.19409 -26.12833 -26.12832 -26.12678 -20.62991
 Alpha  occ. eigenvalues --   -7.67823  -6.93210  -4.04205  -4.04202  -4.03904
 Alpha  occ. eigenvalues --   -1.67001  -1.65200  -1.65103  -1.37115  -0.86486
 Alpha  occ. eigenvalues --   -0.81839  -0.79359  -0.79297  -0.76346  -0.74307
 Alpha  occ. eigenvalues --   -0.74306  -0.71921  -0.71901  -0.70524  -0.69095
 Alpha  occ. eigenvalues --   -0.60017  -0.59525  -0.46560
 Alpha virt. eigenvalues --    0.02570   0.03716   0.05132   0.05483   0.07726
 Alpha virt. eigenvalues --    0.07726   0.07847   0.09337   0.10178   0.10582
 Alpha virt. eigenvalues --    0.14618   0.16872   0.19273   0.20234   0.21119

 Mulliken charges:
               1
     1  Si   2.381811
     2  B    0.017308
     3  F   -0.774528
     4  F   -0.801944
     5  F   -0.774528
     6  O   -0.401856
     7  H    0.187208
     8  H    0.166528
 Sum of Mulliken charges =  -0.00000

 Dipole moment (field-independent basis, Debye):
    X=             -3.9947    Y=             -1.7471    Z=              0.0000  Tot=              4.3600

 Test job not archived.
 1\1\GINC-SE083\SP\RHF\Aug-CC-pVDZ\B1F3H2O1Si1\OHZDE\09-Apr-2025\0\\#t
 hf aug-cc-pvdz iop(5/13=1,5/36=2,99/5=2) pseudo=read geom=check guess=
 (read,tcheck) scf=(maxcycle=1)\\title\\0,1\Si,0,0.409553,-0.025996,0.0
 00002\B,0,-1.493736,-0.69538,0.000006\F,0,1.203609,-0.555064,1.277467\
 F,0,0.551665,1.558818,-0.000019\F,0,1.203617,-0.555099,-1.277444\O,0,-
 2.473988,0.226444,-0.00001\H,0,-3.364914,-0.142681,-0.000011\H,0,-1.73
 8271,-1.865919,0.000012\\Version=ES64L-G16RevC.01\State=1-A\HF=-688.44
 07806\RMSD=4.778e-03\Dipole=-1.5716246,-0.6873771,0.0000045\Quadrupole

 Normal termination of Gaussian 16 at Wed Apr  9 00:46:02 2025.
