 Gaussian 16, Revision C.01,

 ----------------------------------------------------------------------
 #t hf aug-cc-pvdz symm=none int=(grid=ultrafine) guess=(read,tcheck) s
 table=(opt,rrhf)
 ----------------------------------------------------------------------
 -----
 title
 -----
 Symbolic Z-matrix:
 Charge =  0 Multiplicity = 1

 SCF Done:  E(RHF) =  -799.208486832     A.U. after   17 cycles
 Normal termination of Gaussian 16 at Wed Apr  9 00:41:53 2025.
 Gaussian 16:  ES64L-G16RevC.01  3-Jul-2019

 ----------------------------------------------------------------------
 #t hf aug-cc-pvdz iop(5/13=1,5/36=2,99/5=2) pseudo=read geom=check gue
 ss=(read,tcheck) scf=(maxcycle=1)
 ----------------------------------------------------------------------
 -----
 title
 -----
 Structure from the checkpoint file:  "BDE49_nonexpt_706_mol1.chk"
 Charge =  0 Multiplicity = 1

                         Standard orientation:
 ---------------------------------------------------------------------
 Center     Atomic      Atomic             Coordinates (Angstroms)
 Number     Number       Type             X           Y           Z
 ---------------------------------------------------------------------
      1         15           0       -0.091357    0.143779   -1.008594
      2          7           0       -1.375994   -0.759603   -0.015802
      3          5           0        1.493885   -0.484371   -0.032644
      4          8           0       -2.413289   -0.187179    0.263138
      5          8           0       -1.156857   -1.951844    0.234933
      6          8           0        2.556739    0.361592   -0.086283
      7          8           0        1.560459   -1.692690    0.557822
      8          6           0       -0.358892    1.875781   -0.405336
      9          6           0       -0.206892    2.153595    1.092068
     10          1           0       -1.347409    2.170635   -0.765415
     11          1           0        0.368972    2.455085   -0.985734
     12          1           0       -0.396186    3.210486    1.300685
     13          1           0        0.803358    1.921013    1.434336
     14          1           0       -0.920961    1.569589    1.675217
     15          1           0        0.700290   -2.149815    0.533620
     16          1           0        3.343113   -0.009884    0.332774
 ---------------------------------------------------------------------

 SCF Done:  E(RHF) =  -799.378872139     A.U. after    2 cycles

 The electronic state is 1-A.
 Alpha  occ. eigenvalues --  -81.30921 -20.63258 -20.62272 -20.61058 -20.59820
 Alpha  occ. eigenvalues --  -15.90720 -11.27424 -11.24778  -7.81206  -7.70096
 Alpha  occ. eigenvalues --   -4.95352  -4.95038  -4.94766  -1.54686  -1.37239
 Alpha  occ. eigenvalues --   -1.36522  -1.33337  -1.05434  -0.96569  -0.88123
 Alpha  occ. eigenvalues --   -0.82039  -0.81202  -0.77226  -0.74202  -0.72384
 Alpha  occ. eigenvalues --   -0.68931  -0.64362  -0.63504  -0.61730  -0.61510
 Alpha  occ. eigenvalues --   -0.58497  -0.55296  -0.54509  -0.53132  -0.52279
 Alpha  occ. eigenvalues --   -0.48556  -0.48078  -0.46508  -0.37787
 Alpha virt. eigenvalues --    0.02744   0.03957   0.04386   0.05495   0.05975
 Alpha virt. eigenvalues --    0.06404   0.06761   0.07017   0.07533   0.08684
 Alpha virt. eigenvalues --    0.09117   0.09767   0.10327   0.11355   0.11946

 Mulliken charges:
               1
     1  P    0.400695
     2  N    0.470105
     3  B    0.922040
     4  O   -0.568952
     5  O   -0.664010
     6  O   -0.514326
     7  O   -0.501935
     8  C    0.034468
     9  C    0.424871
    10  H   -0.076388
    11  H   -0.126564
    12  H   -0.073108
    13  H   -0.168644
    14  H   -0.070335
    15  H    0.314235
    16  H    0.197848
 Sum of Mulliken charges =  -0.00000

 Dipole moment (field-independent basis, Debye):
    X=              2.8895    Y=              2.7213    Z=             -0.5165  Tot=              4.0027

 Test job not archived.
 1\1\GINC-SE150\SP\RHF\Aug-CC-pVDZ\C2H7B1N1O4P1\OHZDE\09-Apr-2025\0\\#t
  hf aug-cc-pvdz iop(5/13=1,5/36=2,99/5=2) pseudo=read geom=check guess
 =(read,tcheck) scf=(maxcycle=1)\\title\\0,1\P,0,-0.091357,0.143779,-1.
 008594\N,0,-1.375994,-0.759602,-0.015802\B,0,1.493885,-0.484371,-0.032
 644\O,0,-2.413289,-0.187178,0.263138\O,0,-1.156858,-1.951843,0.234933\
 O,0,2.556739,0.361591,-0.086283\O,0,1.560459,-1.69269,0.557822\C,0,-0.
 358891,1.875781,-0.405336\C,0,-0.206891,2.153595,1.092068\H,0,-1.34740
 8,2.170636,-0.765415\H,0,0.368973,2.455085,-0.985734\H,0,-0.396185,3.2

 Normal termination of Gaussian 16 at Wed Apr  9 00:42:01 2025.
