 Gaussian 16, Revision C.01,

 ----------------------------------------------------------------------
 #t hf aug-cc-pvdz symm=none int=(grid=ultrafine) guess=(read,tcheck) s
 table=opt
 ----------------------------------------------------------------------
 -----
 title
 -----
 Symbolic Z-matrix:
 Charge =  0 Multiplicity = 2

 SCF Done:  E(UHF) =  -411.061869966     A.U. after   16 cycles
 Normal termination of Gaussian 16 at Tue Apr  8 22:52:41 2025.
 Gaussian 16:  ES64L-G16RevC.01  3-Jul-2019

 ----------------------------------------------------------------------
 #t hf aug-cc-pvdz iop(5/13=1,5/36=2,99/5=2) pseudo=read geom=check gue
 ss=(read,tcheck) scf=(maxcycle=1)
 ----------------------------------------------------------------------
 -----
 title
 -----
 Structure from the checkpoint file:  "BDE49_expt_1845_mol2.chk"
 Charge =  0 Multiplicity = 2

                         Standard orientation:
 ---------------------------------------------------------------------
 Center     Atomic      Atomic             Coordinates (Angstroms)
 Number     Number       Type             X           Y           Z
 ---------------------------------------------------------------------
      1          8           0        0.745813   -0.000018    1.172235
      2          6           0        0.005322   -0.000013    0.042181
      3          9           0        0.891279   -0.001014   -0.964436
      4          9           0       -0.778087    1.079356   -0.053254
      5          9           0       -0.779686   -1.078318   -0.052417
 ---------------------------------------------------------------------

 SCF Done:  E(UHF) =  -411.211454101     A.U. after    2 cycles

 The electronic state is 2-A.
 Alpha  occ. eigenvalues --  -26.20451 -26.19700 -26.19689 -20.72858 -11.60652
 Alpha  occ. eigenvalues --   -1.80380  -1.73259  -1.72455  -1.47520  -1.04228
 Alpha  occ. eigenvalues --   -0.93812  -0.92572  -0.88696  -0.82225  -0.80701
 Alpha  occ. eigenvalues --   -0.76620  -0.76145  -0.74928  -0.72997  -0.72254
 Alpha  occ. eigenvalues --   -0.65228
 Alpha virt. eigenvalues --    0.07771   0.08740   0.08875   0.08981   0.19484
 Alpha virt. eigenvalues --    0.21173   0.21706   0.23558   0.23791   0.30107
 Alpha virt. eigenvalues --    0.30790   0.31069   0.32847   0.33409   0.33505

  Beta  occ. eigenvalues --  -26.20149 -26.19670 -26.19659 -20.68778 -11.60901
  Beta  occ. eigenvalues --   -1.79916  -1.72595  -1.72365  -1.34100  -1.02788
  Beta  occ. eigenvalues --   -0.92383  -0.91700  -0.86146  -0.80318  -0.80197
  Beta  occ. eigenvalues --   -0.76159  -0.76000  -0.74781  -0.69174  -0.60587
  Beta virt. eigenvalues --   -0.00497   0.07922   0.08888   0.09010   0.09533
  Beta virt. eigenvalues --    0.19565   0.21757   0.22538   0.23620   0.23793
  Beta virt. eigenvalues --    0.30198   0.31195   0.31940   0.33397   0.33555

 Mulliken charges and spin densities:
               1          2
     1  O   -0.282062   1.059878
     2  C    1.041064  -0.107508
     3  F   -0.252255   0.034241
     4  F   -0.253356   0.006701
     5  F   -0.253390   0.006688
 Sum of Mulliken charges =   0.00000   1.00000

 Dipole moment (field-independent basis, Debye):
    X=              0.1356    Y=             -0.0000    Z=              0.3959  Tot=              0.4185
                          Isotropic Fermi Contact Couplings
        Atom                 a.u.       MegaHertz       Gauss      10(-4) cm-1
     1  O(17)              0.27247    -165.16779     -58.93597     -55.09404
     2  C(13)             -0.04682     -52.63143     -18.78020     -17.55595
     3  F(19)              0.03608     151.80060      54.16623      50.63523
     4  F(19)             -0.00081      -3.42696      -1.22283      -1.14311
     5  F(19)             -0.00083      -3.48760      -1.24446      -1.16334
 --------------------------------------------------------
       Center         ----  Spin Dipole Couplings  ----
                      3XX-RR        3YY-RR        3ZZ-RR

 Normal termination of Gaussian 16 at Tue Apr  8 22:52:43 2025.
