 Gaussian 16, Revision C.01,

 ----------------------------------------------------------------------
 #t hf aug-cc-pvdz symm=none int=(grid=ultrafine) guess=(read,tcheck) s
 table=(opt,rrhf)
 ----------------------------------------------------------------------
 -----
 title
 -----
 Symbolic Z-matrix:
 Charge =  0 Multiplicity = 1

 SCF Done:  E(RHF) =  -605.023655723     A.U. after   13 cycles
 Normal termination of Gaussian 16 at Wed Apr  9 00:33:31 2025.
 Gaussian 16:  ES64L-G16RevC.01  3-Jul-2019

 ----------------------------------------------------------------------
 #t hf aug-cc-pvdz iop(5/13=1,5/36=2,99/5=2) pseudo=read geom=check gue
 ss=(read,tcheck) scf=(maxcycle=1)
 ----------------------------------------------------------------------
 -----
 title
 -----
 Structure from the checkpoint file:  "BDE49_nonexpt_415_mol1.chk"
 Charge =  0 Multiplicity = 1

                         Standard orientation:
 ---------------------------------------------------------------------
 Center     Atomic      Atomic             Coordinates (Angstroms)
 Number     Number       Type             X           Y           Z
 ---------------------------------------------------------------------
      1          9           0       -1.591427   -1.268132   -1.378932
      2          5           0       -1.278123   -0.472961   -0.377283
      3          9           0       -2.279244    0.002452    0.354693
      4          6           0        0.220705    0.010050   -0.086589
      5          8           0        0.540843    0.169734    1.279647
      6          8           0        0.350004    1.285558   -0.692469
      7          8           0        1.081096   -0.863146   -0.734831
      8          6           0        0.335593   -0.993742    2.075971
      9          1           0        0.703198   -0.754532    3.072859
     10          1           0        0.887309   -1.850603    1.678628
     11          1           0       -0.729904   -1.247260    2.147208
     12          6           0       -0.170208    2.417703    0.014308
     13          1           0       -0.006182    3.269229   -0.645204
     14          1           0        0.354849    2.569019    0.957681
     15          1           0       -1.242429    2.316419    0.210517
     16          6           0        2.458344   -0.459437   -0.788452
     17          1           0        3.004103   -1.328713   -1.152115
     18          1           0        2.825074   -0.178845    0.201756
     19          1           0        2.588481    0.376596   -1.476969
 ---------------------------------------------------------------------

 SCF Done:  E(RHF) =  -605.238029831     A.U. after    2 cycles

 The electronic state is 1-A.
 Alpha  occ. eigenvalues --  -26.14588 -26.14206 -20.59308 -20.58941 -20.58709
 Alpha  occ. eigenvalues --  -11.40047 -11.29904 -11.28859 -11.28358  -7.74523
 Alpha  occ. eigenvalues --   -1.69750  -1.67459  -1.41769  -1.32240  -1.31754
 Alpha  occ. eigenvalues --   -1.00190  -0.94997  -0.93477  -0.88679  -0.83916
 Alpha  occ. eigenvalues --   -0.82430  -0.78237  -0.77605  -0.72655  -0.72651
 Alpha  occ. eigenvalues --   -0.72361  -0.71487  -0.70802  -0.65220  -0.63679
 Alpha  occ. eigenvalues --   -0.61652  -0.60478  -0.59572  -0.56576  -0.54284
 Alpha  occ. eigenvalues --   -0.51621  -0.50253  -0.47969  -0.46999  -0.44652
 Alpha virt. eigenvalues --    0.03115   0.04398   0.04632   0.04731   0.06073
 Alpha virt. eigenvalues --    0.06215   0.06509   0.06576   0.06841   0.08643
 Alpha virt. eigenvalues --    0.09297   0.09544   0.10536   0.12670   0.13157

 Mulliken charges:
               1
     1  F   -0.430294
     2  B    0.853300
     3  F   -0.349353
     4  C    0.980092
     5  O   -0.769727
     6  O   -0.709514
     7  O   -0.735993
     8  C    0.832845
     9  H   -0.245520
    10  H   -0.053227
    11  H   -0.148881
    12  C    0.844598
    13  H   -0.232731
    14  H   -0.105290
    15  H   -0.159985
    16  C    0.805093
    17  H   -0.234791
    18  H   -0.061559
    19  H   -0.079063
 Sum of Mulliken charges =   0.00000

 Dipole moment (field-independent basis, Debye):
    X=              1.3493    Y=              0.4368    Z=              2.0600  Tot=              2.5010

 Test job not archived.
 1\1\GINC-SE250\SP\RHF\Aug-CC-pVDZ\C4H9B1F2O3\OHZDE\09-Apr-2025\0\\#t h
 f aug-cc-pvdz iop(5/13=1,5/36=2,99/5=2) pseudo=read geom=check guess=(
 read,tcheck) scf=(maxcycle=1)\\title\\0,1\F,0,-1.591427,-1.268132,-1.3
 78932\B,0,-1.278123,-0.472961,-0.377283\F,0,-2.279244,0.002453,0.35469
 3\C,0,0.220705,0.01005,-0.086589\O,0,0.540843,0.169734,1.279647\O,0,0.
 350004,1.285558,-0.692469\O,0,1.081096,-0.863146,-0.734831\C,0,0.33559
 3,-0.993742,2.075971\H,0,0.703198,-0.754532,3.072859\H,0,0.887309,-1.8
 50603,1.678628\H,0,-0.729904,-1.24726,2.147208\C,0,-0.170207,2.417703,

 Normal termination of Gaussian 16 at Wed Apr  9 00:33:40 2025.
