 Gaussian 16, Revision C.01,

 ----------------------------------------------------------------------
 #t hf aug-cc-pvdz symm=none int=(grid=ultrafine) guess=(read,tcheck) s
 table=(opt,rrhf)
 ----------------------------------------------------------------------
 -----
 title
 -----
 Symbolic Z-matrix:
 Charge =  0 Multiplicity = 1

 SCF Done:  E(RHF) =  -571.632660334     A.U. after   14 cycles
 Normal termination of Gaussian 16 at Wed Apr  9 00:00:31 2025.
 Gaussian 16:  ES64L-G16RevC.01  3-Jul-2019

 ----------------------------------------------------------------------
 #t hf aug-cc-pvdz iop(5/13=1,5/36=2,99/5=2) pseudo=read geom=check gue
 ss=(read,tcheck) scf=(maxcycle=1)
 ----------------------------------------------------------------------
 -----
 title
 -----
 Structure from the checkpoint file:  "BDE49_nonexpt_2148_mol1.chk"
 Charge =  0 Multiplicity = 1

                         Standard orientation:
 ---------------------------------------------------------------------
 Center     Atomic      Atomic             Coordinates (Angstroms)
 Number     Number       Type             X           Y           Z
 ---------------------------------------------------------------------
      1          7           0       -1.212198    0.116602    0.000157
      2          8           0       -1.233866    1.343737   -0.000119
      3          8           0       -2.207096   -0.604393   -0.000121
      4         14           0        0.443913   -0.715906    0.000039
      5          6           0        1.776039    0.288177    0.777811
      6          6           0        1.775973    0.288234   -0.777774
      7          1           0        2.604348   -0.217649    1.264361
      8          1           0        1.494865    1.220009    1.256999
      9          1           0        1.494759    1.220105   -1.256866
     10          1           0        2.604243   -0.217551   -1.264432
     11          1           0        0.288010   -2.171652   -0.000009
 ---------------------------------------------------------------------

 SCF Done:  E(RHF) =  -571.746874388     A.U. after    2 cycles

 The electronic state is 1-A.
 Alpha  occ. eigenvalues --  -69.12679 -20.62397 -20.62144 -15.89062 -11.26096
 Alpha  occ. eigenvalues --  -11.26060  -6.87940  -3.98875  -3.98710  -3.98594
 Alpha  occ. eigenvalues --   -1.53655  -1.36028  -1.06507  -0.93978  -0.84092
 Alpha  occ. eigenvalues --   -0.79347  -0.73411  -0.71101  -0.67478  -0.65141
 Alpha  occ. eigenvalues --   -0.59464  -0.54333  -0.52591  -0.48928  -0.47358
 Alpha  occ. eigenvalues --   -0.45371  -0.38657
 Alpha virt. eigenvalues --    0.02808   0.03703   0.04708   0.05207   0.05666
 Alpha virt. eigenvalues --    0.06810   0.07228   0.07243   0.09550   0.10471
 Alpha virt. eigenvalues --    0.12454   0.13045   0.13699   0.14740   0.15259

 Mulliken charges:
               1
     1  N    0.220708
     2  O   -0.514750
     3  O   -0.531742
     4  Si   0.764144
     5  C    0.603095
     6  C    0.603057
     7  H   -0.293961
     8  H   -0.322593
     9  H   -0.322566
    10  H   -0.293955
    11  H    0.088564
 Sum of Mulliken charges =  -0.00000

 Dipole moment (field-independent basis, Debye):
    X=              4.2826    Y=             -1.8396    Z=              0.0006  Tot=              4.6610

 Test job not archived.
 1\1\GINC-SE097\SP\RHF\Aug-CC-pVDZ\C2H5N1O2Si1\OHZDE\09-Apr-2025\0\\#t
 hf aug-cc-pvdz iop(5/13=1,5/36=2,99/5=2) pseudo=read geom=check guess=
 (read,tcheck) scf=(maxcycle=1)\\title\\0,1\N,0,-1.212198,0.116602,0.00
 0157\O,0,-1.233866,1.343737,-0.000119\O,0,-2.207096,-0.604393,-0.00012
 1\Si,0,0.443913,-0.715906,0.000039\C,0,1.776039,0.288177,0.777811\C,0,
 1.775973,0.288234,-0.777774\H,0,2.604348,-0.217649,1.264361\H,0,1.4948
 65,1.220009,1.256999\H,0,1.494759,1.220105,-1.256866\H,0,2.604243,-0.2
 17551,-1.264432\H,0,0.28801,-2.171652,-0.000009\\Version=ES64L-G16RevC

 Normal termination of Gaussian 16 at Wed Apr  9 00:00:35 2025.
