 Gaussian 16, Revision C.01,

 ----------------------------------------------------------------------
 #t hf aug-cc-pvdz symm=none int=(grid=ultrafine) guess=(read,tcheck) s
 table=(opt,rrhf)
 ----------------------------------------------------------------------
 -----
 title
 -----
 Symbolic Z-matrix:
 Charge =  0 Multiplicity = 1

 SCF Done:  E(RHF) =  -361.509668279     A.U. after   16 cycles
 Normal termination of Gaussian 16 at Tue Apr  8 22:37:18 2025.
 Gaussian 16:  ES64L-G16RevC.01  3-Jul-2019

 ----------------------------------------------------------------------
 #t hf aug-cc-pvdz iop(5/13=1,5/36=2,99/5=2) pseudo=read geom=check gue
 ss=(read,tcheck) scf=(maxcycle=1)
 ----------------------------------------------------------------------
 -----
 title
 -----
 Structure from the checkpoint file:  "BDE49_expt_1169_mol1.chk"
 Charge =  0 Multiplicity = 1

                         Standard orientation:
 ---------------------------------------------------------------------
 Center     Atomic      Atomic             Coordinates (Angstroms)
 Number     Number       Type             X           Y           Z
 ---------------------------------------------------------------------
      1          6           0       -0.102712   -0.410702    0.000001
      2          6           0       -2.589992   -0.022545   -0.000001
      3          7           0       -3.443406    0.751815   -0.000005
      4          6           0        0.134385    0.962947    0.000003
      5          6           0        0.985347   -1.289500   -0.000001
      6          6           0        2.287835   -0.802200   -0.000002
      7          6           0        2.519780    0.572874   -0.000001
      8          6           0        1.441103    1.451172    0.000001
      9          1           0       -0.699389    1.655503    0.000004
     10          1           0        1.610907    2.521824    0.000002
     11          1           0        3.121573   -1.495166   -0.000004
     12          1           0        3.534448    0.954088   -0.000002
     13          1           0        0.812651   -2.361412   -0.000002
     14          6           0       -1.508174   -1.002825    0.000003
     15          1           0       -1.640891   -1.646434    0.876577
     16          1           0       -1.640890   -1.646441   -0.876565
 ---------------------------------------------------------------------

 SCF Done:  E(RHF) =  -361.615105929     A.U. after    2 cycles

 The electronic state is 1-A.
 Alpha  occ. eigenvalues --  -15.64222 -11.30398 -11.29276 -11.27753 -11.26064
 Alpha  occ. eigenvalues --  -11.25949 -11.25819 -11.25632 -11.25594  -1.20050
 Alpha  occ. eigenvalues --   -1.16337  -1.07714  -1.02484  -0.98499  -0.84854
 Alpha  occ. eigenvalues --   -0.82988  -0.72661  -0.70096  -0.65686  -0.64687
 Alpha  occ. eigenvalues --   -0.62806  -0.60954  -0.60218  -0.54909  -0.51986
 Alpha  occ. eigenvalues --   -0.51616  -0.51155  -0.46381  -0.46371  -0.35455
 Alpha  occ. eigenvalues --   -0.34957
 Alpha virt. eigenvalues --    0.02730   0.03438   0.04297   0.05028   0.05279
 Alpha virt. eigenvalues --    0.06246   0.07635   0.09008   0.09664   0.09944
 Alpha virt. eigenvalues --    0.10260   0.12083   0.12377   0.12780   0.13406

 Mulliken charges:
               1
     1  C    0.045121
     2  C   -0.083889
     3  N   -0.195061
     4  C    0.635964
     5  C   -0.006622
     6  C    0.486927
     7  C    0.504474
     8  C    0.336049
     9  H   -0.567184
    10  H   -0.435577
    11  H   -0.440868
    12  H   -0.425407
    13  H   -0.618563
    14  C    0.419994
    15  H    0.172322
    16  H    0.172319
 Sum of Mulliken charges =  -0.00000

 Dipole moment (field-independent basis, Debye):
    X=              3.3048    Y=             -2.4403    Z=              0.0000  Tot=              4.1081

 Test job not archived.
 1\1\GINC-SE049\SP\RHF\Aug-CC-pVDZ\C8H7N1\OHZDE\08-Apr-2025\0\\#t hf au
 g-cc-pvdz iop(5/13=1,5/36=2,99/5=2) pseudo=read geom=check guess=(read
 ,tcheck) scf=(maxcycle=1)\\title\\0,1\C,0,-0.102712,-0.410702,0.000001
 \C,0,-2.589992,-0.022545,-0.000001\N,0,-3.443406,0.751815,-0.000005\C,
 0,0.134385,0.962947,0.000003\C,0,0.985347,-1.2895,-0.000001\C,0,2.2878
 35,-0.8022,-0.000002\C,0,2.51978,0.572874,-0.000001\C,0,1.441103,1.451
 172,0.000001\H,0,-0.699389,1.655503,0.000004\H,0,1.610907,2.521824,0.0
 00002\H,0,3.121573,-1.495166,-0.000004\H,0,3.534448,0.954088,-0.000002

 Normal termination of Gaussian 16 at Tue Apr  8 22:37:26 2025.
