 Gaussian 16, Revision C.01,

 ----------------------------------------------------------------------
 #t hf aug-cc-pvdz symm=none int=(grid=ultrafine) guess=(read,tcheck) s
 table=(opt,rrhf)
 ----------------------------------------------------------------------
 -----
 title
 -----
 Symbolic Z-matrix:
 Charge =  0 Multiplicity = 1

 SCF Done:  E(RHF) =  -644.459605920     A.U. after   18 cycles
 Normal termination of Gaussian 16 at Wed Apr  9 00:52:22 2025.
 Gaussian 16:  ES64L-G16RevC.01  3-Jul-2019

 ----------------------------------------------------------------------
 #t hf aug-cc-pvdz iop(5/13=1,5/36=2,99/5=2) pseudo=read geom=check gue
 ss=(read,tcheck) scf=(maxcycle=1)
 ----------------------------------------------------------------------
 -----
 title
 -----
 Structure from the checkpoint file:  "BDE49_nonexpt_994_mol1.chk"
 Charge =  0 Multiplicity = 1

                         Standard orientation:
 ---------------------------------------------------------------------
 Center     Atomic      Atomic             Coordinates (Angstroms)
 Number     Number       Type             X           Y           Z
 ---------------------------------------------------------------------
      1         16           0       -0.390111   -0.915369   -0.516958
      2          7           0       -1.995470   -0.163967    0.018565
      3          8           0       -1.933811    0.804648    0.691872
      4          6           0        0.837234    0.202413    0.264473
      5          6           0        2.083624   -0.594874    0.660021
      6          1           0        2.594829   -1.001227   -0.216826
      7          1           0        1.836199   -1.423669    1.325903
      8          6           0        1.150950    1.399769   -0.636310
      9          1           0        0.325032    0.559052    1.164880
     10          1           0        1.845182    2.076569   -0.127514
     11          1           0        0.247024    1.961984   -0.876201
     12          1           0        1.613563    1.077782   -1.572809
     13          1           0        2.787876    0.062152    1.179862
 ---------------------------------------------------------------------

 SCF Done:  E(RHF) =  -644.556454172     A.U. after    2 cycles

 The electronic state is 1-A.
 Alpha  occ. eigenvalues --  -93.56533 -20.67226 -15.81809 -11.28854 -11.24767
 Alpha  occ. eigenvalues --  -11.24144  -8.86167  -6.20257  -6.20005  -6.19713
 Alpha  occ. eigenvalues --   -1.51319  -1.10054  -1.00666  -0.94868  -0.88135
 Alpha  occ. eigenvalues --   -0.78309  -0.71622  -0.69017  -0.64528  -0.62937
 Alpha  occ. eigenvalues --   -0.59348  -0.58252  -0.55819  -0.51149  -0.50849
 Alpha  occ. eigenvalues --   -0.45095  -0.39185  -0.37484
 Alpha virt. eigenvalues --    0.03346   0.04616   0.04950   0.05895   0.07150
 Alpha virt. eigenvalues --    0.07383   0.07458   0.07497   0.08460   0.09904
 Alpha virt. eigenvalues --    0.12770   0.13410   0.14168   0.15093   0.15672

 Mulliken charges:
               1
     1  S    0.644489
     2  N   -0.212834
     3  O   -0.362963
     4  C   -0.819332
     5  C    0.645404
     6  H   -0.026219
     7  H   -0.088031
     8  C    0.406530
     9  H   -0.026335
    10  H   -0.036427
    11  H   -0.097335
    12  H   -0.019686
    13  H   -0.007260
 Sum of Mulliken charges =   0.00000

 Dipole moment (field-independent basis, Debye):
    X=              2.4564    Y=              0.2146    Z=              0.1533  Tot=              2.4705

 Test job not archived.
 1\1\GINC-SE220\SP\RHF\Aug-CC-pVDZ\C3H7N1O1S1\OHZDE\09-Apr-2025\0\\#t h
 f aug-cc-pvdz iop(5/13=1,5/36=2,99/5=2) pseudo=read geom=check guess=(
 read,tcheck) scf=(maxcycle=1)\\title\\0,1\S,0,-0.390111,-0.915369,-0.5
 16958\N,0,-1.99547,-0.163967,0.018565\O,0,-1.933811,0.804648,0.691872\
 C,0,0.837234,0.202413,0.264473\C,0,2.083624,-0.594874,0.660021\H,0,2.5
 94829,-1.001227,-0.216826\H,0,1.836199,-1.423669,1.325903\C,0,1.15095,
 1.399769,-0.63631\H,0,0.325032,0.559052,1.16488\H,0,1.845182,2.076569,
 -0.127514\H,0,0.247024,1.961984,-0.876201\H,0,1.613563,1.077782,-1.572

 Normal termination of Gaussian 16 at Wed Apr  9 00:52:26 2025.
