 Gaussian 16, Revision C.01,

 ----------------------------------------------------------------------
 #t hf aug-cc-pvdz symm=none int=(grid=ultrafine) guess=(read,tcheck) s
 table=(opt,rrhf)
 ----------------------------------------------------------------------
 -----
 title
 -----
 Symbolic Z-matrix:
 Charge =  0 Multiplicity = 1

 SCF Done:  E(RHF) =  -375.839366173     A.U. after   12 cycles
 Normal termination of Gaussian 16 at Tue Apr  8 22:27:17 2025.
 Gaussian 16:  ES64L-G16RevC.01  3-Jul-2019

 ----------------------------------------------------------------------
 #t hf aug-cc-pvdz iop(5/13=1,5/36=2,99/5=2) pseudo=read geom=check gue
 ss=(read,tcheck) scf=(maxcycle=1)
 ----------------------------------------------------------------------
 -----
 title
 -----
 Structure from the checkpoint file:  "BDE49_expt_1006_mol1.chk"
 Charge =  0 Multiplicity = 1

                         Standard orientation:
 ---------------------------------------------------------------------
 Center     Atomic      Atomic             Coordinates (Angstroms)
 Number     Number       Type             X           Y           Z
 ---------------------------------------------------------------------
      1          6           0       -0.466105    0.020385    0.328385
      2          6           0        0.774786   -0.587151   -0.290300
      3          1           0       -0.411247    0.101522    1.416517
      4          9           0       -1.535809   -0.767896   -0.004518
      5          9           0       -0.688421    1.265400   -0.181531
      6          1           0        0.711896   -0.511082   -1.378372
      7          1           0        0.860863   -1.632542    0.014914
      8          9           0        1.889386    0.107240    0.154763
 ---------------------------------------------------------------------

 SCF Done:  E(RHF) =  -375.973018373     A.U. after    2 cycles

 The electronic state is 1-A.
 Alpha  occ. eigenvalues --  -26.15161 -26.14645 -26.13290 -11.43815 -11.35356
 Alpha  occ. eigenvalues --   -1.71161  -1.66840  -1.66353  -1.08003  -0.94668
 Alpha  occ. eigenvalues --   -0.83657  -0.82981  -0.81531  -0.76845  -0.75879
 Alpha  occ. eigenvalues --   -0.73841  -0.71424  -0.70699  -0.65249  -0.58007
 Alpha  occ. eigenvalues --   -0.54866
 Alpha virt. eigenvalues --    0.03565   0.04442   0.05628   0.08236   0.10692
 Alpha virt. eigenvalues --    0.11599   0.11757   0.14501   0.15468   0.17009
 Alpha virt. eigenvalues --    0.19070   0.21914   0.24356   0.24863   0.27225

 Mulliken charges:
               1
     1  C    0.837410
     2  C    0.530002
     3  H   -0.153778
     4  F   -0.367946
     5  F   -0.348163
     6  H   -0.054041
     7  H   -0.046017
     8  F   -0.397467
 Sum of Mulliken charges =  -0.00000

 Dipole moment (field-independent basis, Debye):
    X=              0.3534    Y=             -1.8735    Z=              0.4862  Tot=              1.9676

 Test job not archived.
 1\1\GINC-SE094\SP\RHF\Aug-CC-pVDZ\C2H3F3\OHZDE\08-Apr-2025\0\\#t hf au
 g-cc-pvdz iop(5/13=1,5/36=2,99/5=2) pseudo=read geom=check guess=(read
 ,tcheck) scf=(maxcycle=1)\\title\\0,1\C,0,-0.466105,0.020385,0.328385\
 C,0,0.774786,-0.587151,-0.2903\H,0,-0.411247,0.101522,1.416517\F,0,-1.
 535809,-0.767896,-0.004518\F,0,-0.688421,1.2654,-0.181531\H,0,0.711896
 ,-0.511082,-1.378372\H,0,0.860863,-1.632542,0.014914\F,0,1.889386,0.10
 724,0.154763\\Version=ES64L-G16RevC.01\State=1-A\HF=-375.9730184\RMSD=
 6.298e-03\Dipole=0.1390575,-0.7370973,0.1912971\Quadrupole=-3.8366326,

 Normal termination of Gaussian 16 at Tue Apr  8 22:27:19 2025.
