 Gaussian 16, Revision C.01,

 ----------------------------------------------------------------------
 #t hf aug-cc-pvdz symm=none int=(grid=ultrafine) guess=(read,tcheck) s
 table=(opt,rrhf)
 ----------------------------------------------------------------------
 -----
 title
 -----
 Symbolic Z-matrix:
 Charge =  0 Multiplicity = 1

 SCF Done:  E(RHF) =  -248.190407023     A.U. after   12 cycles
 Normal termination of Gaussian 16 at Tue Apr  8 22:39:37 2025.
 Gaussian 16:  ES64L-G16RevC.01  3-Jul-2019

 ----------------------------------------------------------------------
 #t hf aug-cc-pvdz iop(5/13=1,5/36=2,99/5=2) pseudo=read geom=check gue
 ss=(read,tcheck) scf=(maxcycle=1)
 ----------------------------------------------------------------------
 -----
 title
 -----
 Structure from the checkpoint file:  "BDE49_expt_1347_mol1.chk"
 Charge =  0 Multiplicity = 1

                         Standard orientation:
 ---------------------------------------------------------------------
 Center     Atomic      Atomic             Coordinates (Angstroms)
 Number     Number       Type             X           Y           Z
 ---------------------------------------------------------------------
      1          7           0        0.087285    1.413923   -0.431336
      2          6           0        1.079472   -0.886357   -0.583343
      3          6           0       -1.414979   -0.490587   -0.304544
      4          6           0       -0.008252    0.027469    0.012714
      5          1           0        1.001746   -0.930833   -1.673595
      6          1           0        0.998485   -1.911452   -0.203743
      7          1           0        2.067620   -0.501109   -0.319556
      8          1           0        0.992868    1.787236   -0.160974
      9          1           0        0.023149    1.461513   -1.443005
     10          1           0       -1.602985   -0.502040   -1.382664
     11          1           0       -2.145920    0.161096    0.174295
     12          1           0       -1.545329   -1.510688    0.068552
     13          8           0        0.179298    0.115842    1.429580
     14          1           0        0.227535   -0.781068    1.774436
 ---------------------------------------------------------------------

 SCF Done:  E(RHF) =  -248.268952731     A.U. after    2 cycles

 The electronic state is 1-A.
 Alpha  occ. eigenvalues --  -20.56887 -15.60457 -11.32674 -11.23229 -11.22503
 Alpha  occ. eigenvalues --   -1.32919  -1.14487  -1.00104  -0.94254  -0.80306
 Alpha  occ. eigenvalues --   -0.69450  -0.65544  -0.62684  -0.59046  -0.58657
 Alpha  occ. eigenvalues --   -0.55726  -0.53145  -0.51727  -0.50526  -0.45957
 Alpha  occ. eigenvalues --   -0.38910
 Alpha virt. eigenvalues --    0.03148   0.04273   0.04583   0.05217   0.06951
 Alpha virt. eigenvalues --    0.07088   0.07486   0.07697   0.08423   0.12730
 Alpha virt. eigenvalues --    0.14069   0.15301   0.15535   0.16178   0.16358

 Mulliken charges:
               1
     1  N   -0.276328
     2  C    0.933447
     3  C    0.907710
     4  C   -1.062936
     5  H   -0.004095
     6  H   -0.073258
     7  H    0.003285
     8  H   -0.016108
     9  H    0.036599
    10  H   -0.012435
    11  H   -0.002355
    12  H   -0.035284
    13  O   -0.545430
    14  H    0.147188
 Sum of Mulliken charges =  -0.00000

 Dipole moment (field-independent basis, Debye):
    X=              0.8599    Y=             -2.1378    Z=             -1.6953  Tot=              2.8607

 Test job not archived.
 1\1\GINC-SE454\SP\RHF\Aug-CC-pVDZ\C3H9N1O1\OHZDE\08-Apr-2025\0\\#t hf
 aug-cc-pvdz iop(5/13=1,5/36=2,99/5=2) pseudo=read geom=check guess=(re
 ad,tcheck) scf=(maxcycle=1)\\title\\0,1\N,0,0.087282,1.413923,-0.43133
 6\C,0,1.079474,-0.886354,-0.583343\C,0,-1.414978,-0.49059,-0.304544\C,
 0,-0.008252,0.027469,0.012714\H,0,1.001748,-0.930831,-1.673595\H,0,0.9
 98489,-1.91145,-0.203743\H,0,2.067621,-0.501104,-0.319556\H,0,0.992864
 ,1.787238,-0.160974\H,0,0.023145,1.461513,-1.443005\H,0,-1.602984,-0.5
 02044,-1.382664\H,0,-2.14592,0.161091,0.174295\H,0,-1.545325,-1.510692

 Normal termination of Gaussian 16 at Tue Apr  8 22:39:40 2025.
