 Gaussian 16, Revision C.01,

 ----------------------------------------------------------------------
 #t hf aug-cc-pvdz symm=none int=(grid=ultrafine) guess=(read,tcheck) s
 table=(opt,rrhf)
 ----------------------------------------------------------------------
 -----
 title
 -----
 Symbolic Z-matrix:
 Charge =  0 Multiplicity = 1

 SCF Done:  E(RHF) =  -676.431447716     A.U. after   15 cycles
 Normal termination of Gaussian 16 at Tue Apr  8 23:07:40 2025.
 Gaussian 16:  ES64L-G16RevC.01  3-Jul-2019

 ----------------------------------------------------------------------
 #t hf aug-cc-pvdz iop(5/13=1,5/36=2,99/5=2) pseudo=read geom=check gue
 ss=(read,tcheck) scf=(maxcycle=1)
 ----------------------------------------------------------------------
 -----
 title
 -----
 Structure from the checkpoint file:  "BDE49_expt_451_mol1.chk"
 Charge =  0 Multiplicity = 1

                         Standard orientation:
 ---------------------------------------------------------------------
 Center     Atomic      Atomic             Coordinates (Angstroms)
 Number     Number       Type             X           Y           Z
 ---------------------------------------------------------------------
      1          6           0       -0.205548    1.294089   -0.015030
      2          6           0        1.174524    1.411732   -0.021869
      3          6           0       -0.807813    0.034442   -0.052265
      4          6           0       -0.001243   -1.103813   -0.093299
      5          6           0        1.381976   -0.997013   -0.101768
      6          6           0        1.989738    0.267000   -0.066002
      7          1           0        1.631060    2.396301   -0.000334
      8          1           0       -0.820878    2.184864    0.012605
      9          1           0       -0.460519   -2.084121   -0.127224
     10          1           0        2.010066   -1.875694   -0.136137
     11          7           0        3.370916    0.422073   -0.126103
     12          7           0        4.183167   -0.691255    0.148246
     13          1           0        4.971927   -0.696902   -0.486871
     14          1           0        4.519197   -0.686486    1.108367
     15          1           0        3.710004    1.322800    0.189068
     16          6           0       -2.296766   -0.090564    0.017134
     17          9           0       -2.926966    0.954691   -0.569911
     18          9           0       -2.753515   -0.135291    1.296397
     19          9           0       -2.747147   -1.216258   -0.583806
 ---------------------------------------------------------------------

 SCF Done:  E(RHF) =  -676.650866708     A.U. after    2 cycles

 The electronic state is 1-A.
 Alpha  occ. eigenvalues --  -26.15067 -26.15031 -26.14427 -15.67584 -15.66698
 Alpha  occ. eigenvalues --  -11.51468 -11.30765 -11.26669 -11.26476 -11.25602
 Alpha  occ. eigenvalues --  -11.24989 -11.24249  -1.74173  -1.67421  -1.66811
 Alpha  occ. eigenvalues --   -1.27801  -1.16402  -1.09173  -1.03139  -1.02378
 Alpha  occ. eigenvalues --   -0.96238  -0.87464  -0.86602  -0.85823  -0.83982
 Alpha  occ. eigenvalues --   -0.79627  -0.75761  -0.75531  -0.73078  -0.71338
 Alpha  occ. eigenvalues --   -0.70827  -0.70799  -0.69903  -0.69254  -0.66215
 Alpha  occ. eigenvalues --   -0.62355  -0.61430  -0.60252  -0.54638  -0.53857
 Alpha  occ. eigenvalues --   -0.51071  -0.45712  -0.43873  -0.35641  -0.31301
 Alpha virt. eigenvalues --    0.02182   0.03288   0.04327   0.04455   0.05671
 Alpha virt. eigenvalues --    0.06518   0.08280   0.09546   0.09604   0.10072
 Alpha virt. eigenvalues --    0.10774   0.11194   0.13135   0.13505   0.13952

 Mulliken charges:
               1
     1  C    0.033276
     2  C    0.717147
     3  C    1.162641
     4  C   -0.015272
     5  C    0.593123
     6  C    0.577229
     7  H   -0.589359
     8  H   -0.559416
     9  H   -0.554516
    10  H   -0.601290
    11  N   -0.434511
    12  N   -0.206123
    13  H    0.106889
    14  H    0.071220
    15  H   -0.033191
    16  C    0.742961
    17  F   -0.337979
    18  F   -0.341424
    19  F   -0.331404
 Sum of Mulliken charges =  -0.00000

 Dipole moment (field-independent basis, Debye):
    X=              6.2458    Y=              1.1667    Z=              0.7819  Tot=              6.4018

 Test job not archived.
 1\1\GINC-SE118\SP\RHF\Aug-CC-pVDZ\C7H7F3N2\OHZDE\08-Apr-2025\0\\#t hf
 aug-cc-pvdz iop(5/13=1,5/36=2,99/5=2) pseudo=read geom=check guess=(re
 ad,tcheck) scf=(maxcycle=1)\\title\\0,1\C,0,-0.205548,1.294089,-0.0150
 3\C,0,1.174524,1.411732,-0.021869\C,0,-0.807813,0.034442,-0.052265\C,0
 ,-0.001243,-1.103813,-0.093299\C,0,1.381976,-0.997013,-0.101768\C,0,1.
 989738,0.267,-0.066002\H,0,1.63106,2.396301,-0.000334\H,0,-0.820878,2.
 184864,0.012605\H,0,-0.460519,-2.084121,-0.127224\H,0,2.010066,-1.8756
 94,-0.136137\N,0,3.370916,0.422073,-0.126103\N,0,4.183167,-0.691255,0.

 Normal termination of Gaussian 16 at Tue Apr  8 23:07:52 2025.
