 Gaussian 16, Revision C.01,

 ----------------------------------------------------------------------
 #t hf aug-cc-pvdz symm=none int=(grid=ultrafine) guess=(read,tcheck) s
 table=(opt,rrhf)
 ----------------------------------------------------------------------
 -----
 title
 -----
 Symbolic Z-matrix:
 Charge =  0 Multiplicity = 1

 SCF Done:  E(RHF) =  -1090.86822966     A.U. after   16 cycles
 Normal termination of Gaussian 16 at Tue Apr  8 22:49:19 2025.
 Gaussian 16:  ES64L-G16RevC.01  3-Jul-2019

 ----------------------------------------------------------------------
 #t hf aug-cc-pvdz iop(5/13=1,5/36=2,99/5=2) pseudo=read geom=check gue
 ss=(read,tcheck) scf=(maxcycle=1)
 ----------------------------------------------------------------------
 -----
 title
 -----
 Structure from the checkpoint file:  "BDE49_expt_1535_mol1.chk"
 Charge =  0 Multiplicity = 1

                         Standard orientation:
 ---------------------------------------------------------------------
 Center     Atomic      Atomic             Coordinates (Angstroms)
 Number     Number       Type             X           Y           Z
 ---------------------------------------------------------------------
      1          6           0       -0.677982    0.339081   -0.401267
      2          6           0        0.695219   -0.376088   -0.347770
      3          7           0        0.980911   -1.151931    0.978155
      4          8           0        1.918192   -0.786583    1.640825
      5          8           0        0.237086   -2.090519    1.145791
      6          7           0        1.843967    0.656817   -0.544038
      7          7           0       -0.946860    1.292360    0.779401
      8          7           0       -1.871968   -0.709824   -0.407040
      9          8           0       -0.535652    0.910325    1.853373
     10          8           0       -1.570580    2.286485    0.509960
     11          8           0       -2.068291   -1.208966   -1.486236
     12          8           0       -2.459503   -0.869720    0.633352
     13          9           0        0.764354   -1.266468   -1.330144
     14          9           0       -0.754737    1.005869   -1.544937
     15          8           0        1.646893    1.750109   -0.057549
     16          8           0        2.802816    0.253305   -1.148940
 ---------------------------------------------------------------------

 SCF Done:  E(RHF) =  -1091.20790315     A.U. after    2 cycles

 The electronic state is 1-A.
 Alpha  occ. eigenvalues --  -26.26669 -26.26668 -20.70576 -20.70312 -20.70061
 Alpha  occ. eigenvalues --  -20.70027 -20.69942 -20.69941 -20.69922 -20.69521
 Alpha  occ. eigenvalues --  -16.00656 -16.00599 -16.00459 -16.00289 -11.57700
 Alpha  occ. eigenvalues --  -11.57455  -1.82405  -1.81172  -1.64746  -1.64111
 Alpha  occ. eigenvalues --   -1.63307  -1.62986  -1.46342  -1.46302  -1.46118
 Alpha  occ. eigenvalues --   -1.45741  -1.25417  -1.16095  -1.04424  -1.03447
 Alpha  occ. eigenvalues --   -0.99532  -0.95457  -0.93587  -0.90753  -0.90156
 Alpha  occ. eigenvalues --   -0.89066  -0.88758  -0.85099  -0.83021  -0.82472
 Alpha  occ. eigenvalues --   -0.81674  -0.81478  -0.81232  -0.81049  -0.80447
 Alpha  occ. eigenvalues --   -0.79570  -0.78910  -0.78568  -0.75541  -0.61793
 Alpha  occ. eigenvalues --   -0.60634  -0.60333  -0.60231  -0.59642  -0.58346
 Alpha  occ. eigenvalues --   -0.56911  -0.55941  -0.55600  -0.54493  -0.53778
 Alpha  occ. eigenvalues --   -0.53711
 Alpha virt. eigenvalues --   -0.00501   0.00198   0.00698   0.01473   0.05441
 Alpha virt. eigenvalues --    0.06376   0.08299   0.08419   0.10770   0.11041
 Alpha virt. eigenvalues --    0.11100   0.12652   0.12803   0.13772   0.14920

 Mulliken charges:
               1
     1  C    1.780861
     2  C    1.758525
     3  N    0.271365
     4  O   -0.510659
     5  O   -0.536650
     6  N    0.168147
     7  N    0.271235
     8  N    0.213795
     9  O   -0.550429
    10  O   -0.501664
    11  O   -0.484206
    12  O   -0.496915
    13  F   -0.192590
    14  F   -0.209276
    15  O   -0.519637
    16  O   -0.461900
 Sum of Mulliken charges =  -0.00000

 Dipole moment (field-independent basis, Debye):
    X=              0.1756    Y=             -0.0792    Z=             -1.5783  Tot=              1.5900

 Test job not archived.
 1\1\GINC-SE435\SP\RHF\Aug-CC-pVDZ\C2F2N4O8\OHZDE\08-Apr-2025\0\\#t hf
 aug-cc-pvdz iop(5/13=1,5/36=2,99/5=2) pseudo=read geom=check guess=(re
 ad,tcheck) scf=(maxcycle=1)\\title\\0,1\C,0,-0.677982,0.339081,-0.4012
 67\C,0,0.695219,-0.376088,-0.34777\N,0,0.980911,-1.151931,0.978155\O,0
 ,1.918192,-0.786583,1.640825\O,0,0.237086,-2.090519,1.145791\N,0,1.843
 967,0.656817,-0.544038\N,0,-0.94686,1.29236,0.779401\N,0,-1.871968,-0.
 709824,-0.40704\O,0,-0.535652,0.910325,1.853373\O,0,-1.57058,2.286485,
 0.50996\O,0,-2.068291,-1.208966,-1.486236\O,0,-2.459503,-0.86972,0.633

 Normal termination of Gaussian 16 at Tue Apr  8 22:49:33 2025.
