 Gaussian 16, Revision C.01,

 ----------------------------------------------------------------------
 #t hf aug-cc-pvdz symm=none int=(grid=ultrafine) guess=(read,tcheck) s
 table=(opt,rrhf)
 ----------------------------------------------------------------------
 -----
 title
 -----
 Symbolic Z-matrix:
 Charge =  0 Multiplicity = 1

 SCF Done:  E(RHF) =  -1914.04736455     A.U. after   14 cycles
 Normal termination of Gaussian 16 at Tue Apr  8 23:46:14 2025.
 Gaussian 16:  ES64L-G16RevC.01  3-Jul-2019

 ----------------------------------------------------------------------
 #t hf aug-cc-pvdz iop(5/13=1,5/36=2,99/5=2) pseudo=read geom=check gue
 ss=(read,tcheck) scf=(maxcycle=1)
 ----------------------------------------------------------------------
 -----
 title
 -----
 Structure from the checkpoint file:  "BDE49_nonexpt_1785_mol1.chk"
 Charge =  0 Multiplicity = 1

                         Standard orientation:
 ---------------------------------------------------------------------
 Center     Atomic      Atomic             Coordinates (Angstroms)
 Number     Number       Type             X           Y           Z
 ---------------------------------------------------------------------
      1         14           0       -0.724830    0.009431   -0.000001
      2          6           0        1.050679    0.767751    0.000002
      3         17           0       -1.082042   -1.145734    1.679139
      4         17           0       -1.082033   -1.145742   -1.679137
      5         17           0       -2.060438    1.554111   -0.000007
      6          7           0        2.168839   -0.008363    0.000004
      7          6           0        2.179937   -1.461941    0.000002
      8          8           0        1.068459    1.990132    0.000001
      9          1           0        2.695933   -1.838557   -0.889072
     10          1           0        1.171010   -1.866963    0.000015
     11          1           0        2.695953   -1.838557    0.889064
     12          6           0        3.478035    0.640035    0.000003
     13          1           0        3.332037    1.717121    0.000000
     14          1           0        4.043985    0.346269   -0.889598
     15          1           0        4.043984    0.346274    0.889606
 ---------------------------------------------------------------------

 SCF Done:  E(RHF) =  -1914.20709742     A.U. after    2 cycles

 The electronic state is 1-A.
 Alpha  occ. eigenvalues -- -103.68251-103.68251-103.67247 -69.21896 -20.56141
 Alpha  occ. eigenvalues --  -15.67762 -11.38097 -11.29894 -11.28202 -10.71677
 Alpha  occ. eigenvalues --  -10.71664 -10.70701  -8.37369  -8.37363  -8.37130
 Alpha  occ. eigenvalues --   -8.37128  -8.37127  -8.37122  -8.36401  -8.36152
 Alpha  occ. eigenvalues --   -8.36147  -6.95759  -4.06584  -4.06568  -4.06430
 Alpha  occ. eigenvalues --   -1.36773  -1.23478  -1.18659  -1.15548  -1.14965
 Alpha  occ. eigenvalues --   -0.99267  -0.95895  -0.79320  -0.73669  -0.68670
 Alpha  occ. eigenvalues --   -0.67544  -0.66889  -0.59976  -0.59546  -0.59018
 Alpha  occ. eigenvalues --   -0.58054  -0.58023  -0.56016  -0.55488  -0.52673
 Alpha  occ. eigenvalues --   -0.51811  -0.51059  -0.49245  -0.48541  -0.47762
 Alpha  occ. eigenvalues --   -0.43002  -0.39492
 Alpha virt. eigenvalues --    0.02833   0.04237   0.04336   0.05515   0.06834
 Alpha virt. eigenvalues --    0.06907   0.07415   0.07654   0.08196   0.09197
 Alpha virt. eigenvalues --    0.09236   0.10757   0.12522   0.12948   0.13183

 Mulliken charges:
               1
     1  Si   1.496107
     2  C   -0.073822
     3  Cl  -0.482555
     4  Cl  -0.482554
     5  Cl  -0.443763
     6  N   -0.190013
     7  C    0.853477
     8  O   -0.541889
     9  H   -0.097617
    10  H   -0.329638
    11  H   -0.097621
    12  C    0.785228
    13  H   -0.240092
    14  H   -0.077621
    15  H   -0.077624
 Sum of Mulliken charges =  -0.00000

 Dipole moment (field-independent basis, Debye):
    X=              3.1280    Y=             -3.2544    Z=              0.0000  Tot=              4.5140

 Test job not archived.
 1\1\GINC-SE334\SP\RHF\Aug-CC-pVDZ\C3H6Cl3N1O1Si1\OHZDE\08-Apr-2025\0\\
 #t hf aug-cc-pvdz iop(5/13=1,5/36=2,99/5=2) pseudo=read geom=check gue
 ss=(read,tcheck) scf=(maxcycle=1)\\title\\0,1\Si,0,-0.72483,0.009431,-
 0.000001\C,0,1.050679,0.767751,0.000002\Cl,0,-1.082042,-1.145734,1.679
 139\Cl,0,-1.082033,-1.145742,-1.679137\Cl,0,-2.060438,1.554111,-0.0000
 07\N,0,2.168839,-0.008363,0.000004\C,0,2.179937,-1.461941,0.000002\O,0
 ,1.068459,1.990132,0.000001\H,0,2.695933,-1.838557,-0.889072\H,0,1.171
 01,-1.866963,0.000015\H,0,2.695953,-1.838557,0.889064\C,0,3.478035,0.6

 Normal termination of Gaussian 16 at Tue Apr  8 23:46:22 2025.
