 Gaussian 16, Revision C.01,

 ----------------------------------------------------------------------
 #t hf aug-cc-pvdz symm=none int=(grid=ultrafine) guess=(read,tcheck) s
 table=opt
 ----------------------------------------------------------------------
 -----
 title
 -----
 Symbolic Z-matrix:
 Charge =  0 Multiplicity = 2

 SCF Done:  E(UHF) =  -437.127920326     A.U. after   15 cycles
 Normal termination of Gaussian 16 at Tue Apr  8 22:44:26 2025.
 Gaussian 16:  ES64L-G16RevC.01  3-Jul-2019

 ----------------------------------------------------------------------
 #t hf aug-cc-pvdz iop(5/13=1,5/36=2,99/5=2) pseudo=read geom=check gue
 ss=(read,tcheck) scf=(maxcycle=1)
 ----------------------------------------------------------------------
 -----
 title
 -----
 Structure from the checkpoint file:  "BDE49_expt_1561_mol2.chk"
 Charge =  0 Multiplicity = 2

                         Standard orientation:
 ---------------------------------------------------------------------
 Center     Atomic      Atomic             Coordinates (Angstroms)
 Number     Number       Type             X           Y           Z
 ---------------------------------------------------------------------
      1         16           0       -0.694478    0.000001   -0.001970
      2          6           0        1.111007    0.000004   -0.008869
      3          1           0        1.510907    0.899423   -0.478681
      4          1           0        1.510888   -0.899275   -0.478969
      5          1           0        1.423805   -0.000180    1.042379
 ---------------------------------------------------------------------

 SCF Done:  E(UHF) =  -437.160181104     A.U. after    2 cycles

 The electronic state is 2-A.
 Alpha  occ. eigenvalues --  -93.55237 -11.27472  -8.84960  -6.20294  -6.18602
 Alpha  occ. eigenvalues --   -6.18152  -1.03879  -0.85289  -0.60778  -0.60258
 Alpha  occ. eigenvalues --   -0.49782  -0.42809  -0.36939
 Alpha virt. eigenvalues --    0.03526   0.05856   0.05896   0.07304   0.12318
 Alpha virt. eigenvalues --    0.13589   0.14369   0.15033   0.16005   0.16338
 Alpha virt. eigenvalues --    0.23755   0.26085   0.26522   0.26631   0.32856

  Beta  occ. eigenvalues --  -93.54337 -11.27602  -8.83957  -6.18071  -6.17602
  Beta  occ. eigenvalues --   -6.16340  -1.00828  -0.78504  -0.60033  -0.58390
  Beta  occ. eigenvalues --   -0.48179  -0.34700
  Beta virt. eigenvalues --    0.01901   0.03562   0.05903   0.06046   0.07500
  Beta virt. eigenvalues --    0.12482   0.14472   0.14649   0.16118   0.16614
  Beta virt. eigenvalues --    0.16792   0.24715   0.26747   0.26911   0.27604

 Mulliken charges and spin densities:
               1          2
     1  S    0.159409   1.080500
     2  C    0.021732  -0.110217
     3  H   -0.063808   0.002913
     4  H   -0.063803   0.002917
     5  H   -0.053531   0.023887
 Sum of Mulliken charges =  -0.00000   1.00000

 Dipole moment (field-independent basis, Debye):
    X=              1.7310    Y=             -0.0000    Z=              0.0353  Tot=              1.7313
                          Isotropic Fermi Contact Couplings
        Atom                 a.u.       MegaHertz       Gauss      10(-4) cm-1
     1  S(33)              0.19274      66.20203      23.62253      22.08262
     2  C(13)             -0.02713     -30.50444     -10.88474     -10.17519
     3  H(1)               0.00408      18.22131       6.50182       6.07798
     4  H(1)               0.00408      18.23385       6.50629       6.08216
     5  H(1)               0.01751      78.24783      27.92077      26.10067
 --------------------------------------------------------
       Center         ----  Spin Dipole Couplings  ----
                      3XX-RR        3YY-RR        3ZZ-RR

 Normal termination of Gaussian 16 at Tue Apr  8 22:44:27 2025.
