 Gaussian 16, Revision C.01,

 ----------------------------------------------------------------------
 #t hf aug-cc-pvdz symm=none int=(grid=ultrafine) guess=(read,tcheck) s
 table=(opt,rrhf)
 ----------------------------------------------------------------------
 -----
 title
 -----
 Symbolic Z-matrix:
 Charge =  0 Multiplicity = 1

 SCF Done:  E(RHF) =  -535.739457697     A.U. after   12 cycles

 1\1\GINC-SE141\Stability\RHF\Aug-CC-pVDZ\C2H1Cl1\OHZDE\08-Apr-2025\0\\
 #t hf aug-cc-pvdz symm=none int=(grid=ultrafine) guess=(read,tcheck) s
 table=(opt,rrhf)\\title\\0,1\C,0,0.,0.617259,0.\Cl,0,-0.021855,-1.0281
 32,0.\C,0,0.043928,1.816389,0.\H,0,0.107957,2.876366,0.\\Version=ES64L
 -G16RevC.01\HF=-535.7394577\RMSD=5.904e-09\Dipole=0.0268354,0.2463097,
 0.\Quadrupole=-1.926237,3.8633304,-1.9370935,0.2490388,0.,0.\PG=Unknow
 n\\@
 The archive entry for this job was punched.

 Normal termination of Gaussian 16 at Tue Apr  8 22:46:26 2025.
 Gaussian 16:  ES64L-G16RevC.01  3-Jul-2019

 ----------------------------------------------------------------------
 #t hf aug-cc-pvdz iop(5/13=1,5/36=2,99/5=2) pseudo=read geom=check gue
 ss=(read,tcheck) scf=(maxcycle=1)
 ----------------------------------------------------------------------
 -----
 title
 -----
 Structure from the checkpoint file:  "BDE49_expt_1621_mol1.chk"
 Charge =  0 Multiplicity = 1

                         Standard orientation:
 ---------------------------------------------------------------------
 Center     Atomic      Atomic             Coordinates (Angstroms)
 Number     Number       Type             X           Y           Z
 ---------------------------------------------------------------------
      1          6           0       -0.000000    0.617259   -0.000000
      2         17           0       -0.021854   -1.028132    0.000000
      3          6           0        0.043927    1.816389   -0.000000
      4          1           0        0.107956    2.876366   -0.000000
 ---------------------------------------------------------------------

 SCF Done:  E(RHF) =  -535.786571863     A.U. after    2 cycles

 The electronic state is 1-A'.
 Alpha  occ. eigenvalues -- -103.71934 -11.31099 -11.26481 -10.75075  -8.40854
 Alpha  occ. eigenvalues --   -8.40474  -8.40474  -1.23001  -1.02892  -0.75451
 Alpha  occ. eigenvalues --   -0.68293  -0.56194  -0.56193  -0.40409  -0.40408
 Alpha virt. eigenvalues --    0.03581   0.06727   0.10116   0.10335   0.10339
 Alpha virt. eigenvalues --    0.14108   0.14112   0.16277   0.16664   0.16943
 Alpha virt. eigenvalues --    0.16950   0.22454   0.22766   0.22939   0.25878

 Mulliken charges:
               1
     1  C   -0.481073
     2  Cl  -0.058323
     3  C    0.813059
     4  H   -0.273664
 Sum of Mulliken charges =  -0.00000

 Dipole moment (field-independent basis, Debye):
    X=              0.0699    Y=              0.7099    Z=             -0.0000  Tot=              0.7134

 Test job not archived.
 1\1\GINC-SE141\SP\RHF\Aug-CC-pVDZ\C2H1Cl1\OHZDE\08-Apr-2025\0\\#t hf a
 ug-cc-pvdz iop(5/13=1,5/36=2,99/5=2) pseudo=read geom=check guess=(rea
 d,tcheck) scf=(maxcycle=1)\\title\\0,1\C,0,0.,0.617259,0.\Cl,0,-0.0218
 55,-1.028132,0.\C,0,0.043928,1.816389,0.\H,0,0.107957,2.876366,0.\\Ver
 sion=ES64L-G16RevC.01\State=1-A'\HF=-535.7865719\RMSD=9.963e-03\Dipole
 =0.0274968,0.2793057,0.\Quadrupole=-1.9556243,3.9220856,-1.9664613,0.2
 505555,0.,0.\PG=CS [SG(C2H1Cl1)]\\@

 Normal termination of Gaussian 16 at Tue Apr  8 22:46:28 2025.
