 Gaussian 16, Revision C.01,

 ----------------------------------------------------------------------
 #t hf aug-cc-pvdz symm=none int=(grid=ultrafine) guess=(read,tcheck) s
 table=(opt,rrhf)
 ----------------------------------------------------------------------
 -----
 title
 -----
 Symbolic Z-matrix:
 Charge =  0 Multiplicity = 1

 SCF Done:  E(RHF) =  -1466.17088403     A.U. after   13 cycles

 1\1\GINC-SE340\Stability\RHF\Aug-CC-pVDZ\Cl2O2S1\OHZDE\08-Apr-2025\0\\
 #t hf aug-cc-pvdz symm=none int=(grid=ultrafine) guess=(read,tcheck) s
 table=(opt,rrhf)\\title\\0,1\S,0,-0.000001,0.52507,0.\Cl,0,-0.000001,-
 0.809411,1.591676\Cl,0,-0.000001,-0.809411,-1.591676\O,0,-1.258337,1.1
 94936,0.\O,0,1.25834,1.194921,0.\\Version=ES64L-G16RevC.01\HF=-1466.17
 0884\RMSD=3.337e-09\Dipole=-0.0000018,-0.7876412,0.\Quadrupole=-3.0695
 785,-0.332729,3.4023074,0.0000099,0.,0.\PG=Unknown\\@
 The archive entry for this job was punched.

 Normal termination of Gaussian 16 at Tue Apr  8 22:58:36 2025.
 Gaussian 16:  ES64L-G16RevC.01  3-Jul-2019

 ----------------------------------------------------------------------
 #t hf aug-cc-pvdz iop(5/13=1,5/36=2,99/5=2) pseudo=read geom=check gue
 ss=(read,tcheck) scf=(maxcycle=1)
 ----------------------------------------------------------------------
 -----
 title
 -----
 Structure from the checkpoint file:  "BDE49_expt_1977_mol1.chk"
 Charge =  0 Multiplicity = 1

                         Standard orientation:
 ---------------------------------------------------------------------
 Center     Atomic      Atomic             Coordinates (Angstroms)
 Number     Number       Type             X           Y           Z
 ---------------------------------------------------------------------
      1         16           0       -0.000001    0.525070   -0.000000
      2         17           0       -0.000001   -0.809411    1.591676
      3         17           0       -0.000001   -0.809411   -1.591676
      4          8           0       -1.258337    1.194936   -0.000000
      5          8           0        1.258340    1.194921   -0.000000
 ---------------------------------------------------------------------

 SCF Done:  E(RHF) =  -1466.33556747     A.U. after    2 cycles

 The electronic state is 1-A'.
 Alpha  occ. eigenvalues -- -103.73215-103.73214 -93.90004 -20.64141 -20.64140
 Alpha  occ. eigenvalues --  -10.76506 -10.76491  -9.16028  -8.42216  -8.42209
 Alpha  occ. eigenvalues --   -8.41836  -8.41833  -8.41823  -8.41823  -6.50576
 Alpha  occ. eigenvalues --   -6.50385  -6.50298  -1.50827  -1.39442  -1.22539
 Alpha  occ. eigenvalues --   -1.19769  -0.89846  -0.76195  -0.75510  -0.72970
 Alpha  occ. eigenvalues --   -0.60925  -0.59483  -0.59214  -0.55832  -0.53588
 Alpha  occ. eigenvalues --   -0.52726  -0.52056  -0.51606
 Alpha virt. eigenvalues --   -0.01548   0.06621   0.06968   0.09027   0.09314
 Alpha virt. eigenvalues --    0.10543   0.13557   0.13875   0.14432   0.15128
 Alpha virt. eigenvalues --    0.16185   0.17645   0.18756   0.21897   0.22863

 Mulliken charges:
               1
     1  S    1.656348
     2  Cl  -0.101790
     3  Cl  -0.101790
     4  O   -0.726385
     5  O   -0.726382
 Sum of Mulliken charges =  -0.00000

 Dipole moment (field-independent basis, Debye):
    X=             -0.0000    Y=             -2.1934    Z=              0.0000  Tot=              2.1934

 Test job not archived.
 1\1\GINC-SE340\SP\RHF\Aug-CC-pVDZ\Cl2O2S1\OHZDE\08-Apr-2025\0\\#t hf a
 ug-cc-pvdz iop(5/13=1,5/36=2,99/5=2) pseudo=read geom=check guess=(rea
 d,tcheck) scf=(maxcycle=1)\\title\\0,1\S,0,-0.000001,0.52507,0.\Cl,0,-
 0.000001,-0.809411,1.591676\Cl,0,-0.000001,-0.809411,-1.591676\O,0,-1.
 258337,1.194936,0.\O,0,1.25834,1.194921,0.\\Version=ES64L-G16RevC.01\S
 tate=1-A'\HF=-1466.3355675\RMSD=4.334e-03\Dipole=-0.0000016,-0.8629693
 ,0.\Quadrupole=-3.2611855,-0.3683408,3.6295263,0.0000119,0.,0.\PG=CS [
 SG(O2S1),X(Cl2)]\\@

 Normal termination of Gaussian 16 at Tue Apr  8 22:58:38 2025.
