 Gaussian 16, Revision C.01,

 ----------------------------------------------------------------------
 #t hf aug-cc-pvdz symm=none int=(grid=ultrafine) guess=(read,tcheck) s
 table=(opt,rrhf)
 ----------------------------------------------------------------------
 -----
 title
 -----
 Symbolic Z-matrix:
 Charge =  0 Multiplicity = 1

 SCF Done:  E(RHF) =  -742.155341144     A.U. after   16 cycles
 Normal termination of Gaussian 16 at Tue Apr  8 23:14:00 2025.
 Gaussian 16:  ES64L-G16RevC.01  3-Jul-2019

 ----------------------------------------------------------------------
 #t hf aug-cc-pvdz iop(5/13=1,5/36=2,99/5=2) pseudo=read geom=check gue
 ss=(read,tcheck) scf=(maxcycle=1)
 ----------------------------------------------------------------------
 -----
 title
 -----
 Structure from the checkpoint file:  "BDE49_expt_856_mol1.chk"
 Charge =  0 Multiplicity = 1

                         Standard orientation:
 ---------------------------------------------------------------------
 Center     Atomic      Atomic             Coordinates (Angstroms)
 Number     Number       Type             X           Y           Z
 ---------------------------------------------------------------------
      1          6           0        1.380485    0.277019    0.002457
      2          6           0        0.549356    1.405417   -0.002865
      3          6           0       -0.828038    1.258336   -0.012480
      4          6           0        0.810289   -0.998996   -0.003617
      5          6           0       -0.578212   -1.135382   -0.009130
      6          6           0       -1.408258   -0.016836   -0.004762
      7          8           0        2.717557    0.528397    0.008966
      8          1           0        1.010573    2.385494   -0.005302
      9          1           0       -1.464690    2.134484   -0.027181
     10          1           0        1.427279   -1.887267   -0.005472
     11          1           0       -1.017564   -2.125423   -0.016292
     12         16           0       -3.194944   -0.210519   -0.072075
     13          1           0       -3.432893   -0.143985    1.251587
     14          6           0        3.617109   -0.572508    0.007476
     15          1           0        3.489121   -1.196338    0.898898
     16          1           0        4.615589   -0.138969    0.012450
     17          1           0        3.494850   -1.189164   -0.889684
 ---------------------------------------------------------------------

 SCF Done:  E(RHF) =  -742.280634212     A.U. after    2 cycles

 The electronic state is 1-A.
 Alpha  occ. eigenvalues --  -93.53903 -20.60777 -11.32250 -11.30379 -11.27155
 Alpha  occ. eigenvalues --  -11.26050 -11.25876 -11.24915 -11.24496  -8.83582
 Alpha  occ. eigenvalues --   -6.17785  -6.17574  -6.17238  -1.37789  -1.15304
 Alpha  occ. eigenvalues --   -1.04497  -1.02450  -0.97016  -0.91421  -0.84669
 Alpha  occ. eigenvalues --   -0.80374  -0.73518  -0.68537  -0.67308  -0.64954
 Alpha  occ. eigenvalues --   -0.62812  -0.60374  -0.59591  -0.55637  -0.53898
 Alpha  occ. eigenvalues --   -0.53320  -0.49800  -0.49098  -0.45839  -0.36551
 Alpha  occ. eigenvalues --   -0.35341  -0.32445
 Alpha virt. eigenvalues --    0.03139   0.04157   0.04223   0.05351   0.05723
 Alpha virt. eigenvalues --    0.06033   0.06845   0.08601   0.09029   0.09360
 Alpha virt. eigenvalues --    0.09773   0.11112   0.11344   0.12932   0.13575

 Mulliken charges:
               1
     1  C    0.198441
     2  C    0.820434
     3  C    0.287238
     4  C    0.658419
     5  C    0.126828
     6  C    0.112314
     7  O   -0.681640
     8  H   -0.568820
     9  H   -0.449341
    10  H   -0.727405
    11  H   -0.451151
    12  S    0.250129
    13  H    0.074163
    14  C    0.824070
    15  H   -0.085984
    16  H   -0.301911
    17  H   -0.085784
 Sum of Mulliken charges =  -0.00000

 Dipole moment (field-independent basis, Debye):
    X=              2.2065    Y=             -1.1339    Z=              0.7879  Tot=              2.6029

 Test job not archived.
 1\1\GINC-SE103\SP\RHF\Aug-CC-pVDZ\C7H8O1S1\OHZDE\08-Apr-2025\0\\#t hf
 aug-cc-pvdz iop(5/13=1,5/36=2,99/5=2) pseudo=read geom=check guess=(re
 ad,tcheck) scf=(maxcycle=1)\\title\\0,1\C,0,1.380485,0.277019,0.002457
 \C,0,0.549356,1.405417,-0.002865\C,0,-0.828038,1.258336,-0.01248\C,0,0
 .810289,-0.998996,-0.003617\C,0,-0.578212,-1.135382,-0.00913\C,0,-1.40
 8258,-0.016836,-0.004762\O,0,2.717557,0.528397,0.008966\H,0,1.010573,2
 .385494,-0.005302\H,0,-1.46469,2.134484,-0.027181\H,0,1.427279,-1.8872
 67,-0.005472\H,0,-1.017564,-2.125423,-0.016292\S,0,-3.194944,-0.210519

 Normal termination of Gaussian 16 at Tue Apr  8 23:14:10 2025.
