 Gaussian 16, Revision C.01,

 ----------------------------------------------------------------------
 #t hf aug-cc-pvdz symm=none int=(grid=ultrafine) guess=(read,tcheck) s
 table=(opt,rrhf)
 ----------------------------------------------------------------------
 -----
 title
 -----
 Symbolic Z-matrix:
 Charge =  0 Multiplicity = 1

 SCF Done:  E(RHF) =  -249.535896551     A.U. after   15 cycles
 Normal termination of Gaussian 16 at Tue Apr  8 22:52:32 2025.
 Gaussian 16:  ES64L-G16RevC.01  3-Jul-2019

 ----------------------------------------------------------------------
 #t hf aug-cc-pvdz iop(5/13=1,5/36=2,99/5=2) pseudo=read geom=check gue
 ss=(read,tcheck) scf=(maxcycle=1)
 ----------------------------------------------------------------------
 -----
 title
 -----
 Structure from the checkpoint file:  "BDE49_expt_1839_mol1.chk"
 Charge =  0 Multiplicity = 1

                         Standard orientation:
 ---------------------------------------------------------------------
 Center     Atomic      Atomic             Coordinates (Angstroms)
 Number     Number       Type             X           Y           Z
 ---------------------------------------------------------------------
      1          8           0        1.109570   -0.239403   -0.124288
      2          8           0        0.043588    0.596720    0.039304
      3          1           0        1.270541   -0.581362    0.772514
      4          9           0       -1.166201   -0.253019   -0.010294
 ---------------------------------------------------------------------

 SCF Done:  E(RHF) =  -249.621720861     A.U. after    2 cycles

 The electronic state is 1-A.
 Alpha  occ. eigenvalues --  -26.17327 -20.78634 -20.70569  -1.67520  -1.49684
 Alpha  occ. eigenvalues --   -1.19826  -0.83621  -0.78593  -0.77707  -0.72634
 Alpha  occ. eigenvalues --   -0.67204  -0.58931  -0.57108
 Alpha virt. eigenvalues --    0.03426   0.07238   0.12425   0.15338   0.17225
 Alpha virt. eigenvalues --    0.20802   0.22631   0.23227   0.23801   0.26506
 Alpha virt. eigenvalues --    0.28434   0.28831   0.34237   0.38780   0.40848

 Mulliken charges:
               1
     1  O   -0.092581
     2  O    0.129660
     3  H    0.251241
     4  F   -0.288320
 Sum of Mulliken charges =  -0.00000

 Dipole moment (field-independent basis, Debye):
    X=              1.9464    Y=             -0.4053    Z=              1.7004  Tot=              2.6162

 Test job not archived.
 1\1\GINC-SE455\SP\RHF\Aug-CC-pVDZ\F1H1O2\OHZDE\08-Apr-2025\0\\#t hf au
 g-cc-pvdz iop(5/13=1,5/36=2,99/5=2) pseudo=read geom=check guess=(read
 ,tcheck) scf=(maxcycle=1)\\title\\0,1\O,0,1.10957,-0.239403,-0.124288\
 O,0,0.043588,0.59672,0.039304\H,0,1.270541,-0.581362,0.772514\F,0,-1.1
 66201,-0.253019,-0.010294\\Version=ES64L-G16RevC.01\State=1-A\HF=-249.
 6217209\RMSD=4.895e-03\Dipole=0.7657795,-0.1594395,0.6690057\Quadrupol
 e=-0.3014171,-0.074839,0.3762561,-0.9888891,1.7450274,-0.8738949\PG=C0
 1 [X(F1H1O2)]\\@

 Normal termination of Gaussian 16 at Tue Apr  8 22:52:33 2025.
