 Gaussian 16, Revision C.01,

 ----------------------------------------------------------------------
 #t hf aug-cc-pvdz symm=none int=(grid=ultrafine) guess=(read,tcheck) s
 table=(opt,rrhf)
 ----------------------------------------------------------------------
 -----
 title
 -----
 Symbolic Z-matrix:
 Charge =  0 Multiplicity = 1

 SCF Done:  E(RHF) =  -1643.78974394     A.U. after   11 cycles
 Normal termination of Gaussian 16 at Tue Apr  8 23:48:22 2025.
 Gaussian 16:  ES64L-G16RevC.01  3-Jul-2019

 ----------------------------------------------------------------------
 #t hf aug-cc-pvdz iop(5/13=1,5/36=2,99/5=2) pseudo=read geom=check gue
 ss=(read,tcheck) scf=(maxcycle=1)
 ----------------------------------------------------------------------
 -----
 title
 -----
 Structure from the checkpoint file:  "BDE49_nonexpt_1855_mol1.chk"
 Charge =  0 Multiplicity = 1

                         Standard orientation:
 ---------------------------------------------------------------------
 Center     Atomic      Atomic             Coordinates (Angstroms)
 Number     Number       Type             X           Y           Z
 ---------------------------------------------------------------------
      1          6           0        0.443849    1.312880   -0.000000
      2         14           0       -0.415287   -0.402242    0.000000
      3          9           0       -1.979481   -0.134878    0.000000
      4         17           0        0.093762   -1.420428    1.682017
      5          9           0        0.093762    2.028429    1.089848
      6          9           0        1.787851    1.194537   -0.000000
      7         17           0        0.093762   -1.420428   -1.682017
      8          9           0        0.093762    2.028429   -1.089848
 ---------------------------------------------------------------------

 SCF Done:  E(RHF) =  -1644.02200137     A.U. after    2 cycles

 The electronic state is 1-A'.
 Alpha  occ. eigenvalues -- -103.70328-103.70328 -69.24767 -26.18606 -26.18550
 Alpha  occ. eigenvalues --  -26.18539 -26.16514 -11.53618 -10.73811 -10.73798
 Alpha  occ. eigenvalues --   -8.39502  -8.39496  -8.39252  -8.39251  -8.39246
 Alpha  occ. eigenvalues --   -8.39243  -6.98559  -4.09507  -4.09456  -4.09333
 Alpha  occ. eigenvalues --   -1.77765  -1.70927  -1.70858  -1.69496  -1.20279
 Alpha  occ. eigenvalues --   -1.18021  -1.04636  -0.90055  -0.89455  -0.89435
 Alpha  occ. eigenvalues --   -0.84456  -0.79143  -0.79043  -0.77569  -0.77488
 Alpha  occ. eigenvalues --   -0.74767  -0.74739  -0.73585  -0.68695  -0.59914
 Alpha  occ. eigenvalues --   -0.58796  -0.54342  -0.52494  -0.52159  -0.51080
 Alpha virt. eigenvalues --    0.04766   0.05658   0.05851   0.05939   0.10031
 Alpha virt. eigenvalues --    0.10621   0.11841   0.12095   0.12135   0.14067
 Alpha virt. eigenvalues --    0.14200   0.15489   0.16032   0.17334   0.17764

 Mulliken charges:
               1
     1  C    0.784050
     2  Si   1.826499
     3  F   -0.743521
     4  Cl  -0.416595
     5  F   -0.346763
     6  F   -0.340312
     7  Cl  -0.416595
     8  F   -0.346763
 Sum of Mulliken charges =   0.00000

 Dipole moment (field-independent basis, Debye):
    X=              0.1127    Y=             -1.5308    Z=              0.0000  Tot=              1.5349

 Test job not archived.
 1\1\GINC-SE333\SP\RHF\Aug-CC-pVDZ\C1Cl2F4Si1\OHZDE\08-Apr-2025\0\\#t h
 f aug-cc-pvdz iop(5/13=1,5/36=2,99/5=2) pseudo=read geom=check guess=(
 read,tcheck) scf=(maxcycle=1)\\title\\0,1\C,0,-1.381007,0.,-0.11608\Si
 ,0,0.490089,0.,0.306716\F,0,0.605609,0.,1.889385\Cl,0,1.356502,1.68201
 7,-0.431635\F,0,-1.991731,1.089848,0.395377\F,0,-1.588399,0.,-1.449247
 \Cl,0,1.356502,-1.682017,-0.431635\F,0,-1.991731,-1.089848,0.395377\\V
 ersion=ES64L-G16RevC.01\State=1-A'\HF=-1644.0220014\RMSD=5.035e-03\Dip
 ole=0.5740606,0.,-0.1874454\Quadrupole=-0.5059699,1.49799,-0.9920201,0

 Normal termination of Gaussian 16 at Tue Apr  8 23:48:26 2025.
