 Gaussian 16, Revision C.01,

 ----------------------------------------------------------------------
 #t hf aug-cc-pvdz symm=none int=(grid=ultrafine) guess=(read,tcheck) s
 table=(opt,rrhf)
 ----------------------------------------------------------------------
 -----
 title
 -----
 Symbolic Z-matrix:
 Charge =  0 Multiplicity = 1

 SCF Done:  E(RHF) =  -1423.63164791     A.U. after   14 cycles
 Normal termination of Gaussian 16 at Wed Apr  9 00:15:37 2025.
 Gaussian 16:  ES64L-G16RevC.01  3-Jul-2019

 ----------------------------------------------------------------------
 #t hf aug-cc-pvdz iop(5/13=1,5/36=2,99/5=2) pseudo=read geom=check gue
 ss=(read,tcheck) scf=(maxcycle=1)
 ----------------------------------------------------------------------
 -----
 title
 -----
 Structure from the checkpoint file:  "BDE49_nonexpt_2549_mol1.chk"
 Charge =  0 Multiplicity = 1

                         Standard orientation:
 ---------------------------------------------------------------------
 Center     Atomic      Atomic             Coordinates (Angstroms)
 Number     Number       Type             X           Y           Z
 ---------------------------------------------------------------------
      1         17           0       -2.206778   -0.391006    0.005343
      2         16           0       -0.756876    1.111012   -0.021019
      3         15           0        1.037620   -0.006501   -0.022406
      4          8           0        2.101907    0.990996   -0.077997
      5          8           0        0.977690   -1.009798    1.224194
      6          1           0        1.006779   -0.560587    2.078545
      7          8           0        0.986705   -1.055450   -1.208242
      8          1           0        0.523762   -1.876970   -1.000622
 ---------------------------------------------------------------------

 SCF Done:  E(RHF) =  -1423.81202639     A.U. after    2 cycles

 The electronic state is 1-A.
 Alpha  occ. eigenvalues -- -103.70509 -93.62139 -81.46551 -20.65086 -20.64578
 Alpha  occ. eigenvalues --  -20.55604 -10.73625  -8.91633  -8.39359  -8.39010
 Alpha  occ. eigenvalues --   -8.38976  -7.94709  -6.25681  -6.25397  -6.25024
 Alpha  occ. eigenvalues --   -5.09357  -5.09238  -5.08863  -1.41676  -1.37758
 Alpha  occ. eigenvalues --   -1.29289  -1.18908  -0.96621  -0.86449  -0.81194
 Alpha  occ. eigenvalues --   -0.71062  -0.68475  -0.64213  -0.63135  -0.61239
 Alpha  occ. eigenvalues --   -0.57848  -0.54405  -0.54063  -0.52340  -0.51719
 Alpha  occ. eigenvalues --   -0.45902  -0.40726
 Alpha virt. eigenvalues --    0.02358   0.02801   0.04641   0.07236   0.09382
 Alpha virt. eigenvalues --    0.10018   0.11029   0.11263   0.12933   0.13380
 Alpha virt. eigenvalues --    0.14376   0.15373   0.16425   0.17784   0.18611

 Mulliken charges:
               1
     1  Cl  -0.320326
     2  S   -0.076294
     3  P    2.141063
     4  O   -0.825649
     5  O   -0.659178
     6  H    0.176493
     7  O   -0.607381
     8  H    0.171271
 Sum of Mulliken charges =  -0.00000

 Dipole moment (field-independent basis, Debye):
    X=             -2.0145    Y=             -2.2986    Z=              1.9193  Tot=              3.6091

 Test job not archived.
 1\1\GINC-SE453\SP\RHF\Aug-CC-pVDZ\Cl1H2O3P1S1\OHZDE\09-Apr-2025\0\\#t
 hf aug-cc-pvdz iop(5/13=1,5/36=2,99/5=2) pseudo=read geom=check guess=
 (read,tcheck) scf=(maxcycle=1)\\title\\0,1\Cl,0,-2.206778,-0.391006,0.
 005343\S,0,-0.756876,1.111012,-0.021019\P,0,1.03762,-0.006501,-0.02240
 6\O,0,2.101907,0.990996,-0.077997\O,0,0.97769,-1.009798,1.224194\H,0,1
 .006779,-0.560587,2.078545\O,0,0.986705,-1.05545,-1.208242\H,0,0.52376
 2,-1.87697,-1.000622\\Version=ES64L-G16RevC.01\State=1-A\HF=-1423.8120
 264\RMSD=4.594e-03\Dipole=-0.7925781,-0.9043305,0.7551135\Quadrupole=-

 Normal termination of Gaussian 16 at Wed Apr  9 00:15:40 2025.
