 Gaussian 16, Revision C.01,

 ----------------------------------------------------------------------
 #t hf aug-cc-pvdz symm=none int=(grid=ultrafine) guess=(read,tcheck) s
 table=(opt,rrhf)
 ----------------------------------------------------------------------
 -----
 title
 -----
 Symbolic Z-matrix:
 Charge =  0 Multiplicity = 1

 SCF Done:  E(RHF) =  -624.156761123     A.U. after   16 cycles
 Normal termination of Gaussian 16 at Wed Apr  9 00:49:09 2025.
 Gaussian 16:  ES64L-G16RevC.01  3-Jul-2019

 ----------------------------------------------------------------------
 #t hf aug-cc-pvdz iop(5/13=1,5/36=2,99/5=2) pseudo=read geom=check gue
 ss=(read,tcheck) scf=(maxcycle=1)
 ----------------------------------------------------------------------
 -----
 title
 -----
 Structure from the checkpoint file:  "BDE49_nonexpt_861_mol1.chk"
 Charge =  0 Multiplicity = 1

                         Standard orientation:
 ---------------------------------------------------------------------
 Center     Atomic      Atomic             Coordinates (Angstroms)
 Number     Number       Type             X           Y           Z
 ---------------------------------------------------------------------
      1          6           0       -0.354110    0.009543   -0.005965
      2          6           0       -1.088450   -1.190138   -0.010211
      3          6           0       -2.480655   -1.188907   -0.042938
      4          6           0       -3.176515    0.018303   -0.065070
      5          6           0       -2.471982    1.220093   -0.052806
      6          6           0       -1.078958    1.213159   -0.019427
      7          5           0        1.823112   -0.509184    2.001964
      8          1           0       -3.022397   -2.128582   -0.051024
      9          1           0       -4.260625    0.022106   -0.090762
     10          1           0       -3.007238    2.163404   -0.070539
     11          1           0       -0.552382    2.161692   -0.013197
     12          1           0       -0.568131   -2.142835    0.006740
     13         14           0        1.544785   -0.019328    0.069489
     14          6           0        2.232123    1.677488   -0.388824
     15          1           0        1.900879    2.451749    0.308550
     16          1           0        1.928454    1.973814   -1.397561
     17          1           0        3.326189    1.664084   -0.363245
     18          6           0        2.209019   -1.308663   -1.140313
     19          1           0        1.946045   -1.051968   -2.170900
     20          1           0        1.809854   -2.304200   -0.928483
     21          1           0        3.299961   -1.373510   -1.079370
     22          1           0        1.928401    0.321715    2.853498
     23          1           0        1.785600   -1.646223    2.366942
 ---------------------------------------------------------------------

 SCF Done:  E(RHF) =  -624.281201964     A.U. after    2 cycles

 The electronic state is 1-A.
 Alpha  occ. eigenvalues --  -69.03933 -11.24676 -11.24648 -11.24588 -11.24402
 Alpha  occ. eigenvalues --  -11.24367 -11.23025 -11.21151 -11.21070  -7.61070
 Alpha  occ. eigenvalues --   -6.79334  -3.90118  -3.90073  -3.90024  -1.13777
 Alpha  occ. eigenvalues --   -1.00814  -1.00607  -0.94549  -0.91917  -0.82385
 Alpha  occ. eigenvalues --   -0.81953  -0.71674  -0.68826  -0.63774  -0.62592
 Alpha  occ. eigenvalues --   -0.60309  -0.59052  -0.56950  -0.56290  -0.54635
 Alpha  occ. eigenvalues --   -0.54191  -0.53203  -0.50496  -0.49518  -0.48911
 Alpha  occ. eigenvalues --   -0.43531  -0.43045  -0.39569  -0.33965  -0.33051
 Alpha virt. eigenvalues --    0.02859   0.03374   0.03869   0.04571   0.04721
 Alpha virt. eigenvalues --    0.05158   0.05823   0.06257   0.06525   0.07283
 Alpha virt. eigenvalues --    0.07467   0.08041   0.08843   0.09218   0.10016

 Mulliken charges:
               1
     1  C   -0.518788
     2  C    0.724772
     3  C    0.483424
     4  C    0.845681
     5  C    0.537624
     6  C    0.472721
     7  B   -0.515524
     8  H   -0.472212
     9  H   -0.441006
    10  H   -0.483110
    11  H   -0.668521
    12  H   -0.685063
    13  Si   0.609488
    14  C    0.590681
    15  H   -0.337122
    16  H   -0.229502
    17  H   -0.380917
    18  C    0.444567
    19  H   -0.265980
    20  H   -0.325665
    21  H   -0.282784
    22  H    0.451672
    23  H    0.445566
 Sum of Mulliken charges =   0.00000

 Dipole moment (field-independent basis, Debye):
    X=              0.0961    Y=              0.1176    Z=             -0.4572  Tot=              0.4817

 Test job not archived.
 1\1\GINC-SE048\SP\RHF\Aug-CC-pVDZ\C8H13B1Si1\OHZDE\09-Apr-2025\0\\#t h
 f aug-cc-pvdz iop(5/13=1,5/36=2,99/5=2) pseudo=read geom=check guess=(
 read,tcheck) scf=(maxcycle=1)\\title\\0,1\C,0,-0.35411,0.009543,-0.005
 965\C,0,-1.08845,-1.190138,-0.010211\C,0,-2.480655,-1.188907,-0.042938
 \C,0,-3.176515,0.018303,-0.06507\C,0,-2.471982,1.220093,-0.052806\C,0,
 -1.078958,1.213159,-0.019427\B,0,1.823112,-0.509184,2.001964\H,0,-3.02
 2397,-2.128582,-0.051024\H,0,-4.260625,0.022106,-0.090762\H,0,-3.00723
 8,2.163404,-0.070539\H,0,-0.552382,2.161692,-0.013197\H,0,-0.568131,-2

 Normal termination of Gaussian 16 at Wed Apr  9 00:49:27 2025.
