 Gaussian 16, Revision C.01,

 ----------------------------------------------------------------------
 #t hf aug-cc-pvdz symm=none int=(grid=ultrafine) guess=(read,tcheck) s
 table=(opt,rrhf)
 ----------------------------------------------------------------------
 -----
 title
 -----
 Symbolic Z-matrix:
 Charge =  0 Multiplicity = 1

 SCF Done:  E(RHF) =  -288.565218102     A.U. after   16 cycles
 Normal termination of Gaussian 16 at Tue Apr  8 23:20:51 2025.
 Gaussian 16:  ES64L-G16RevC.01  3-Jul-2019

 ----------------------------------------------------------------------
 #t hf aug-cc-pvdz iop(5/13=1,5/36=2,99/5=2) pseudo=read geom=check gue
 ss=(read,tcheck) scf=(maxcycle=1)
 ----------------------------------------------------------------------
 -----
 title
 -----
 Structure from the checkpoint file:  "BDE49_nonexpt_1181_mol1.chk"
 Charge =  0 Multiplicity = 1

                         Standard orientation:
 ---------------------------------------------------------------------
 Center     Atomic      Atomic             Coordinates (Angstroms)
 Number     Number       Type             X           Y           Z
 ---------------------------------------------------------------------
      1          8           0       -0.584039   -0.605388    0.351855
      2          9           0       -1.468599    0.517348   -0.113567
      3          8           0        0.536546   -0.557987   -0.402938
      4          6           0        1.436818    0.440896    0.124054
      5          1           0        2.331092    0.349748   -0.491068
      6          1           0        1.657999    0.228927    1.170675
      7          1           0        0.987330    1.426820    0.006840
 ---------------------------------------------------------------------

 SCF Done:  E(RHF) =  -288.663466854     A.U. after    2 cycles

 The electronic state is 1-A.
 Alpha  occ. eigenvalues --  -26.15686 -20.77608 -20.69262 -11.32032  -1.65513
 Alpha  occ. eigenvalues --   -1.49177  -1.20085  -0.95878  -0.78376  -0.77366
 Alpha  occ. eigenvalues --   -0.76987  -0.69792  -0.68026  -0.63940  -0.58737
 Alpha  occ. eigenvalues --   -0.55015  -0.52153
 Alpha virt. eigenvalues --    0.03221   0.05145   0.05515   0.07692   0.08832
 Alpha virt. eigenvalues --    0.13791   0.14440   0.15690   0.16741   0.19170
 Alpha virt. eigenvalues --    0.20543   0.23676   0.25349   0.25720   0.27715

 Mulliken charges:
               1
     1  O    0.083856
     2  F   -0.326486
     3  O   -0.332168
     4  C    0.818701
     5  H   -0.122809
     6  H   -0.064239
     7  H   -0.056855
 Sum of Mulliken charges =  -0.00000

 Dipole moment (field-independent basis, Debye):
    X=              3.1512    Y=              0.6256    Z=              0.7935  Tot=              3.3092

 Test job not archived.
 1\1\GINC-SE186\SP\RHF\Aug-CC-pVDZ\C1H3F1O2\OHZDE\08-Apr-2025\0\\#t hf
 aug-cc-pvdz iop(5/13=1,5/36=2,99/5=2) pseudo=read geom=check guess=(re
 ad,tcheck) scf=(maxcycle=1)\\title\\0,1\O,0,-0.584039,-0.605388,0.3518
 55\F,0,-1.468599,0.517348,-0.113567\O,0,0.536546,-0.557987,-0.402938\C
 ,0,1.436818,0.440896,0.124054\H,0,2.331092,0.349749,-0.491068\H,0,1.65
 7999,0.228927,1.170675\H,0,0.987329,1.42682,0.00684\\Version=ES64L-G16
 RevC.01\State=1-A\HF=-288.6634669\RMSD=3.531e-03\Dipole=1.239778,0.246
 1427,0.3121811\Quadrupole=0.6829801,-0.3165145,-0.3664657,1.434227,0.1

 Normal termination of Gaussian 16 at Tue Apr  8 23:20:54 2025.
