 Gaussian 16, Revision C.01,

 ----------------------------------------------------------------------
 #t hf aug-cc-pvdz symm=none int=(grid=ultrafine) guess=(read,tcheck) s
 table=(opt,rrhf)
 ----------------------------------------------------------------------
 -----
 title
 -----
 Symbolic Z-matrix:
 Charge =  0 Multiplicity = 1

 SCF Done:  E(RHF) =  -480.461290005     A.U. after   15 cycles
 Normal termination of Gaussian 16 at Wed Apr  9 00:41:50 2025.
 Gaussian 16:  ES64L-G16RevC.01  3-Jul-2019

 ----------------------------------------------------------------------
 #t hf aug-cc-pvdz iop(5/13=1,5/36=2,99/5=2) pseudo=read geom=check gue
 ss=(read,tcheck) scf=(maxcycle=1)
 ----------------------------------------------------------------------
 -----
 title
 -----
 Structure from the checkpoint file:  "BDE49_nonexpt_729_mol1.chk"
 Charge =  0 Multiplicity = 1

                         Standard orientation:
 ---------------------------------------------------------------------
 Center     Atomic      Atomic             Coordinates (Angstroms)
 Number     Number       Type             X           Y           Z
 ---------------------------------------------------------------------
      1          6           0       -1.014729    0.448950   -0.172429
      2          5           0        1.949916    0.599300    0.261317
      3          8           0       -2.043139    0.037208    0.290421
      4         15           0        0.561775   -0.519819   -0.226164
      5          1           0        2.892415    0.155581    0.829947
      6          1           0        1.930096    1.724510   -0.121716
      7          1           0       -0.931561    1.443600   -0.660324
      8          1           0        0.366334   -1.514275    0.749174
 ---------------------------------------------------------------------

 SCF Done:  E(RHF) =  -480.526001951     A.U. after    2 cycles

 The electronic state is 1-A.
 Alpha  occ. eigenvalues --  -81.26572 -20.59221 -11.36905  -7.77516  -7.64954
 Alpha  occ. eigenvalues --   -4.91582  -4.91546  -4.91219  -1.37923  -0.90376
 Alpha  occ. eigenvalues --   -0.79033  -0.70665  -0.67188  -0.61917  -0.57011
 Alpha  occ. eigenvalues --   -0.53148  -0.49921  -0.42606  -0.36107
 Alpha virt. eigenvalues --    0.03005   0.03578   0.04126   0.05212   0.07108
 Alpha virt. eigenvalues --    0.07140   0.07876   0.08476   0.10163   0.11404
 Alpha virt. eigenvalues --    0.12050   0.12403   0.13729   0.14643   0.15472

 Mulliken charges:
               1
     1  C    0.219161
     2  B   -0.307121
     3  O   -0.444662
     4  P    0.011607
     5  H    0.285817
     6  H    0.232830
     7  H   -0.152430
     8  H    0.154798
 Sum of Mulliken charges =  -0.00000

 Dipole moment (field-independent basis, Debye):
    X=              2.5876    Y=              0.7680    Z=             -0.4323  Tot=              2.7335

 Test job not archived.
 1\1\GINC-SE041\SP\RHF\Aug-CC-pVDZ\C1H4B1O1P1\OHZDE\09-Apr-2025\0\\#t h
 f aug-cc-pvdz iop(5/13=1,5/36=2,99/5=2) pseudo=read geom=check guess=(
 read,tcheck) scf=(maxcycle=1)\\title\\0,1\C,0,-1.014729,0.44895,-0.172
 429\B,0,1.949916,0.5993,0.261317\O,0,-2.043139,0.037209,0.290421\P,0,0
 .561775,-0.519819,-0.226164\H,0,2.892415,0.15558,0.829947\H,0,1.930097
 ,1.72451,-0.121716\H,0,-0.931561,1.4436,-0.660324\H,0,0.366334,-1.5142
 75,0.749174\\Version=ES64L-G16RevC.01\State=1-A\HF=-480.526002\RMSD=1.
 065e-02\Dipole=1.0180233,0.3021563,-0.1700809\Quadrupole=-4.0790813,2.

 Normal termination of Gaussian 16 at Wed Apr  9 00:41:53 2025.
