 Gaussian 16, Revision C.01,

 ----------------------------------------------------------------------
 #t hf aug-cc-pvdz symm=none int=(grid=ultrafine) guess=(read,tcheck) s
 table=(opt,rrhf)
 ----------------------------------------------------------------------
 -----
 title
 -----
 Symbolic Z-matrix:
 Charge =  0 Multiplicity = 1

 SCF Done:  E(RHF) =  -2325.27666310     A.U. after   14 cycles
 Normal termination of Gaussian 16 at Wed Apr  9 00:14:16 2025.
 Gaussian 16:  ES64L-G16RevC.01  3-Jul-2019

 ----------------------------------------------------------------------
 #t hf aug-cc-pvdz iop(5/13=1,5/36=2,99/5=2) pseudo=read geom=check gue
 ss=(read,tcheck) scf=(maxcycle=1)
 ----------------------------------------------------------------------
 -----
 title
 -----
 Structure from the checkpoint file:  "BDE49_nonexpt_2441_mol1.chk"
 Charge =  0 Multiplicity = 1

                         Standard orientation:
 ---------------------------------------------------------------------
 Center     Atomic      Atomic             Coordinates (Angstroms)
 Number     Number       Type             X           Y           Z
 ---------------------------------------------------------------------
      1         14           0        1.154088    1.894400   -0.245836
      2         14           0       -1.154155    1.894412    0.245863
      3          6           0       -1.919010    0.233387   -0.285263
      4          1           0       -1.825685    2.950927   -0.547228
      5          1           0       -1.411075    2.143291    1.684513
      6         16           0       -1.633059   -0.306696   -1.815546
      7         16           0       -2.877069   -0.544609    0.927322
      8          6           0       -3.481701   -2.056844    0.126064
      9          1           0       -4.089416   -2.569725    0.871964
     10          1           0       -2.640574   -2.680619   -0.175148
     11          1           0       -4.081524   -1.804525   -0.747802
     12          6           0        1.918911    0.233341    0.285229
     13          1           0        1.825637    2.950877    0.547292
     14          1           0        1.411013    2.143325   -1.684477
     15         16           0        1.633092   -0.306709    1.815549
     16         16           0        2.877090   -0.544548   -0.927329
     17          6           0        3.481783   -2.056768   -0.126088
     18          1           0        4.089579   -2.569579   -0.871970
     19          1           0        2.640683   -2.680614    0.175053
     20          1           0        4.081536   -1.804435    0.747822
 ---------------------------------------------------------------------

 SCF Done:  E(RHF) =  -2325.44301095     A.U. after    2 cycles

 The electronic state is 1-A.
 Alpha  occ. eigenvalues --  -93.57339 -93.57338 -93.51915 -93.51915 -69.08290
 Alpha  occ. eigenvalues --  -69.08290 -11.34317 -11.34317 -11.27940 -11.27940
 Alpha  occ. eigenvalues --   -8.87121  -8.87121  -8.81746  -8.81746  -6.83613
 Alpha  occ. eigenvalues --   -6.83612  -6.21269  -6.21264  -6.21001  -6.20998
 Alpha  occ. eigenvalues --   -6.20753  -6.20746  -6.15897  -6.15893  -6.15544
 Alpha  occ. eigenvalues --   -6.15527  -6.15350  -6.15342  -3.94412  -3.94397
 Alpha  occ. eigenvalues --   -3.94351  -3.94342  -3.94333  -3.94271  -1.10417
 Alpha  occ. eigenvalues --   -1.10204  -1.00384  -1.00196  -0.90040  -0.89949
 Alpha  occ. eigenvalues --   -0.77441  -0.74172  -0.67580  -0.64740  -0.61440
 Alpha  occ. eigenvalues --   -0.60804  -0.60771  -0.60392  -0.55743  -0.55564
 Alpha  occ. eigenvalues --   -0.52806  -0.52174  -0.49869  -0.49670  -0.46483
 Alpha  occ. eigenvalues --   -0.45377  -0.45305  -0.44949  -0.40165  -0.34764
 Alpha  occ. eigenvalues --   -0.34149  -0.33294  -0.33229
 Alpha virt. eigenvalues --    0.03119   0.03192   0.03361   0.03928   0.04949
 Alpha virt. eigenvalues --    0.05130   0.05761   0.06041   0.06239   0.07172
 Alpha virt. eigenvalues --    0.07330   0.07892   0.08124   0.08474   0.09496

 Mulliken charges:
               1
     1  Si   0.023246
     2  Si   0.023273
     3  C   -0.443546
     4  H    0.136445
     5  H    0.079343
     6  S   -0.060088
     7  S    0.373236
     8  C    0.080692
     9  H   -0.113946
    10  H   -0.051015
    11  H   -0.024407
    12  C   -0.443525
    13  H    0.136447
    14  H    0.079364
    15  S   -0.060101
    16  S    0.373243
    17  C    0.080706
    18  H   -0.113950
    19  H   -0.051015
    20  H   -0.024400
 Sum of Mulliken charges =  -0.00000

 Dipole moment (field-independent basis, Debye):
    X=              0.0001    Y=             -1.6771    Z=              0.0000  Tot=              1.6771

 Test job not archived.
 1\1\GINC-SE159\SP\RHF\Aug-CC-pVDZ\C4H10S4Si2\OHZDE\09-Apr-2025\0\\#t h
 f aug-cc-pvdz iop(5/13=1,5/36=2,99/5=2) pseudo=read geom=check guess=(
 read,tcheck) scf=(maxcycle=1)\\title\\0,1\Si,0,1.154088,1.8944,-0.2458
 36\Si,0,-1.154155,1.894412,0.245863\C,0,-1.91901,0.233387,-0.285263\H,
 0,-1.825685,2.950927,-0.547228\H,0,-1.411075,2.143291,1.684513\S,0,-1.
 633059,-0.306696,-1.815546\S,0,-2.877069,-0.544609,0.927322\C,0,-3.481
 701,-2.056844,0.126064\H,0,-4.089416,-2.569725,0.871964\H,0,-2.640574,
 -2.680619,-0.175148\H,0,-4.081524,-1.804525,-0.747802\C,0,1.918911,0.2

 Normal termination of Gaussian 16 at Wed Apr  9 00:14:32 2025.
