 Gaussian 16, Revision C.01,

 ----------------------------------------------------------------------
 #t hf aug-cc-pvdz symm=none int=(grid=ultrafine) guess=(read,tcheck) s
 table=opt
 ----------------------------------------------------------------------
 -----
 title
 -----
 Symbolic Z-matrix:
 Charge =  0 Multiplicity = 2

 SCF Done:  E(UHF) =  -163.667248660     A.U. after   15 cycles
 Normal termination of Gaussian 16 at Wed Apr  9 00:33:46 2025.
 Gaussian 16:  ES64L-G16RevC.01  3-Jul-2019

 ----------------------------------------------------------------------
 #t hf aug-cc-pvdz iop(5/13=1,5/36=2,99/5=2) pseudo=read geom=check gue
 ss=(read,tcheck) scf=(maxcycle=1)
 ----------------------------------------------------------------------
 -----
 title
 -----
 Structure from the checkpoint file:  "BDE49_nonexpt_455_mol2.chk"
 Charge =  0 Multiplicity = 2

                         Standard orientation:
 ---------------------------------------------------------------------
 Center     Atomic      Atomic             Coordinates (Angstroms)
 Number     Number       Type             X           Y           Z
 ---------------------------------------------------------------------
      1          1           0       -1.778214   -1.308016   -0.000001
      2          5           0       -1.443235   -0.171452    0.000000
      3          6           0       -0.069989    0.514081    0.000000
      4          9           0        1.041367   -0.362396    0.000000
      5          1           0        0.021007    1.171178    0.877244
      6          1           0        0.021006    1.171177   -0.877244
 ---------------------------------------------------------------------

 SCF Done:  E(UHF) =  -163.722934296     A.U. after    2 cycles

 The electronic state is 2-A.
 Alpha  occ. eigenvalues --  -26.10097 -11.31409  -7.65638  -1.62944  -0.98104
 Alpha  occ. eigenvalues --   -0.74697  -0.73444  -0.72958  -0.64097  -0.55838
 Alpha  occ. eigenvalues --   -0.51812  -0.35738
 Alpha virt. eigenvalues --    0.03449   0.03494   0.05012   0.05816   0.06229
 Alpha virt. eigenvalues --    0.09547   0.10266   0.10414   0.13672   0.15457
 Alpha virt. eigenvalues --    0.16580   0.18618   0.23390   0.24013   0.25456

  Beta  occ. eigenvalues --  -26.09785 -11.31414  -7.63838  -1.61958  -0.97240
  Beta  occ. eigenvalues --   -0.73487  -0.73205  -0.70729  -0.61043  -0.55705
  Beta  occ. eigenvalues --   -0.50817
  Beta virt. eigenvalues --    0.03049   0.04119   0.04865   0.05100   0.06763
  Beta virt. eigenvalues --    0.08478   0.09755   0.11215   0.11677   0.14619
  Beta virt. eigenvalues --    0.16951   0.17148   0.19794   0.24634   0.25115

 Mulliken charges and spin densities:
               1          2
     1  H    0.334446  -0.017962
     2  B   -0.187191   1.040491
     3  C    0.619037  -0.027435
     4  F   -0.462567   0.024840
     5  H   -0.151862  -0.009967
     6  H   -0.151863  -0.009967
 Sum of Mulliken charges =  -0.00000   1.00000

 Dipole moment (field-independent basis, Debye):
    X=             -1.3468    Y=              1.2696    Z=             -0.0000  Tot=              1.8509
                          Isotropic Fermi Contact Couplings
        Atom                 a.u.       MegaHertz       Gauss      10(-4) cm-1
     1  H(1)               0.00091       4.06061       1.44893       1.35447
     2  B(11)              0.25072     359.62856     128.32441     119.95917
     3  C(13)              0.04154      46.70378      16.66507      15.57870
     4  F(19)              0.06015     253.08190      90.30591      84.41903
     5  H(1)              -0.00068      -3.05964      -1.09176      -1.02059
     6  H(1)              -0.00068      -3.05967      -1.09177      -1.02060
 --------------------------------------------------------
       Center         ----  Spin Dipole Couplings  ----

 Normal termination of Gaussian 16 at Wed Apr  9 00:33:48 2025.
