 Gaussian 16, Revision C.01,

 ----------------------------------------------------------------------
 #t hf aug-cc-pvdz symm=none int=(grid=ultrafine) guess=(read,tcheck) s
 table=(opt,rrhf)
 ----------------------------------------------------------------------
 -----
 title
 -----
 Symbolic Z-matrix:
 Charge =  0 Multiplicity = 1

 SCF Done:  E(RHF) =  -429.231450484     A.U. after   11 cycles
 Normal termination of Gaussian 16 at Tue Apr  8 23:48:14 2025.
 Gaussian 16:  ES64L-G16RevC.01  3-Jul-2019

 ----------------------------------------------------------------------
 #t hf aug-cc-pvdz iop(5/13=1,5/36=2,99/5=2) pseudo=read geom=check gue
 ss=(read,tcheck) scf=(maxcycle=1)
 ----------------------------------------------------------------------
 -----
 title
 -----
 Structure from the checkpoint file:  "BDE49_nonexpt_1842_mol1.chk"
 Charge =  0 Multiplicity = 1

                         Standard orientation:
 ---------------------------------------------------------------------
 Center     Atomic      Atomic             Coordinates (Angstroms)
 Number     Number       Type             X           Y           Z
 ---------------------------------------------------------------------
      1          6           0        1.509474   -0.359401    0.000001
      2         14           0       -0.149785    0.484602    0.000001
      3          1           0       -0.332645    1.313905    1.210777
      4          9           0       -1.319368   -0.629827   -0.000003
      5          1           0       -0.332643    1.313910   -1.210772
      6          1           0        1.634898   -0.987640    0.886067
      7          1           0        2.309947    0.387874    0.000007
      8          1           0        1.634903   -0.987631   -0.886072
 ---------------------------------------------------------------------

 SCF Done:  E(RHF) =  -429.314470282     A.U. after    2 cycles

 The electronic state is 1-A.
 Alpha  occ. eigenvalues --  -69.11000 -26.09950 -11.22914  -6.85683  -3.96626
 Alpha  occ. eigenvalues --   -3.96424  -3.96423  -1.62531  -0.95587  -0.78945
 Alpha  occ. eigenvalues --   -0.71336  -0.71273  -0.63128  -0.57538  -0.56540
 Alpha  occ. eigenvalues --   -0.47850  -0.46853
 Alpha virt. eigenvalues --    0.03424   0.05104   0.05139   0.05568   0.07832
 Alpha virt. eigenvalues --    0.08130   0.08518   0.10021   0.14465   0.15136
 Alpha virt. eigenvalues --    0.15728   0.15946   0.17199   0.17459   0.22684

 Mulliken charges:
               1
     1  C    0.186204
     2  Si   1.355950
     3  H   -0.099570
     4  F   -0.794906
     5  H   -0.099570
     6  H   -0.170186
     7  H   -0.207739
     8  H   -0.170183
 Sum of Mulliken charges =  -0.00000

 Dipole moment (field-independent basis, Debye):
    X=              1.9103    Y=              0.7791    Z=              0.0000  Tot=              2.0630

 Test job not archived.
 1\1\GINC-SE424\SP\RHF\Aug-CC-pVDZ\C1H5F1Si1\OHZDE\08-Apr-2025\0\\#t hf
  aug-cc-pvdz iop(5/13=1,5/36=2,99/5=2) pseudo=read geom=check guess=(r
 ead,tcheck) scf=(maxcycle=1)\\title\\0,1\C,0,1.509474,-0.3594,0.000001
 \Si,0,-0.149785,0.484602,0.000001\H,0,-0.332646,1.313905,1.210777\F,0,
 -1.319368,-0.629828,-0.000003\H,0,-0.332644,1.31391,-1.210772\H,0,1.63
 4898,-0.987639,0.886067\H,0,2.309947,0.387875,0.000007\H,0,1.634903,-0
 .98763,-0.886072\\Version=ES64L-G16RevC.01\State=1-A\HF=-429.3144703\R
 MSD=5.137e-03\Dipole=0.7515575,0.3065263,0.0000021\Quadrupole=-0.69166

 Normal termination of Gaussian 16 at Tue Apr  8 23:48:15 2025.
