 Gaussian 16, Revision C.01,

 ----------------------------------------------------------------------
 #t hf aug-cc-pvdz symm=none int=(grid=ultrafine) guess=(read,tcheck) s
 table=(opt,rrhf)
 ----------------------------------------------------------------------
 -----
 title
 -----
 Symbolic Z-matrix:
 Charge =  0 Multiplicity = 1

 SCF Done:  E(RHF) =  -1103.84996666     A.U. after   17 cycles
 Normal termination of Gaussian 16 at Tue Apr  8 22:58:42 2025.
 Gaussian 16:  ES64L-G16RevC.01  3-Jul-2019

 ----------------------------------------------------------------------
 #t hf aug-cc-pvdz iop(5/13=1,5/36=2,99/5=2) pseudo=read geom=check gue
 ss=(read,tcheck) scf=(maxcycle=1)
 ----------------------------------------------------------------------
 -----
 title
 -----
 Structure from the checkpoint file:  "BDE49_expt_1895_mol1.chk"
 Charge =  0 Multiplicity = 1

                         Standard orientation:
 ---------------------------------------------------------------------
 Center     Atomic      Atomic             Coordinates (Angstroms)
 Number     Number       Type             X           Y           Z
 ---------------------------------------------------------------------
      1          6           0       -3.304343    0.346102   -0.107294
      2          8           0       -2.877008    1.211164   -0.808270
      3          8           0       -2.566717   -0.299421    0.870594
      4          8           0       -1.224920    0.210890    0.930480
      5          6           0       -0.406931   -0.423151    0.002297
      6          8           0       -0.752864   -1.332083   -0.685266
      7          6           0       -4.681449   -0.262661   -0.122492
      8          1           0       -5.389917    0.489237   -0.466757
      9          1           0       -4.967089   -0.642783    0.857624
     10          1           0       -4.677770   -1.095670   -0.830072
     11          6           0        0.915989    0.266763    0.032725
     12          6           0        0.945657    1.668196    0.055108
     13          6           0        2.151705    2.355302    0.006952
     14          6           0        3.348063    1.644942   -0.049791
     15          6           0        3.339213    0.253457   -0.062158
     16          6           0        2.129482   -0.433423   -0.027329
     17          1           0        2.156325    3.438372    0.012728
     18          1           0        4.264011   -0.307245   -0.097634
     19          1           0        0.005968    2.203580    0.089308
     20          1           0        4.295420    2.170304   -0.084129
     21         17           0        2.180047   -2.180786   -0.018205
 ---------------------------------------------------------------------

 SCF Done:  E(RHF) =  -1104.06576505     A.U. after    2 cycles

 The electronic state is 1-A.
 Alpha  occ. eigenvalues -- -103.67422 -20.69697 -20.69625 -20.58797 -20.58713
 Alpha  occ. eigenvalues --  -11.42360 -11.42034 -11.33797 -11.29081 -11.27973
 Alpha  occ. eigenvalues --  -11.27894 -11.27286 -11.26992 -11.26833 -10.70704
 Alpha  occ. eigenvalues --   -8.36443  -8.36126  -8.36110  -1.50894  -1.40608
 Alpha  occ. eigenvalues --   -1.37566  -1.27533  -1.21366  -1.14962  -1.06269
 Alpha  occ. eigenvalues --   -1.02784  -1.02126  -0.91172  -0.86513  -0.83648
 Alpha  occ. eigenvalues --   -0.79950  -0.76682  -0.73630  -0.72745  -0.70733
 Alpha  occ. eigenvalues --   -0.68220  -0.67591  -0.65614  -0.64151  -0.63590
 Alpha  occ. eigenvalues --   -0.61332  -0.60298  -0.58645  -0.57290  -0.56624
 Alpha  occ. eigenvalues --   -0.55520  -0.53768  -0.52467  -0.52418  -0.49782
 Alpha  occ. eigenvalues --   -0.48977  -0.48798  -0.46676  -0.37442  -0.35728
 Alpha virt. eigenvalues --    0.02973   0.03602   0.04201   0.05427   0.05794
 Alpha virt. eigenvalues --    0.05985   0.06166   0.07096   0.08419   0.08672
 Alpha virt. eigenvalues --    0.09771   0.10261   0.10917   0.11948   0.12376

 Mulliken charges:
               1
     1  C    0.326230
     2  O   -0.414644
     3  O   -0.364066
     4  O   -0.398803
     5  C    0.073345
     6  O   -0.368120
     7  C    0.303435
     8  H    0.029645
     9  H   -0.004455
    10  H    0.099011
    11  C    1.991779
    12  C    0.198418
    13  C    0.070822
    14  C    0.535951
    15  C    0.883573
    16  C   -0.689442
    17  H   -0.445698
    18  H   -0.428394
    19  H   -0.608319
    20  H   -0.429612
    21  Cl  -0.360655
 Sum of Mulliken charges =  -0.00000

 Dipole moment (field-independent basis, Debye):
    X=              0.1143    Y=              2.1744    Z=              1.1766  Tot=              2.4750

 Test job not archived.
 1\1\GINC-SE252\SP\RHF\Aug-CC-pVDZ\C9H7Cl1O4\OHZDE\08-Apr-2025\0\\#t hf
  aug-cc-pvdz iop(5/13=1,5/36=2,99/5=2) pseudo=read geom=check guess=(r
 ead,tcheck) scf=(maxcycle=1)\\title\\0,1\C,0,-3.304343,0.346102,-0.107
 294\O,0,-2.877008,1.211164,-0.80827\O,0,-2.566717,-0.299421,0.870594\O
 ,0,-1.22492,0.21089,0.93048\C,0,-0.406931,-0.423151,0.002297\O,0,-0.75
 2864,-1.332083,-0.685266\C,0,-4.681449,-0.262661,-0.122492\H,0,-5.3899
 17,0.489237,-0.466757\H,0,-4.967089,-0.642783,0.857624\H,0,-4.67777,-1
 .09567,-0.830072\C,0,0.915989,0.266763,0.032725\C,0,0.945657,1.668196,

 Normal termination of Gaussian 16 at Tue Apr  8 22:59:00 2025.
