 Gaussian 16, Revision C.01,

 ----------------------------------------------------------------------
 #t hf aug-cc-pvdz symm=none int=(grid=ultrafine) guess=(read,tcheck) s
 table=(opt,rrhf)
 ----------------------------------------------------------------------
 -----
 title
 -----
 Symbolic Z-matrix:
 Charge =  0 Multiplicity = 1

 SCF Done:  E(RHF) =  -1045.27279701     A.U. after   16 cycles
 Normal termination of Gaussian 16 at Wed Apr  9 00:52:07 2025.
 Gaussian 16:  ES64L-G16RevC.01  3-Jul-2019

 ----------------------------------------------------------------------
 #t hf aug-cc-pvdz iop(5/13=1,5/36=2,99/5=2) pseudo=read geom=check gue
 ss=(read,tcheck) scf=(maxcycle=1)
 ----------------------------------------------------------------------
 -----
 title
 -----
 Structure from the checkpoint file:  "BDE49_nonexpt_933_mol1.chk"
 Charge =  0 Multiplicity = 1

                         Standard orientation:
 ---------------------------------------------------------------------
 Center     Atomic      Atomic             Coordinates (Angstroms)
 Number     Number       Type             X           Y           Z
 ---------------------------------------------------------------------
      1         17           0        1.659569   -1.973369   -0.693646
      2          7           0       -0.005517   -1.596002   -0.163313
      3          6           0       -0.141172   -1.436001    1.285136
      4          6           0       -0.174663   -0.227743    0.409983
      5          6           0        1.022561    0.706327    0.493197
      6          8           0        1.758259    0.783531    1.441439
      7          8           0        1.146425    1.398143   -0.640032
      8          6           0        2.232420    2.345238   -0.681605
      9          6           0       -1.484841    0.462152    0.111410
     10          8           0       -1.648011    1.647392    0.250489
     11          8           0       -2.437957   -0.405214   -0.247181
     12          6           0       -3.737744    0.166313   -0.498909
     13          1           0        0.741900   -1.530316    1.906580
     14          1           0       -1.065439   -1.847728    1.674304
     15          1           0        3.184971    1.832868   -0.542960
     16          1           0        2.104699    3.094721    0.100220
     17          1           0        2.177697    2.802276   -1.666199
     18          1           0       -3.680459    0.889558   -1.312980
     19          1           0       -4.371841   -0.672898   -0.773263
     20          1           0       -4.114673    0.662272    0.396485
 ---------------------------------------------------------------------

 SCF Done:  E(RHF) =  -1045.47415495     A.U. after    2 cycles

 The electronic state is 1-A.
 Alpha  occ. eigenvalues -- -103.69153 -20.63535 -20.62960 -20.58092 -20.58015
 Alpha  occ. eigenvalues --  -15.73127 -11.41959 -11.41778 -11.33434 -11.31327
 Alpha  occ. eigenvalues --  -11.31092 -11.30413 -10.72129  -8.37870  -8.37505
 Alpha  occ. eigenvalues --   -8.37492  -1.44547  -1.43558  -1.34688  -1.34394
 Alpha  occ. eigenvalues --   -1.30657  -1.14306  -1.02328  -1.00025  -0.92690
 Alpha  occ. eigenvalues --   -0.88202  -0.83138  -0.78715  -0.76891  -0.72425
 Alpha  occ. eigenvalues --   -0.70774  -0.70216  -0.69597  -0.68804  -0.65679
 Alpha  occ. eigenvalues --   -0.62953  -0.59923  -0.59355  -0.57811  -0.56536
 Alpha  occ. eigenvalues --   -0.55417  -0.54915  -0.52357  -0.51160  -0.50133
 Alpha  occ. eigenvalues --   -0.49726  -0.48851  -0.48351  -0.45283  -0.41418
 Alpha virt. eigenvalues --    0.03136   0.03899   0.04249   0.05598   0.05944
 Alpha virt. eigenvalues --    0.05983   0.06372   0.07500   0.08038   0.08587
 Alpha virt. eigenvalues --    0.08938   0.11333   0.11752   0.12565   0.13527

 Mulliken charges:
               1
     1  Cl   0.119238
     2  N   -0.987216
     3  C    1.098641
     4  C    0.788582
     5  C    0.525255
     6  O   -0.463085
     7  O   -0.544000
     8  C    0.755359
     9  C    0.221767
    10  O   -0.440786
    11  O   -0.559111
    12  C    0.794237
    13  H   -0.296355
    14  H   -0.256553
    15  H   -0.063987
    16  H   -0.055869
    17  H   -0.237318
    18  H   -0.065928
    19  H   -0.258904
    20  H   -0.073966
 Sum of Mulliken charges =  -0.00000

 Dipole moment (field-independent basis, Debye):
    X=             -1.8632    Y=             -0.2632    Z=             -0.3594  Tot=              1.9157

 Test job not archived.
 1\1\GINC-SE227\SP\RHF\Aug-CC-pVDZ\C6H8Cl1N1O4\OHZDE\09-Apr-2025\0\\#t
 hf aug-cc-pvdz iop(5/13=1,5/36=2,99/5=2) pseudo=read geom=check guess=
 (read,tcheck) scf=(maxcycle=1)\\title\\0,1\Cl,0,1.659569,-1.973369,-0.
 693646\N,0,-0.005517,-1.596002,-0.163313\C,0,-0.141172,-1.436001,1.285
 136\C,0,-0.174663,-0.227743,0.409983\C,0,1.022561,0.706327,0.493197\O,
 0,1.758259,0.783531,1.441439\O,0,1.146425,1.398143,-0.640032\C,0,2.232
 42,2.345238,-0.681605\C,0,-1.484841,0.462152,0.11141\O,0,-1.648011,1.6
 47392,0.250489\O,0,-2.437957,-0.405214,-0.247181\C,0,-3.737744,0.16631

 Normal termination of Gaussian 16 at Wed Apr  9 00:52:21 2025.
