 Gaussian 16, Revision C.01,

 ----------------------------------------------------------------------
 #t hf aug-cc-pvdz symm=none int=(grid=ultrafine) guess=(read,tcheck) s
 table=(opt,rrhf)
 ----------------------------------------------------------------------
 -----
 title
 -----
 Symbolic Z-matrix:
 Charge =  0 Multiplicity = 1

 SCF Done:  E(RHF) =  -407.381799838     A.U. after   12 cycles
 Normal termination of Gaussian 16 at Wed Apr  9 00:40:22 2025.
 Gaussian 16:  ES64L-G16RevC.01  3-Jul-2019

 ----------------------------------------------------------------------
 #t hf aug-cc-pvdz iop(5/13=1,5/36=2,99/5=2) pseudo=read geom=check gue
 ss=(read,tcheck) scf=(maxcycle=1)
 ----------------------------------------------------------------------
 -----
 title
 -----
 Structure from the checkpoint file:  "BDE49_nonexpt_675_mol1.chk"
 Charge =  0 Multiplicity = 1

                         Standard orientation:
 ---------------------------------------------------------------------
 Center     Atomic      Atomic             Coordinates (Angstroms)
 Number     Number       Type             X           Y           Z
 ---------------------------------------------------------------------
      1          8           0        0.230767    0.707911   -0.000027
      2          5           0        1.459148    0.118437   -0.000008
      3          8           0        2.575617    0.919903   -0.000038
      4          6           0       -1.060431    0.041306   -0.000001
      5          6           0       -2.078970    1.183441   -0.000034
      6          1           0       -1.945293    1.809516   -0.885387
      7          1           0       -1.945286    1.809573    0.885278
      8          6           0       -1.202903   -0.808958    1.267792
      9          1           0       -2.200488   -1.254258    1.315520
     10          1           0       -1.063641   -0.186586    2.155760
     11          1           0       -0.463315   -1.610027    1.282276
     12          6           0       -1.202913   -0.809041   -1.267737
     13          1           0       -1.063658   -0.186726   -2.155746
     14          1           0       -2.200499   -1.254344   -1.315427
     15          1           0       -0.463325   -1.610110   -1.282175
     16          1           0       -3.099502    0.792074   -0.000017
     17          1           0        2.336665    1.851234   -0.000072
     18          8           0        1.633180   -1.243020    0.000046
     19          1           0        2.567400   -1.471368    0.000054
 ---------------------------------------------------------------------

 SCF Done:  E(RHF) =  -407.520272074     A.U. after    2 cycles

 The electronic state is 1-A.
 Alpha  occ. eigenvalues --  -20.57655 -20.57358 -20.56361 -11.30351 -11.22254
 Alpha  occ. eigenvalues --  -11.22077 -11.22069  -7.67948  -1.35298  -1.30823
 Alpha  occ. eigenvalues --   -1.30275  -1.06234  -0.93506  -0.93481  -0.80879
 Alpha  occ. eigenvalues --   -0.76529  -0.74731  -0.67391  -0.63746  -0.62446
 Alpha  occ. eigenvalues --   -0.59947  -0.59786  -0.58245  -0.57003  -0.54952
 Alpha  occ. eigenvalues --   -0.53470  -0.52608  -0.51341  -0.51254  -0.50965
 Alpha  occ. eigenvalues --   -0.45918  -0.45024
 Alpha virt. eigenvalues --    0.03219   0.04569   0.04836   0.04896   0.06063
 Alpha virt. eigenvalues --    0.06382   0.06637   0.06885   0.07019   0.08775
 Alpha virt. eigenvalues --    0.09089   0.09538   0.09798   0.10535   0.12381

 Mulliken charges:
               1
     1  O   -0.527200
     2  B    0.777188
     3  O   -0.515202
     4  C   -2.392551
     5  C    0.971800
     6  H   -0.007313
     7  H   -0.007313
     8  C    0.984798
     9  H    0.014419
    10  H   -0.018345
    11  H   -0.062552
    12  C    0.984794
    13  H   -0.018342
    14  H    0.014423
    15  H   -0.062555
    16  H    0.057268
    17  H    0.169627
    18  O   -0.532344
    19  H    0.169398
 Sum of Mulliken charges =  -0.00000

 Dipole moment (field-independent basis, Debye):
    X=             -0.6594    Y=              0.1164    Z=             -0.0000  Tot=              0.6696

 Test job not archived.
 1\1\GINC-SE177\SP\RHF\Aug-CC-pVDZ\C4H11B1O3\OHZDE\09-Apr-2025\0\\#t hf
  aug-cc-pvdz iop(5/13=1,5/36=2,99/5=2) pseudo=read geom=check guess=(r
 ead,tcheck) scf=(maxcycle=1)\\title\\0,1\O,0,0.230767,0.707911,-0.0000
 27\B,0,1.459148,0.118437,-0.000008\O,0,2.575617,0.919903,-0.000038\C,0
 ,-1.060431,0.041306,-0.000001\C,0,-2.07897,1.183441,-0.000034\H,0,-1.9
 45293,1.809516,-0.885387\H,0,-1.945286,1.809573,0.885278\C,0,-1.202903
 ,-0.808958,1.267792\H,0,-2.200488,-1.254258,1.31552\H,0,-1.063641,-0.1
 86586,2.15576\H,0,-0.463315,-1.610027,1.282276\C,0,-1.202913,-0.809041

 Normal termination of Gaussian 16 at Wed Apr  9 00:40:31 2025.
