 Gaussian 16, Revision C.01,

 ----------------------------------------------------------------------
 #t hf aug-cc-pvdz symm=none int=(grid=ultrafine) guess=(read,tcheck) s
 table=(opt,rrhf)
 ----------------------------------------------------------------------
 -----
 title
 -----
 Symbolic Z-matrix:
 Charge =  0 Multiplicity = 1

 SCF Done:  E(RHF) =  -422.835381106     A.U. after   12 cycles
 Normal termination of Gaussian 16 at Wed Apr  9 00:41:49 2025.
 Gaussian 16:  ES64L-G16RevC.01  3-Jul-2019

 ----------------------------------------------------------------------
 #t hf aug-cc-pvdz iop(5/13=1,5/36=2,99/5=2) pseudo=read geom=check gue
 ss=(read,tcheck) scf=(maxcycle=1)
 ----------------------------------------------------------------------
 -----
 title
 -----
 Structure from the checkpoint file:  "BDE49_nonexpt_732_mol1.chk"
 Charge =  0 Multiplicity = 1

                         Standard orientation:
 ---------------------------------------------------------------------
 Center     Atomic      Atomic             Coordinates (Angstroms)
 Number     Number       Type             X           Y           Z
 ---------------------------------------------------------------------
      1         15           0        1.183400   -0.078917   -0.117331
      2          5           0       -0.628616    0.584725    0.019193
      3          7           0       -1.742655   -0.247605    0.010342
      4          1           0       -1.694297   -1.255121    0.028446
      5          1           0       -2.685802    0.109698   -0.010819
      6          1           0       -0.798270    1.765648    0.004649
      7          1           0        1.044996   -1.290848    0.608959
      8          1           0        1.724041    0.663989    0.960372
 ---------------------------------------------------------------------

 SCF Done:  E(RHF) =  -422.882335931     A.U. after    2 cycles

 The electronic state is 1-A.
 Alpha  occ. eigenvalues --  -81.23151 -15.62949  -7.73792  -7.62096  -4.87796
 Alpha  occ. eigenvalues --   -4.87724  -4.87458  -1.13391  -0.79683  -0.70468
 Alpha  occ. eigenvalues --   -0.68116  -0.55685  -0.49890  -0.45734  -0.42795
 Alpha  occ. eigenvalues --   -0.34110
 Alpha virt. eigenvalues --    0.03252   0.04462   0.04897   0.05749   0.07435
 Alpha virt. eigenvalues --    0.07921   0.09104   0.10325   0.11046   0.11693
 Alpha virt. eigenvalues --    0.13660   0.14530   0.15306   0.18413   0.18738

 Mulliken charges:
               1
     1  P   -0.430432
     2  B    0.133179
     3  N   -0.140405
     4  H    0.046746
     5  H   -0.029531
     6  H    0.215437
     7  H    0.095150
     8  H    0.109857
 Sum of Mulliken charges =  -0.00000

 Dipole moment (field-independent basis, Debye):
    X=             -2.0955    Y=             -0.7860    Z=              0.5930  Tot=              2.3153

 Test job not archived.
 1\1\GINC-SE186\SP\RHF\Aug-CC-pVDZ\B1H5N1P1\OHZDE\09-Apr-2025\0\\#t hf
 aug-cc-pvdz iop(5/13=1,5/36=2,99/5=2) pseudo=read geom=check guess=(re
 ad,tcheck) scf=(maxcycle=1)\\title\\0,1\P,0,1.1834,-0.078917,-0.117331
 \B,0,-0.628616,0.584725,0.019193\N,0,-1.742655,-0.247605,0.010342\H,0,
 -1.694297,-1.255121,0.028446\H,0,-2.685802,0.109698,-0.010819\H,0,-0.7
 9827,1.765648,0.004649\H,0,1.044996,-1.290848,0.608959\H,0,1.724041,0.
 663989,0.960372\\Version=ES64L-G16RevC.01\State=1-A\HF=-422.8823359\RM
 SD=9.643e-03\Dipole=-0.8244153,-0.3092496,0.2332918\Quadrupole=1.54689

 Normal termination of Gaussian 16 at Wed Apr  9 00:41:52 2025.
