 Gaussian 16, Revision C.01,

 ----------------------------------------------------------------------
 #t hf aug-cc-pvdz symm=none int=(grid=ultrafine) guess=(read,tcheck) s
 table=(opt,rrhf)
 ----------------------------------------------------------------------
 -----
 title
 -----
 Symbolic Z-matrix:
 Charge =  0 Multiplicity = 1

 SCF Done:  E(RHF) =  -368.138408345     A.U. after   12 cycles

 1\1\GINC-SE334\Stability\RHF\Aug-CC-pVDZ\C2H6Si1\OHZDE\08-Apr-2025\0\\
 #t hf aug-cc-pvdz symm=none int=(grid=ultrafine) guess=(read,tcheck) s
 table=(opt,rrhf)\\title\\0,1\Si,0,1.081925,0.077537,0.\C,0,-0.684154,-
 0.527658,0.\C,0,-1.746001,0.281609,0.\H,0,-0.861363,-1.60306,0.000001\
 H,0,-1.643697,1.36332,-0.000001\H,0,-2.764211,-0.098589,0.\H,0,1.08868
 5,1.559249,-0.000001\H,0,1.80728,-0.415072,-1.196547\H,0,1.807279,-0.4
 1507,1.196548\\Version=ES64L-G16RevC.01\HF=-368.1384083\RMSD=2.873e-09
 \Dipole=-0.2849203,-0.0415919,0.\Quadrupole=0.7846927,0.9358097,-1.720

 Normal termination of Gaussian 16 at Tue Apr  8 23:56:19 2025.
 Gaussian 16:  ES64L-G16RevC.01  3-Jul-2019

 ----------------------------------------------------------------------
 #t hf aug-cc-pvdz iop(5/13=1,5/36=2,99/5=2) pseudo=read geom=check gue
 ss=(read,tcheck) scf=(maxcycle=1)
 ----------------------------------------------------------------------
 -----
 title
 -----
 Structure from the checkpoint file:  "BDE49_nonexpt_2044_mol1.chk"
 Charge =  0 Multiplicity = 1

                         Standard orientation:
 ---------------------------------------------------------------------
 Center     Atomic      Atomic             Coordinates (Angstroms)
 Number     Number       Type             X           Y           Z
 ---------------------------------------------------------------------
      1         14           0        1.081925    0.077537    0.000000
      2          6           0       -0.684154   -0.527658    0.000000
      3          6           0       -1.746001    0.281609    0.000000
      4          1           0       -0.861363   -1.603060    0.000001
      5          1           0       -1.643697    1.363320   -0.000001
      6          1           0       -2.764211   -0.098590    0.000000
      7          1           0        1.088685    1.559249   -0.000001
      8          1           0        1.807280   -0.415072   -1.196547
      9          1           0        1.807279   -0.415070    1.196548
 ---------------------------------------------------------------------

 SCF Done:  E(RHF) =  -368.187660105     A.U. after    2 cycles

 The electronic state is 1-A.
 Alpha  occ. eigenvalues --  -69.06261 -11.25527 -11.23560  -6.81571  -3.92370
 Alpha  occ. eigenvalues --   -3.92344  -3.92330  -1.03278  -0.79684  -0.69790
 Alpha  occ. eigenvalues --   -0.62982  -0.56962  -0.48547  -0.47748  -0.45563
 Alpha  occ. eigenvalues --   -0.38344
 Alpha virt. eigenvalues --    0.03408   0.04682   0.04825   0.06262   0.06447
 Alpha virt. eigenvalues --    0.07486   0.08336   0.09438   0.10224   0.10317
 Alpha virt. eigenvalues --    0.14212   0.14480   0.15151   0.15757   0.17563

 Mulliken charges:
               1
     1  Si   0.544805
     2  C    0.035701
     3  C    0.584654
     4  H   -0.393482
     5  H   -0.291215
     6  H   -0.251238
     7  H   -0.105709
     8  H   -0.061759
     9  H   -0.061759
 Sum of Mulliken charges =  -0.00000

 Dipole moment (field-independent basis, Debye):
    X=             -0.7431    Y=             -0.1048    Z=              0.0000  Tot=              0.7505

 Test job not archived.
 1\1\GINC-SE334\SP\RHF\Aug-CC-pVDZ\C2H6Si1\OHZDE\08-Apr-2025\0\\#t hf a
 ug-cc-pvdz iop(5/13=1,5/36=2,99/5=2) pseudo=read geom=check guess=(rea
 d,tcheck) scf=(maxcycle=1)\\title\\0,1\Si,0,1.081925,0.077537,0.\C,0,-
 0.684154,-0.527658,0.\C,0,-1.746001,0.281609,0.\H,0,-0.861363,-1.60306
 ,0.000001\H,0,-1.643697,1.36332,-0.000001\H,0,-2.764211,-0.098589,0.\H
 ,0,1.088685,1.559249,-0.000001\H,0,1.80728,-0.415072,-1.196547\H,0,1.8
 07279,-0.41507,1.196548\\Version=ES64L-G16RevC.01\State=1-A\HF=-368.18
 76601\RMSD=7.509e-03\Dipole=-0.2923583,-0.0412272,0.\Quadrupole=0.7729

 Normal termination of Gaussian 16 at Tue Apr  8 23:56:21 2025.
