 Gaussian 16, Revision C.01,

 ----------------------------------------------------------------------
 #t hf aug-cc-pvdz symm=none int=(grid=ultrafine) guess=(read,tcheck) s
 table=(opt,rrhf)
 ----------------------------------------------------------------------
 -----
 title
 -----
 Symbolic Z-matrix:
 Charge =  0 Multiplicity = 1

 SCF Done:  E(RHF) =  -611.877908710     A.U. after   13 cycles
 Normal termination of Gaussian 16 at Tue Apr  8 22:48:29 2025.
 Gaussian 16:  ES64L-G16RevC.01  3-Jul-2019

 ----------------------------------------------------------------------
 #t hf aug-cc-pvdz iop(5/13=1,5/36=2,99/5=2) pseudo=read geom=check gue
 ss=(read,tcheck) scf=(maxcycle=1)
 ----------------------------------------------------------------------
 -----
 title
 -----
 Structure from the checkpoint file:  "BDE49_expt_1710_mol1.chk"
 Charge =  0 Multiplicity = 1

                         Standard orientation:
 ---------------------------------------------------------------------
 Center     Atomic      Atomic             Coordinates (Angstroms)
 Number     Number       Type             X           Y           Z
 ---------------------------------------------------------------------
      1          6           0       -1.318312   -1.009406    0.000114
      2          6           0       -0.495329    0.244330    0.000372
      3          1           0       -1.074442   -1.606560    0.880616
      4          1           0       -1.074131   -1.606435   -0.880388
      5          1           0       -2.374739   -0.742550   -0.000057
      6         17           0        1.309547   -0.139764   -0.000173
      7          8           0       -0.857142    1.365249   -0.000019
 ---------------------------------------------------------------------

 SCF Done:  E(RHF) =  -611.945687563     A.U. after    2 cycles

 The electronic state is 1-A.
 Alpha  occ. eigenvalues -- -103.66788 -20.61959 -11.43116 -11.28404 -10.70112
 Alpha  occ. eigenvalues --   -8.35807  -8.35527  -8.35516  -1.42763  -1.16008
 Alpha  occ. eigenvalues --   -1.03782  -0.79017  -0.69712  -0.68683  -0.65561
 Alpha  occ. eigenvalues --   -0.59461  -0.56846  -0.47872  -0.47762  -0.46898
 Alpha virt. eigenvalues --    0.03056   0.05300   0.05528   0.07866   0.09729
 Alpha virt. eigenvalues --    0.10606   0.12216   0.13393   0.13579   0.14142
 Alpha virt. eigenvalues --    0.14451   0.16435   0.18352   0.18468   0.19709

 Mulliken charges:
               1
     1  C    0.452132
     2  C   -0.046710
     3  H    0.060638
     4  H    0.060635
     5  H   -0.018832
     6  Cl  -0.175963
     7  O   -0.331900
 Sum of Mulliken charges =  -0.00000

 Dipole moment (field-independent basis, Debye):
    X=             -1.6819    Y=             -2.9040    Z=              0.0008  Tot=              3.3559

 Test job not archived.
 1\1\GINC-SE141\SP\RHF\Aug-CC-pVDZ\C2H3Cl1O1\OHZDE\08-Apr-2025\0\\#t hf
  aug-cc-pvdz iop(5/13=1,5/36=2,99/5=2) pseudo=read geom=check guess=(r
 ead,tcheck) scf=(maxcycle=1)\\title\\0,1\C,0,-1.318312,-1.009406,0.000
 114\C,0,-0.495329,0.24433,0.000372\H,0,-1.074442,-1.60656,0.880616\H,0
 ,-1.074131,-1.606435,-0.880388\H,0,-2.374739,-0.74255,-0.000057\Cl,0,1
 .309547,-0.139764,-0.000173\O,0,-0.857142,1.365249,-0.000019\\Version=
 ES64L-G16RevC.01\State=1-A\HF=-611.9456876\RMSD=3.435e-03\Dipole=-0.66
 17261,-1.1425149,0.0003207\Quadrupole=0.6692085,-1.5392575,0.870049,2.

 Normal termination of Gaussian 16 at Tue Apr  8 22:48:32 2025.
