 Gaussian 16, Revision C.01,

 ----------------------------------------------------------------------
 #t hf aug-cc-pvdz symm=none int=(grid=ultrafine) guess=(read,tcheck) s
 table=(opt,rrhf)
 ----------------------------------------------------------------------
 -----
 title
 -----
 Symbolic Z-matrix:
 Charge =  0 Multiplicity = 1

 SCF Done:  E(RHF) =  -935.845692216     A.U. after   16 cycles
 Normal termination of Gaussian 16 at Tue Apr  8 22:56:00 2025.
 Gaussian 16:  ES64L-G16RevC.01  3-Jul-2019

 ----------------------------------------------------------------------
 #t hf aug-cc-pvdz iop(5/13=1,5/36=2,99/5=2) pseudo=read geom=check gue
 ss=(read,tcheck) scf=(maxcycle=1)
 ----------------------------------------------------------------------
 -----
 title
 -----
 Structure from the checkpoint file:  "BDE49_expt_1587_mol1.chk"
 Charge =  0 Multiplicity = 1

                         Standard orientation:
 ---------------------------------------------------------------------
 Center     Atomic      Atomic             Coordinates (Angstroms)
 Number     Number       Type             X           Y           Z
 ---------------------------------------------------------------------
      1          6           0       -3.324443   -1.054237    0.285546
      2          6           0       -2.009199   -1.402190   -0.004482
      3          6           0       -3.785775    0.253705    0.097988
      4          6           0       -2.883892    1.204808   -0.388582
      5          6           0       -1.565567    0.865635   -0.682213
      6          6           0       -1.112079   -0.443050   -0.488513
      7          1           0       -1.670639   -2.421895    0.137735
      8          1           0       -4.005189   -1.812247    0.660509
      9          6           0       -5.223256    0.616183    0.381515
     10          1           0       -3.216992    2.226381   -0.542951
     11          1           0       -0.880664    1.612543   -1.064273
     12         16           0        0.573884   -0.892572   -0.887207
     13          6           0        1.429813   -0.589501    0.782304
     14          6           0        1.543645    0.857932    1.151788
     15          6           0        2.749927   -1.296343    0.763717
     16          1           0        0.774797   -1.086920    1.496547
     17          6           0        3.857730   -0.889906    0.110704
     18          6           0        2.380730    1.765887    0.607732
     19          6           0        3.426449    1.531818   -0.355357
     20          6           0        4.071627    0.358937   -0.580375
     21          1           0        0.850509    1.202736    1.913451
     22          1           0        2.262210    2.797800    0.929059
     23          1           0        2.782530   -2.250238    1.281377
     24          1           0        4.702573   -1.574275    0.106728
     25          1           0        3.788531    2.407399   -0.886649
     26          1           0        4.904134    0.375549   -1.277892
     27          1           0       -5.861922    0.387029   -0.478653
     28          1           0       -5.331456    1.681861    0.594694
     29          1           0       -5.614825    0.057362    1.234988
 ---------------------------------------------------------------------

 SCF Done:  E(RHF) =  -936.020742648     A.U. after    2 cycles

 The electronic state is 1-A.
 Alpha  occ. eigenvalues --  -93.52362 -11.28364 -11.26583 -11.25738 -11.25500
 Alpha  occ. eigenvalues --  -11.25297 -11.24970 -11.24956 -11.24835 -11.24827
 Alpha  occ. eigenvalues --  -11.24734 -11.24576 -11.24284 -11.24243 -11.23931
 Alpha  occ. eigenvalues --   -8.81991  -6.16196  -6.15947  -6.15642  -1.15195
 Alpha  occ. eigenvalues --   -1.12992  -1.06319  -1.04226  -1.03908  -1.01193
 Alpha  occ. eigenvalues --   -0.96398  -0.91909  -0.87102  -0.86247  -0.83447
 Alpha  occ. eigenvalues --   -0.78604  -0.72569  -0.70919  -0.70793  -0.67028
 Alpha  occ. eigenvalues --   -0.64999  -0.63261  -0.62343  -0.61724  -0.59156
 Alpha  occ. eigenvalues --   -0.58301  -0.57214  -0.55404  -0.54901  -0.54254
 Alpha  occ. eigenvalues --   -0.52339  -0.50964  -0.49803  -0.49442  -0.49110
 Alpha  occ. eigenvalues --   -0.44829  -0.43306  -0.37459  -0.34383  -0.33666
 Alpha  occ. eigenvalues --   -0.33319  -0.29485
 Alpha virt. eigenvalues --    0.03197   0.03639   0.03794   0.04407   0.04759
 Alpha virt. eigenvalues --    0.05088   0.05809   0.06017   0.06264   0.06687
 Alpha virt. eigenvalues --    0.07232   0.07477   0.07957   0.08644   0.09177

 Mulliken charges:
               1
     1  C    0.857380
     2  C    0.167034
     3  C   -0.370868
     4  C    0.676946
     5  C    0.202516
     6  C    0.044744
     7  H   -0.569033
     8  H   -0.603532
     9  C    0.533200
    10  H   -0.610391
    11  H   -0.591642
    12  S    0.320365
    13  C    0.211112
    14  C    0.633865
    15  C    0.654349
    16  H   -0.169308
    17  C    0.682854
    18  C    0.491241
    19  C    0.230084
    20  C    0.181792
    21  H   -0.556913
    22  H   -0.493432
    23  H   -0.491566
    24  H   -0.466946
    25  H   -0.463063
    26  H   -0.467160
    27  H    0.102055
    28  H   -0.095180
    29  H   -0.040504
 Sum of Mulliken charges =   0.00000

 Dipole moment (field-independent basis, Debye):
    X=             -1.0089    Y=              0.7989    Z=              1.5123  Tot=              1.9858

 Test job not archived.
 1\1\GINC-SE094\SP\RHF\Aug-CC-pVDZ\C14H14S1\OHZDE\08-Apr-2025\0\\#t hf
 aug-cc-pvdz iop(5/13=1,5/36=2,99/5=2) pseudo=read geom=check guess=(re
 ad,tcheck) scf=(maxcycle=1)\\title\\0,1\C,0,-3.324443,-1.054237,0.2855
 46\C,0,-2.009199,-1.40219,-0.004482\C,0,-3.785775,0.253705,0.097988\C,
 0,-2.883892,1.204808,-0.388582\C,0,-1.565567,0.865635,-0.682213\C,0,-1
 .112079,-0.44305,-0.488513\H,0,-1.670639,-2.421895,0.137735\H,0,-4.005
 189,-1.812247,0.660509\C,0,-5.223256,0.616183,0.381515\H,0,-3.216992,2
 .226381,-0.542951\H,0,-0.880664,1.612543,-1.064273\S,0,0.573884,-0.892

 Normal termination of Gaussian 16 at Tue Apr  8 22:56:34 2025.
