 Gaussian 16, Revision C.01,

 ----------------------------------------------------------------------
 #t hf aug-cc-pvdz symm=none int=(grid=ultrafine) guess=(read,tcheck) s
 table=(opt,rrhf)
 ----------------------------------------------------------------------
 -----
 title
 -----
 Symbolic Z-matrix:
 Charge =  0 Multiplicity = 1

 SCF Done:  E(RHF) =  -744.020048183     A.U. after   14 cycles
 Normal termination of Gaussian 16 at Tue Apr  8 23:52:34 2025.
 Gaussian 16:  ES64L-G16RevC.01  3-Jul-2019

 ----------------------------------------------------------------------
 #t hf aug-cc-pvdz iop(5/13=1,5/36=2,99/5=2) pseudo=read geom=check gue
 ss=(read,tcheck) scf=(maxcycle=1)
 ----------------------------------------------------------------------
 -----
 title
 -----
 Structure from the checkpoint file:  "BDE49_nonexpt_1909_mol1.chk"
 Charge =  0 Multiplicity = 1

                         Standard orientation:
 ---------------------------------------------------------------------
 Center     Atomic      Atomic             Coordinates (Angstroms)
 Number     Number       Type             X           Y           Z
 ---------------------------------------------------------------------
      1         14           0       -0.157461   -0.871728    0.002895
      2          6           0        0.505447    0.784157   -0.677193
      3          7           0        1.931743    0.998721   -0.450572
      4          6           0        2.703038    0.016749    0.054976
      5          8           0        2.216107   -1.081216    0.338220
      6          1           0        2.344287    1.892658   -0.666526
      7          7           0       -1.913049   -0.713795   -0.373427
      8          1           0       -0.102574   -1.026054    1.463496
      9          1           0        0.123832   -2.079844   -0.793168
     10          6           0       -2.727713    0.238067    0.177268
     11          8           0       -2.286229    1.139144    0.877936
     12          1           0       -2.369692   -1.418660   -0.934986
     13          6           0        4.169834    0.306997    0.266214
     14          1           0        4.464656    1.306071   -0.059401
     15          1           0        4.755437   -0.436797   -0.277085
     16          1           0        4.398983    0.193070    1.327627
     17          6           0       -4.218866    0.105651   -0.099996
     18          1           0       -4.424532   -0.271202   -1.104996
     19          1           0       -4.691112    1.077756    0.032600
     20          1           0       -4.658548   -0.591453    0.619908
     21          1           0       -0.078919    1.566185   -0.187027
     22          1           0        0.282320    0.824830   -1.749856
 ---------------------------------------------------------------------

 SCF Done:  E(RHF) =  -744.189531394     A.U. after    2 cycles

 The electronic state is 1-A.
 Alpha  occ. eigenvalues --  -69.07394 -20.54956 -20.52325 -15.66498 -15.61134
 Alpha  occ. eigenvalues --  -11.37918 -11.35336 -11.26035 -11.25509 -11.23949
 Alpha  occ. eigenvalues --   -6.82048  -3.92910  -3.92785  -3.92750  -1.36283
 Alpha  occ. eigenvalues --   -1.33133  -1.20527  -1.14432  -1.02398  -0.98297
 Alpha  occ. eigenvalues --   -0.92486  -0.80088  -0.77191  -0.72526  -0.70607
 Alpha  occ. eigenvalues --   -0.67048  -0.65626  -0.64832  -0.61079  -0.60103
 Alpha  occ. eigenvalues --   -0.59724  -0.59165  -0.56699  -0.56489  -0.53208
 Alpha  occ. eigenvalues --   -0.52172  -0.51398  -0.47010  -0.45999  -0.45477
 Alpha  occ. eigenvalues --   -0.42273  -0.40059  -0.38808
 Alpha virt. eigenvalues --    0.02641   0.03349   0.04235   0.04635   0.05437
 Alpha virt. eigenvalues --    0.05836   0.05985   0.07356   0.07473   0.08093
 Alpha virt. eigenvalues --    0.08407   0.08968   0.10156   0.11193   0.11831

 Mulliken charges:
               1
     1  Si   0.182819
     2  C    0.660880
     3  N   -0.358494
     4  C    0.171800
     5  O   -0.459303
     6  H   -0.107099
     7  N   -0.590509
     8  H    0.200894
     9  H    0.235724
    10  C    0.345226
    11  O   -0.575001
    12  H   -0.133189
    13  C    0.480481
    14  H   -0.109047
    15  H    0.030075
    16  H    0.030473
    17  C    0.409359
    18  H   -0.060765
    19  H   -0.038387
    20  H    0.054013
    21  H   -0.212131
    22  H   -0.157821
 Sum of Mulliken charges =   0.00000

 Dipole moment (field-independent basis, Debye):
    X=              1.7714    Y=              1.0343    Z=             -3.2903  Tot=              3.8774

 Test job not archived.
 1\1\GINC-SE457\SP\RHF\Aug-CC-pVDZ\C5H12N2O2Si1\OHZDE\08-Apr-2025\0\\#t
  hf aug-cc-pvdz iop(5/13=1,5/36=2,99/5=2) pseudo=read geom=check guess
 =(read,tcheck) scf=(maxcycle=1)\\title\\0,1\Si,0,-0.157461,-0.871728,0
 .002895\C,0,0.505447,0.784157,-0.677193\N,0,1.931743,0.998721,-0.45057
 2\C,0,2.703038,0.016749,0.054976\O,0,2.216107,-1.081216,0.33822\H,0,2.
 344287,1.892658,-0.666526\N,0,-1.913049,-0.713795,-0.373427\H,0,-0.102
 574,-1.026054,1.463496\H,0,0.123832,-2.079844,-0.793168\C,0,-2.727713,
 0.238067,0.177268\O,0,-2.286229,1.139144,0.877936\H,0,-2.369692,-1.418

 Normal termination of Gaussian 16 at Tue Apr  8 23:52:46 2025.
