 Gaussian 16, Revision C.01,

 ----------------------------------------------------------------------
 #t hf aug-cc-pvdz symm=none int=(grid=ultrafine) guess=(read,tcheck) s
 table=(opt,rrhf)
 ----------------------------------------------------------------------
 -----
 title
 -----
 Symbolic Z-matrix:
 Charge =  0 Multiplicity = 1

 SCF Done:  E(RHF) =  -578.934205813     A.U. after   13 cycles
 Normal termination of Gaussian 16 at Tue Apr  8 23:37:04 2025.
 Gaussian 16:  ES64L-G16RevC.01  3-Jul-2019

 ----------------------------------------------------------------------
 #t hf aug-cc-pvdz iop(5/13=1,5/36=2,99/5=2) pseudo=read geom=check gue
 ss=(read,tcheck) scf=(maxcycle=1)
 ----------------------------------------------------------------------
 -----
 title
 -----
 Structure from the checkpoint file:  "BDE49_nonexpt_1547_mol1.chk"
 Charge =  0 Multiplicity = 1

                         Standard orientation:
 ---------------------------------------------------------------------
 Center     Atomic      Atomic             Coordinates (Angstroms)
 Number     Number       Type             X           Y           Z
 ---------------------------------------------------------------------
      1          6           0       -2.851595   -0.668488    0.414203
      2          5           0       -1.559097    0.071852   -0.098004
      3          1           0       -3.125723   -0.227284    1.383756
      4          1           0       -2.742804   -1.744533    0.576077
      5          1           0       -3.713046   -0.500591   -0.242290
      6          6           0       -1.642231    1.523968   -0.692634
      7          1           0       -2.200123    1.485742   -1.639199
      8          1           0       -0.676267    1.989577   -0.897343
      9          1           0       -2.226647    2.184916   -0.040579
     10         15           0        0.051454   -0.935684   -0.174274
     11          7           0        1.380871    0.145380   -0.073752
     12          6           0        2.651719   -0.329861   -0.621565
     13          1           0        3.209286   -0.973469    0.078359
     14          1           0        3.287803    0.527076   -0.868249
     15          1           0        2.472162   -0.896184   -1.535947
     16          6           0        1.553289    0.953861    1.129563
     17          1           0        2.296715    1.737209    0.946328
     18          1           0        1.893501    0.360631    1.994770
     19          1           0        0.612132    1.436074    1.397526
     20          1           0        0.003500   -1.597722    1.089786
 ---------------------------------------------------------------------

 SCF Done:  E(RHF) =  -579.035970811     A.U. after    2 cycles

 The electronic state is 1-A.
 Alpha  occ. eigenvalues --  -81.24406 -15.61614 -11.26214 -11.25844 -11.20694
 Alpha  occ. eigenvalues --  -11.20353  -7.74779  -7.60895  -4.89013  -4.88740
 Alpha  occ. eigenvalues --   -4.88561  -1.17036  -0.96430  -0.95091  -0.91820
 Alpha  occ. eigenvalues --   -0.86753  -0.74571  -0.63744  -0.63001  -0.60703
 Alpha  occ. eigenvalues --   -0.59417  -0.56287  -0.55954  -0.54694  -0.54304
 Alpha  occ. eigenvalues --   -0.53050  -0.51611  -0.50928  -0.46117  -0.42933
 Alpha  occ. eigenvalues --   -0.35421  -0.32097
 Alpha virt. eigenvalues --    0.03065   0.04164   0.04486   0.04769   0.06254
 Alpha virt. eigenvalues --    0.06298   0.06349   0.07156   0.07279   0.08434
 Alpha virt. eigenvalues --    0.08858   0.08868   0.09137   0.09258   0.10180

 Mulliken charges:
               1
     1  C    0.509393
     2  B    0.313216
     3  H   -0.108582
     4  H   -0.343808
     5  H   -0.274557
     6  C    0.486849
     7  H   -0.055744
     8  H   -0.306950
     9  H   -0.113659
    10  P    0.119929
    11  N   -0.934712
    12  C    0.728897
    13  H   -0.058133
    14  H   -0.191040
    15  H   -0.261577
    16  C    0.806227
    17  H   -0.130921
    18  H   -0.069994
    19  H   -0.293275
    20  H    0.178442
 Sum of Mulliken charges =   0.00000

 Dipole moment (field-independent basis, Debye):
    X=              0.3092    Y=              0.9297    Z=              0.9233  Tot=              1.3463

 Test job not archived.
 1\1\GINC-SE250\SP\RHF\Aug-CC-pVDZ\C4H13B1N1P1\OHZDE\08-Apr-2025\0\\#t
 hf aug-cc-pvdz iop(5/13=1,5/36=2,99/5=2) pseudo=read geom=check guess=
 (read,tcheck) scf=(maxcycle=1)\\title\\0,1\C,0,-2.851595,-0.668488,0.4
 14203\B,0,-1.559097,0.071852,-0.098004\H,0,-3.125723,-0.227284,1.38375
 6\H,0,-2.742804,-1.744533,0.576077\H,0,-3.713046,-0.500591,-0.24229\C,
 0,-1.642231,1.523968,-0.692634\H,0,-2.200123,1.485742,-1.639199\H,0,-0
 .676267,1.989577,-0.897343\H,0,-2.226647,2.184916,-0.040579\P,0,0.0514
 54,-0.935684,-0.174274\N,0,1.380871,0.14538,-0.073752\C,0,2.651719,-0.

 Normal termination of Gaussian 16 at Tue Apr  8 23:37:12 2025.
