 Gaussian 16, Revision C.01,

 ----------------------------------------------------------------------
 #t hf aug-cc-pvdz symm=none int=(grid=ultrafine) guess=(read,tcheck) s
 table=opt
 ----------------------------------------------------------------------
 -----
 title
 -----
 Symbolic Z-matrix:
 Charge =  0 Multiplicity = 2

 SCF Done:  E(UHF) =  -1248.73795084     A.U. after   19 cycles
 Normal termination of Gaussian 16 at Tue Apr  8 23:31:41 2025.
 Gaussian 16:  ES64L-G16RevC.01  3-Jul-2019

 ----------------------------------------------------------------------
 #t hf aug-cc-pvdz iop(5/13=1,5/36=2,99/5=2) pseudo=read geom=check gue
 ss=(read,tcheck) scf=(maxcycle=1)
 ----------------------------------------------------------------------
 -----
 title
 -----
 Structure from the checkpoint file:  "BDE49_nonexpt_1359_mol2.chk"
 Charge =  0 Multiplicity = 2

                         Standard orientation:
 ---------------------------------------------------------------------
 Center     Atomic      Atomic             Coordinates (Angstroms)
 Number     Number       Type             X           Y           Z
 ---------------------------------------------------------------------
      1          9           0       -1.731079   -1.785141   -0.165208
      2          9           0       -2.495841    0.443842   -0.829098
      3          8           0        1.210325    2.721494   -0.174115
      4          6           0       -0.033356    2.131614   -0.608623
      5          1           0       -0.118170    2.099455   -1.697846
      6          1           0       -0.901181    2.657707   -0.194268
      7          6           0        0.302385    0.788947    0.097291
      8         15           0       -2.319792   -0.433463    0.529954
      9          6           0       -0.730902    0.288087    1.117475
     10          1           0       -1.025209    1.113878    1.777131
     11          1           0       -0.303031   -0.481362    1.774201
     12          6           0        1.477391    1.607706    0.706287
     13          1           0        1.333489    1.879811    1.759340
     14          1           0        2.478785    1.197829    0.567582
     15          6           0        0.779696   -0.284439   -0.905366
     16         15           0        1.519235   -1.835083   -0.222422
     17          9           0        2.962515   -1.209262    0.266898
     18          1           0        1.525602    0.164835   -1.570910
     19          1           0       -0.056176   -0.612362   -1.531006
 ---------------------------------------------------------------------

 SCF Done:  E(UHF) =  -1248.98160030     A.U. after    2 cycles

 The electronic state is 2-A.
 Alpha  occ. eigenvalues --  -81.40831 -81.33212 -26.14882 -26.14835 -26.12191
 Alpha  occ. eigenvalues --  -20.57448 -11.30124 -11.29940 -11.28561 -11.27562
 Alpha  occ. eigenvalues --  -11.26123  -7.89530  -7.82858  -5.03618  -5.03408
 Alpha  occ. eigenvalues --   -5.02943  -4.97548  -4.96602  -4.96105  -1.68007
 Alpha  occ. eigenvalues --   -1.66634  -1.64433  -1.35139  -1.10364  -0.99503
 Alpha  occ. eigenvalues --   -0.94912  -0.93902  -0.88075  -0.83320  -0.80260
 Alpha  occ. eigenvalues --   -0.78036  -0.77886  -0.75922  -0.75090  -0.74452
 Alpha  occ. eigenvalues --   -0.73201  -0.72115  -0.69981  -0.68302  -0.65118
 Alpha  occ. eigenvalues --   -0.62629  -0.60772  -0.59297  -0.58640  -0.56236
 Alpha  occ. eigenvalues --   -0.53276  -0.49400  -0.48422  -0.44405  -0.41129
 Alpha  occ. eigenvalues --   -0.40313  -0.35333
 Alpha virt. eigenvalues --    0.03266   0.04348   0.04649   0.05198   0.06088
 Alpha virt. eigenvalues --    0.06421   0.06490   0.07225   0.07349   0.08688
 Alpha virt. eigenvalues --    0.08818   0.10115   0.10296   0.12073   0.12362

  Beta  occ. eigenvalues --  -81.40831 -81.32511 -26.14882 -26.14828 -26.11783
  Beta  occ. eigenvalues --  -20.57446 -11.30129 -11.29950 -11.28436 -11.27551
  Beta  occ. eigenvalues --  -11.26255  -7.89530  -7.82014  -5.03618  -5.03409
  Beta  occ. eigenvalues --   -5.02943  -4.96214  -4.95778  -4.94237  -1.67998
  Beta  occ. eigenvalues --   -1.66624  -1.63327  -1.35128  -1.10118  -0.99188
  Beta  occ. eigenvalues --   -0.94913  -0.93385  -0.88003  -0.81089  -0.80254
  Beta  occ. eigenvalues --   -0.78008  -0.77838  -0.75687  -0.75029  -0.72911
  Beta  occ. eigenvalues --   -0.72104  -0.70859  -0.69755  -0.67952  -0.64455
  Beta  occ. eigenvalues --   -0.61098  -0.59758  -0.59272  -0.58573  -0.55587
  Beta  occ. eigenvalues --   -0.52666  -0.49023  -0.47738  -0.44188  -0.40327
  Beta  occ. eigenvalues --   -0.39329
  Beta virt. eigenvalues --    0.03196   0.03807   0.04674   0.04726   0.05220
  Beta virt. eigenvalues --    0.06146   0.06487   0.06833   0.07268   0.07783
  Beta virt. eigenvalues --    0.08802   0.08893   0.10343   0.10564   0.12408

 Mulliken charges and spin densities:
               1          2
     1  F   -0.640575  -0.006838
     2  F   -0.656994   0.000414
     3  O   -0.783315   0.000295
     4  C    1.263375   0.002918
     5  H   -0.152331   0.001948
     6  H   -0.240953  -0.000116
     7  C   -1.586960  -0.029959
     8  P    1.461501   0.003320
     9  C    0.303662   0.026863
    10  H   -0.134105  -0.001688
    11  H   -0.092014   0.007924
    12  C    1.360680   0.011994
    13  H   -0.257442   0.001484
    14  H   -0.164438  -0.000677
    15  C    0.417787  -0.102990
    16  P    0.871496   1.073234
    17  F   -0.713397   0.009798
    18  H   -0.168978   0.012614
    19  H   -0.087000  -0.010538
 Sum of Mulliken charges =  -0.00000   1.00000

 Dipole moment (field-independent basis, Debye):
    X=             -2.0474    Y=             -0.2247    Z=              1.5890  Tot=              2.6015
                          Isotropic Fermi Contact Couplings
        Atom                 a.u.       MegaHertz       Gauss      10(-4) cm-1
     1  F(19)              0.00167       7.03662       2.51084       2.34716
     2  F(19)              0.00014       0.58476       0.20866       0.19505
     3  O(17)              0.00014      -0.08664      -0.03092      -0.02890
     4  C(13)             -0.00178      -2.00532      -0.71555      -0.66890
     5  H(1)               0.00002       0.08637       0.03082       0.02881
     6  H(1)               0.00014       0.60417       0.21558       0.20153
     7  C(13)              0.02824      31.74343      11.32685      10.58847
     8  P(31)             -0.00029      -0.52334      -0.18674      -0.17457

 Normal termination of Gaussian 16 at Tue Apr  8 23:31:55 2025.
