 Gaussian 16, Revision C.01,

 ----------------------------------------------------------------------
 #t hf aug-cc-pvdz symm=none int=(grid=ultrafine) guess=(read,tcheck) s
 table=(opt,rrhf)
 ----------------------------------------------------------------------
 -----
 title
 -----
 Symbolic Z-matrix:
 Charge =  0 Multiplicity = 1

 SCF Done:  E(RHF) =  -247.051561758     A.U. after   13 cycles
 Normal termination of Gaussian 16 at Tue Apr  8 22:36:28 2025.
 Gaussian 16:  ES64L-G16RevC.01  3-Jul-2019

 ----------------------------------------------------------------------
 #t hf aug-cc-pvdz iop(5/13=1,5/36=2,99/5=2) pseudo=read geom=check gue
 ss=(read,tcheck) scf=(maxcycle=1)
 ----------------------------------------------------------------------
 -----
 title
 -----
 Structure from the checkpoint file:  "BDE49_expt_1205_mol1.chk"
 Charge =  0 Multiplicity = 1

                         Standard orientation:
 ---------------------------------------------------------------------
 Center     Atomic      Atomic             Coordinates (Angstroms)
 Number     Number       Type             X           Y           Z
 ---------------------------------------------------------------------
      1          6           0       -0.563431    0.138687    0.034691
      2          8           0       -0.535373    1.353985    0.068805
      3          7           0       -1.729807   -0.558519   -0.123110
      4          6           0        0.687847   -0.728208    0.178350
      5          1           0       -2.594578   -0.041452   -0.134093
      6          1           0       -1.764364   -1.562870   -0.089646
      7          6           0        1.970524    0.037097   -0.139799
      8          1           0        0.594192   -1.617980   -0.453688
      9          1           0        0.710153   -1.088909    1.214312
     10          1           0        2.002737    0.329206   -1.191945
     11          1           0        2.849964   -0.575503    0.072531
     12          1           0        2.023891    0.949807    0.454406
 ---------------------------------------------------------------------

 SCF Done:  E(RHF) =  -247.130921498     A.U. after    2 cycles

 The electronic state is 1-A.
 Alpha  occ. eigenvalues --  -20.53409 -15.64877 -11.36426 -11.25288 -11.22772
 Alpha  occ. eigenvalues --   -1.34575  -1.17605  -1.04131  -0.88939  -0.78245
 Alpha  occ. eigenvalues --   -0.71915  -0.67859  -0.63671  -0.61200  -0.56114
 Alpha  occ. eigenvalues --   -0.53088  -0.51868  -0.49681  -0.43610  -0.41803
 Alpha virt. eigenvalues --    0.02717   0.03987   0.04932   0.05115   0.06817
 Alpha virt. eigenvalues --    0.07181   0.08290   0.11977   0.12359   0.12673
 Alpha virt. eigenvalues --    0.13900   0.14313   0.16305   0.16749   0.17093

 Mulliken charges:
               1
     1  C    0.505290
     2  O   -0.516390
     3  N   -0.139811
     4  C    0.028328
     5  H   -0.025318
     6  H   -0.023128
     7  C    0.383628
     8  H   -0.086771
     9  H    0.007334
    10  H   -0.059739
    11  H   -0.050739
    12  H   -0.022686
 Sum of Mulliken charges =   0.00000

 Dipole moment (field-independent basis, Debye):
    X=             -0.6754    Y=             -4.1606    Z=              0.0590  Tot=              4.2155

 Test job not archived.
 1\1\GINC-SE458\SP\RHF\Aug-CC-pVDZ\C3H7N1O1\OHZDE\08-Apr-2025\0\\#t hf
 aug-cc-pvdz iop(5/13=1,5/36=2,99/5=2) pseudo=read geom=check guess=(re
 ad,tcheck) scf=(maxcycle=1)\\title\\0,1\C,0,-0.563431,0.138687,0.03469
 1\O,0,-0.535373,1.353985,0.068805\N,0,-1.729807,-0.558519,-0.12311\C,0
 ,0.687847,-0.728208,0.17835\H,0,-2.594578,-0.041451,-0.134093\H,0,-1.7
 64364,-1.56287,-0.089646\C,0,1.970524,0.037097,-0.139799\H,0,0.594192,
 -1.61798,-0.453688\H,0,0.710153,-1.088909,1.214312\H,0,2.002737,0.3292
 06,-1.191945\H,0,2.849964,-0.575504,0.072531\H,0,2.023891,0.949807,0.4

 Normal termination of Gaussian 16 at Tue Apr  8 22:36:31 2025.
