 Gaussian 16, Revision C.01,

 ----------------------------------------------------------------------
 #t hf aug-cc-pvdz symm=none int=(grid=ultrafine) guess=(read,tcheck) s
 table=opt
 ----------------------------------------------------------------------
 -----
 title
 -----
 Symbolic Z-matrix:
 Charge =  0 Multiplicity = 2

 SCF Done:  E(UHF) =  -530.015255483     A.U. after   23 cycles
 Normal termination of Gaussian 16 at Wed Apr  9 00:17:00 2025.
 Gaussian 16:  ES64L-G16RevC.01  3-Jul-2019

 ----------------------------------------------------------------------
 #t hf aug-cc-pvdz iop(5/13=1,5/36=2,99/5=2) pseudo=read geom=check gue
 ss=(read,tcheck) scf=(maxcycle=1)
 ----------------------------------------------------------------------
 -----
 title
 -----
 Structure from the checkpoint file:  "BDE49_nonexpt_2581_mol2.chk"
 Charge =  0 Multiplicity = 2

                         Standard orientation:
 ---------------------------------------------------------------------
 Center     Atomic      Atomic             Coordinates (Angstroms)
 Number     Number       Type             X           Y           Z
 ---------------------------------------------------------------------
      1         16           0       -1.733099   -0.068806    0.000028
      2          6           0       -0.030438    0.387972   -0.000045
      3          7           0        0.897858   -0.463082   -0.000014
      4          1           0        0.108552    1.481914   -0.000091
      5          6           0        2.267097    0.024185    0.000002
      6          1           0        2.786153   -0.367305   -0.879532
      7          1           0        2.786142   -0.367275    0.879556
      8          1           0        2.343775    1.122193   -0.000016
 ---------------------------------------------------------------------

 SCF Done:  E(UHF) =  -530.073834900     A.U. after    2 cycles

 The electronic state is 2-A.
 Alpha  occ. eigenvalues --  -93.57531 -15.63685 -11.33142 -11.27037  -8.87328
 Alpha  occ. eigenvalues --   -6.22683  -6.20991  -6.20513  -1.22028  -1.02973
 Alpha  occ. eigenvalues --   -0.92570  -0.77547  -0.66158  -0.61667  -0.60288
 Alpha  occ. eigenvalues --   -0.52017  -0.48251  -0.46016  -0.41265  -0.36539
 Alpha virt. eigenvalues --    0.03401   0.04659   0.05773   0.06200   0.07983
 Alpha virt. eigenvalues --    0.10554   0.10657   0.12711   0.13446   0.13827
 Alpha virt. eigenvalues --    0.15111   0.16290   0.17036   0.17232   0.18542

  Beta  occ. eigenvalues --  -93.56608 -15.63641 -11.33243 -11.27032  -8.86297
  Beta  occ. eigenvalues --   -6.20476  -6.19927  -6.18629  -1.21705  -0.99410
  Beta  occ. eigenvalues --   -0.88877  -0.75195  -0.65412  -0.60645  -0.60303
  Beta  occ. eigenvalues --   -0.51125  -0.47559  -0.40924  -0.34858
  Beta virt. eigenvalues --    0.00309   0.03435   0.04818   0.05780   0.06287
  Beta virt. eigenvalues --    0.08164   0.10577   0.11273   0.12747   0.13584
  Beta virt. eigenvalues --    0.14806   0.15244   0.16404   0.17296   0.18107

 Mulliken charges and spin densities:
               1          2
     1  S    0.247290   1.087817
     2  C    0.168500  -0.090524
     3  N   -0.480017  -0.012114
     4  H   -0.282665   0.014848
     5  C    0.688269   0.000401
     6  H   -0.116278  -0.000402
     7  H   -0.116273  -0.000402
     8  H   -0.108825   0.000376
 Sum of Mulliken charges =   0.00000   1.00000

 Dipole moment (field-independent basis, Debye):
    X=              1.0714    Y=              1.8984    Z=             -0.0001  Tot=              2.1799
                          Isotropic Fermi Contact Couplings
        Atom                 a.u.       MegaHertz       Gauss      10(-4) cm-1
     1  S(33)              0.21379      73.42979      26.20158      24.49354
     2  C(13)             -0.02241     -25.19541      -8.99035      -8.40428
     3  N(14)              0.02576       8.32375       2.97012       2.77650
     4  H(1)               0.00712      31.83131      11.35820      10.61778
     5  C(13)             -0.00065      -0.72590      -0.25902      -0.24213
     6  H(1)              -0.00019      -0.86989      -0.31040      -0.29016
     7  H(1)              -0.00019      -0.87023      -0.31052      -0.29028
     8  H(1)               0.00002       0.08922       0.03184       0.02976

 Normal termination of Gaussian 16 at Wed Apr  9 00:17:03 2025.
