 Gaussian 16, Revision C.01,

 ----------------------------------------------------------------------
 #t hf aug-cc-pvdz symm=none int=(grid=ultrafine) guess=(read,tcheck) s
 table=(opt,rrhf)
 ----------------------------------------------------------------------
 -----
 title
 -----
 Symbolic Z-matrix:
 Charge =  0 Multiplicity = 1

 SCF Done:  E(RHF) =  -1668.18722692     A.U. after   11 cycles
 Normal termination of Gaussian 16 at Tue Apr  8 23:10:44 2025.
 Gaussian 16:  ES64L-G16RevC.01  3-Jul-2019

 ----------------------------------------------------------------------
 #t hf aug-cc-pvdz iop(5/13=1,5/36=2,99/5=2) pseudo=read geom=check gue
 ss=(read,tcheck) scf=(maxcycle=1)
 ----------------------------------------------------------------------
 -----
 title
 -----
 Structure from the checkpoint file:  "BDE49_expt_815_mol1.chk"
 Charge =  0 Multiplicity = 1

                         Standard orientation:
 ---------------------------------------------------------------------
 Center     Atomic      Atomic             Coordinates (Angstroms)
 Number     Number       Type             X           Y           Z
 ---------------------------------------------------------------------
      1         14           0       -0.000004   -0.000051    0.502001
      2         17           0        1.673521   -0.973205   -0.176309
      3         17           0       -1.679661   -0.962567   -0.176312
      4         17           0        0.006143    1.935812   -0.176293
      5          1           0        0.000000    0.000025    1.963532
 ---------------------------------------------------------------------

 SCF Done:  E(RHF) =  -1668.27186825     A.U. after    2 cycles

 The electronic state is 1-A.
 Alpha  occ. eigenvalues -- -103.68156-103.68156-103.68155 -69.21453 -10.71657
 Alpha  occ. eigenvalues --  -10.71640 -10.71639  -8.37343  -8.37335  -8.37335
 Alpha  occ. eigenvalues --   -8.37091  -8.37091  -8.37089  -8.37088  -8.37087
 Alpha  occ. eigenvalues --   -8.37087  -6.95376  -4.06234  -4.06234  -4.06058
 Alpha  occ. eigenvalues --   -1.18967  -1.15694  -1.15693  -0.73256  -0.59489
 Alpha  occ. eigenvalues --   -0.59234  -0.59233  -0.52046  -0.52045  -0.49578
 Alpha  occ. eigenvalues --   -0.49577  -0.48718  -0.48194
 Alpha virt. eigenvalues --    0.04962   0.05523   0.05631   0.05631   0.08636
 Alpha virt. eigenvalues --    0.12283   0.12703   0.12703   0.12905   0.12906
 Alpha virt. eigenvalues --    0.14892   0.14892   0.16693   0.18473   0.19650

 Mulliken charges:
               1
     1  Si   1.311623
     2  Cl  -0.424176
     3  Cl  -0.424172
     4  Cl  -0.424163
     5  H   -0.039112
 Sum of Mulliken charges =  -0.00000

 Dipole moment (field-independent basis, Debye):
    X=             -0.0000    Y=             -0.0003    Z=              1.1184  Tot=              1.1184

 Test job not archived.
 1\1\GINC-SE227\SP\RHF\Aug-CC-pVDZ\Cl3H1Si1\OHZDE\08-Apr-2025\0\\#t hf
 aug-cc-pvdz iop(5/13=1,5/36=2,99/5=2) pseudo=read geom=check guess=(re
 ad,tcheck) scf=(maxcycle=1)\\title\\0,1\Si,0,-0.000004,-0.000051,0.502
 001\Cl,0,1.672769,-0.974497,-0.176309\Cl,0,-1.680404,-0.96127,-0.17631
 2\Cl,0,0.007638,1.935807,-0.176293\H,0,0.,0.000025,1.963532\\Version=E
 S64L-G16RevC.01\State=1-A\HF=-1668.2718682\RMSD=4.208e-03\Dipole=-0.00
 00183,-0.0001186,0.4400025\Quadrupole=-0.7007069,-0.7008464,1.4015533,
 0.0000295,-0.0000024,-0.000089\PG=C01 [X(Cl3H1Si1)]\\@

 Normal termination of Gaussian 16 at Tue Apr  8 23:10:46 2025.
