 Gaussian 16, Revision C.01,

 ----------------------------------------------------------------------
 #t hf aug-cc-pvdz symm=none int=(grid=ultrafine) guess=(read,tcheck) s
 table=opt
 ----------------------------------------------------------------------
 -----
 title
 -----
 Symbolic Z-matrix:
 Charge =  0 Multiplicity = 2

 SCF Done:  E(UHF) =  -484.668172730     A.U. after   15 cycles
 Normal termination of Gaussian 16 at Tue Apr  8 23:40:58 2025.
 Gaussian 16:  ES64L-G16RevC.01  3-Jul-2019

 ----------------------------------------------------------------------
 #t hf aug-cc-pvdz iop(5/13=1,5/36=2,99/5=2) pseudo=read geom=check gue
 ss=(read,tcheck) scf=(maxcycle=1)
 ----------------------------------------------------------------------
 -----
 title
 -----
 Structure from the checkpoint file:  "BDE49_nonexpt_1657_mol2.chk"
 Charge =  0 Multiplicity = 2

                         Standard orientation:
 ---------------------------------------------------------------------
 Center     Atomic      Atomic             Coordinates (Angstroms)
 Number     Number       Type             X           Y           Z
 ---------------------------------------------------------------------
      1         14           0        1.536670   -0.000001    0.070384
      2          6           0        0.442212    1.501942   -0.299722
      3          6           0       -0.982654    1.294417    0.273979
      4          6           0       -1.665169    0.000001   -0.200863
      5          6           0       -0.982655   -1.294417    0.273979
      6          6           0        0.442210   -1.501942   -0.299722
      7          1           0        0.380153    1.634706   -1.386497
      8          1           0        0.888609    2.417669    0.099443
      9          1           0       -1.609503    2.151071   -0.001295
     10          1           0       -0.937093    1.290290    1.370016
     11          1           0       -1.717383    0.000001   -1.297798
     12          1           0       -2.701764    0.000001    0.153160
     13          1           0       -1.609506   -2.151069   -0.001295
     14          1           0       -0.937094   -1.290290    1.370016
     15          1           0        0.380151   -1.634706   -1.386497
     16          1           0        0.888606   -2.417669    0.099443
     17          1           0        1.937776   -0.000001    1.510025
 ---------------------------------------------------------------------

 SCF Done:  E(UHF) =  -484.748542435     A.U. after    2 cycles

 The electronic state is 2-A.
 Alpha  occ. eigenvalues --  -69.05241 -11.23449 -11.23447 -11.22908 -11.21751
 Alpha  occ. eigenvalues --  -11.21749  -6.80644  -3.91964  -3.91078  -3.91073
 Alpha  occ. eigenvalues --   -1.07589  -0.99462  -0.92699  -0.82471  -0.77558
 Alpha  occ. eigenvalues --   -0.67192  -0.62775  -0.59998  -0.58527  -0.55754
 Alpha  occ. eigenvalues --   -0.53828  -0.50035  -0.48526  -0.47737  -0.46829
 Alpha  occ. eigenvalues --   -0.43608  -0.39950  -0.30553
 Alpha virt. eigenvalues --    0.03294   0.04395   0.04497   0.04674   0.06076
 Alpha virt. eigenvalues --    0.06447   0.06677   0.06797   0.07191   0.08874
 Alpha virt. eigenvalues --    0.09172   0.09496   0.10256   0.10693   0.13392

  Beta  occ. eigenvalues --  -69.04695 -11.23371 -11.23369 -11.22916 -11.21689
  Beta  occ. eigenvalues --  -11.21686  -6.79820  -3.90715  -3.90698  -3.89860
  Beta  occ. eigenvalues --   -1.07347  -0.99142  -0.92243  -0.82267  -0.77146
  Beta  occ. eigenvalues --   -0.65449  -0.62427  -0.59867  -0.56908  -0.54949
  Beta  occ. eigenvalues --   -0.53618  -0.49508  -0.48402  -0.47210  -0.46595
  Beta  occ. eigenvalues --   -0.42532  -0.39304
  Beta virt. eigenvalues --    0.03208   0.03789   0.04417   0.04648   0.05899
  Beta virt. eigenvalues --    0.06182   0.06661   0.06814   0.06938   0.08739
  Beta virt. eigenvalues --    0.08901   0.09180   0.09604   0.10609   0.11014

 Mulliken charges and spin densities:
               1          2
     1  Si   0.301575   0.966511
     2  C    0.081587   0.005765
     3  C    0.147326   0.009649
     4  C    0.203262  -0.011129
     5  C    0.147325   0.009649
     6  C    0.081588   0.005765
     7  H   -0.074858  -0.002574
     8  H   -0.168288  -0.009008
     9  H   -0.117804   0.004827
    10  H   -0.108800  -0.005350
    11  H   -0.116968  -0.002107
    12  H   -0.098474  -0.001039
    13  H   -0.117803   0.004827
    14  H   -0.108801  -0.005350
    15  H   -0.074857  -0.002574
    16  H   -0.168289  -0.009008
    17  H    0.192277   0.041144
 Sum of Mulliken charges =  -0.00000   1.00000

 Dipole moment (field-independent basis, Debye):
    X=             -0.8335    Y=              0.0000    Z=             -0.2974  Tot=              0.8849
                          Isotropic Fermi Contact Couplings
        Atom                 a.u.       MegaHertz       Gauss      10(-4) cm-1
     1  Si(29)             0.51711    -459.56639    -163.98472    -153.29485
     2  C(13)              0.01253      14.08591       5.02620       4.69855
     3  C(13)              0.01636      18.39041       6.56215       6.13438
     4  C(13)             -0.00113      -1.27238      -0.45402      -0.42442
     5  C(13)              0.01636      18.39042       6.56216       6.13438
     6  C(13)              0.01253      14.08592       5.02621       4.69856
     7  H(1)               0.00084       3.73701       1.33346       1.24653
     8  H(1)              -0.00048      -2.13838      -0.76303      -0.71329

 Normal termination of Gaussian 16 at Tue Apr  8 23:41:05 2025.
