 Gaussian 16, Revision C.01,

 ----------------------------------------------------------------------
 #t hf aug-cc-pvdz symm=none int=(grid=ultrafine) guess=(read,tcheck) s
 table=opt
 ----------------------------------------------------------------------
 -----
 title
 -----
 Symbolic Z-matrix:
 Charge =  0 Multiplicity = 2

 SCF Done:  E(UHF) =  -535.909725890     A.U. after   18 cycles

 1\1\GINC-SE108\Stability\UHF\Aug-CC-pVDZ\C5H10P1\OHZDE\08-Apr-2025\0\\
 #t hf aug-cc-pvdz symm=none int=(grid=ultrafine) guess=(read,tcheck) s
 table=opt\\title\\0,2\P,0,0.758785,-1.389564,0.\C,0,-0.121741,-0.52757
 5,1.39985\C,0,-0.121741,1.009346,1.283321\C,0,-0.794,1.516177,0.\C,0,-
 0.121741,1.009346,-1.283321\C,0,-0.121741,-0.527575,-1.39985\H,0,0.349
 323,-0.843101,2.334967\H,0,-1.157048,-0.894143,1.429351\H,0,0.911284,1
 .375369,-1.320108\H,0,-0.631306,1.434457,-2.155535\H,0,0.349323,-0.843
 101,-2.334967\H,0,-1.157048,-0.894143,-1.429351\H,0,0.911284,1.375369,

 Normal termination of Gaussian 16 at Tue Apr  8 23:23:42 2025.
 Gaussian 16:  ES64L-G16RevC.01  3-Jul-2019

 ----------------------------------------------------------------------
 #t hf aug-cc-pvdz iop(5/13=1,5/36=2,99/5=2) pseudo=read geom=check gue
 ss=(read,tcheck) scf=(maxcycle=1)
 ----------------------------------------------------------------------
 -----
 title
 -----
 Structure from the checkpoint file:  "BDE49_nonexpt_1254_mol2.chk"
 Charge =  0 Multiplicity = 2

                         Standard orientation:
 ---------------------------------------------------------------------
 Center     Atomic      Atomic             Coordinates (Angstroms)
 Number     Number       Type             X           Y           Z
 ---------------------------------------------------------------------
      1         15           0        0.758785   -1.389564   -0.000000
      2          6           0       -0.121741   -0.527575    1.399850
      3          6           0       -0.121741    1.009346    1.283321
      4          6           0       -0.794000    1.516177    0.000000
      5          6           0       -0.121741    1.009346   -1.283321
      6          6           0       -0.121741   -0.527575   -1.399850
      7          1           0        0.349323   -0.843101    2.334967
      8          1           0       -1.157048   -0.894143    1.429351
      9          1           0        0.911284    1.375369   -1.320108
     10          1           0       -0.631306    1.434457   -2.155535
     11          1           0        0.349323   -0.843101   -2.334967
     12          1           0       -1.157048   -0.894143   -1.429351
     13          1           0        0.911284    1.375369    1.320108
     14          1           0       -0.631306    1.434457    2.155535
     15          1           0       -0.792488    2.611189    0.000000
     16          1           0       -1.848010    1.208785    0.000000
 ---------------------------------------------------------------------

 SCF Done:  E(UHF) =  -535.987789473     A.U. after    2 cycles

 The electronic state is 2-A'.
 Alpha  occ. eigenvalues --  -81.24506 -11.23707 -11.23703 -11.23545 -11.23543
 Alpha  occ. eigenvalues --  -11.23222  -7.74940  -4.89723  -4.88622  -4.88307
 Alpha  occ. eigenvalues --   -1.08689  -1.00251  -0.94885  -0.83366  -0.79105
 Alpha  occ. eigenvalues --   -0.70660  -0.63757  -0.60750  -0.59499  -0.57262
 Alpha  occ. eigenvalues --   -0.54193  -0.51365  -0.49185  -0.48502  -0.47184
 Alpha  occ. eigenvalues --   -0.41591  -0.36119  -0.31626
 Alpha virt. eigenvalues --    0.03489   0.04299   0.04623   0.04936   0.06275
 Alpha virt. eigenvalues --    0.06698   0.06869   0.07394   0.07637   0.09090
 Alpha virt. eigenvalues --    0.09640   0.12046   0.13162   0.13258   0.14323

  Beta  occ. eigenvalues --  -81.23815 -11.23699 -11.23697 -11.23613 -11.23610
  Beta  occ. eigenvalues --  -11.23234  -7.74110  -4.88125  -4.87962  -4.86567
  Beta  occ. eigenvalues --   -1.08425  -1.00106  -0.94128  -0.83315  -0.78261
  Beta  occ. eigenvalues --   -0.67339  -0.63579  -0.60430  -0.57578  -0.56209
  Beta  occ. eigenvalues --   -0.54129  -0.51057  -0.48861  -0.47881  -0.47029
  Beta  occ. eigenvalues --   -0.41336  -0.34020
  Beta virt. eigenvalues --    0.03394   0.04310   0.04466   0.04965   0.05863
  Beta virt. eigenvalues --    0.06289   0.06726   0.06879   0.07680   0.08546
  Beta virt. eigenvalues --    0.09103   0.09791   0.12120   0.13336   0.14020

 Mulliken charges and spin densities:
               1          2
     1  P    0.567969   1.227329
     2  C    0.012921  -0.137450
     3  C    0.222321   0.018716
     4  C    0.122150  -0.000036
     5  C    0.222321   0.018716
     6  C    0.012921  -0.137450
     7  H   -0.181238  -0.003728
     8  H   -0.094754   0.012107
     9  H   -0.107576  -0.006240
    10  H   -0.093748   0.003878
    11  H   -0.181238  -0.003728
    12  H   -0.094754   0.012107
    13  H   -0.107576  -0.006240
    14  H   -0.093748   0.003878
    15  H   -0.091908   0.000556
    16  H   -0.114063  -0.002413
 Sum of Mulliken charges =  -0.00000   1.00000

 Dipole moment (field-independent basis, Debye):
    X=             -1.1153    Y=              1.2637    Z=             -0.0000  Tot=              1.6855
                          Isotropic Fermi Contact Couplings
        Atom                 a.u.       MegaHertz       Gauss      10(-4) cm-1
     1  P(31)              0.23799     431.02149     153.79918     143.77329
     2  C(13)             -0.02759     -31.01652     -11.06746     -10.34600
     3  C(13)              0.01805      20.28695       7.23889       6.76700
     4  C(13)             -0.00246      -2.76021      -0.98491      -0.92071
     5  C(13)              0.01805      20.28695       7.23889       6.76700
     6  C(13)             -0.02759     -31.01652     -11.06746     -10.34600
     7  H(1)               0.00058       2.57507       0.91885       0.85895
     8  H(1)               0.01046      46.73471      16.67611      15.58902

 Normal termination of Gaussian 16 at Tue Apr  8 23:23:46 2025.
