 Gaussian 16, Revision C.01,

 ----------------------------------------------------------------------
 #t hf aug-cc-pvdz symm=none int=(grid=ultrafine) guess=(read,tcheck) s
 table=(opt,rrhf)
 ----------------------------------------------------------------------
 -----
 title
 -----
 Symbolic Z-matrix:
 Charge =  0 Multiplicity = 1

 SCF Done:  E(RHF) =  -593.985238252     A.U. after   12 cycles
 Normal termination of Gaussian 16 at Wed Apr  9 00:06:48 2025.
 Gaussian 16:  ES64L-G16RevC.01  3-Jul-2019

 ----------------------------------------------------------------------
 #t hf aug-cc-pvdz iop(5/13=1,5/36=2,99/5=2) pseudo=read geom=check gue
 ss=(read,tcheck) scf=(maxcycle=1)
 ----------------------------------------------------------------------
 -----
 title
 -----
 Structure from the checkpoint file:  "BDE49_nonexpt_2275_mol1.chk"
 Charge =  0 Multiplicity = 1

                         Standard orientation:
 ---------------------------------------------------------------------
 Center     Atomic      Atomic             Coordinates (Angstroms)
 Number     Number       Type             X           Y           Z
 ---------------------------------------------------------------------
      1         14           0       -0.025155    0.272008    0.667300
      2          8           0        0.069902    1.550746   -0.385937
      3          1           0        0.940842    1.639270   -0.790519
      4          6           0        1.266374   -0.977616    0.071978
      5          8           0        2.369713   -0.165350   -0.383234
      6          1           0        0.847107   -1.576181   -0.747371
      7          1           0        1.575414   -1.663365    0.872006
      8          1           0        3.048476   -0.739506   -0.750130
      9          6           0       -1.784798   -0.367568    0.460047
     10          8           0       -2.057197   -0.550358   -0.940145
     11          1           0       -2.517173    0.305957    0.928863
     12          1           0       -1.914787   -1.344401    0.935423
     13          1           0       -1.830226    0.279515   -1.375616
     14          1           0        0.253719    0.681399    2.067530
 ---------------------------------------------------------------------

 SCF Done:  E(RHF) =  -594.115053338     A.U. after    2 cycles

 The electronic state is 1-A.
 Alpha  occ. eigenvalues --  -69.08441 -20.59082 -20.57170 -20.56521 -11.28005
 Alpha  occ. eigenvalues --  -11.27230  -6.83414  -3.94330  -3.94196  -3.94169
 Alpha  occ. eigenvalues --   -1.33065  -1.31412  -1.29298  -0.93400  -0.90923
 Alpha  occ. eigenvalues --   -0.74454  -0.72416  -0.68112  -0.64919  -0.64205
 Alpha  occ. eigenvalues --   -0.60646  -0.59728  -0.57308  -0.55410  -0.52461
 Alpha  occ. eigenvalues --   -0.49593  -0.48122  -0.44212  -0.41670
 Alpha virt. eigenvalues --    0.02936   0.04108   0.04701   0.05505   0.06383
 Alpha virt. eigenvalues --    0.06869   0.07284   0.08161   0.08254   0.09462
 Alpha virt. eigenvalues --    0.11549   0.12791   0.13867   0.14552   0.14784

 Mulliken charges:
               1
     1  Si   1.293517
     2  O   -0.841347
     3  H    0.209701
     4  C    0.643484
     5  O   -0.590608
     6  H   -0.241442
     7  H   -0.207520
     8  H    0.132315
     9  C    0.565678
    10  O   -0.565739
    11  H   -0.240280
    12  H   -0.274785
    13  H    0.161620
    14  H   -0.044593
 Sum of Mulliken charges =  -0.00000

 Dipole moment (field-independent basis, Debye):
    X=              1.9978    Y=             -1.3473    Z=              0.6289  Tot=              2.4903

 Test job not archived.
 1\1\GINC-SE102\SP\RHF\Aug-CC-pVDZ\C2H8O3Si1\OHZDE\09-Apr-2025\0\\#t hf
  aug-cc-pvdz iop(5/13=1,5/36=2,99/5=2) pseudo=read geom=check guess=(r
 ead,tcheck) scf=(maxcycle=1)\\title\\0,1\Si,0,-0.025155,0.272008,0.667
 3\O,0,0.069902,1.550746,-0.385937\H,0,0.940842,1.63927,-0.790519\C,0,1
 .266374,-0.977616,0.071978\O,0,2.369713,-0.16535,-0.383234\H,0,0.84710
 7,-1.576181,-0.747371\H,0,1.575414,-1.663365,0.872006\H,0,3.048476,-0.
 739506,-0.75013\C,0,-1.784798,-0.367568,0.460047\O,0,-2.057197,-0.5503
 58,-0.940145\H,0,-2.517173,0.305957,0.928863\H,0,-1.914787,-1.344401,0

 Normal termination of Gaussian 16 at Wed Apr  9 00:06:53 2025.
