 Gaussian 16, Revision C.01,

 ----------------------------------------------------------------------
 #t hf aug-cc-pvdz symm=none int=(grid=ultrafine) guess=(read,tcheck) s
 table=(opt,rrhf)
 ----------------------------------------------------------------------
 -----
 title
 -----
 Symbolic Z-matrix:
 Charge =  0 Multiplicity = 1

 SCF Done:  E(RHF) =  -709.445320254     A.U. after   12 cycles
 Normal termination of Gaussian 16 at Tue Apr  8 23:40:11 2025.
 Gaussian 16:  ES64L-G16RevC.01  3-Jul-2019

 ----------------------------------------------------------------------
 #t hf aug-cc-pvdz iop(5/13=1,5/36=2,99/5=2) pseudo=read geom=check gue
 ss=(read,tcheck) scf=(maxcycle=1)
 ----------------------------------------------------------------------
 -----
 title
 -----
 Structure from the checkpoint file:  "BDE49_nonexpt_1658_mol1.chk"
 Charge =  0 Multiplicity = 1

                         Standard orientation:
 ---------------------------------------------------------------------
 Center     Atomic      Atomic             Coordinates (Angstroms)
 Number     Number       Type             X           Y           Z
 ---------------------------------------------------------------------
      1         15           0        1.869962   -0.184301   -0.051986
      2         14           0       -0.259652    0.583183   -0.131686
      3          6           0       -1.674709   -0.139051    0.831156
      4          6           0       -1.635968   -0.543255   -0.669258
      5          1           0       -1.424614   -1.588006   -0.877002
      6          1           0       -2.429892   -0.149792   -1.296774
      7          1           0       -2.491234    0.509740    1.134858
      8          1           0       -1.485136   -0.932854    1.547240
      9          1           0        1.480906   -1.464367    0.422290
     10          1           0        2.145631    0.316565    1.248478
     11          1           0       -0.345909    2.002495   -0.527087
 ---------------------------------------------------------------------

 SCF Done:  E(RHF) =  -709.513271450     A.U. after    2 cycles

 The electronic state is 1-A.
 Alpha  occ. eigenvalues --  -81.25718 -69.06870 -11.22869 -11.22739  -7.76226
 Alpha  occ. eigenvalues --   -6.82214  -4.90148  -4.90073  -4.89859  -3.93086
 Alpha  occ. eigenvalues --   -3.92949  -3.92897  -1.02715  -0.81015  -0.80327
 Alpha  occ. eigenvalues --   -0.65805  -0.62339  -0.56632  -0.52440  -0.51188
 Alpha  occ. eigenvalues --   -0.44688  -0.42859  -0.36791  -0.33919
 Alpha virt. eigenvalues --    0.03431   0.04625   0.04880   0.05328   0.06719
 Alpha virt. eigenvalues --    0.07115   0.07696   0.07768   0.08844   0.10483
 Alpha virt. eigenvalues --    0.11126   0.12096   0.13028   0.13756   0.14612

 Mulliken charges:
               1
     1  P   -0.542150
     2  Si   0.567473
     3  C    0.567744
     4  C    0.559123
     5  H   -0.355575
     6  H   -0.340815
     7  H   -0.362066
     8  H   -0.371539
     9  H    0.136378
    10  H    0.158894
    11  H   -0.017467
 Sum of Mulliken charges =  -0.00000

 Dipole moment (field-independent basis, Debye):
    X=             -0.1520    Y=             -0.0166    Z=              0.5248  Tot=              0.5466

 Test job not archived.
 1\1\GINC-SE341\SP\RHF\Aug-CC-pVDZ\C2H7P1Si1\OHZDE\08-Apr-2025\0\\#t hf
  aug-cc-pvdz iop(5/13=1,5/36=2,99/5=2) pseudo=read geom=check guess=(r
 ead,tcheck) scf=(maxcycle=1)\\title\\0,1\P,0,1.869962,-0.184301,-0.051
 986\Si,0,-0.259652,0.583183,-0.131686\C,0,-1.674709,-0.139051,0.831156
 \C,0,-1.635968,-0.543255,-0.669258\H,0,-1.424614,-1.588006,-0.877002\H
 ,0,-2.429892,-0.149792,-1.296774\H,0,-2.491234,0.50974,1.134858\H,0,-1
 .485136,-0.932854,1.54724\H,0,1.480906,-1.464367,0.42229\H,0,2.145631,
 0.316565,1.248478\H,0,-0.345909,2.002495,-0.527087\\Version=ES64L-G16R

 Normal termination of Gaussian 16 at Tue Apr  8 23:40:15 2025.
