 Gaussian 16, Revision C.01,

 ----------------------------------------------------------------------
 #t hf aug-cc-pvdz symm=none int=(grid=ultrafine) guess=(read,tcheck) s
 table=(opt,rrhf)
 ----------------------------------------------------------------------
 -----
 title
 -----
 Symbolic Z-matrix:
 Charge =  0 Multiplicity = 1

 SCF Done:  E(RHF) =  -672.462691339     A.U. after   10 cycles
 Normal termination of Gaussian 16 at Tue Apr  8 22:43:35 2025.
 Gaussian 16:  ES64L-G16RevC.01  3-Jul-2019

 ----------------------------------------------------------------------
 #t hf aug-cc-pvdz iop(5/13=1,5/36=2,99/5=2) pseudo=read geom=check gue
 ss=(read,tcheck) scf=(maxcycle=1)
 ----------------------------------------------------------------------
 -----
 title
 -----
 Structure from the checkpoint file:  "BDE49_expt_1510_mol1.chk"
 Charge =  0 Multiplicity = 1

                         Standard orientation:
 ---------------------------------------------------------------------
 Center     Atomic      Atomic             Coordinates (Angstroms)
 Number     Number       Type             X           Y           Z
 ---------------------------------------------------------------------
      1          6           0        0.774912    0.000003   -0.000003
      2          9           0        1.229651    1.225150    0.276873
      3          6           0       -0.774912   -0.000003    0.000003
      4          9           0        1.229634   -0.852363    0.922566
      5          9           0       -1.229616    0.372788    1.199461
      6          9           0       -1.229634    0.852363   -0.922566
      7          9           0       -1.229651   -1.225150   -0.276873
      8          9           0        1.229616   -0.372788   -1.199461
 ---------------------------------------------------------------------

 SCF Done:  E(RHF) =  -672.708451942     A.U. after    2 cycles

 The electronic state is 1-AG.
 Alpha  occ. eigenvalues --  -26.20544 -26.20543 -26.20542 -26.20542 -26.20528
 Alpha  occ. eigenvalues --  -26.20527 -11.57660 -11.57612  -1.81271  -1.79472
 Alpha  occ. eigenvalues --   -1.73625  -1.73625  -1.72881  -1.72881  -1.13673
 Alpha  occ. eigenvalues --   -1.03424  -0.95525  -0.93719  -0.93719  -0.90669
 Alpha  occ. eigenvalues --   -0.90669  -0.82723  -0.80825  -0.80825  -0.80747
 Alpha  occ. eigenvalues --   -0.80747  -0.77402  -0.77402  -0.75936  -0.75936
 Alpha  occ. eigenvalues --   -0.75863  -0.75123  -0.64279
 Alpha virt. eigenvalues --    0.07393   0.07730   0.08670   0.08670   0.11705
 Alpha virt. eigenvalues --    0.11705   0.11969   0.20150   0.20800   0.20800
 Alpha virt. eigenvalues --    0.23092   0.23092   0.28961   0.28961   0.28964

 Mulliken charges:
               1
     1  C    0.816849
     2  F   -0.272282
     3  C    0.816849
     4  F   -0.272284
     5  F   -0.272282
     6  F   -0.272284
     7  F   -0.272282
     8  F   -0.272282
 Sum of Mulliken charges =  -0.00000

 Dipole moment (field-independent basis, Debye):
    X=             -0.0000    Y=             -0.0000    Z=             -0.0000  Tot=              0.0000

 Test job not archived.
 1\1\GINC-SE127\SP\RHF\Aug-CC-pVDZ\C2F6\OHZDE\08-Apr-2025\0\\#t hf aug-
 cc-pvdz iop(5/13=1,5/36=2,99/5=2) pseudo=read geom=check guess=(read,t
 check) scf=(maxcycle=1)\\title\\0,1\C,0,0.774912,0.000003,-0.000003\F,
 0,1.229651,1.22515,0.276873\C,0,-0.774912,-0.000003,0.000003\F,0,1.229
 634,-0.852363,0.922566\F,0,-1.229616,0.372788,1.199461\F,0,-1.229634,0
 .852363,-0.922566\F,0,-1.229651,-1.22515,-0.276873\F,0,1.229616,-0.372
 788,-1.199461\\Version=ES64L-G16RevC.01\State=1-AG\HF=-672.7084519\RMS
 D=6.878e-03\Dipole=0.,0.,0.\Quadrupole=0.1136668,-0.0568206,-0.0568462

 Normal termination of Gaussian 16 at Tue Apr  8 22:43:38 2025.
