 Gaussian 16, Revision C.01,

 ----------------------------------------------------------------------
 #t hf aug-cc-pvdz symm=none int=(grid=ultrafine) guess=(read,tcheck) s
 table=(opt,rrhf)
 ----------------------------------------------------------------------
 -----
 title
 -----
 Symbolic Z-matrix:
 Charge =  0 Multiplicity = 1

 SCF Done:  E(RHF) =  -1175.68513038     A.U. after   16 cycles
 Normal termination of Gaussian 16 at Tue Apr  8 23:15:57 2025.
 Gaussian 16:  ES64L-G16RevC.01  3-Jul-2019

 ----------------------------------------------------------------------
 #t hf aug-cc-pvdz iop(5/13=1,5/36=2,99/5=2) pseudo=read geom=check gue
 ss=(read,tcheck) scf=(maxcycle=1)
 ----------------------------------------------------------------------
 -----
 title
 -----
 Structure from the checkpoint file:  "BDE49_nonexpt_1045_mol1.chk"
 Charge =  0 Multiplicity = 1

                         Standard orientation:
 ---------------------------------------------------------------------
 Center     Atomic      Atomic             Coordinates (Angstroms)
 Number     Number       Type             X           Y           Z
 ---------------------------------------------------------------------
      1         17           0       -2.490543    0.242343    0.001981
      2          8           0       -1.200006   -0.936061    0.003245
      3         15           0        1.143315    0.099506    0.062147
      4          8           0        2.149254    0.438387    1.059393
      5          8           0        0.566002    1.224140   -0.888768
      6          1           0        0.417009    2.059996   -0.430545
      7          8           0        1.481184   -0.974471   -1.048093
      8          1           0        2.027333   -1.695250   -0.712073
      9          8           0       -0.153288   -0.499142    0.896316
 ---------------------------------------------------------------------

 SCF Done:  E(RHF) =  -1175.90000650     A.U. after    2 cycles

 The electronic state is 1-A.
 Alpha  occ. eigenvalues -- -103.74487 -81.47574 -20.74522 -20.69515 -20.64694
 Alpha  occ. eigenvalues --  -20.64582 -20.55435 -10.77158  -8.42915  -8.42483
 Alpha  occ. eigenvalues --   -8.42451  -7.95524  -5.10233  -5.10095  -5.10040
 Alpha  occ. eigenvalues --   -1.48832  -1.41490  -1.38162  -1.30032  -1.26701
 Alpha  occ. eigenvalues --   -1.10432  -0.89536  -0.79331  -0.76761  -0.72769
 Alpha  occ. eigenvalues --   -0.71871  -0.70138  -0.67600  -0.64528  -0.60747
 Alpha  occ. eigenvalues --   -0.60310  -0.58474  -0.55750  -0.52741  -0.51739
 Alpha  occ. eigenvalues --   -0.50760  -0.48871
 Alpha virt. eigenvalues --    0.01856   0.03117   0.04260   0.08150   0.08571
 Alpha virt. eigenvalues --    0.10725   0.11132   0.12485   0.13889   0.14215
 Alpha virt. eigenvalues --    0.15967   0.16870   0.17596   0.19766   0.20386

 Mulliken charges:
               1
     1  Cl   0.369908
     2  O   -0.425547
     3  P    2.361548
     4  O   -0.770057
     5  O   -0.633815
     6  H    0.159088
     7  O   -0.635496
     8  H    0.158805
     9  O   -0.584436
 Sum of Mulliken charges =   0.00000

 Dipole moment (field-independent basis, Debye):
    X=             -1.2135    Y=              0.3840    Z=             -1.3994  Tot=              1.8916

 Test job not archived.
 1\1\GINC-SE100\SP\RHF\Aug-CC-pVDZ\Cl1H2O5P1\OHZDE\08-Apr-2025\0\\#t hf
  aug-cc-pvdz iop(5/13=1,5/36=2,99/5=2) pseudo=read geom=check guess=(r
 ead,tcheck) scf=(maxcycle=1)\\title\\0,1\Cl,0,-2.490543,0.242343,0.001
 981\O,0,-1.200006,-0.936061,0.003245\P,0,1.143315,0.099506,0.062147\O,
 0,2.149254,0.438387,1.059393\O,0,0.566002,1.22414,-0.888768\H,0,0.4170
 09,2.059996,-0.430545\O,0,1.481184,-0.974471,-1.048093\H,0,2.027333,-1
 .69525,-0.712073\O,0,-0.153288,-0.499142,0.896316\\Version=ES64L-G16Re
 vC.01\State=1-A\HF=-1175.9000065\RMSD=3.679e-03\Dipole=-0.4774101,0.15

 Normal termination of Gaussian 16 at Tue Apr  8 23:16:01 2025.
