 Gaussian 16, Revision C.01,

 ----------------------------------------------------------------------
 #t hf aug-cc-pvdz symm=none int=(grid=ultrafine) guess=(read,tcheck) s
 table=(opt,rrhf)
 ----------------------------------------------------------------------
 -----
 title
 -----
 Symbolic Z-matrix:
 Charge =  0 Multiplicity = 1

 SCF Done:  E(RHF) =  -282.881316126     A.U. after   14 cycles
 Normal termination of Gaussian 16 at Tue Apr  8 22:36:26 2025.
 Gaussian 16:  ES64L-G16RevC.01  3-Jul-2019

 ----------------------------------------------------------------------
 #t hf aug-cc-pvdz iop(5/13=1,5/36=2,99/5=2) pseudo=read geom=check gue
 ss=(read,tcheck) scf=(maxcycle=1)
 ----------------------------------------------------------------------
 -----
 title
 -----
 Structure from the checkpoint file:  "BDE49_expt_1203_mol1.chk"
 Charge =  0 Multiplicity = 1

                         Standard orientation:
 ---------------------------------------------------------------------
 Center     Atomic      Atomic             Coordinates (Angstroms)
 Number     Number       Type             X           Y           Z
 ---------------------------------------------------------------------
      1          7           0       -1.927077    0.085225   -0.000001
      2          6           0       -0.743341   -0.756055    0.000004
      3          6           0        0.636144   -0.098973   -0.000039
      4          1           0       -0.760753   -1.419676   -0.869988
      5          1           0       -0.760728   -1.419628    0.870034
      6          8           0        1.676959   -0.703699    0.000014
      7          8           0        0.574583    1.255606    0.000008
      8          1           0        1.492129    1.567992    0.000032
      9          1           0       -1.925143    0.694803   -0.811052
     10          1           0       -1.925122    0.694845    0.811018
 ---------------------------------------------------------------------

 SCF Done:  E(RHF) =  -282.971104858     A.U. after    2 cycles

 The electronic state is 1-A.
 Alpha  occ. eigenvalues --  -20.63564 -20.57059 -15.62502 -11.40511 -11.29211
 Alpha  occ. eigenvalues --   -1.43366  -1.33501  -1.17041  -0.96790  -0.84269
 Alpha  occ. eigenvalues --   -0.72627  -0.70427  -0.70058  -0.64223  -0.61153
 Alpha  occ. eigenvalues --   -0.58318  -0.55107  -0.50216  -0.50138  -0.40677
 Alpha virt. eigenvalues --    0.03154   0.04633   0.04761   0.05011   0.08093
 Alpha virt. eigenvalues --    0.09884   0.11525   0.11798   0.12126   0.14575
 Alpha virt. eigenvalues --    0.15759   0.16424   0.17193   0.18367   0.19368

 Mulliken charges:
               1
     1  N   -0.359859
     2  C    0.609175
     3  C    0.438341
     4  H    0.033534
     5  H    0.033523
     6  O   -0.520408
     7  O   -0.524043
     8  H    0.186408
     9  H    0.051664
    10  H    0.051665
 Sum of Mulliken charges =  -0.00000

 Dipole moment (field-independent basis, Debye):
    X=             -0.7550    Y=              1.9018    Z=             -0.0001  Tot=              2.0462

 Test job not archived.
 1\1\GINC-SE082\SP\RHF\Aug-CC-pVDZ\C2H5N1O2\OHZDE\08-Apr-2025\0\\#t hf
 aug-cc-pvdz iop(5/13=1,5/36=2,99/5=2) pseudo=read geom=check guess=(re
 ad,tcheck) scf=(maxcycle=1)\\title\\0,1\N,0,-1.927077,0.085225,-0.0000
 01\C,0,-0.743341,-0.756055,0.000004\C,0,0.636144,-0.098973,-0.000039\H
 ,0,-0.760753,-1.419676,-0.869988\H,0,-0.760728,-1.419628,0.870034\O,0,
 1.676959,-0.703698,0.000014\O,0,0.574583,1.255606,0.000008\H,0,1.49212
 9,1.567993,0.000032\H,0,-1.925143,0.694803,-0.811052\H,0,-1.925122,0.6
 94845,0.811018\\Version=ES64L-G16RevC.01\State=1-A\HF=-282.9711049\RMS

 Normal termination of Gaussian 16 at Tue Apr  8 22:36:29 2025.
