 Gaussian 16, Revision C.01,

 ----------------------------------------------------------------------
 #t hf aug-cc-pvdz symm=none int=(grid=ultrafine) guess=(read,tcheck) s
 table=opt
 ----------------------------------------------------------------------
 -----
 title
 -----
 Symbolic Z-matrix:
 Charge =  0 Multiplicity = 2

 SCF Done:  E(UHF) =  -457.299854658     A.U. after   16 cycles
 Normal termination of Gaussian 16 at Tue Apr  8 23:51:18 2025.
 Gaussian 16:  ES64L-G16RevC.01  3-Jul-2019

 ----------------------------------------------------------------------
 #t hf aug-cc-pvdz iop(5/13=1,5/36=2,99/5=2) pseudo=read geom=check gue
 ss=(read,tcheck) scf=(maxcycle=1)
 ----------------------------------------------------------------------
 -----
 title
 -----
 Structure from the checkpoint file:  "BDE49_nonexpt_1915_mol2.chk"
 Charge =  0 Multiplicity = 2

                         Standard orientation:
 ---------------------------------------------------------------------
 Center     Atomic      Atomic             Coordinates (Angstroms)
 Number     Number       Type             X           Y           Z
 ---------------------------------------------------------------------
      1         14           0       -1.627517   -0.000017   -0.131512
      2          7           0        0.058248    0.000067    0.174071
      3          1           0       -2.213928   -1.223416    0.467376
      4          1           0       -2.213912    1.223443    0.467276
      5          6           0        1.249305   -0.000034    0.035103
      6          8           0        2.413689   -0.000006   -0.065325
 ---------------------------------------------------------------------

 SCF Done:  E(UHF) =  -457.380709591     A.U. after    2 cycles

 The electronic state is 2-A.
 Alpha  occ. eigenvalues --  -69.12458 -20.62993 -15.65283 -11.42900  -6.87375
 Alpha  occ. eigenvalues --   -3.98658  -3.97963  -3.97753  -1.43455  -1.22803
 Alpha  occ. eigenvalues --   -0.83672  -0.74469  -0.67068  -0.66676  -0.62580
 Alpha  occ. eigenvalues --   -0.53068  -0.49175  -0.44817  -0.33989
 Alpha virt. eigenvalues --    0.03629   0.04489   0.05229   0.05788   0.08709
 Alpha virt. eigenvalues --    0.09644   0.10752   0.11083   0.11590   0.13298
 Alpha virt. eigenvalues --    0.16504   0.16907   0.17566   0.19728   0.20051

  Beta  occ. eigenvalues --  -69.11890 -20.62812 -15.65275 -11.42828  -6.86495
  Beta  occ. eigenvalues --   -3.97599  -3.97378  -3.96555  -1.43094  -1.22335
  Beta  occ. eigenvalues --   -0.82125  -0.73993  -0.66520  -0.65806  -0.59840
  Beta  occ. eigenvalues --   -0.52097  -0.46951  -0.44404
  Beta virt. eigenvalues --    0.01821   0.04070   0.04679   0.05329   0.07648
  Beta virt. eigenvalues --    0.09059   0.09837   0.10993   0.11246   0.12186
  Beta virt. eigenvalues --    0.14222   0.17904   0.18255   0.20001   0.20908

 Mulliken charges and spin densities:
               1          2
     1  Si   0.619696   0.927382
     2  N   -0.207850  -0.065324
     3  H   -0.055841   0.033281
     4  H   -0.055828   0.033273
     5  C   -0.090668   0.037545
     6  O   -0.209509   0.033843
 Sum of Mulliken charges =  -0.00000   1.00000

 Dipole moment (field-independent basis, Debye):
    X=             -2.5422    Y=             -0.0003    Z=             -0.1637  Tot=              2.5474
                          Isotropic Fermi Contact Couplings
        Atom                 a.u.       MegaHertz       Gauss      10(-4) cm-1
     1  Si(29)             0.62856    -558.62166    -199.33010    -186.33613
     2  N(14)              0.00683       2.20659       0.78737       0.73604
     3  H(1)               0.01074      48.01611      17.13334      16.01645
     4  H(1)               0.01074      48.00798      17.13044      16.01374
     5  C(13)              0.00161       1.81367       0.64716       0.60497
     6  O(17)              0.01625      -9.85090      -3.51504      -3.28590
 --------------------------------------------------------
       Center         ----  Spin Dipole Couplings  ----

 1\1\GINC-SE105\SP\UHF\Aug-CC-pVDZ\C1H2N1O1Si1(2)\OHZDE\08-Apr-2025\0\\
 #t hf aug-cc-pvdz iop(5/13=1,5/36=2,99/5=2) pseudo=read geom=check gue
 ss=(read,tcheck) scf=(maxcycle=1)\\title\\0,2\Si,0,1.627517,0.000017,-
 0.131512\N,0,-0.058248,-0.000067,0.174071\H,0,2.213928,1.223416,0.4673
 76\H,0,2.213912,-1.223443,0.467276\C,0,-1.249305,0.000034,0.035103\O,0
 ,-2.413689,0.000006,-0.065325\\Version=ES64L-G16RevC.01\State=2-A\HF=-
 457.3807096\S2=0.755532\S2-1=0.\S2A=0.750016\RMSD=5.614e-03\Dipole=1.0
 001699,0.0001081,-0.0644\Quadrupole=-3.0449843,1.612774,1.4322103,-0.0

 Normal termination of Gaussian 16 at Tue Apr  8 23:51:20 2025.
