 Gaussian 16, Revision C.01,

 ----------------------------------------------------------------------
 #t hf aug-cc-pvdz symm=none int=(grid=ultrafine) guess=(read,tcheck) s
 table=(opt,rrhf)
 ----------------------------------------------------------------------
 -----
 title
 -----
 Symbolic Z-matrix:
 Charge =  0 Multiplicity = 1

 SCF Done:  E(RHF) =  -1155.55321084     A.U. after   14 cycles
 Normal termination of Gaussian 16 at Tue Apr  8 23:44:14 2025.
 Gaussian 16:  ES64L-G16RevC.01  3-Jul-2019

 ----------------------------------------------------------------------
 #t hf aug-cc-pvdz iop(5/13=1,5/36=2,99/5=2) pseudo=read geom=check gue
 ss=(read,tcheck) scf=(maxcycle=1)
 ----------------------------------------------------------------------
 -----
 title
 -----
 Structure from the checkpoint file:  "BDE49_nonexpt_1720_mol1.chk"
 Charge =  0 Multiplicity = 1

                         Standard orientation:
 ---------------------------------------------------------------------
 Center     Atomic      Atomic             Coordinates (Angstroms)
 Number     Number       Type             X           Y           Z
 ---------------------------------------------------------------------
      1          6           0        2.731270   -0.624993    0.226308
      2          6           0        1.377060    0.016735    0.004243
      3         16           0        0.040180   -1.190519   -0.154437
      4          8           0        1.216356    1.217499   -0.062243
      5         15           0       -1.723400    0.054682   -0.063318
      6          8           0       -2.861359   -0.707624   -0.565217
      7          6           0        3.900944    0.317735   -0.054022
      8          1           0        2.788829   -1.535982   -0.377339
      9          1           0        2.741219   -0.961413    1.270541
     10          1           0        3.915800    0.626330   -1.101297
     11          1           0        4.845396   -0.183006    0.168065
     12          1           0        3.832982    1.217718    0.557957
     13          8           0       -1.818653    0.517359    1.468916
     14          1           0       -2.304491   -0.120046    2.007459
     15          8           0       -1.320893    1.383746   -0.790580
     16          1           0       -0.390869    1.639779   -0.570808
 ---------------------------------------------------------------------

 SCF Done:  E(RHF) =  -1155.77257296     A.U. after    2 cycles

 The electronic state is 1-A.
 Alpha  occ. eigenvalues --  -93.57592 -81.44928 -20.63047 -20.61764 -20.61683
 Alpha  occ. eigenvalues --  -20.54172 -11.41875 -11.28582 -11.25511  -8.87590
 Alpha  occ. eigenvalues --   -7.93066  -6.21710  -6.21470  -6.21174  -5.07723
 Alpha  occ. eigenvalues --   -5.07596  -5.07279  -1.41595  -1.39126  -1.35675
 Alpha  occ. eigenvalues --   -1.27770  -1.09183  -1.02144  -0.91257  -0.84847
 Alpha  occ. eigenvalues --   -0.80141  -0.76668  -0.70698  -0.69883  -0.67517
 Alpha  occ. eigenvalues --   -0.66809  -0.65466  -0.61613  -0.60654  -0.59523
 Alpha  occ. eigenvalues --   -0.57476  -0.57130  -0.54812  -0.53010  -0.52692
 Alpha  occ. eigenvalues --   -0.50771  -0.46192  -0.45567  -0.41444
 Alpha virt. eigenvalues --    0.02506   0.03729   0.04464   0.04558   0.05773
 Alpha virt. eigenvalues --    0.06820   0.07315   0.08560   0.08726   0.10066
 Alpha virt. eigenvalues --    0.10364   0.11072   0.11937   0.12890   0.13435

 Mulliken charges:
               1
     1  C    0.043573
     2  C   -0.201754
     3  S   -0.098547
     4  O   -0.570656
     5  P    2.148424
     6  O   -0.850252
     7  C    0.503407
     8  H   -0.006788
     9  H    0.084224
    10  H   -0.070504
    11  H   -0.037315
    12  H   -0.042293
    13  O   -0.653714
    14  H    0.155492
    15  O   -0.696624
    16  H    0.293328
 Sum of Mulliken charges =  -0.00000

 Dipole moment (field-independent basis, Debye):
    X=              5.2186    Y=             -1.4638    Z=              2.7091  Tot=              6.0594

 Test job not archived.
 1\1\GINC-SE143\SP\RHF\Aug-CC-pVDZ\C3H7O4P1S1\OHZDE\08-Apr-2025\0\\#t h
 f aug-cc-pvdz iop(5/13=1,5/36=2,99/5=2) pseudo=read geom=check guess=(
 read,tcheck) scf=(maxcycle=1)\\title\\0,1\C,0,2.73127,-0.624993,0.2263
 08\C,0,1.37706,0.016735,0.004243\S,0,0.04018,-1.190519,-0.154437\O,0,1
 .216356,1.217499,-0.062243\P,0,-1.7234,0.054682,-0.063318\O,0,-2.86135
 9,-0.707624,-0.565217\C,0,3.900944,0.317735,-0.054022\H,0,2.788829,-1.
 535982,-0.377339\H,0,2.741219,-0.961413,1.270541\H,0,3.9158,0.62633,-1
 .101297\H,0,4.845396,-0.183006,0.168065\H,0,3.832982,1.217718,0.557957

 Normal termination of Gaussian 16 at Tue Apr  8 23:44:22 2025.
