 Gaussian 16, Revision C.01,

 ----------------------------------------------------------------------
 #t hf aug-cc-pvdz symm=none int=(grid=ultrafine) guess=(read,tcheck) s
 table=(opt,rrhf)
 ----------------------------------------------------------------------
 -----
 title
 -----
 Symbolic Z-matrix:
 Charge =  0 Multiplicity = 1

 SCF Done:  E(RHF) =  -143.518597408     A.U. after   12 cycles
 Normal termination of Gaussian 16 at Wed Apr  9 00:24:17 2025.
 Gaussian 16:  ES64L-G16RevC.01  3-Jul-2019

 ----------------------------------------------------------------------
 #t hf aug-cc-pvdz iop(5/13=1,5/36=2,99/5=2) pseudo=read geom=check gue
 ss=(read,tcheck) scf=(maxcycle=1)
 ----------------------------------------------------------------------
 -----
 title
 -----
 Structure from the checkpoint file:  "BDE49_nonexpt_278_mol1.chk"
 Charge =  0 Multiplicity = 1

                         Standard orientation:
 ---------------------------------------------------------------------
 Center     Atomic      Atomic             Coordinates (Angstroms)
 Number     Number       Type             X           Y           Z
 ---------------------------------------------------------------------
      1          5           0        0.806826    1.334750    0.101011
      2          6           0       -0.004031    0.097542   -0.397802
      3          6           0        0.818045   -1.114811    0.138621
      4          1           0        0.861925   -1.119678    1.232533
      5          1           0        0.024143    0.031307   -1.492602
      6          6           0       -1.461901    0.018435    0.079013
      7          1           0       -1.520038    0.054612    1.171549
      8          1           0       -1.941289   -0.909696   -0.251252
      9          1           0       -2.056039    0.851338   -0.308237
     10          1           0        1.842920   -1.122446   -0.242310
     11          1           0        0.339916   -2.048901   -0.172921
     12          1           0        1.756299    1.729400   -0.507631
     13          1           0        0.545358    1.853321    1.146825
 ---------------------------------------------------------------------

 SCF Done:  E(RHF) =  -143.566552885     A.U. after    2 cycles

 The electronic state is 1-A.
 Alpha  occ. eigenvalues --  -11.23397 -11.22290 -11.21474  -7.60625  -1.04590
 Alpha  occ. eigenvalues --   -0.92531  -0.80774  -0.67469  -0.61349  -0.57759
 Alpha  occ. eigenvalues --   -0.55882  -0.53919  -0.50018  -0.47816  -0.45336
 Alpha  occ. eigenvalues --   -0.43284
 Alpha virt. eigenvalues --    0.03280   0.04162   0.04636   0.05033   0.06441
 Alpha virt. eigenvalues --    0.06741   0.06878   0.07426   0.07648   0.09218
 Alpha virt. eigenvalues --    0.10682   0.11388   0.12687   0.13464   0.14691

 Mulliken charges:
               1
     1  B   -0.500370
     2  C   -0.302472
     3  C    0.379883
     4  H   -0.110508
     5  H   -0.126619
     6  C    0.443529
     7  H   -0.069659
     8  H   -0.046983
     9  H   -0.107275
    10  H   -0.144329
    11  H   -0.086574
    12  H    0.332077
    13  H    0.339299
 Sum of Mulliken charges =   0.00000

 Dipole moment (field-independent basis, Debye):
    X=             -0.1985    Y=             -0.4580    Z=             -0.2470  Tot=              0.5569

 Test job not archived.
 1\1\GINC-SE187\SP\RHF\Aug-CC-pVDZ\C3H9B1\OHZDE\09-Apr-2025\0\\#t hf au
 g-cc-pvdz iop(5/13=1,5/36=2,99/5=2) pseudo=read geom=check guess=(read
 ,tcheck) scf=(maxcycle=1)\\title\\0,1\B,0,0.806826,1.33475,0.101011\C,
 0,-0.004031,0.097542,-0.397802\C,0,0.818045,-1.114811,0.138621\H,0,0.8
 61925,-1.119678,1.232533\H,0,0.024143,0.031307,-1.492602\C,0,-1.461901
 ,0.018435,0.079013\H,0,-1.520038,0.054612,1.171549\H,0,-1.941289,-0.90
 9696,-0.251252\H,0,-2.056039,0.851338,-0.308237\H,0,1.84292,-1.122445,
 -0.24231\H,0,0.339917,-2.048901,-0.172921\H,0,1.756299,1.729401,-0.507

 Normal termination of Gaussian 16 at Wed Apr  9 00:24:21 2025.
