 Gaussian 16, Revision C.01,

 ----------------------------------------------------------------------
 #t hf aug-cc-pvdz symm=none int=(grid=ultrafine) guess=(read,tcheck) s
 table=(opt,rrhf)
 ----------------------------------------------------------------------
 -----
 title
 -----
 Symbolic Z-matrix:
 Charge =  0 Multiplicity = 1

 SCF Done:  E(RHF) =  -675.433661620     A.U. after   11 cycles
 Normal termination of Gaussian 16 at Wed Apr  9 00:09:39 2025.
 Gaussian 16:  ES64L-G16RevC.01  3-Jul-2019

 ----------------------------------------------------------------------
 #t hf aug-cc-pvdz iop(5/13=1,5/36=2,99/5=2) pseudo=read geom=check gue
 ss=(read,tcheck) scf=(maxcycle=1)
 ----------------------------------------------------------------------
 -----
 title
 -----
 Structure from the checkpoint file:  "BDE49_nonexpt_2375_mol1.chk"
 Charge =  0 Multiplicity = 1

                         Standard orientation:
 ---------------------------------------------------------------------
 Center     Atomic      Atomic             Coordinates (Angstroms)
 Number     Number       Type             X           Y           Z
 ---------------------------------------------------------------------
      1         14           0       -2.067116   -0.302697    0.042565
      2         14           0        0.059819    0.712089   -0.041320
      3          1           0       -2.224947   -1.276613   -1.068604
      4          1           0       -3.129815    0.724446   -0.092102
      5          1           0       -2.269499   -1.027227    1.320767
      6          7           0        1.264826   -0.524471   -0.082601
      7          1           0        0.298674    1.529020    1.175899
      8          1           0        0.084857    1.667268   -1.190426
      9          6           0        2.696003   -0.281043    0.093948
     10          1           0        1.070445   -1.350686   -0.630588
     11          1           0        2.841623    0.507494    0.836815
     12          1           0        3.206905    0.030875   -0.827583
     13          1           0        3.194113   -1.178516    0.472914
 ---------------------------------------------------------------------

 SCF Done:  E(RHF) =  -675.512596940     A.U. after    2 cycles

 The electronic state is 1-A.
 Alpha  occ. eigenvalues --  -69.07109 -69.05549 -15.60268 -11.26629  -6.82187
 Alpha  occ. eigenvalues --   -6.80991  -3.93041  -3.92958  -3.92903  -3.91753
 Alpha  occ. eigenvalues --   -3.91747  -3.91708  -1.13529  -0.89954  -0.73055
 Alpha  occ. eigenvalues --   -0.68370  -0.61950  -0.59252  -0.56738  -0.50909
 Alpha  occ. eigenvalues --   -0.49062  -0.47771  -0.46677  -0.39929  -0.36520
 Alpha virt. eigenvalues --    0.03438   0.04106   0.04755   0.05300   0.06193
 Alpha virt. eigenvalues --    0.07293   0.07480   0.07700   0.08636   0.09171
 Alpha virt. eigenvalues --    0.09606   0.09877   0.10504   0.10936   0.11852

 Mulliken charges:
               1
     1  Si  -0.252990
     2  Si   0.577520
     3  H    0.026284
     4  H    0.016541
     5  H    0.031733
     6  N   -0.557680
     7  H   -0.008311
     8  H    0.000814
     9  C    0.785243
    10  H   -0.086415
    11  H   -0.224284
    12  H   -0.118029
    13  H   -0.190427
 Sum of Mulliken charges =   0.00000

 Dipole moment (field-independent basis, Debye):
    X=              1.1129    Y=             -0.6023    Z=             -0.4747  Tot=              1.3515

 Test job not archived.
 1\1\GINC-SE082\SP\RHF\Aug-CC-pVDZ\C1H9N1Si2\OHZDE\09-Apr-2025\0\\#t hf
  aug-cc-pvdz iop(5/13=1,5/36=2,99/5=2) pseudo=read geom=check guess=(r
 ead,tcheck) scf=(maxcycle=1)\\title\\0,1\Si,0,-2.067116,-0.302697,0.04
 2565\Si,0,0.059819,0.712089,-0.04132\H,0,-2.224947,-1.276613,-1.068604
 \H,0,-3.129815,0.724446,-0.092102\H,0,-2.269499,-1.027227,1.320767\N,0
 ,1.264826,-0.524471,-0.082601\H,0,0.298674,1.52902,1.175899\H,0,0.0848
 57,1.667268,-1.190426\C,0,2.696003,-0.281043,0.093948\H,0,1.070445,-1.
 350686,-0.630588\H,0,2.841623,0.507494,0.836815\H,0,3.206905,0.030875,

 Normal termination of Gaussian 16 at Wed Apr  9 00:09:43 2025.
