 Gaussian 16, Revision C.01,

 ----------------------------------------------------------------------
 #t hf aug-cc-pvdz symm=none int=(grid=ultrafine) guess=(read,tcheck) s
 table=opt
 ----------------------------------------------------------------------
 -----
 title
 -----
 Symbolic Z-matrix:
 Charge =  0 Multiplicity = 2

 SCF Done:  E(UHF) =  -647.834502771     A.U. after   15 cycles
 Normal termination of Gaussian 16 at Tue Apr  8 22:48:56 2025.
 Gaussian 16:  ES64L-G16RevC.01  3-Jul-2019

 ----------------------------------------------------------------------
 #t hf aug-cc-pvdz iop(5/13=1,5/36=2,99/5=2) pseudo=read geom=check gue
 ss=(read,tcheck) scf=(maxcycle=1)
 ----------------------------------------------------------------------
 -----
 title
 -----
 Structure from the checkpoint file:  "BDE49_expt_172_mol2.chk"
 Charge =  0 Multiplicity = 2

                         Standard orientation:
 ---------------------------------------------------------------------
 Center     Atomic      Atomic             Coordinates (Angstroms)
 Number     Number       Type             X           Y           Z
 ---------------------------------------------------------------------
      1          6           0       -1.298819   -0.056458    0.178431
      2          8           0       -0.185149   -0.351189   -0.565524
      3          9           0       -2.229204   -0.969379   -0.026051
      4          9           0       -1.774132    1.162960   -0.052360
      5          6           0        1.035393   -0.037490   -0.014525
      6          9           0        1.133327    1.265151    0.270237
      7          9           0        1.956019   -0.360321   -0.909918
      8          9           0        1.254183   -0.723610    1.111509
 ---------------------------------------------------------------------

 SCF Done:  E(UHF) =  -648.072207396     A.U. after    2 cycles

 The electronic state is 2-A.
 Alpha  occ. eigenvalues --  -26.20383 -26.20258 -26.20226 -26.19981 -26.19594
 Alpha  occ. eigenvalues --  -20.69506 -11.62145 -11.53490  -1.80949  -1.77894
 Alpha  occ. eigenvalues --   -1.73482  -1.73133  -1.72761  -1.48025  -1.09906
 Alpha  occ. eigenvalues --   -1.02125  -0.94227  -0.93449  -0.93289  -0.89452
 Alpha  occ. eigenvalues --   -0.87380  -0.83384  -0.81311  -0.81014  -0.79510
 Alpha  occ. eigenvalues --   -0.76923  -0.76587  -0.75410  -0.75301  -0.74080
 Alpha  occ. eigenvalues --   -0.70911  -0.64168  -0.50074
 Alpha virt. eigenvalues --    0.07322   0.07739   0.08295   0.08528   0.11046
 Alpha virt. eigenvalues --    0.11380   0.11818   0.18360   0.20093   0.21243
 Alpha virt. eigenvalues --    0.25226   0.26214   0.26337   0.27675   0.29642

  Beta  occ. eigenvalues --  -26.20393 -26.20257 -26.20231 -26.19536 -26.19076
  Beta  occ. eigenvalues --  -20.69164 -11.62116 -11.50551  -1.80933  -1.76265
  Beta  occ. eigenvalues --   -1.73498  -1.73116  -1.71377  -1.46714  -1.08586
  Beta  occ. eigenvalues --   -1.00212  -0.93710  -0.93318  -0.91975  -0.88140
  Beta  occ. eigenvalues --   -0.83346  -0.81353  -0.80952  -0.80880  -0.76778
  Beta  occ. eigenvalues --   -0.76678  -0.76206  -0.75330  -0.74889  -0.73249
  Beta  occ. eigenvalues --   -0.68040  -0.63569
  Beta virt. eigenvalues --    0.04544   0.07667   0.08357   0.08567   0.09704
  Beta virt. eigenvalues --    0.11159   0.11454   0.13091   0.19181   0.20211
  Beta virt. eigenvalues --    0.21314   0.25304   0.26335   0.26590   0.28030

 Mulliken charges and spin densities:
               1          2
     1  C    0.759894   0.914242
     2  O   -0.558485   0.036061
     3  F   -0.269064   0.021974
     4  F   -0.290693   0.033740
     5  C    1.092510  -0.000558
     6  F   -0.259497  -0.001443
     7  F   -0.220359  -0.000556
     8  F   -0.254307  -0.003459
 Sum of Mulliken charges =  -0.00000   1.00000

 Dipole moment (field-independent basis, Debye):
    X=              0.1014    Y=             -0.1746    Z=              0.4553  Tot=              0.4981
                          Isotropic Fermi Contact Couplings
        Atom                 a.u.       MegaHertz       Gauss      10(-4) cm-1
     1  C(13)              0.59907     673.46858     240.31034     224.64494
     2  O(17)              0.01692     -10.25450      -3.65906      -3.42053
     3  F(19)              0.07637     321.30636     114.65010     107.17627
     4  F(19)              0.09241     388.79256     138.73085     129.68724
     5  C(13)              0.00651       7.32248       2.61284       2.44252
     6  F(19)             -0.00035      -1.47394      -0.52594      -0.49165
     7  F(19)             -0.00083      -3.49950      -1.24871      -1.16731
     8  F(19)             -0.00189      -7.95748      -2.83943      -2.65433

 Normal termination of Gaussian 16 at Tue Apr  8 22:49:00 2025.
