 Gaussian 16, Revision C.01,

 ----------------------------------------------------------------------
 #t hf aug-cc-pvdz symm=none int=(grid=ultrafine) guess=(read,tcheck) s
 table=(opt,rrhf)
 ----------------------------------------------------------------------
 -----
 title
 -----
 Symbolic Z-matrix:
 Charge =  0 Multiplicity = 1

 SCF Done:  E(RHF) =  -1000.25779606     A.U. after   17 cycles
 Normal termination of Gaussian 16 at Tue Apr  8 23:30:16 2025.
 Gaussian 16:  ES64L-G16RevC.01  3-Jul-2019

 ----------------------------------------------------------------------
 #t hf aug-cc-pvdz iop(5/13=1,5/36=2,99/5=2) pseudo=read geom=check gue
 ss=(read,tcheck) scf=(maxcycle=1)
 ----------------------------------------------------------------------
 -----
 title
 -----
 Structure from the checkpoint file:  "BDE49_nonexpt_1326_mol1.chk"
 Charge =  0 Multiplicity = 1

                         Standard orientation:
 ---------------------------------------------------------------------
 Center     Atomic      Atomic             Coordinates (Angstroms)
 Number     Number       Type             X           Y           Z
 ---------------------------------------------------------------------
      1          6           0        1.346569   -1.205676    0.015972
      2          6           0       -0.041670   -1.181738    0.007467
      3          6           0        2.033361    0.004307   -0.000719
      4          6           0        1.382490    1.230741   -0.027214
      5          6           0       -0.008704    1.244070   -0.036887
      6          6           0       -0.722496    0.041930   -0.020556
      7          1           0       -0.550981    2.181009   -0.060097
      8          1           0        1.901889   -2.132711    0.035557
      9          1           0       -0.594961   -2.112337    0.020209
     10         15           0       -2.522491    0.124180   -0.012794
     11          8           0       -3.070024    1.485306    0.016881
     12          8           0       -3.015276   -0.803183    1.212753
     13          7           0        3.517623   -0.017796    0.010539
     14          8           0        4.064682   -1.110891    0.033327
     15          8           0        4.097613    1.057985   -0.003114
     16          1           0        1.962043    2.142940   -0.040856
     17          1           0       -3.276921   -0.269559    1.973094
     18          8           0       -2.870352   -0.812580   -1.260200
     19          1           0       -3.817506   -0.882365   -1.435319
 ---------------------------------------------------------------------

 SCF Done:  E(RHF) =  -1000.52223368     A.U. after    2 cycles

 The electronic state is 1-A.
 Alpha  occ. eigenvalues --  -81.43689 -20.63412 -20.63128 -20.62925 -20.62914
 Alpha  occ. eigenvalues --  -20.54214 -15.93140 -11.33816 -11.29544 -11.29487
 Alpha  occ. eigenvalues --  -11.29454 -11.29350 -11.29116  -7.92040  -5.06717
 Alpha  occ. eigenvalues --   -5.06590  -5.06400  -1.56171  -1.39792  -1.37778
 Alpha  occ. eigenvalues --   -1.36296  -1.27726  -1.20340  -1.09962  -1.06088
 Alpha  occ. eigenvalues --   -0.97330  -0.88559  -0.87418  -0.83315  -0.79978
 Alpha  occ. eigenvalues --   -0.78196  -0.75094  -0.73786  -0.72651  -0.69821
 Alpha  occ. eigenvalues --   -0.68017  -0.66877  -0.65897  -0.64212  -0.62797
 Alpha  occ. eigenvalues --   -0.60017  -0.59073  -0.55473  -0.54693  -0.54436
 Alpha  occ. eigenvalues --   -0.52640  -0.52087  -0.50548  -0.49444  -0.48490
 Alpha  occ. eigenvalues --   -0.39963  -0.38333
 Alpha virt. eigenvalues --    0.01369   0.02336   0.03947   0.04123   0.04430
 Alpha virt. eigenvalues --    0.06233   0.06678   0.07731   0.07953   0.09303
 Alpha virt. eigenvalues --    0.10455   0.10754   0.11008   0.12416   0.12514

 Mulliken charges:
               1
     1  C    0.486634
     2  C    0.466280
     3  C    1.435091
     4  C    0.559730
     5  C    0.396439
     6  C   -0.238933
     7  H   -0.643199
     8  H   -0.470643
     9  H   -0.606900
    10  P    2.099281
    11  O   -0.895447
    12  O   -0.683149
    13  N    0.059678
    14  O   -0.546599
    15  O   -0.541362
    16  H   -0.466422
    17  H    0.140160
    18  O   -0.719184
    19  H    0.168545
 Sum of Mulliken charges =  -0.00000

 Dipole moment (field-independent basis, Debye):
    X=             -4.1326    Y=             -1.8987    Z=              0.7763  Tot=              4.6137

 Test job not archived.
 1\1\GINC-SE084\SP\RHF\Aug-CC-pVDZ\C6H6N1O5P1\OHZDE\08-Apr-2025\0\\#t h
 f aug-cc-pvdz iop(5/13=1,5/36=2,99/5=2) pseudo=read geom=check guess=(
 read,tcheck) scf=(maxcycle=1)\\title\\0,1\C,0,1.346569,-1.205676,0.015
 972\C,0,-0.04167,-1.181738,0.007467\C,0,2.033361,0.004307,-0.000719\C,
 0,1.38249,1.230741,-0.027214\C,0,-0.008704,1.24407,-0.036887\C,0,-0.72
 2496,0.04193,-0.020556\H,0,-0.550981,2.181009,-0.060097\H,0,1.901889,-
 2.132711,0.035557\H,0,-0.594961,-2.112337,0.020209\P,0,-2.522491,0.124
 18,-0.012794\O,0,-3.070024,1.485306,0.016881\O,0,-3.015276,-0.803183,1

 Normal termination of Gaussian 16 at Tue Apr  8 23:30:33 2025.
