 Gaussian 16, Revision C.01,

 ----------------------------------------------------------------------
 #t hf aug-cc-pvdz symm=none int=(grid=ultrafine) guess=(read,tcheck) s
 table=(opt,rrhf)
 ----------------------------------------------------------------------
 -----
 title
 -----
 Symbolic Z-matrix:
 Charge =  0 Multiplicity = 1

 SCF Done:  E(RHF) =  -656.259354466     A.U. after   11 cycles

 1\1\GINC-SE252\Stability\RHF\Aug-CC-pVDZ\H6O1Si2\OHZDE\09-Apr-2025\0\\
 #t hf aug-cc-pvdz symm=none int=(grid=ultrafine) guess=(read,tcheck) s
 table=(opt,rrhf)\\title\\0,1\Si,0,-0.707837,0.546654,-0.017866\Si,0,1.
 546879,-0.161362,0.008045\O,0,-1.775211,-0.720735,0.097825\H,0,-1.7431
 48,-1.415357,-0.563573\H,0,2.452133,1.008347,-0.12049\H,0,1.813421,-1.
 08118,-1.128197\H,0,1.872648,-0.878554,1.26498\H,0,-0.997698,1.397621,
 1.155682\H,0,-0.942264,1.340916,-1.253508\\Version=ES64L-G16RevC.01\HF
 =-656.2593545\RMSD=4.154e-09\Dipole=0.1836919,-0.1772511,-0.4228845\Qu

 Normal termination of Gaussian 16 at Wed Apr  9 00:08:28 2025.
 Gaussian 16:  ES64L-G16RevC.01  3-Jul-2019

 ----------------------------------------------------------------------
 #t hf aug-cc-pvdz iop(5/13=1,5/36=2,99/5=2) pseudo=read geom=check gue
 ss=(read,tcheck) scf=(maxcycle=1)
 ----------------------------------------------------------------------
 -----
 title
 -----
 Structure from the checkpoint file:  "BDE49_nonexpt_2336_mol1.chk"
 Charge =  0 Multiplicity = 1

                         Standard orientation:
 ---------------------------------------------------------------------
 Center     Atomic      Atomic             Coordinates (Angstroms)
 Number     Number       Type             X           Y           Z
 ---------------------------------------------------------------------
      1         14           0        0.707837    0.546654    0.017866
      2         14           0       -1.546879   -0.161362   -0.008045
      3          8           0        1.775211   -0.720736   -0.097825
      4          1           0        1.743147   -1.415357    0.563573
      5          1           0       -2.452133    1.008348    0.120490
      6          1           0       -1.813421   -1.081180    1.128197
      7          1           0       -1.872648   -0.878554   -1.264980
      8          1           0        0.997698    1.397621   -1.155682
      9          1           0        0.942264    1.340916    1.253508
 ---------------------------------------------------------------------

 SCF Done:  E(RHF) =  -656.335376983     A.U. after    2 cycles

 The electronic state is 1-A.
 Alpha  occ. eigenvalues --  -69.09530 -69.06115 -20.57661  -6.84374  -6.81586
 Alpha  occ. eigenvalues --   -3.95274  -3.95138  -3.95096  -3.92346  -3.92341
 Alpha  occ. eigenvalues --   -3.92303  -1.30450  -0.76773  -0.71139  -0.62971
 Alpha  occ. eigenvalues --   -0.57119  -0.55928  -0.49086  -0.48510  -0.46685
 Alpha  occ. eigenvalues --   -0.39248
 Alpha virt. eigenvalues --    0.03338   0.04354   0.05204   0.06471   0.07067
 Alpha virt. eigenvalues --    0.07341   0.07589   0.08217   0.08902   0.09696
 Alpha virt. eigenvalues --    0.10350   0.10498   0.13738   0.15327   0.15599

 Mulliken charges:
               1
     1  Si   0.774822
     2  Si  -0.042758
     3  O   -0.782058
     4  H    0.129438
     5  H   -0.018971
     6  H   -0.020093
     7  H   -0.018373
     8  H   -0.005791
     9  H   -0.016215
 Sum of Mulliken charges =  -0.00000

 Dipole moment (field-independent basis, Debye):
    X=             -0.5031    Y=             -0.4642    Z=              1.1273  Tot=              1.3189

 Test job not archived.
 1\1\GINC-SE252\SP\RHF\Aug-CC-pVDZ\H6O1Si2\OHZDE\09-Apr-2025\0\\#t hf a
 ug-cc-pvdz iop(5/13=1,5/36=2,99/5=2) pseudo=read geom=check guess=(rea
 d,tcheck) scf=(maxcycle=1)\\title\\0,1\Si,0,-0.707837,0.546654,-0.0178
 66\Si,0,1.546879,-0.161362,0.008045\O,0,-1.775211,-0.720735,0.097825\H
 ,0,-1.743148,-1.415357,-0.563573\H,0,2.452133,1.008347,-0.12049\H,0,1.
 813421,-1.08118,-1.128197\H,0,1.872648,-0.878554,1.26498\H,0,-0.997698
 ,1.397621,1.155682\H,0,-0.942264,1.340916,-1.253508\\Version=ES64L-G16
 RevC.01\State=1-A\HF=-656.335377\RMSD=5.020e-03\Dipole=0.1979203,-0.18

 Normal termination of Gaussian 16 at Wed Apr  9 00:08:31 2025.
