 Gaussian 16, Revision C.01,

 ----------------------------------------------------------------------
 #t hf aug-cc-pvdz symm=none int=(grid=ultrafine) guess=(read,tcheck) s
 table=(opt,rrhf)
 ----------------------------------------------------------------------
 -----
 title
 -----
 Symbolic Z-matrix:
 Charge =  0 Multiplicity = 1

 SCF Done:  E(RHF) =  -190.882434977     A.U. after   13 cycles
 Normal termination of Gaussian 16 at Tue Apr  8 23:33:06 2025.
 Gaussian 16:  ES64L-G16RevC.01  3-Jul-2019

 ----------------------------------------------------------------------
 #t hf aug-cc-pvdz iop(5/13=1,5/36=2,99/5=2) pseudo=read geom=check gue
 ss=(read,tcheck) scf=(maxcycle=1)
 ----------------------------------------------------------------------
 -----
 title
 -----
 Structure from the checkpoint file:  "BDE49_nonexpt_147_mol1.chk"
 Charge =  0 Multiplicity = 1

                         Standard orientation:
 ---------------------------------------------------------------------
 Center     Atomic      Atomic             Coordinates (Angstroms)
 Number     Number       Type             X           Y           Z
 ---------------------------------------------------------------------
      1          5           0       -2.421813    0.135383   -0.348931
      2          5           0       -1.134857   -0.009494    0.621872
      3          5           0        0.475711   -0.115094    0.118439
      4          8           0        0.990748   -1.357332   -0.115360
      5          6           0        1.341996    1.193893   -0.086386
      6          1           0        1.919834   -1.342181   -0.372691
      7          1           0        1.151430    1.956135    0.675289
      8          1           0        1.076450    1.653268   -1.047691
      9          1           0        2.422084    1.000405   -0.105326
     10          1           0       -1.303190    0.000886    1.812861
     11          1           0       -3.026674   -0.823345   -0.734264
     12          1           0       -2.813103    1.196159   -0.743889
 ---------------------------------------------------------------------

 SCF Done:  E(RHF) =  -190.946785634     A.U. after    2 cycles

 The electronic state is 1-A.
 Alpha  occ. eigenvalues --  -20.58445 -11.21200  -7.61869  -7.59359  -7.57327
 Alpha  occ. eigenvalues --   -1.32484  -0.94636  -0.77603  -0.71692  -0.63489
 Alpha  occ. eigenvalues --   -0.61594  -0.57466  -0.55345  -0.53535  -0.50992
 Alpha  occ. eigenvalues --   -0.48410  -0.44220  -0.39611
 Alpha virt. eigenvalues --    0.02935   0.04106   0.04555   0.04844   0.05349
 Alpha virt. eigenvalues --    0.06211   0.06409   0.06966   0.07282   0.08610
 Alpha virt. eigenvalues --    0.08936   0.09399   0.09983   0.10493   0.10638

 Mulliken charges:
               1
     1  B   -0.492554
     2  B   -0.095100
     3  B    0.701845
     4  O   -0.538513
     5  C    0.416045
     6  H    0.160348
     7  H   -0.250537
     8  H   -0.136963
     9  H   -0.379587
    10  H    0.119525
    11  H    0.246830
    12  H    0.248662
 Sum of Mulliken charges =  -0.00000

 Dipole moment (field-independent basis, Debye):
    X=              1.6868    Y=              0.8849    Z=             -0.2702  Tot=              1.9238

 Test job not archived.
 1\1\GINC-SE361\SP\RHF\Aug-CC-pVDZ\C1H7B3O1\OHZDE\08-Apr-2025\0\\#t hf
 aug-cc-pvdz iop(5/13=1,5/36=2,99/5=2) pseudo=read geom=check guess=(re
 ad,tcheck) scf=(maxcycle=1)\\title\\0,1\B,0,-2.421813,0.135383,-0.3489
 31\B,0,-1.134857,-0.009494,0.621872\B,0,0.475711,-0.115094,0.118439\O,
 0,0.990748,-1.357332,-0.11536\C,0,1.341996,1.193893,-0.086386\H,0,1.91
 9834,-1.342181,-0.372691\H,0,1.15143,1.956135,0.675289\H,0,1.07645,1.6
 53268,-1.047691\H,0,2.422084,1.000405,-0.105326\H,0,-1.30319,0.000886,
 1.812861\H,0,-3.026674,-0.823345,-0.734264\H,0,-2.813103,1.196159,-0.7

 Normal termination of Gaussian 16 at Tue Apr  8 23:33:10 2025.
