 Gaussian 16, Revision C.01,

 ----------------------------------------------------------------------
 #t hf aug-cc-pvdz symm=none int=(grid=ultrafine) guess=(read,tcheck) s
 table=(opt,rrhf)
 ----------------------------------------------------------------------
 -----
 title
 -----
 Symbolic Z-matrix:
 Charge =  0 Multiplicity = 1

 SCF Done:  E(RHF) =  -1191.36934824     A.U. after   15 cycles
 Normal termination of Gaussian 16 at Tue Apr  8 23:44:02 2025.
 Gaussian 16:  ES64L-G16RevC.01  3-Jul-2019

 ----------------------------------------------------------------------
 #t hf aug-cc-pvdz iop(5/13=1,5/36=2,99/5=2) pseudo=read geom=check gue
 ss=(read,tcheck) scf=(maxcycle=1)
 ----------------------------------------------------------------------
 -----
 title
 -----
 Structure from the checkpoint file:  "BDE49_nonexpt_1723_mol1.chk"
 Charge =  0 Multiplicity = 1

                         Standard orientation:
 ---------------------------------------------------------------------
 Center     Atomic      Atomic             Coordinates (Angstroms)
 Number     Number       Type             X           Y           Z
 ---------------------------------------------------------------------
      1         16           0        0.137565    1.357114   -0.458171
      2         15           0        1.521660   -0.187404    0.057617
      3          8           0        2.838176    0.369180   -0.250173
      4          8           0        1.088712   -1.499799   -0.683493
      5          8           0       -1.376637    0.919689    0.285765
      6          6           0       -2.042287   -0.194509   -0.096347
      7          6           0       -3.445067   -0.178978    0.446329
      8          1           0       -3.883864   -1.168240    0.336909
      9          1           0       -4.034834    0.549011   -0.116800
     10          1           0       -3.445591    0.131834    1.491431
     11          8           0       -1.571336   -1.079238   -0.772139
     12          8           0        1.216633   -0.554612    1.585811
     13          1           0        1.576748    0.104242    2.193712
     14          1           0        0.121331   -1.520445   -0.864830
 ---------------------------------------------------------------------

 SCF Done:  E(RHF) =  -1191.60478687     A.U. after    2 cycles

 The electronic state is 1-A.
 Alpha  occ. eigenvalues --  -93.62544 -81.45104 -20.67231 -20.63749 -20.61652
 Alpha  occ. eigenvalues --  -20.60921 -20.54518 -11.44456 -11.28189  -8.91736
 Alpha  occ. eigenvalues --   -7.93280  -6.25922  -6.25503  -6.25173  -5.07928
 Alpha  occ. eigenvalues --   -5.07800  -5.07503  -1.45637  -1.39645  -1.36833
 Alpha  occ. eigenvalues --   -1.35816  -1.28014  -1.06224  -0.98145  -0.86358
 Alpha  occ. eigenvalues --   -0.81689  -0.79124  -0.74368  -0.72342  -0.70984
 Alpha  occ. eigenvalues --   -0.68501  -0.65726  -0.62663  -0.61914  -0.61279
 Alpha  occ. eigenvalues --   -0.59912  -0.58436  -0.57529  -0.55542  -0.53130
 Alpha  occ. eigenvalues --   -0.50909  -0.50743  -0.46052  -0.41348
 Alpha virt. eigenvalues --    0.02454   0.03888   0.04904   0.05170   0.06384
 Alpha virt. eigenvalues --    0.06877   0.07770   0.09731   0.10327   0.11189
 Alpha virt. eigenvalues --    0.11368   0.12212   0.12365   0.13480   0.14118

 Mulliken charges:
               1
     1  S    0.194424
     2  P    2.118404
     3  O   -0.845060
     4  O   -0.706849
     5  O   -0.747648
     6  C    0.282524
     7  C    0.315854
     8  H    0.000552
     9  H    0.078045
    10  H    0.021257
    11  O   -0.493970
    12  O   -0.700206
    13  H    0.170635
    14  H    0.312037
 Sum of Mulliken charges =   0.00000

 Dipole moment (field-independent basis, Debye):
    X=             -5.6575    Y=              1.1691    Z=              2.6634  Tot=              6.3614

 Test job not archived.
 1\1\GINC-SE229\SP\RHF\Aug-CC-pVDZ\C2H5O5P1S1\OHZDE\08-Apr-2025\0\\#t h
 f aug-cc-pvdz iop(5/13=1,5/36=2,99/5=2) pseudo=read geom=check guess=(
 read,tcheck) scf=(maxcycle=1)\\title\\0,1\S,0,0.137565,1.357114,-0.458
 171\P,0,1.52166,-0.187404,0.057617\O,0,2.838176,0.36918,-0.250173\O,0,
 1.088712,-1.499799,-0.683493\O,0,-1.376637,0.919689,0.285765\C,0,-2.04
 2287,-0.194509,-0.096347\C,0,-3.445067,-0.178978,0.446329\H,0,-3.88386
 4,-1.16824,0.336909\H,0,-4.034834,0.549011,-0.1168\H,0,-3.445591,0.131
 834,1.491431\O,0,-1.571336,-1.079238,-0.772139\O,0,1.216633,-0.554612,

 Normal termination of Gaussian 16 at Tue Apr  8 23:44:11 2025.
