 Gaussian 16, Revision C.01,

 ----------------------------------------------------------------------
 #t hf aug-cc-pvdz symm=none int=(grid=ultrafine) guess=(read,tcheck) s
 table=(opt,rrhf)
 ----------------------------------------------------------------------
 -----
 title
 -----
 Symbolic Z-matrix:
 Charge =  0 Multiplicity = 1

 SCF Done:  E(RHF) =  -633.605620139     A.U. after   14 cycles

 1\1\GINC-SE220\Stability\RHF\Aug-CC-pVDZ\Cl1F1O1\OHZDE\08-Apr-2025\0\\
 #t hf aug-cc-pvdz symm=none int=(grid=ultrafine) guess=(read,tcheck) s
 table=(opt,rrhf)\\title\\0,1\F,0,1.419546,0.610663,0.\O,0,0.,0.828693,
 0.\Cl,0,-0.751524,-0.713266,0.\\Version=ES64L-G16RevC.01\HF=-633.60562
 01\RMSD=3.832e-09\Dipole=-0.4044132,-0.3461351,0.\Quadrupole=-0.143235
 7,0.6900669,-0.5468312,0.478841,0.,0.\PG=Unknown\\@
 The archive entry for this job was punched.

 Normal termination of Gaussian 16 at Tue Apr  8 23:17:47 2025.
 Gaussian 16:  ES64L-G16RevC.01  3-Jul-2019

 ----------------------------------------------------------------------
 #t hf aug-cc-pvdz iop(5/13=1,5/36=2,99/5=2) pseudo=read geom=check gue
 ss=(read,tcheck) scf=(maxcycle=1)
 ----------------------------------------------------------------------
 -----
 title
 -----
 Structure from the checkpoint file:  "BDE49_nonexpt_1079_mol1.chk"
 Charge =  0 Multiplicity = 1

                         Standard orientation:
 ---------------------------------------------------------------------
 Center     Atomic      Atomic             Coordinates (Angstroms)
 Number     Number       Type             X           Y           Z
 ---------------------------------------------------------------------
      1          9           0        1.419546    0.610663    0.000000
      2          8           0        0.000000    0.828693    0.000000
      3         17           0       -0.751524   -0.713266    0.000000
 ---------------------------------------------------------------------

 SCF Done:  E(RHF) =  -633.686447259     A.U. after    2 cycles

 The electronic state is 1-A'.
 Alpha  occ. eigenvalues -- -103.76037 -26.20244 -20.77938 -10.78739  -8.44502
 Alpha  occ. eigenvalues --   -8.44041  -8.44001  -1.70474  -1.37454  -1.12671
 Alpha  occ. eigenvalues --   -0.80940  -0.80041  -0.76904  -0.65245  -0.63595
 Alpha  occ. eigenvalues --   -0.53071  -0.50422
 Alpha virt. eigenvalues --    0.01208   0.08753   0.12008   0.12968   0.12998
 Alpha virt. eigenvalues --    0.14284   0.20802   0.21918   0.23028   0.27639
 Alpha virt. eigenvalues --    0.28013   0.32372   0.39031   0.44788   0.45105

 Mulliken charges:
               1
     1  F   -0.257644
     2  O   -0.178742
     3  Cl   0.436386
 Sum of Mulliken charges =   0.00000

 Dipole moment (field-independent basis, Debye):
    X=             -1.3598    Y=             -1.0182    Z=              0.0000  Tot=              1.6987

 Test job not archived.
 1\1\GINC-SE220\SP\RHF\Aug-CC-pVDZ\Cl1F1O1\OHZDE\08-Apr-2025\0\\#t hf a
 ug-cc-pvdz iop(5/13=1,5/36=2,99/5=2) pseudo=read geom=check guess=(rea
 d,tcheck) scf=(maxcycle=1)\\title\\0,1\F,0,1.419546,0.610663,0.\O,0,0.
 ,0.828693,0.\Cl,0,-0.751524,-0.713266,0.\\Version=ES64L-G16RevC.01\Sta
 te=1-A'\HF=-633.6864473\RMSD=4.840e-03\Dipole=-0.5349717,-0.4006032,0.
 \Quadrupole=-0.2894909,0.7966103,-0.5071194,0.4434956,0.,0.\PG=CS [SG(
 Cl1F1O1)]\\@

 Normal termination of Gaussian 16 at Tue Apr  8 23:17:49 2025.
