 Gaussian 16, Revision C.01,

 ----------------------------------------------------------------------
 #t hf aug-cc-pvdz symm=none int=(grid=ultrafine) guess=(read,tcheck) s
 table=(opt,rrhf)
 ----------------------------------------------------------------------
 -----
 title
 -----
 Symbolic Z-matrix:
 Charge =  0 Multiplicity = 1

 SCF Done:  E(RHF) =  -356.259544954     A.U. after   13 cycles
 Normal termination of Gaussian 16 at Wed Apr  9 00:32:59 2025.
 Gaussian 16:  ES64L-G16RevC.01  3-Jul-2019

 ----------------------------------------------------------------------
 #t hf aug-cc-pvdz iop(5/13=1,5/36=2,99/5=2) pseudo=read geom=check gue
 ss=(read,tcheck) scf=(maxcycle=1)
 ----------------------------------------------------------------------
 -----
 title
 -----
 Structure from the checkpoint file:  "BDE49_nonexpt_444_mol1.chk"
 Charge =  0 Multiplicity = 1

                         Standard orientation:
 ---------------------------------------------------------------------
 Center     Atomic      Atomic             Coordinates (Angstroms)
 Number     Number       Type             X           Y           Z
 ---------------------------------------------------------------------
      1          5           0       -1.082617   -0.000001   -0.043848
      2          9           0       -1.778668    1.137467   -0.007785
      3          9           0       -1.778674   -1.137464   -0.007787
      4          7           0        0.305930   -0.000001   -0.230113
      5          6           0        1.373989   -0.000003    0.432669
      6          6           0        2.735952    0.000001   -0.192875
      7          1           0        2.661603    0.000005   -1.279855
      8          1           0        3.299924   -0.878583    0.138792
      9          1           0        3.299922    0.878583    0.138800
     10          1           0        1.366563   -0.000005    1.533680
 ---------------------------------------------------------------------

 SCF Done:  E(RHF) =  -356.393366433     A.U. after    2 cycles

 The electronic state is 1-A.
 Alpha  occ. eigenvalues --  -26.12368 -26.12361 -15.62626 -11.33817 -11.25647
 Alpha  occ. eigenvalues --   -7.74225  -1.67542  -1.65338  -1.20616  -1.01074
 Alpha  occ. eigenvalues --   -0.87442  -0.82988  -0.80660  -0.76034  -0.75233
 Alpha  occ. eigenvalues --   -0.70965  -0.70201  -0.69226  -0.61435  -0.60197
 Alpha  occ. eigenvalues --   -0.56520  -0.46197  -0.41314
 Alpha virt. eigenvalues --    0.02901   0.04007   0.04773   0.05480   0.07032
 Alpha virt. eigenvalues --    0.07176   0.07495   0.09219   0.09960   0.12226
 Alpha virt. eigenvalues --    0.13984   0.15129   0.15202   0.15920   0.16226

 Mulliken charges:
               1
     1  B    0.866328
     2  F   -0.457609
     3  F   -0.457607
     4  N   -0.294548
     5  C    0.496872
     6  C    0.114867
     7  H   -0.099548
     8  H    0.032560
     9  H    0.032560
    10  H   -0.233875
 Sum of Mulliken charges =  -0.00000

 Dipole moment (field-independent basis, Debye):
    X=              3.7935    Y=             -0.0000    Z=              1.2735  Tot=              4.0015

 Test job not archived.
 1\1\GINC-SE459\SP\RHF\Aug-CC-pVDZ\C2H4B1F2N1\OHZDE\09-Apr-2025\0\\#t h
 f aug-cc-pvdz iop(5/13=1,5/36=2,99/5=2) pseudo=read geom=check guess=(
 read,tcheck) scf=(maxcycle=1)\\title\\0,1\B,0,1.082617,0.000001,-0.043
 848\F,0,1.778668,-1.137467,-0.007785\F,0,1.778674,1.137464,-0.007787\N
 ,0,-0.30593,0.000001,-0.230113\C,0,-1.373989,0.000003,0.432669\C,0,-2.
 735952,-0.000001,-0.192875\H,0,-2.661603,-0.000005,-1.279855\H,0,-3.29
 9924,0.878583,0.138792\H,0,-3.299922,-0.878583,0.1388\H,0,-1.366563,0.
 000005,1.53368\\Version=ES64L-G16RevC.01\State=1-A\HF=-356.3933664\RMS

 Normal termination of Gaussian 16 at Wed Apr  9 00:33:02 2025.
