 Gaussian 16, Revision C.01,

 ----------------------------------------------------------------------
 #t hf aug-cc-pvdz symm=none int=(grid=ultrafine) guess=(read,tcheck) s
 table=(opt,rrhf)
 ----------------------------------------------------------------------
 -----
 title
 -----
 Symbolic Z-matrix:
 Charge =  0 Multiplicity = 1

 SCF Done:  E(RHF) =  -663.531361231     A.U. after   12 cycles

 1\1\GINC-SE364\Stability\RHF\Aug-CC-pVDZ\Cl1N1O2\OHZDE\08-Apr-2025\0\\
 #t hf aug-cc-pvdz symm=none int=(grid=ultrafine) guess=(read,tcheck) s
 table=(opt,rrhf)\\title\\0,1\N,0,0.,0.,-0.637278\O,0,0.,1.088307,-1.10
 367\Cl,0,0.,0.,1.301156\O,0,0.,-1.088307,-1.10367\\Version=ES64L-G16Re
 vC.01\HF=-663.5313612\RMSD=9.723e-09\Dipole=0.,0.,0.3082068\Quadrupole
 =0.9752014,-1.4791928,0.5039914,0.,0.,0.\PG=Unknown\\@
 The archive entry for this job was punched.

 Normal termination of Gaussian 16 at Tue Apr  8 22:52:31 2025.
 Gaussian 16:  ES64L-G16RevC.01  3-Jul-2019

 ----------------------------------------------------------------------
 #t hf aug-cc-pvdz iop(5/13=1,5/36=2,99/5=2) pseudo=read geom=check gue
 ss=(read,tcheck) scf=(maxcycle=1)
 ----------------------------------------------------------------------
 -----
 title
 -----
 Structure from the checkpoint file:  "BDE49_expt_1836_mol1.chk"
 Charge =  0 Multiplicity = 1

                         Standard orientation:
 ---------------------------------------------------------------------
 Center     Atomic      Atomic             Coordinates (Angstroms)
 Number     Number       Type             X           Y           Z
 ---------------------------------------------------------------------
      1          7           0        0.000000    0.000000   -0.637278
      2          8           0        0.000000    1.088307   -1.103670
      3         17           0        0.000000   -0.000000    1.301156
      4          8           0       -0.000000   -1.088307   -1.103670
 ---------------------------------------------------------------------

 SCF Done:  E(RHF) =  -663.615641791     A.U. after    2 cycles

 The electronic state is 1-A1.
 Alpha  occ. eigenvalues -- -103.73067 -20.69822 -20.69814 -16.01754 -10.75997
 Alpha  occ. eigenvalues --   -8.41696  -8.41314  -8.41312  -1.64073  -1.47353
 Alpha  occ. eigenvalues --   -1.18724  -0.93030  -0.83252  -0.81093  -0.80549
 Alpha  occ. eigenvalues --   -0.60174  -0.54896  -0.52257  -0.51840  -0.51404
 Alpha virt. eigenvalues --   -0.00496   0.04878   0.09131   0.10333   0.11464
 Alpha virt. eigenvalues --    0.13021   0.14757   0.17241   0.19690   0.22021
 Alpha virt. eigenvalues --    0.22873   0.26771   0.26878   0.28793   0.28856

 Mulliken charges:
               1
     1  N    0.453565
     2  O   -0.365255
     3  Cl   0.276945
     4  O   -0.365255
 Sum of Mulliken charges =   0.00000

 Dipole moment (field-independent basis, Debye):
    X=              0.0000    Y=             -0.0000    Z=              0.9033  Tot=              0.9033

 Test job not archived.
 1\1\GINC-SE364\SP\RHF\Aug-CC-pVDZ\Cl1N1O2\OHZDE\08-Apr-2025\0\\#t hf a
 ug-cc-pvdz iop(5/13=1,5/36=2,99/5=2) pseudo=read geom=check guess=(rea
 d,tcheck) scf=(maxcycle=1)\\title\\0,1\N,0,0.,0.,-0.637278\O,0,0.,1.08
 8307,-1.10367\Cl,0,0.,0.,1.301156\O,0,0.,-1.088307,-1.10367\\Version=E
 S64L-G16RevC.01\State=1-A1\HF=-663.6156418\RMSD=4.311e-03\Dipole=0.,0.
 ,0.3553712\Quadrupole=1.1582834,-1.6506742,0.4923908,0.,0.,0.\PG=C02V
 [C2(N1Cl1),SGV(O2)]\\@

 Normal termination of Gaussian 16 at Tue Apr  8 22:52:33 2025.
