 Gaussian 16, Revision C.01,

 ----------------------------------------------------------------------
 #t hf aug-cc-pvdz symm=none int=(grid=ultrafine) guess=(read,tcheck) s
 table=(opt,rrhf)
 ----------------------------------------------------------------------
 -----
 title
 -----
 Symbolic Z-matrix:
 Charge =  0 Multiplicity = 1

 SCF Done:  E(RHF) =  -1897.64706413     A.U. after   15 cycles
 Normal termination of Gaussian 16 at Tue Apr  8 23:46:27 2025.
 Gaussian 16:  ES64L-G16RevC.01  3-Jul-2019

 ----------------------------------------------------------------------
 #t hf aug-cc-pvdz iop(5/13=1,5/36=2,99/5=2) pseudo=read geom=check gue
 ss=(read,tcheck) scf=(maxcycle=1)
 ----------------------------------------------------------------------
 -----
 title
 -----
 Structure from the checkpoint file:  "BDE49_nonexpt_1779_mol1.chk"
 Charge =  0 Multiplicity = 1

                         Standard orientation:
 ---------------------------------------------------------------------
 Center     Atomic      Atomic             Coordinates (Angstroms)
 Number     Number       Type             X           Y           Z
 ---------------------------------------------------------------------
      1          6           0        0.008518   -1.209803    0.307816
      2          6           0        1.367449   -1.193626    0.013606
      3          6           0        2.065596    0.000010   -0.137990
      4          6           0        1.367432    1.193636    0.013611
      5          6           0        0.008501    1.209793    0.307820
      6          6           0       -0.684155   -0.000010    0.455492
      7          1           0       -0.496688   -2.161142    0.420551
      8         17           0        2.230013   -2.708175   -0.167934
      9         14           0       -2.512800   -0.000024    0.843424
     10          1           0       -0.496717    2.161125    0.420559
     11         17           0       -3.636699    0.000003   -0.912107
     12         17           0        2.229976    2.708197   -0.167925
     13          1           0        3.122445    0.000017   -0.364829
     14          1           0       -2.872921    1.222484    1.584565
     15          1           0       -2.872909   -1.222562    1.584522
 ---------------------------------------------------------------------

 SCF Done:  E(RHF) =  -1897.79178256     A.U. after    2 cycles

 The electronic state is 1-A.
 Alpha  occ. eigenvalues -- -103.68336-103.68336-103.65729 -69.12880 -11.33821
 Alpha  occ. eigenvalues --  -11.33821 -11.28977 -11.28662 -11.28657 -11.27424
 Alpha  occ. eigenvalues --  -10.71605 -10.71603 -10.69161  -8.37342  -8.37341
 Alpha  occ. eigenvalues --   -8.37031  -8.37030  -8.37013  -8.37013  -8.34853
 Alpha  occ. eigenvalues --   -8.34628  -8.34626  -6.87761  -3.98570  -3.98468
 Alpha  occ. eigenvalues --   -3.98452  -1.22972  -1.19983  -1.14334  -1.13513
 Alpha  occ. eigenvalues --   -1.04140  -1.02165  -0.86746  -0.84413  -0.74459
 Alpha  occ. eigenvalues --   -0.70985  -0.69556  -0.63931  -0.61825  -0.60226
 Alpha  occ. eigenvalues --   -0.58627  -0.54720  -0.54229  -0.53677  -0.52952
 Alpha  occ. eigenvalues --   -0.52359  -0.49135  -0.48162  -0.47788  -0.46516
 Alpha  occ. eigenvalues --   -0.46034  -0.37499  -0.36173
 Alpha virt. eigenvalues --    0.03205   0.04398   0.04634   0.04722   0.05616
 Alpha virt. eigenvalues --    0.06229   0.07000   0.07288   0.08278   0.09187
 Alpha virt. eigenvalues --    0.09309   0.09862   0.10252   0.11220   0.12140

 Mulliken charges:
               1
     1  C    0.696925
     2  C    0.047602
     3  C    1.239663
     4  C    0.047602
     5  C    0.696943
     6  C   -0.655221
     7  H   -0.561426
     8  Cl  -0.371844
     9  Si   0.712052
    10  H   -0.561428
    11  Cl  -0.564197
    12  Cl  -0.371844
    13  H   -0.387199
    14  H    0.016187
    15  H    0.016185
 Sum of Mulliken charges =  -0.00000

 Dipole moment (field-independent basis, Debye):
    X=             -0.0467    Y=             -0.0000    Z=              1.5790  Tot=              1.5797

 Test job not archived.
 1\1\GINC-SE403\SP\RHF\Aug-CC-pVDZ\C6H5Cl3Si1\OHZDE\08-Apr-2025\0\\#t h
 f aug-cc-pvdz iop(5/13=1,5/36=2,99/5=2) pseudo=read geom=check guess=(
 read,tcheck) scf=(maxcycle=1)\\title\\0,1\C,0,0.008518,-1.209803,0.307
 816\C,0,1.367449,-1.193626,0.013606\C,0,2.065596,0.00001,-0.13799\C,0,
 1.367432,1.193636,0.013611\C,0,0.008501,1.209793,0.30782\C,0,-0.684155
 ,-0.00001,0.455492\H,0,-0.496688,-2.161142,0.420551\Cl,0,2.230013,-2.7
 08175,-0.167934\Si,0,-2.5128,-0.000024,0.843424\H,0,-0.496717,2.161125
 ,0.420559\Cl,0,-3.636699,0.000003,-0.912107\Cl,0,2.229976,2.708197,-0.

 Normal termination of Gaussian 16 at Tue Apr  8 23:46:35 2025.
