 Gaussian 16, Revision C.01,

 ----------------------------------------------------------------------
 #t hf aug-cc-pvdz symm=none int=(grid=ultrafine) guess=(read,tcheck) s
 table=(opt,rrhf)
 ----------------------------------------------------------------------
 -----
 title
 -----
 Symbolic Z-matrix:
 Charge =  0 Multiplicity = 1

 SCF Done:  E(RHF) =  -1080.31713254     A.U. after   16 cycles
 Normal termination of Gaussian 16 at Tue Apr  8 23:31:04 2025.
 Gaussian 16:  ES64L-G16RevC.01  3-Jul-2019

 ----------------------------------------------------------------------
 #t hf aug-cc-pvdz iop(5/13=1,5/36=2,99/5=2) pseudo=read geom=check gue
 ss=(read,tcheck) scf=(maxcycle=1)
 ----------------------------------------------------------------------
 -----
 title
 -----
 Structure from the checkpoint file:  "BDE49_nonexpt_1372_mol1.chk"
 Charge =  0 Multiplicity = 1

                         Standard orientation:
 ---------------------------------------------------------------------
 Center     Atomic      Atomic             Coordinates (Angstroms)
 Number     Number       Type             X           Y           Z
 ---------------------------------------------------------------------
      1          9           0        3.230211    0.416192   -0.001203
      2         15           0        1.816166    0.232255   -0.835941
      3          6           0        0.802031   -0.084934    0.729030
      4          7           0        1.107299   -1.369607    1.343312
      5          1           0        2.106470   -1.537332    1.313528
      6          1           0        0.820051   -1.387595    2.317413
      7          6           0       -0.694330   -0.038406    0.484798
      8          9           0       -1.398614   -0.279697    1.602001
      9          7           0       -1.181933    1.352315   -0.022640
     10          8           0       -1.964003    1.370913   -0.946717
     11          8           0       -0.755616    2.296277    0.611480
     12          7           0       -1.128719   -1.063301   -0.581383
     13          8           0       -2.079016   -1.761008   -0.346163
     14          8           0       -0.439445   -1.048749   -1.590486
     15          1           0        2.009881   -1.135784   -1.134996
     16          1           0        1.018643    0.793162    1.353088
 ---------------------------------------------------------------------

 SCF Done:  E(RHF) =  -1080.57609718     A.U. after    2 cycles

 The electronic state is 1-A.
 Alpha  occ. eigenvalues --  -81.35934 -26.22192 -26.13461 -20.67896 -20.67652
 Alpha  occ. eigenvalues --  -20.67200 -20.66608 -15.97187 -15.96863 -15.66656
 Alpha  occ. eigenvalues --  -11.51768 -11.34721  -7.85347  -4.99451  -4.99171
 Alpha  occ. eigenvalues --   -4.98863  -1.76918  -1.65444  -1.61285  -1.60060
 Alpha  occ. eigenvalues --   -1.42993  -1.42724  -1.23447  -1.16097  -1.00657
 Alpha  occ. eigenvalues --   -0.99095  -0.92418  -0.88134  -0.86894  -0.85778
 Alpha  occ. eigenvalues --   -0.81712  -0.79800  -0.78887  -0.78392  -0.76662
 Alpha  occ. eigenvalues --   -0.76259  -0.75614  -0.74849  -0.71345  -0.68541
 Alpha  occ. eigenvalues --   -0.67079  -0.65747  -0.57927  -0.56981  -0.56153
 Alpha  occ. eigenvalues --   -0.53944  -0.53155  -0.52687  -0.51333  -0.45296
 Alpha  occ. eigenvalues --   -0.40733
 Alpha virt. eigenvalues --    0.02298   0.02960   0.03444   0.04177   0.04967
 Alpha virt. eigenvalues --    0.06283   0.07701   0.08623   0.09301   0.10106
 Alpha virt. eigenvalues --    0.11076   0.12184   0.12905   0.13721   0.14016

 Mulliken charges:
               1
     1  F   -0.691293
     2  P    0.766715
     3  C    0.278424
     4  N   -0.320295
     5  H   -0.011394
     6  H    0.024328
     7  C    1.732517
     8  F   -0.270297
     9  N    0.218302
    10  O   -0.506993
    11  O   -0.541917
    12  N    0.199811
    13  O   -0.480655
    14  O   -0.553490
    15  H    0.191529
    16  H   -0.035292
 Sum of Mulliken charges =  -0.00000

 Dipole moment (field-independent basis, Debye):
    X=              2.2479    Y=             -1.0686    Z=              2.4084  Tot=              3.4634

 Test job not archived.
 1\1\GINC-SE048\SP\RHF\Aug-CC-pVDZ\C2H4F2N3O4P1\OHZDE\08-Apr-2025\0\\#t
  hf aug-cc-pvdz iop(5/13=1,5/36=2,99/5=2) pseudo=read geom=check guess
 =(read,tcheck) scf=(maxcycle=1)\\title\\0,1\F,0,3.230211,0.416193,-0.0
 01203\P,0,1.816166,0.232255,-0.835941\C,0,0.802031,-0.084934,0.72903\N
 ,0,1.107299,-1.369607,1.343312\H,0,2.10647,-1.537331,1.313528\H,0,0.82
 0051,-1.387595,2.317413\C,0,-0.69433,-0.038406,0.484798\F,0,-1.398614,
 -0.279697,1.602001\N,0,-1.181933,1.352315,-0.02264\O,0,-1.964003,1.370
 913,-0.946717\O,0,-0.755616,2.296277,0.61148\N,0,-1.128719,-1.063301,-

 Normal termination of Gaussian 16 at Tue Apr  8 23:31:14 2025.
