 Gaussian 16, Revision C.01,

 ----------------------------------------------------------------------
 #t hf aug-cc-pvdz symm=none int=(grid=ultrafine) guess=(read,tcheck) s
 table=(opt,rrhf)
 ----------------------------------------------------------------------
 -----
 title
 -----
 Symbolic Z-matrix:
 Charge =  0 Multiplicity = 1

 SCF Done:  E(RHF) =  -249.344526888     A.U. after   13 cycles
 Normal termination of Gaussian 16 at Wed Apr  9 00:36:51 2025.
 Gaussian 16:  ES64L-G16RevC.01  3-Jul-2019

 ----------------------------------------------------------------------
 #t hf aug-cc-pvdz iop(5/13=1,5/36=2,99/5=2) pseudo=read geom=check gue
 ss=(read,tcheck) scf=(maxcycle=1)
 ----------------------------------------------------------------------
 -----
 title
 -----
 Structure from the checkpoint file:  "BDE49_nonexpt_591_mol1.chk"
 Charge =  0 Multiplicity = 1

                         Standard orientation:
 ---------------------------------------------------------------------
 Center     Atomic      Atomic             Coordinates (Angstroms)
 Number     Number       Type             X           Y           Z
 ---------------------------------------------------------------------
      1          6           0        0.941124   -0.680637   -0.000049
      2          5           0       -0.501855    0.027870   -0.000010
      3          7           0       -0.482983    1.431320    0.000026
      4          8           0        1.980300   -0.050426    0.000005
      5          7           0       -1.649189   -0.793586   -0.000008
      6          1           0        0.998017   -1.801466    0.000108
      7          1           0       -2.597542   -0.454726    0.000020
      8          1           0       -1.582153   -1.798156   -0.000034
      9          1           0       -1.284028    2.039495    0.000056
     10          1           0        0.411053    1.898593    0.000031
 ---------------------------------------------------------------------

 SCF Done:  E(RHF) =  -249.424870756     A.U. after    2 cycles

 The electronic state is 1-A.
 Alpha  occ. eigenvalues --  -20.57172 -15.61974 -15.60653 -11.31539  -7.62021
 Alpha  occ. eigenvalues --   -1.34579  -1.14095  -1.10253  -0.84102  -0.72207
 Alpha  occ. eigenvalues --   -0.70194  -0.68270  -0.64031  -0.60181  -0.59110
 Alpha  occ. eigenvalues --   -0.53798  -0.46742  -0.41040  -0.38919
 Alpha virt. eigenvalues --    0.02872   0.03950   0.04874   0.05005   0.07070
 Alpha virt. eigenvalues --    0.07438   0.08575   0.09131   0.10091   0.10482
 Alpha virt. eigenvalues --    0.14764   0.14901   0.16370   0.16447   0.17700

 Mulliken charges:
               1
     1  C    0.521203
     2  B    0.722330
     3  N   -0.200906
     4  O   -0.487815
     5  N   -0.173862
     6  H   -0.301396
     7  H   -0.019758
     8  H   -0.049185
     9  H   -0.044306
    10  H    0.033695
 Sum of Mulliken charges =  -0.00000

 Dipole moment (field-independent basis, Debye):
    X=             -3.9656    Y=             -0.7012    Z=              0.0000  Tot=              4.0271

 Test job not archived.
 1\1\GINC-SE329\SP\RHF\Aug-CC-pVDZ\C1H5B1N2O1\OHZDE\09-Apr-2025\0\\#t h
 f aug-cc-pvdz iop(5/13=1,5/36=2,99/5=2) pseudo=read geom=check guess=(
 read,tcheck) scf=(maxcycle=1)\\title\\0,1\C,0,-0.941124,-0.680637,0.00
 0049\B,0,0.501855,0.02787,0.00001\N,0,0.482983,1.43132,-0.000026\O,0,-
 1.9803,-0.050426,-0.000005\N,0,1.649189,-0.793586,0.000008\H,0,-0.9980
 17,-1.801466,-0.000108\H,0,2.597542,-0.454726,-0.00002\H,0,1.582153,-1
 .798156,0.000034\H,0,1.284027,2.039495,-0.000056\H,0,-0.411054,1.89859
 3,-0.000031\\Version=ES64L-G16RevC.01\State=1-A\HF=-249.4248708\RMSD=1

 Normal termination of Gaussian 16 at Wed Apr  9 00:36:54 2025.
