 Gaussian 16, Revision C.01,

 ----------------------------------------------------------------------
 #t hf aug-cc-pvdz symm=none int=(grid=ultrafine) guess=(read,tcheck) s
 table=(opt,rrhf)
 ----------------------------------------------------------------------
 -----
 title
 -----
 Symbolic Z-matrix:
 Charge =  0 Multiplicity = 1

 SCF Done:  E(RHF) =  -727.867370758     A.U. after   11 cycles
 Normal termination of Gaussian 16 at Wed Apr  9 00:13:32 2025.
 Gaussian 16:  ES64L-G16RevC.01  3-Jul-2019

 ----------------------------------------------------------------------
 #t hf aug-cc-pvdz iop(5/13=1,5/36=2,99/5=2) pseudo=read geom=check gue
 ss=(read,tcheck) scf=(maxcycle=1)
 ----------------------------------------------------------------------
 -----
 title
 -----
 Structure from the checkpoint file:  "BDE49_nonexpt_2490_mol1.chk"
 Charge =  0 Multiplicity = 1

                         Standard orientation:
 ---------------------------------------------------------------------
 Center     Atomic      Atomic             Coordinates (Angstroms)
 Number     Number       Type             X           Y           Z
 ---------------------------------------------------------------------
      1         16           0        1.435758   -0.355989   -0.000003
      2         14           0       -0.492857    0.643543    0.000003
      3          6           0       -1.798681   -0.697843    0.000001
      4          1           0       -1.711680   -1.331120   -0.886310
      5          1           0       -2.796141   -0.248957    0.000008
      6          1           0       -1.711672   -1.331131    0.886304
      7          1           0        2.163944    0.774845   -0.000004
      8          1           0       -0.612247    1.504828   -1.199433
      9          1           0       -0.612244    1.504822    1.199443
 ---------------------------------------------------------------------

 SCF Done:  E(RHF) =  -727.924818666     A.U. after    2 cycles

 The electronic state is 1-A.
 Alpha  occ. eigenvalues --  -93.52719 -69.09043 -11.22936  -8.82648  -6.84048
 Alpha  occ. eigenvalues --   -6.16809  -6.16577  -6.16286  -3.94875  -3.94792
 Alpha  occ. eigenvalues --   -3.94768  -0.96467  -0.93409  -0.67625  -0.58101
 Alpha  occ. eigenvalues --   -0.57642  -0.53482  -0.48737  -0.46401  -0.43581
 Alpha  occ. eigenvalues --   -0.36966
 Alpha virt. eigenvalues --    0.03381   0.04602   0.05222   0.05687   0.07132
 Alpha virt. eigenvalues --    0.07688   0.08479   0.09429   0.10595   0.11761
 Alpha virt. eigenvalues --    0.13186   0.14699   0.15848   0.16032   0.16977

 Mulliken charges:
               1
     1  S   -0.454574
     2  Si   0.886330
     3  C    0.215964
     4  H   -0.166684
     5  H   -0.243127
     6  H   -0.166683
     7  H    0.022419
     8  H   -0.046822
     9  H   -0.046822
 Sum of Mulliken charges =   0.00000

 Dipole moment (field-independent basis, Debye):
    X=             -1.1383    Y=              0.6472    Z=              0.0000  Tot=              1.3094

 Test job not archived.
 1\1\GINC-SE338\SP\RHF\Aug-CC-pVDZ\C1H6S1Si1\OHZDE\09-Apr-2025\0\\#t hf
  aug-cc-pvdz iop(5/13=1,5/36=2,99/5=2) pseudo=read geom=check guess=(r
 ead,tcheck) scf=(maxcycle=1)\\title\\0,1\S,0,1.435758,-0.35599,-0.0000
 03\Si,0,-0.492857,0.643543,0.000003\C,0,-1.798681,-0.697842,0.000001\H
 ,0,-1.71168,-1.33112,-0.88631\H,0,-2.796141,-0.248956,0.000008\H,0,-1.
 711672,-1.331131,0.886304\H,0,2.163944,0.774844,-0.000004\H,0,-0.61224
 6,1.504828,-1.199433\H,0,-0.612243,1.504822,1.199443\\Version=ES64L-G1
 6RevC.01\State=1-A\HF=-727.9248187\RMSD=6.369e-03\Dipole=-0.4478315,0.

 Normal termination of Gaussian 16 at Wed Apr  9 00:13:34 2025.
