 Gaussian 16, Revision C.01,

 ----------------------------------------------------------------------
 #t hf aug-cc-pvdz symm=none int=(grid=ultrafine) guess=(read,tcheck) s
 table=(opt,rrhf)
 ----------------------------------------------------------------------
 -----
 title
 -----
 Symbolic Z-matrix:
 Charge =  0 Multiplicity = 1

 SCF Done:  E(RHF) =  -2814.46926944     A.U. after   13 cycles
 Normal termination of Gaussian 16 at Tue Apr  8 23:31:05 2025.
 Gaussian 16:  ES64L-G16RevC.01  3-Jul-2019

 ----------------------------------------------------------------------
 #t hf aug-cc-pvdz iop(5/13=1,5/36=2,99/5=2) pseudo=read geom=check gue
 ss=(read,tcheck) scf=(maxcycle=1)
 ----------------------------------------------------------------------
 -----
 title
 -----
 Structure from the checkpoint file:  "BDE49_nonexpt_1370_mol1.chk"
 Charge =  0 Multiplicity = 1

                         Standard orientation:
 ---------------------------------------------------------------------
 Center     Atomic      Atomic             Coordinates (Angstroms)
 Number     Number       Type             X           Y           Z
 ---------------------------------------------------------------------
      1         17           0       -0.861614   -1.830895    1.355436
      2         15           0       -1.738200   -0.146056   -1.157953
      3          6           0       -0.721935   -1.534426   -0.418093
      4          9           0       -3.071129   -0.258154   -0.253258
      5         15           0        0.995593   -1.432291   -1.158118
      6          6           0       -0.967918    1.392440   -0.418030
      7          6           0        1.689864    0.142020   -0.418408
      8          9           0        1.759468   -2.530361   -0.253456
      9         17           0       -1.155075    1.661454    1.355511
     10         15           0        0.742587    1.578442   -1.158006
     11         17           0        2.016342    0.169298    1.355116
     12          9           0        1.312357    2.788601   -0.253273
     13          1           0       -1.143977   -2.431302   -0.881524
     14          1           0       -1.533725    2.206319   -0.881435
     15          1           0        2.677581    0.225034   -0.881884
 ---------------------------------------------------------------------

 SCF Done:  E(RHF) =  -2814.74761546     A.U. after    2 cycles

 The electronic state is 1-A.
 Alpha  occ. eigenvalues -- -103.67510-103.67510-103.67509 -81.38019 -81.38019
 Alpha  occ. eigenvalues --  -81.38018 -26.15343 -26.15342 -26.15342 -11.34857
 Alpha  occ. eigenvalues --  -11.34856 -11.34853 -10.70727 -10.70726 -10.70721
 Alpha  occ. eigenvalues --   -8.36451  -8.36450  -8.36450  -8.36129  -8.36129
 Alpha  occ. eigenvalues --   -8.36128  -8.36125  -8.36125  -8.36125  -7.87411
 Alpha  occ. eigenvalues --   -7.87411  -7.87392  -5.01561  -5.01561  -5.01514
 Alpha  occ. eigenvalues --   -5.01273  -5.01242  -5.01241  -5.00911  -5.00910
 Alpha  occ. eigenvalues --   -5.00862  -1.67718  -1.67688  -1.67688  -1.19295
 Alpha  occ. eigenvalues --   -1.17824  -1.17824  -1.02624  -0.97049  -0.97048
 Alpha  occ. eigenvalues --   -0.86366  -0.86364  -0.82646  -0.77262  -0.77140
 Alpha  occ. eigenvalues --   -0.77140  -0.76513  -0.75705  -0.75705  -0.72545
 Alpha  occ. eigenvalues --   -0.67451  -0.67450  -0.63480  -0.60477  -0.60477
 Alpha  occ. eigenvalues --   -0.56900  -0.56900  -0.55853  -0.50205  -0.49941
 Alpha  occ. eigenvalues --   -0.49940  -0.44541  -0.44244  -0.44243  -0.42998
 Alpha  occ. eigenvalues --   -0.38544  -0.38544
 Alpha virt. eigenvalues --    0.01381   0.03765   0.04068   0.04068   0.06223
 Alpha virt. eigenvalues --    0.06224   0.07341   0.07714   0.07715   0.08358
 Alpha virt. eigenvalues --    0.10424   0.10730   0.10731   0.12207   0.12257

 Mulliken charges:
               1
     1  Cl  -0.242234
     2  P    1.160539
     3  C   -0.147662
     4  F   -0.660870
     5  P    1.160580
     6  C   -0.147706
     7  C   -0.147377
     8  F   -0.660880
     9  Cl  -0.242234
    10  P    1.160592
    11  Cl  -0.242196
    12  F   -0.660882
    13  H   -0.109821
    14  H   -0.109804
    15  H   -0.110045
 Sum of Mulliken charges =   0.00000

 Dipole moment (field-independent basis, Debye):
    X=             -0.0003    Y=              0.0001    Z=             -4.4029  Tot=              4.4029

 Test job not archived.
 1\1\GINC-SE187\SP\RHF\Aug-CC-pVDZ\C3H3Cl3F3P3\OHZDE\08-Apr-2025\0\\#t
 hf aug-cc-pvdz iop(5/13=1,5/36=2,99/5=2) pseudo=read geom=check guess=
 (read,tcheck) scf=(maxcycle=1)\\title\\0,1\Cl,0,-0.862146,-1.830645,1.
 355436\P,0,-1.738242,-0.145551,-1.157953\C,0,-0.72238,-1.534216,-0.418
 093\F,0,-3.071204,-0.257262,-0.253258\P,0,0.995177,-1.43258,-1.158118\
 C,0,-0.967513,1.392721,-0.41803\C,0,1.689905,0.141529,-0.418408\F,0,1.
 758733,-2.530872,-0.253456\Cl,0,-1.154592,1.661789,1.355511\P,0,0.7430
 45,1.578226,-1.158006\Cl,0,2.016391,0.168712,1.355116\F,0,1.313167,2.7

 Normal termination of Gaussian 16 at Tue Apr  8 23:31:19 2025.
