 Gaussian 16, Revision C.01,

 ----------------------------------------------------------------------
 #t hf aug-cc-pvdz symm=none int=(grid=ultrafine) guess=(read,tcheck) s
 table=(opt,rrhf)
 ----------------------------------------------------------------------
 -----
 title
 -----
 Symbolic Z-matrix:
 Charge =  0 Multiplicity = 1

 SCF Done:  E(RHF) =  -201.523025678     A.U. after   12 cycles
 Normal termination of Gaussian 16 at Tue Apr  8 23:58:22 2025.
 Gaussian 16:  ES64L-G16RevC.01  3-Jul-2019

 ----------------------------------------------------------------------
 #t hf aug-cc-pvdz iop(5/13=1,5/36=2,99/5=2) pseudo=read geom=check gue
 ss=(read,tcheck) scf=(maxcycle=1)
 ----------------------------------------------------------------------
 -----
 title
 -----
 Structure from the checkpoint file:  "BDE49_nonexpt_20_mol1.chk"
 Charge =  0 Multiplicity = 1

                         Standard orientation:
 ---------------------------------------------------------------------
 Center     Atomic      Atomic             Coordinates (Angstroms)
 Number     Number       Type             X           Y           Z
 ---------------------------------------------------------------------
      1          5           0       -0.786261    0.425691    0.321479
      2          5           0        0.786261    0.425693   -0.321476
      3          8           0        1.741868   -0.373847    0.224957
      4          1           0        2.602717   -0.285323   -0.196268
      5          8           0       -1.741870   -0.373838   -0.224966
      6          1           0       -2.602713   -0.285335    0.196275
      7          1           0        1.100855    1.147637   -1.235534
      8          1           0       -1.100839    1.147580    1.235587
 ---------------------------------------------------------------------

 SCF Done:  E(RHF) =  -201.595555922     A.U. after    2 cycles

 The electronic state is 1-A.
 Alpha  occ. eigenvalues --  -20.58865 -20.58864  -7.61934  -7.61866  -1.32934
 Alpha  occ. eigenvalues --   -1.32606  -0.79108  -0.75554  -0.65525  -0.65036
 Alpha  occ. eigenvalues --   -0.58189  -0.55429  -0.55394  -0.50877  -0.40462
 Alpha virt. eigenvalues --    0.03605   0.03683   0.05623   0.05689   0.06945
 Alpha virt. eigenvalues --    0.06988   0.07496   0.09060   0.10228   0.10933
 Alpha virt. eigenvalues --    0.12951   0.13098   0.14468   0.15391   0.20531

 Mulliken charges:
               1
     1  B    0.249061
     2  B    0.249061
     3  O   -0.486976
     4  H    0.173884
     5  O   -0.486974
     6  H    0.173883
     7  H    0.064032
     8  H    0.064030
 Sum of Mulliken charges =  -0.00000

 Dipole moment (field-independent basis, Debye):
    X=             -0.0000    Y=              0.8986    Z=              0.0000  Tot=              0.8986

 Test job not archived.
 1\1\GINC-SE361\SP\RHF\Aug-CC-pVDZ\B2H4O2\OHZDE\08-Apr-2025\0\\#t hf au
 g-cc-pvdz iop(5/13=1,5/36=2,99/5=2) pseudo=read geom=check guess=(read
 ,tcheck) scf=(maxcycle=1)\\title\\0,1\B,0,0.786261,0.425691,-0.321479\
 B,0,-0.786261,0.425693,0.321476\O,0,-1.741868,-0.373847,-0.224957\H,0,
 -2.602717,-0.285323,0.196268\O,0,1.74187,-0.373838,0.224966\H,0,2.6027
 13,-0.285335,-0.196275\H,0,-1.100855,1.147637,1.235534\H,0,1.100839,1.
 14758,-1.235587\\Version=ES64L-G16RevC.01\State=1-A\HF=-201.5955559\RM
 SD=3.191e-03\Dipole=0.0000014,0.3535542,-0.0000027\Quadrupole=5.363040

 Normal termination of Gaussian 16 at Tue Apr  8 23:58:25 2025.
