 Gaussian 16, Revision C.01,

 ----------------------------------------------------------------------
 #t hf aug-cc-pvdz symm=none int=(grid=ultrafine) guess=(read,tcheck) s
 table=(opt,rrhf)
 ----------------------------------------------------------------------
 -----
 title
 -----
 Symbolic Z-matrix:
 Charge =  0 Multiplicity = 1

 SCF Done:  E(RHF) =  -954.271018054     A.U. after   15 cycles
 Normal termination of Gaussian 16 at Tue Apr  8 23:14:53 2025.
 Gaussian 16:  ES64L-G16RevC.01  3-Jul-2019

 ----------------------------------------------------------------------
 #t hf aug-cc-pvdz iop(5/13=1,5/36=2,99/5=2) pseudo=read geom=check gue
 ss=(read,tcheck) scf=(maxcycle=1)
 ----------------------------------------------------------------------
 -----
 title
 -----
 Structure from the checkpoint file:  "BDE49_nonexpt_1029_mol1.chk"
 Charge =  0 Multiplicity = 1

                         Standard orientation:
 ---------------------------------------------------------------------
 Center     Atomic      Atomic             Coordinates (Angstroms)
 Number     Number       Type             X           Y           Z
 ---------------------------------------------------------------------
      1         17           0        1.983648   -0.000000   -0.301410
      2          8           0        0.514507   -0.000000    1.019104
      3         15           0       -0.990742    0.000000    0.547606
      4          6           0       -1.258492   -1.436608   -0.551965
      5          6           0       -1.258492    1.436608   -0.551965
      6          1           0       -1.073192   -2.356366    0.004075
      7          1           0       -0.573534   -1.384586   -1.403442
      8          1           0       -2.290794   -1.438830   -0.910317
      9          1           0       -1.073197    2.356366    0.004076
     10          1           0       -2.290792    1.438827   -0.910322
     11          1           0       -0.573528    1.384589   -1.403438
 ---------------------------------------------------------------------

 SCF Done:  E(RHF) =  -954.371917217     A.U. after    2 cycles

 The electronic state is 1-A.
 Alpha  occ. eigenvalues -- -103.68659 -81.31546 -20.66842 -11.25443 -11.25441
 Alpha  occ. eigenvalues --  -10.71328  -8.37021  -8.36685  -8.36672  -7.81503
 Alpha  occ. eigenvalues --   -4.95843  -4.95380  -4.95148  -1.33516  -1.09805
 Alpha  occ. eigenvalues --   -1.00337  -0.96023  -0.74797  -0.64049  -0.62979
 Alpha  occ. eigenvalues --   -0.62237  -0.58517  -0.57920  -0.56829  -0.56310
 Alpha  occ. eigenvalues --   -0.48559  -0.46865  -0.45817  -0.32959
 Alpha virt. eigenvalues --   -0.01648   0.03370   0.04492   0.05537   0.05801
 Alpha virt. eigenvalues --    0.07142   0.07743   0.08258   0.10393   0.11954
 Alpha virt. eigenvalues --    0.12124   0.14512   0.15771   0.16097   0.16529

 Mulliken charges:
               1
     1  Cl  -0.044838
     2  O   -0.705549
     3  P    1.172132
     4  C    0.153736
     5  C    0.153736
     6  H   -0.144068
     7  H   -0.113268
     8  H   -0.107273
     9  H   -0.144070
    10  H   -0.107273
    11  H   -0.113266
 Sum of Mulliken charges =  -0.00000

 Dipole moment (field-independent basis, Debye):
    X=             -3.1549    Y=              0.0000    Z=             -1.9500  Tot=              3.7089

 Test job not archived.
 1\1\GINC-SE424\SP\RHF\Aug-CC-pVDZ\C2H6Cl1O1P1\OHZDE\08-Apr-2025\0\\#t
 hf aug-cc-pvdz iop(5/13=1,5/36=2,99/5=2) pseudo=read geom=check guess=
 (read,tcheck) scf=(maxcycle=1)\\title\\0,1\Cl,0,1.983648,0.,-0.30141\O
 ,0,0.514507,0.,1.019104\P,0,-0.990742,0.,0.547606\C,0,-1.258492,-1.436
 608,-0.551965\C,0,-1.258492,1.436608,-0.551965\H,0,-1.073192,-2.356366
 ,0.004075\H,0,-0.573534,-1.384586,-1.403442\H,0,-2.290794,-1.43883,-0.
 910317\H,0,-1.073197,2.356366,0.004076\H,0,-2.290792,1.438827,-0.91032
 2\H,0,-0.573528,1.384589,-1.403438\\Version=ES64L-G16RevC.01\State=1-A

 Normal termination of Gaussian 16 at Tue Apr  8 23:14:57 2025.
