 Gaussian 16, Revision C.01,

 ----------------------------------------------------------------------
 #t hf aug-cc-pvdz symm=none int=(grid=ultrafine) guess=(read,tcheck) s
 table=(opt,rrhf)
 ----------------------------------------------------------------------
 -----
 title
 -----
 Symbolic Z-matrix:
 Charge =  0 Multiplicity = 1

 SCF Done:  E(RHF) =  -654.114636390     A.U. after   12 cycles

 1\1\GINC-SE060\Stability\RHF\Aug-CC-pVDZ\C5H9Cl1\OHZDE\08-Apr-2025\0\\
 #t hf aug-cc-pvdz symm=none int=(grid=ultrafine) guess=(read,tcheck) s
 table=(opt,rrhf)\\title\\0,1\C,0,0.216654,-0.88151,0.\C,0,0.781708,-0.
 127925,1.202477\C,0,0.781708,-0.127925,-1.202477\C,0,0.781708,1.359568
 ,0.77907\H,0,1.808149,-0.482969,1.353621\H,0,0.229496,-0.322639,2.1220
 65\C,0,0.781708,1.359568,-0.77907\H,0,1.643618,1.887564,1.191705\H,0,-
 0.110928,1.860226,1.157853\H,0,0.229496,-0.322639,-2.122065\H,0,1.8081
 49,-0.482969,-1.353621\H,0,-0.110928,1.860226,-1.157853\H,0,1.643618,1

 Normal termination of Gaussian 16 at Tue Apr  8 22:47:54 2025.
 Gaussian 16:  ES64L-G16RevC.01  3-Jul-2019

 ----------------------------------------------------------------------
 #t hf aug-cc-pvdz iop(5/13=1,5/36=2,99/5=2) pseudo=read geom=check gue
 ss=(read,tcheck) scf=(maxcycle=1)
 ----------------------------------------------------------------------
 -----
 title
 -----
 Structure from the checkpoint file:  "BDE49_expt_1669_mol1.chk"
 Charge =  0 Multiplicity = 1

                         Standard orientation:
 ---------------------------------------------------------------------
 Center     Atomic      Atomic             Coordinates (Angstroms)
 Number     Number       Type             X           Y           Z
 ---------------------------------------------------------------------
      1          6           0        0.216654   -0.881510    0.000000
      2          6           0        0.781708   -0.127925    1.202477
      3          6           0        0.781708   -0.127925   -1.202477
      4          6           0        0.781708    1.359568    0.779070
      5          1           0        1.808149   -0.482969    1.353621
      6          1           0        0.229496   -0.322639    2.122065
      7          6           0        0.781708    1.359568   -0.779070
      8          1           0        1.643618    1.887564    1.191705
      9          1           0       -0.110928    1.860226    1.157853
     10          1           0        0.229496   -0.322639   -2.122065
     11          1           0        1.808149   -0.482969   -1.353621
     12          1           0       -0.110928    1.860226   -1.157853
     13          1           0        1.643618    1.887564   -1.191705
     14         17           0       -1.625276   -0.789800    0.000000
     15          1           0        0.428114   -1.948419    0.000000
 ---------------------------------------------------------------------

 SCF Done:  E(RHF) =  -654.190781577     A.U. after    2 cycles

 The electronic state is 1-A'.
 Alpha  occ. eigenvalues -- -103.63633 -11.30507 -11.24304 -11.24292 -11.23448
 Alpha  occ. eigenvalues --  -11.23405 -10.66917  -8.32622  -8.32357  -8.32357
 Alpha  occ. eigenvalues --   -1.16598  -1.08430  -0.97297  -0.95522  -0.78898
 Alpha  occ. eigenvalues --   -0.77650  -0.67960  -0.65989  -0.59736  -0.57570
 Alpha  occ. eigenvalues --   -0.52224  -0.51484  -0.49232  -0.48387  -0.48061
 Alpha  occ. eigenvalues --   -0.46924  -0.43643  -0.43050
 Alpha virt. eigenvalues --    0.03278   0.04463   0.04711   0.05077   0.06595
 Alpha virt. eigenvalues --    0.06784   0.06896   0.07032   0.09254   0.09795
 Alpha virt. eigenvalues --    0.12596   0.13668   0.13966   0.14794   0.14810

 Mulliken charges:
               1
     1  C   -0.203610
     2  C    0.418896
     3  C    0.418896
     4  C    0.282259
     5  H   -0.066023
     6  H   -0.134509
     7  C    0.282259
     8  H   -0.105659
     9  H   -0.110730
    10  H   -0.134509
    11  H   -0.066023
    12  H   -0.110730
    13  H   -0.105659
    14  Cl  -0.228302
    15  H   -0.136556
 Sum of Mulliken charges =  -0.00000

 Dipole moment (field-independent basis, Debye):
    X=              2.6701    Y=              0.2812    Z=              0.0000  Tot=              2.6849

 Test job not archived.
 1\1\GINC-SE060\SP\RHF\Aug-CC-pVDZ\C5H9Cl1\OHZDE\08-Apr-2025\0\\#t hf a
 ug-cc-pvdz iop(5/13=1,5/36=2,99/5=2) pseudo=read geom=check guess=(rea
 d,tcheck) scf=(maxcycle=1)\\title\\0,1\C,0,0.216654,-0.88151,0.\C,0,0.
 781708,-0.127925,1.202477\C,0,0.781708,-0.127925,-1.202477\C,0,0.78170
 8,1.359568,0.77907\H,0,1.808149,-0.482969,1.353621\H,0,0.229496,-0.322
 639,2.122065\C,0,0.781708,1.359568,-0.77907\H,0,1.643618,1.887564,1.19
 1705\H,0,-0.110928,1.860226,1.157853\H,0,0.229496,-0.322639,-2.122065\
 H,0,1.808149,-0.482969,-1.353621\H,0,-0.110928,1.860226,-1.157853\H,0,

 Normal termination of Gaussian 16 at Tue Apr  8 22:47:59 2025.
