 Gaussian 16, Revision C.01,

 ----------------------------------------------------------------------
 #t hf aug-cc-pvdz symm=none int=(grid=ultrafine) guess=(read,tcheck) s
 table=(opt,rrhf)
 ----------------------------------------------------------------------
 -----
 title
 -----
 Symbolic Z-matrix:
 Charge =  0 Multiplicity = 1

 SCF Done:  E(RHF) =  -325.991128411     A.U. after   14 cycles
 Normal termination of Gaussian 16 at Wed Apr  9 00:38:50 2025.
 Gaussian 16:  ES64L-G16RevC.01  3-Jul-2019

 ----------------------------------------------------------------------
 #t hf aug-cc-pvdz iop(5/13=1,5/36=2,99/5=2) pseudo=read geom=check gue
 ss=(read,tcheck) scf=(maxcycle=1)
 ----------------------------------------------------------------------
 -----
 title
 -----
 Structure from the checkpoint file:  "BDE49_nonexpt_659_mol1.chk"
 Charge =  0 Multiplicity = 1

                         Standard orientation:
 ---------------------------------------------------------------------
 Center     Atomic      Atomic             Coordinates (Angstroms)
 Number     Number       Type             X           Y           Z
 ---------------------------------------------------------------------
      1          8           0        0.607410   -0.827335   -0.017044
      2          5           0       -0.516088    0.001683   -0.000581
      3          8           0       -0.439282    1.357811    0.014061
      4          8           0       -1.699538   -0.665684    0.004637
      5          8           0        1.804177   -0.003409   -0.074409
      6          1           0        2.361289   -0.483586    0.552031
      7          1           0        0.482110    1.643144    0.015290
      8          1           0       -2.445098   -0.059043    0.017631
 ---------------------------------------------------------------------

 SCF Done:  E(RHF) =  -326.104755519     A.U. after    2 cycles

 The electronic state is 1-A.
 Alpha  occ. eigenvalues --  -20.66553 -20.64610 -20.59027 -20.58722  -7.69939
 Alpha  occ. eigenvalues --   -1.44453  -1.35176  -1.32187  -1.20828  -0.79462
 Alpha  occ. eigenvalues --   -0.77144  -0.76202  -0.70900  -0.65758  -0.61173
 Alpha  occ. eigenvalues --   -0.59702  -0.59148  -0.55565  -0.53460  -0.50460
 Alpha virt. eigenvalues --    0.03268   0.04821   0.05925   0.06180   0.07208
 Alpha virt. eigenvalues --    0.09328   0.09892   0.14677   0.17709   0.18484
 Alpha virt. eigenvalues --    0.19721   0.20059   0.21373   0.22117   0.23420

 Mulliken charges:
               1
     1  O   -0.295957
     2  B    0.785088
     3  O   -0.367040
     4  O   -0.430716
     5  O   -0.331795
     6  H    0.248174
     7  H    0.224176
     8  H    0.168069
 Sum of Mulliken charges =  -0.00000

 Dipole moment (field-independent basis, Debye):
    X=              1.2073    Y=              1.1130    Z=              1.1812  Tot=              2.0228

 Test job not archived.
 1\1\GINC-SE368\SP\RHF\Aug-CC-pVDZ\B1H3O4\OHZDE\09-Apr-2025\0\\#t hf au
 g-cc-pvdz iop(5/13=1,5/36=2,99/5=2) pseudo=read geom=check guess=(read
 ,tcheck) scf=(maxcycle=1)\\title\\0,1\O,0,0.60741,-0.827335,-0.017044\
 B,0,-0.516088,0.001683,-0.000581\O,0,-0.439282,1.357811,0.014061\O,0,-
 1.699538,-0.665684,0.004637\O,0,1.804177,-0.003409,-0.074409\H,0,2.361
 289,-0.483586,0.552031\H,0,0.48211,1.643144,0.01529\H,0,-2.445098,-0.0
 59044,0.017631\\Version=ES64L-G16RevC.01\State=1-A\HF=-326.1047555\RMS
 D=2.617e-03\Dipole=0.4749806,0.4378963,0.4647118\Quadrupole=4.6580319,

 Normal termination of Gaussian 16 at Wed Apr  9 00:38:52 2025.
