 Gaussian 16, Revision C.01,

 ----------------------------------------------------------------------
 #t hf aug-cc-pvdz symm=none int=(grid=ultrafine) guess=(read,tcheck) s
 table=opt
 ----------------------------------------------------------------------
 -----
 title
 -----
 Symbolic Z-matrix:
 Charge =  0 Multiplicity = 2

 SCF Done:  E(UHF) =  -921.375334366     A.U. after   19 cycles
 Normal termination of Gaussian 16 at Tue Apr  8 23:21:08 2025.
 Gaussian 16:  ES64L-G16RevC.01  3-Jul-2019

 ----------------------------------------------------------------------
 #t hf aug-cc-pvdz iop(5/13=1,5/36=2,99/5=2) pseudo=read geom=check gue
 ss=(read,tcheck) scf=(maxcycle=1)
 ----------------------------------------------------------------------
 -----
 title
 -----
 Structure from the checkpoint file:  "BDE49_nonexpt_1203_mol3.chk"
 Charge =  0 Multiplicity = 2

                         Standard orientation:
 ---------------------------------------------------------------------
 Center     Atomic      Atomic             Coordinates (Angstroms)
 Number     Number       Type             X           Y           Z
 ---------------------------------------------------------------------
      1         16           0       -2.585523   -0.491936   -0.000044
      2          6           0       -1.035184    0.312898   -0.000002
      3          8           0       -0.926506    1.501955    0.000037
      4          6           0        1.309884   -0.139039    0.000010
      5          9           0        2.081706   -1.219363   -0.000015
      6          9           0        1.577643    0.586730    1.084045
      7          9           0        1.577668    0.586798   -1.083973
      8          8           0       -0.000118   -0.596912   -0.000019
 ---------------------------------------------------------------------

 SCF Done:  E(UHF) =  -921.578811004     A.U. after    2 cycles

 The electronic state is 2-A.
 Alpha  occ. eigenvalues --  -93.62150 -26.19880 -26.19609 -26.19598 -20.69417
 Alpha  occ. eigenvalues --  -20.61910 -11.61633 -11.47644  -8.91946  -6.27307
 Alpha  occ. eigenvalues --   -6.25620  -6.25102  -1.80364  -1.72859  -1.72601
 Alpha  occ. eigenvalues --   -1.49160  -1.40426  -1.10402  -1.04057  -0.94978
 Alpha  occ. eigenvalues --   -0.92657  -0.91860  -0.81961  -0.80842  -0.79103
 Alpha  occ. eigenvalues --   -0.76247  -0.76128  -0.74719  -0.74704  -0.71419
 Alpha  occ. eigenvalues --   -0.69702  -0.63319  -0.57496  -0.52858  -0.49479
 Alpha  occ. eigenvalues --   -0.44323
 Alpha virt. eigenvalues --    0.05341   0.07818   0.08459   0.08695   0.09324
 Alpha virt. eigenvalues --    0.10093   0.10972   0.12740   0.13102   0.14014
 Alpha virt. eigenvalues --    0.14905   0.17699   0.20449   0.21626   0.21838

  Beta  occ. eigenvalues --  -93.61209 -26.19880 -26.19608 -26.19597 -20.69390
  Beta  occ. eigenvalues --  -20.61744 -11.61618 -11.47761  -8.90894  -6.25115
  Beta  occ. eigenvalues --   -6.24506  -6.23168  -1.80360  -1.72859  -1.72599
  Beta  occ. eigenvalues --   -1.49027  -1.40057  -1.08604  -1.00483  -0.93740
  Beta  occ. eigenvalues --   -0.92651  -0.90666  -0.81838  -0.80842  -0.78731
  Beta  occ. eigenvalues --   -0.76130  -0.76035  -0.74703  -0.74259  -0.69684
  Beta  occ. eigenvalues --   -0.69582  -0.62021  -0.57364  -0.50407  -0.41963
  Beta virt. eigenvalues --   -0.03109   0.05578   0.07877   0.08445   0.08944
  Beta virt. eigenvalues --    0.09739   0.09976   0.12221   0.12884   0.13335
  Beta virt. eigenvalues --    0.14417   0.14942   0.18409   0.21458   0.22064

 Mulliken charges and spin densities:
               1          2
     1  S    0.354167   1.085721
     2  C    0.140949  -0.076043
     3  O   -0.329979   0.017786
     4  C    1.094793  -0.004552
     5  F   -0.224172  -0.001081
     6  F   -0.269256   0.000047
     7  F   -0.269256   0.000047
     8  O   -0.497247  -0.021925
 Sum of Mulliken charges =  -0.00000   1.00000

 Dipole moment (field-independent basis, Debye):
    X=             -1.6768    Y=             -1.9704    Z=             -0.0001  Tot=              2.5873
                          Isotropic Fermi Contact Couplings
        Atom                 a.u.       MegaHertz       Gauss      10(-4) cm-1
     1  S(33)              0.22749      78.13774      27.88149      26.06394
     2  C(13)             -0.02449     -27.53623      -9.82561      -9.18510
     3  O(17)              0.02169     -13.14807      -4.69156      -4.38572
     4  C(13)              0.00300       3.37134       1.20298       1.12456
     5  F(19)             -0.00016      -0.67171      -0.23968      -0.22406
     6  F(19)             -0.00012      -0.51148      -0.18251      -0.17061
     7  F(19)             -0.00012      -0.51147      -0.18251      -0.17061
     8  O(17)              0.01987     -12.04483      -4.29789      -4.01772

 Normal termination of Gaussian 16 at Tue Apr  8 23:21:12 2025.
