 Gaussian 16, Revision C.01,

 ----------------------------------------------------------------------
 #t hf aug-cc-pvdz symm=none int=(grid=ultrafine) guess=(read,tcheck) s
 table=opt
 ----------------------------------------------------------------------
 -----
 title
 -----
 Symbolic Z-matrix:
 Charge =  0 Multiplicity = 2

 SCF Done:  E(UHF) =  -1420.50799640     A.U. after   27 cycles
 Normal termination of Gaussian 16 at Wed Apr  9 00:50:21 2025.
 Gaussian 16:  ES64L-G16RevC.01  3-Jul-2019

 ----------------------------------------------------------------------
 #t hf aug-cc-pvdz iop(5/13=1,5/36=2,99/5=2) pseudo=read geom=check gue
 ss=(read,tcheck) scf=(maxcycle=1)
 ----------------------------------------------------------------------
 -----
 title
 -----
 Structure from the checkpoint file:  "BDE49_nonexpt_924_mol2.chk"
 Charge =  0 Multiplicity = 2

                         Standard orientation:
 ---------------------------------------------------------------------
 Center     Atomic      Atomic             Coordinates (Angstroms)
 Number     Number       Type             X           Y           Z
 ---------------------------------------------------------------------
      1         17           0        2.659730   -0.985595   -0.069738
      2         17           0       -2.659729   -0.985596   -0.069738
      3          7           0       -0.000000    1.832424    0.446575
      4          7           0        1.170312   -0.153113    0.056561
      5          7           0       -1.170312   -0.153113    0.056560
      6          6           0       -1.208103    1.257578    0.046482
      7          6           0        1.208103    1.257578    0.046486
      8          6           0        0.000000   -0.945615    0.086128
      9          8           0       -2.182453    1.906844   -0.212640
     10          8           0        2.182452    1.906844   -0.212642
     11          8           0        0.000000   -2.137487    0.097611
 ---------------------------------------------------------------------

 SCF Done:  E(UHF) =  -1420.70040430     A.U. after    2 cycles

 The electronic state is 2-A.
 Alpha  occ. eigenvalues -- -103.75032-103.75031 -20.63544 -20.63544 -20.61960
 Alpha  occ. eigenvalues --  -15.78380 -15.78377 -15.77353 -11.48983 -11.47891
 Alpha  occ. eigenvalues --  -11.47881 -10.77901 -10.77898  -8.43692  -8.43688
 Alpha  occ. eigenvalues --   -8.43233  -8.43231  -8.43199  -8.43199  -1.48234
 Alpha  occ. eigenvalues --   -1.45368  -1.45002  -1.34942  -1.31963  -1.29238
 Alpha  occ. eigenvalues --   -1.16489  -1.12334  -0.95677  -0.94510  -0.86923
 Alpha  occ. eigenvalues --   -0.77572  -0.76704  -0.74235  -0.73295  -0.72430
 Alpha  occ. eigenvalues --   -0.68332  -0.67546  -0.66586  -0.60813  -0.59194
 Alpha  occ. eigenvalues --   -0.58316  -0.56673  -0.56197  -0.54249  -0.52933
 Alpha  occ. eigenvalues --   -0.52747  -0.51972  -0.47389  -0.45670
 Alpha virt. eigenvalues --    0.03973   0.05390   0.05418   0.05693   0.07149
 Alpha virt. eigenvalues --    0.08297   0.09362   0.10231   0.10737   0.11360
 Alpha virt. eigenvalues --    0.11429   0.11661   0.12253   0.13652   0.13997

  Beta  occ. eigenvalues -- -103.75023-103.75022 -20.62680 -20.62680 -20.61966
  Beta  occ. eigenvalues --  -15.78340 -15.78337 -15.74247 -11.48986 -11.48452
  Beta  occ. eigenvalues --  -11.48442 -10.77892 -10.77890  -8.43669  -8.43665
  Beta  occ. eigenvalues --   -8.43221  -8.43220  -8.43187  -8.43187  -1.47102
  Beta  occ. eigenvalues --   -1.44079  -1.43935  -1.33595  -1.31645  -1.23463
  Beta  occ. eigenvalues --   -1.14265  -1.12153  -0.94754  -0.93975  -0.86228
  Beta  occ. eigenvalues --   -0.76293  -0.74687  -0.73229  -0.72170  -0.72056
  Beta  occ. eigenvalues --   -0.67937  -0.65572  -0.64309  -0.58081  -0.56827
  Beta  occ. eigenvalues --   -0.55980  -0.55849  -0.53577  -0.52682  -0.51271
  Beta  occ. eigenvalues --   -0.49966  -0.46612  -0.44433
  Beta virt. eigenvalues --   -0.03743   0.04074   0.05414   0.05466   0.05800
  Beta virt. eigenvalues --    0.07252   0.08250   0.10742   0.10748   0.10856
  Beta virt. eigenvalues --    0.11244   0.11625   0.12297   0.12377   0.13680

 Mulliken charges and spin densities:
               1          2
     1  Cl   0.418619   0.004532
     2  Cl   0.418619   0.004532
     3  N   -0.515866   1.145160
     4  N   -0.774436   0.015394
     5  N   -0.774436   0.015395
     6  C    0.770367  -0.287149
     7  C    0.770368  -0.287150
     8  C    0.691123   0.004787
     9  O   -0.335920   0.193041
    10  O   -0.335921   0.193042
    11  O   -0.332517  -0.001584
 Sum of Mulliken charges =  -0.00000   1.00000

 Dipole moment (field-independent basis, Debye):
    X=             -0.0000    Y=             -1.1453    Z=              0.4034  Tot=              1.2143
                          Isotropic Fermi Contact Couplings
        Atom                 a.u.       MegaHertz       Gauss      10(-4) cm-1
     1  Cl(35)             0.00074       0.32381       0.11554       0.10801
     2  Cl(35)             0.00074       0.32382       0.11555       0.10801
     3  N(14)              0.30392      98.19920      35.03992      32.75573
     4  N(14)              0.01282       4.14132       1.47773       1.38140
     5  N(14)              0.01282       4.14141       1.47776       1.38142
     6  C(13)             -0.07340     -82.51487     -29.44336     -27.52400
     7  C(13)             -0.07340     -82.51492     -29.44338     -27.52402
     8  C(13)             -0.00072      -0.80448      -0.28706      -0.26835

 Normal termination of Gaussian 16 at Wed Apr  9 00:50:31 2025.
