 Gaussian 16, Revision C.01,

 ----------------------------------------------------------------------
 #t hf aug-cc-pvdz symm=none int=(grid=ultrafine) guess=(read,tcheck) s
 table=(opt,rrhf)
 ----------------------------------------------------------------------
 -----
 title
 -----
 Symbolic Z-matrix:
 Charge =  0 Multiplicity = 1

 SCF Done:  E(RHF) =  -877.483151518     A.U. after   13 cycles
 Normal termination of Gaussian 16 at Tue Apr  8 23:57:27 2025.
 Gaussian 16:  ES64L-G16RevC.01  3-Jul-2019

 ----------------------------------------------------------------------
 #t hf aug-cc-pvdz iop(5/13=1,5/36=2,99/5=2) pseudo=read geom=check gue
 ss=(read,tcheck) scf=(maxcycle=1)
 ----------------------------------------------------------------------
 -----
 title
 -----
 Structure from the checkpoint file:  "BDE49_nonexpt_2059_mol1.chk"
 Charge =  0 Multiplicity = 1

                         Standard orientation:
 ---------------------------------------------------------------------
 Center     Atomic      Atomic             Coordinates (Angstroms)
 Number     Number       Type             X           Y           Z
 ---------------------------------------------------------------------
      1         14           0       -1.770577    0.169165   -0.000002
      2         16           0        0.447955   -0.198505    0.000001
      3          8           0        0.777642   -0.842999   -1.266387
      4          6           0        1.249845    1.418167   -0.000005
      5          8           0        0.777640   -0.842988    1.266395
      6          1           0        0.967976    1.958684   -0.903343
      7          1           0        2.322081    1.212527   -0.000004
      8          1           0        0.967975    1.958691    0.903328
      9          1           0       -2.335898   -1.190933    0.000004
     10          1           0       -2.121332    0.923844   -1.219828
     11          1           0       -2.121333    0.923855    1.219818
 ---------------------------------------------------------------------

 SCF Done:  E(RHF) =  -877.634844677     A.U. after    2 cycles

 The electronic state is 1-A.
 Alpha  occ. eigenvalues --  -93.76418 -69.12081 -20.55366 -20.55365 -11.28999
 Alpha  occ. eigenvalues --   -9.03431  -6.87325  -6.38047  -6.37780  -6.37681
 Alpha  occ. eigenvalues --   -3.98130  -3.98034  -3.98033  -1.40586  -1.29592
 Alpha  occ. eigenvalues --   -1.03520  -0.85747  -0.74983  -0.67103  -0.66236
 Alpha  occ. eigenvalues --   -0.66110  -0.61044  -0.59941  -0.53823  -0.52645
 Alpha  occ. eigenvalues --   -0.51222  -0.49947  -0.48674  -0.41791
 Alpha virt. eigenvalues --    0.02445   0.03895   0.05181   0.05290   0.05966
 Alpha virt. eigenvalues --    0.06577   0.07729   0.08306   0.08659   0.11054
 Alpha virt. eigenvalues --    0.12131   0.12810   0.13730   0.14232   0.15697

 Mulliken charges:
               1
     1  Si   0.372699
     2  S    2.026597
     3  O   -1.099709
     4  C   -0.112729
     5  O   -1.099709
     6  H   -0.048603
     7  H    0.003254
     8  H   -0.048604
     9  H   -0.032980
    10  H    0.019893
    11  H    0.019893
 Sum of Mulliken charges =  -0.00000

 Dipole moment (field-independent basis, Debye):
    X=             -2.7875    Y=              4.7811    Z=             -0.0000  Tot=              5.5343

 Test job not archived.
 1\1\GINC-SE106\SP\RHF\Aug-CC-pVDZ\C1H6O2S1Si1\OHZDE\08-Apr-2025\0\\#t
 hf aug-cc-pvdz iop(5/13=1,5/36=2,99/5=2) pseudo=read geom=check guess=
 (read,tcheck) scf=(maxcycle=1)\\title\\0,1\Si,0,-1.770577,0.169165,-0.
 000002\S,0,0.447955,-0.198505,0.000001\O,0,0.777642,-0.842999,-1.26638
 7\C,0,1.249845,1.418167,-0.000005\O,0,0.77764,-0.842988,1.266395\H,0,0
 .967976,1.958684,-0.903343\H,0,2.322081,1.212527,-0.000004\H,0,0.96797
 5,1.958691,0.903328\H,0,-2.335898,-1.190933,0.000004\H,0,-2.121332,0.9
 23844,-1.219828\H,0,-2.121333,0.923855,1.219818\\Version=ES64L-G16RevC

 Normal termination of Gaussian 16 at Tue Apr  8 23:57:31 2025.
