 Gaussian 16, Revision C.01,

 ----------------------------------------------------------------------
 #t hf aug-cc-pvdz symm=none int=(grid=ultrafine) guess=(read,tcheck) s
 table=(opt,rrhf)
 ----------------------------------------------------------------------
 -----
 title
 -----
 Symbolic Z-matrix:
 Charge =  0 Multiplicity = 1

 SCF Done:  E(RHF) =  -343.473392090     A.U. after   16 cycles
 Normal termination of Gaussian 16 at Tue Apr  8 23:00:13 2025.
 Gaussian 16:  ES64L-G16RevC.01  3-Jul-2019

 ----------------------------------------------------------------------
 #t hf aug-cc-pvdz iop(5/13=1,5/36=2,99/5=2) pseudo=read geom=check gue
 ss=(read,tcheck) scf=(maxcycle=1)
 ----------------------------------------------------------------------
 -----
 title
 -----
 Structure from the checkpoint file:  "BDE49_expt_204_mol1.chk"
 Charge =  0 Multiplicity = 1

                         Standard orientation:
 ---------------------------------------------------------------------
 Center     Atomic      Atomic             Coordinates (Angstroms)
 Number     Number       Type             X           Y           Z
 ---------------------------------------------------------------------
      1          6           0        1.992705    0.465242   -0.000005
      2          8           0        2.842896   -0.394135    0.000005
      3          6           0        0.532746    0.212005   -0.000002
      4          1           0        2.271347    1.542040    0.000008
      5          6           0        0.042659   -1.100174   -0.000001
      6          6           0       -1.326468   -1.327579    0.000001
      7          6           0       -2.213920   -0.247810    0.000001
      8          6           0       -1.732020    1.059972   -0.000000
      9          6           0       -0.358978    1.288660   -0.000002
     10          1           0        0.027352    2.303400   -0.000003
     11          1           0       -3.283067   -0.428718    0.000003
     12          1           0       -2.423649    1.894453   -0.000000
     13          1           0        0.753481   -1.918106   -0.000001
     14          1           0       -1.708973   -2.341879    0.000002
 ---------------------------------------------------------------------

 SCF Done:  E(RHF) =  -343.576111176     A.U. after    2 cycles

 The electronic state is 1-A.
 Alpha  occ. eigenvalues --  -20.57232 -11.34904 -11.27154 -11.26920 -11.26446
 Alpha  occ. eigenvalues --  -11.26224 -11.26203 -11.26035  -1.35938  -1.16435
 Alpha  occ. eigenvalues --   -1.04580  -1.03016  -0.89521  -0.85013  -0.79676
 Alpha  occ. eigenvalues --   -0.72770  -0.68738  -0.66388  -0.62846  -0.62669
 Alpha  occ. eigenvalues --   -0.61080  -0.56708  -0.53712  -0.51482  -0.51139
 Alpha  occ. eigenvalues --   -0.44327  -0.36063  -0.35714
 Alpha virt. eigenvalues --    0.02895   0.03655   0.04333   0.05432   0.05488
 Alpha virt. eigenvalues --    0.06309   0.07590   0.08610   0.09704   0.11056
 Alpha virt. eigenvalues --    0.11533   0.12634   0.13702   0.13732   0.13861

 Mulliken charges:
               1
     1  C    0.654513
     2  O   -0.501929
     3  C    0.898984
     4  H   -0.265517
     5  C    0.068436
     6  C    0.508758
     7  C    0.304526
     8  C    0.396558
     9  C    0.308977
    10  H   -0.542072
    11  H   -0.424585
    12  H   -0.432638
    13  H   -0.545007
    14  H   -0.429005
 Sum of Mulliken charges =  -0.00000

 Dipole moment (field-independent basis, Debye):
    X=             -3.5559    Y=              1.6709    Z=             -0.0000  Tot=              3.9289

 Test job not archived.
 1\1\GINC-SE043\SP\RHF\Aug-CC-pVDZ\C7H6O1\OHZDE\08-Apr-2025\0\\#t hf au
 g-cc-pvdz iop(5/13=1,5/36=2,99/5=2) pseudo=read geom=check guess=(read
 ,tcheck) scf=(maxcycle=1)\\title\\0,1\C,0,1.992705,0.465242,-0.000005\
 O,0,2.842896,-0.394135,0.000005\C,0,0.532746,0.212005,-0.000002\H,0,2.
 271347,1.54204,0.000008\C,0,0.042659,-1.100174,-0.000001\C,0,-1.326468
 ,-1.327579,0.000001\C,0,-2.21392,-0.24781,0.000001\C,0,-1.73202,1.0599
 72,0.\C,0,-0.358978,1.28866,-0.000002\H,0,0.027352,2.3034,-0.000003\H,
 0,-3.283067,-0.428718,0.000003\H,0,-2.423649,1.894453,0.\H,0,0.753481,

 Normal termination of Gaussian 16 at Tue Apr  8 23:00:20 2025.
