 Gaussian 16, Revision C.01,

 ----------------------------------------------------------------------
 #t hf aug-cc-pvdz symm=none int=(grid=ultrafine) guess=(read,tcheck) s
 table=(opt,rrhf)
 ----------------------------------------------------------------------
 -----
 title
 -----
 Symbolic Z-matrix:
 Charge =  0 Multiplicity = 1

 SCF Done:  E(RHF) =  -1018.84672886     A.U. after   15 cycles
 Normal termination of Gaussian 16 at Tue Apr  8 23:46:33 2025.
 Gaussian 16:  ES64L-G16RevC.01  3-Jul-2019

 ----------------------------------------------------------------------
 #t hf aug-cc-pvdz iop(5/13=1,5/36=2,99/5=2) pseudo=read geom=check gue
 ss=(read,tcheck) scf=(maxcycle=1)
 ----------------------------------------------------------------------
 -----
 title
 -----
 Structure from the checkpoint file:  "BDE49_nonexpt_1773_mol1.chk"
 Charge =  0 Multiplicity = 1

                         Standard orientation:
 ---------------------------------------------------------------------
 Center     Atomic      Atomic             Coordinates (Angstroms)
 Number     Number       Type             X           Y           Z
 ---------------------------------------------------------------------
      1          6           0       -0.399083    1.614517    0.034735
      2          6           0       -1.730928    1.808626   -0.324137
      3          6           0       -2.609577    0.730827   -0.355854
      4          6           0       -2.179983   -0.561606   -0.029498
      5          6           0       -0.842772   -0.738609    0.328882
      6          6           0        0.064231    0.333443    0.365200
      7          1           0        0.276425    2.463433    0.058335
      8          1           0       -2.084707    2.801803   -0.577873
      9         14           0        1.840792    0.059645    0.841652
     10          6           0       -3.142371   -1.724271   -0.067667
     11          1           0       -3.646081    0.892668   -0.635629
     12          1           0       -0.502603   -1.737637    0.586936
     13         17           0        3.001336   -0.482482   -0.815400
     14          1           0       -3.996254   -1.553693    0.594867
     15          1           0       -2.658067   -2.652173    0.241851
     16          1           0       -3.539236   -1.874585   -1.076365
     17          1           0        1.965070   -1.052241    1.804180
     18          1           0        2.434559    1.302040    1.372411
 ---------------------------------------------------------------------

 SCF Done:  E(RHF) =  -1018.96813197     A.U. after    2 cycles

 The electronic state is 1-A.
 Alpha  occ. eigenvalues -- -103.64196 -69.11073 -11.26113 -11.25735 -11.25584
 Alpha  occ. eigenvalues --  -11.25469 -11.25337 -11.24439 -11.24296 -10.67623
 Alpha  occ. eigenvalues --   -8.33314  -8.33094  -8.33093  -6.85974  -3.96770
 Alpha  occ. eigenvalues --   -3.96661  -3.96657  -1.15411  -1.12427  -1.04817
 Alpha  occ. eigenvalues --   -1.01702  -0.94087  -0.83859  -0.81252  -0.72212
 Alpha  occ. eigenvalues --   -0.68434  -0.65323  -0.62638  -0.58696  -0.58386
 Alpha  occ. eigenvalues --   -0.56538  -0.55029  -0.53177  -0.52217  -0.50118
 Alpha  occ. eigenvalues --   -0.49767  -0.48770  -0.44987  -0.44282  -0.35143
 Alpha  occ. eigenvalues --   -0.33973
 Alpha virt. eigenvalues --    0.03077   0.03773   0.04068   0.05088   0.05524
 Alpha virt. eigenvalues --    0.05663   0.06370   0.07045   0.07846   0.08029
 Alpha virt. eigenvalues --    0.08778   0.09368   0.10541   0.10985   0.11295

 Mulliken charges:
               1
     1  C    0.514495
     2  C    0.383309
     3  C    0.867596
     4  C    0.160409
     5  C    0.590711
     6  C   -0.850033
     7  H   -0.598657
     8  H   -0.452507
     9  Si   0.688233
    10  C    0.569865
    11  H   -0.575947
    12  H   -0.658145
    13  Cl  -0.584841
    14  H    0.060993
    15  H   -0.200353
    16  H    0.071749
    17  H   -0.004442
    18  H    0.017565
 Sum of Mulliken charges =  -0.00000

 Dipole moment (field-independent basis, Debye):
    X=             -2.7186    Y=              0.3564    Z=              1.0101  Tot=              2.9220

 Test job not archived.
 1\1\GINC-SE247\SP\RHF\Aug-CC-pVDZ\C7H9Cl1Si1\OHZDE\08-Apr-2025\0\\#t h
 f aug-cc-pvdz iop(5/13=1,5/36=2,99/5=2) pseudo=read geom=check guess=(
 read,tcheck) scf=(maxcycle=1)\\title\\0,1\C,0,-0.399083,1.614517,0.034
 735\C,0,-1.730928,1.808626,-0.324137\C,0,-2.609577,0.730827,-0.355854\
 C,0,-2.179983,-0.561606,-0.029498\C,0,-0.842772,-0.738609,0.328882\C,0
 ,0.064231,0.333443,0.3652\H,0,0.276425,2.463433,0.058335\H,0,-2.084707
 ,2.801803,-0.577873\Si,0,1.840792,0.059645,0.841652\C,0,-3.142371,-1.7
 24271,-0.067667\H,0,-3.646081,0.892668,-0.635629\H,0,-0.502603,-1.7376

 Normal termination of Gaussian 16 at Tue Apr  8 23:46:43 2025.
