 Gaussian 16, Revision C.01,

 ----------------------------------------------------------------------
 #t hf aug-cc-pvdz symm=none int=(grid=ultrafine) guess=(read,tcheck) s
 table=opt
 ----------------------------------------------------------------------
 -----
 title
 -----
 Symbolic Z-matrix:
 Charge =  0 Multiplicity = 2

 SCF Done:  E(UHF) =  -625.832568275     A.U. after   21 cycles
 Normal termination of Gaussian 16 at Tue Apr  8 22:58:46 2025.
 Gaussian 16:  ES64L-G16RevC.01  3-Jul-2019

 ----------------------------------------------------------------------
 #t hf aug-cc-pvdz iop(5/13=1,5/36=2,99/5=2) pseudo=read geom=check gue
 ss=(read,tcheck) scf=(maxcycle=1)
 ----------------------------------------------------------------------
 -----
 title
 -----
 Structure from the checkpoint file:  "BDE49_expt_1981_mol2.chk"
 Charge =  0 Multiplicity = 2

                         Standard orientation:
 ---------------------------------------------------------------------
 Center     Atomic      Atomic             Coordinates (Angstroms)
 Number     Number       Type             X           Y           Z
 ---------------------------------------------------------------------
      1          6           0       -0.965371   -0.751265    0.260316
      2         16           0        0.619833    0.069809   -0.266177
      3          6           0       -2.183549    0.078850   -0.106398
      4          1           0       -0.835325   -0.878214    1.337729
      5          1           0       -0.933707   -1.728314   -0.222466
      6          1           0       -2.134361    1.066355    0.353018
      7          1           0       -3.086650   -0.424041    0.249522
      8          1           0       -2.273143    0.204114   -1.187628
      9          8           0        0.581969    1.441490    0.254895
     10          8           0        1.697953   -0.856784    0.095749
 ---------------------------------------------------------------------

 SCF Done:  E(UHF) =  -625.968147453     A.U. after    2 cycles

 The electronic state is 2-A.
 Alpha  occ. eigenvalues --  -93.75706 -20.60110 -20.59982 -11.31643 -11.26656
 Alpha  occ. eigenvalues --   -9.03159  -6.37862  -6.37445  -6.37054  -1.43346
 Alpha  occ. eigenvalues --   -1.33777  -1.08931  -0.93609  -0.84452  -0.70992
 Alpha  occ. eigenvalues --   -0.69708  -0.68686  -0.65396  -0.60960  -0.58216
 Alpha  occ. eigenvalues --   -0.56566  -0.54661  -0.52877  -0.51849  -0.41915
 Alpha virt. eigenvalues --    0.02768   0.04399   0.04654   0.05816   0.07286
 Alpha virt. eigenvalues --    0.08931   0.10859   0.10976   0.11835   0.14196
 Alpha virt. eigenvalues --    0.14624   0.15565   0.15945   0.16621   0.17474

  Beta  occ. eigenvalues --  -93.75348 -20.58615 -20.58516 -11.31134 -11.26696
  Beta  occ. eigenvalues --   -9.02711  -6.37411  -6.37112  -6.36086  -1.40135
  Beta  occ. eigenvalues --   -1.29585  -1.07547  -0.91636  -0.80076  -0.68208
  Beta  occ. eigenvalues --   -0.67896  -0.65498  -0.60367  -0.59575  -0.56584
  Beta  occ. eigenvalues --   -0.54119  -0.51349  -0.48740  -0.45837
  Beta virt. eigenvalues --   -0.00790   0.03078   0.04441   0.04701   0.06221
  Beta virt. eigenvalues --    0.07324   0.09141   0.11089   0.11180   0.11901
  Beta virt. eigenvalues --    0.14302   0.14737   0.15743   0.16030   0.17126

 Mulliken charges and spin densities:
               1          2
     1  C   -0.272404   0.224266
     2  S    1.871361   0.280935
     3  C    0.324384  -0.040374
     4  H    0.006622   0.001908
     5  H   -0.016018  -0.017337
     6  H   -0.018055  -0.000883
     7  H   -0.029026   0.001371
     8  H   -0.057548   0.002175
     9  O   -0.910098   0.276853
    10  O   -0.899219   0.271087
 Sum of Mulliken charges =  -0.00000   1.00000

 Dipole moment (field-independent basis, Debye):
    X=             -4.4213    Y=             -1.7178    Z=             -0.8864  Tot=              4.8254
                          Isotropic Fermi Contact Couplings
        Atom                 a.u.       MegaHertz       Gauss      10(-4) cm-1
     1  C(13)              0.07656      86.06992      30.71189      28.70984
     2  S(33)              0.44075     151.38733      54.01876      50.49738
     3  C(13)             -0.00812      -9.12312      -3.25536      -3.04314
     4  H(1)               0.00268      11.96911       4.27088       3.99247
     5  H(1)              -0.00392     -17.53659      -6.25749      -5.84958
     6  H(1)               0.00047       2.08179       0.74284       0.69441
     7  H(1)               0.00180       8.03703       2.86781       2.68086
     8  H(1)               0.00027       1.18624       0.42328       0.39569

 Normal termination of Gaussian 16 at Tue Apr  8 22:58:50 2025.
