 Gaussian 16, Revision C.01,

 ----------------------------------------------------------------------
 #t hf aug-cc-pvdz symm=none int=(grid=ultrafine) guess=(read,tcheck) s
 table=opt
 ----------------------------------------------------------------------
 -----
 title
 -----
 Symbolic Z-matrix:
 Charge =  0 Multiplicity = 2

 SCF Done:  E(UHF) =  -387.692464784     A.U. after   16 cycles

 1\1\GINC-SE195\Stability\UHF\Aug-CC-pVDZ\C8H17O1\OHZDE\08-Apr-2025\0\\
 #t hf aug-cc-pvdz symm=none int=(grid=ultrafine) guess=(read,tcheck) s
 table=opt\\title\\0,2\O,0,0.026369,-0.35335,-0.608326\C,0,1.316529,-0.
 055547,-0.006113\C,0,-1.269348,-0.022412,-0.050509\C,0,2.285907,-0.481
 61,-1.126997\H,0,2.125875,-1.532521,-1.373868\H,0,3.32417,-0.344738,-0
 .815824\H,0,2.097384,0.114547,-2.023546\C,0,1.557209,-0.903347,1.20479
 3\H,0,1.446381,-1.978205,1.125878\H,0,1.845426,-0.479272,2.158877\C,0,
 1.524644,1.435361,0.302477\H,0,1.316969,2.041753,-0.581076\H,0,2.56450

 Normal termination of Gaussian 16 at Tue Apr  8 22:57:58 2025.
 Gaussian 16:  ES64L-G16RevC.01  3-Jul-2019

 ----------------------------------------------------------------------
 #t hf aug-cc-pvdz iop(5/13=1,5/36=2,99/5=2) pseudo=read geom=check gue
 ss=(read,tcheck) scf=(maxcycle=1)
 ----------------------------------------------------------------------
 -----
 title
 -----
 Structure from the checkpoint file:  "BDE49_expt_180_mol2.chk"
 Charge =  0 Multiplicity = 2

                         Standard orientation:
 ---------------------------------------------------------------------
 Center     Atomic      Atomic             Coordinates (Angstroms)
 Number     Number       Type             X           Y           Z
 ---------------------------------------------------------------------
      1          8           0        0.026369   -0.353350   -0.608326
      2          6           0        1.316529   -0.055547   -0.006113
      3          6           0       -1.269348   -0.022412   -0.050509
      4          6           0        2.285907   -0.481610   -1.126997
      5          1           0        2.125875   -1.532521   -1.373868
      6          1           0        3.324170   -0.344738   -0.815824
      7          1           0        2.097384    0.114547   -2.023546
      8          6           0        1.557209   -0.903347    1.204793
      9          1           0        1.446381   -1.978205    1.125878
     10          1           0        1.845426   -0.479272    2.158877
     11          6           0        1.524644    1.435361    0.302477
     12          1           0        1.316969    2.041753   -0.581076
     13          1           0        2.564504    1.603568    0.596275
     14          1           0        0.891442    1.781949    1.120933
     15          6           0       -2.197882   -1.030209   -0.742797
     16          1           0       -2.105271   -0.938488   -1.827018
     17          1           0       -3.241039   -0.858192   -0.463938
     18          1           0       -1.921585   -2.049140   -0.463337
     19          6           0       -1.372538   -0.196984    1.471518
     20          1           0       -2.405198   -0.014518    1.783956
     21          1           0       -0.736655    0.503788    2.015052
     22          1           0       -1.101799   -1.211187    1.770563
     23          6           0       -1.672786    1.405411   -0.460608
     24          1           0       -1.535090    1.533500   -1.536592
     25          1           0       -1.081324    2.163299    0.054145
     26          1           0       -2.725547    1.586679   -0.224464
 ---------------------------------------------------------------------

 SCF Done:  E(UHF) =  -387.813897245     A.U. after    2 cycles

 The electronic state is 2-A.
 Alpha  occ. eigenvalues --  -20.55074 -11.29662 -11.29241 -11.23564 -11.22502
 Alpha  occ. eigenvalues --  -11.22191 -11.21793 -11.21713 -11.21451  -1.30897
 Alpha  occ. eigenvalues --   -1.08744  -1.03249  -0.94190  -0.93371  -0.92439
 Alpha  occ. eigenvalues --   -0.92348  -0.79819  -0.72206  -0.65086  -0.64271
 Alpha  occ. eigenvalues --   -0.63607  -0.60298  -0.59860  -0.57953  -0.56129
 Alpha  occ. eigenvalues --   -0.55448  -0.54002  -0.52810  -0.52114  -0.51428
 Alpha  occ. eigenvalues --   -0.51290  -0.51238  -0.48033  -0.46603  -0.44358
 Alpha  occ. eigenvalues --   -0.42085  -0.36033
 Alpha virt. eigenvalues --    0.03433   0.04323   0.04536   0.04612   0.05923
 Alpha virt. eigenvalues --    0.05947   0.06070   0.06427   0.06644   0.08318
 Alpha virt. eigenvalues --    0.08547   0.08707   0.08997   0.09114   0.09481

  Beta  occ. eigenvalues --  -20.54853 -11.29992 -11.29251 -11.22475 -11.22165
  Beta  occ. eigenvalues --  -11.21712 -11.21648 -11.21448 -11.21068  -1.30323
  Beta  occ. eigenvalues --   -1.08051  -1.02273  -0.93337  -0.93111  -0.92291
  Beta  occ. eigenvalues --   -0.87302  -0.78817  -0.71514  -0.64621  -0.63795
  Beta  occ. eigenvalues --   -0.63088  -0.60144  -0.59032  -0.57451  -0.55816
  Beta  occ. eigenvalues --   -0.55059  -0.53875  -0.52349  -0.51641  -0.51262
  Beta  occ. eigenvalues --   -0.51145  -0.51076  -0.47471  -0.45903  -0.43865
  Beta  occ. eigenvalues --   -0.41567
  Beta virt. eigenvalues --    0.03464   0.04238   0.04555   0.04604   0.05892
  Beta virt. eigenvalues --    0.05947   0.06070   0.06432   0.06653   0.08317
  Beta virt. eigenvalues --    0.08531   0.08632   0.08974   0.09111   0.09483

 Mulliken charges and spin densities:
               1          2
     1  O   -0.532582   0.022998
     2  C   -1.600911  -0.204627
     3  C   -2.983283  -0.026357
     4  C    1.001427   0.033837
     5  H   -0.069065  -0.005156
     6  H   -0.016022  -0.005836
     7  H   -0.029321   0.006000
     8  C    1.017037   1.460814
     9  H   -0.332365  -0.130460
    10  H   -0.311532  -0.139782
    11  C    0.840510   0.008489
    12  H   -0.002039  -0.002685
    13  H   -0.090256  -0.002817
    14  H   -0.083010  -0.006492
    15  C    1.188966   0.007432
    16  H   -0.037048   0.000411
    17  H    0.007017   0.000206
    18  H   -0.030735   0.001275
    19  C    1.177962  -0.014292
    20  H   -0.062256   0.008349
    21  H   -0.054134  -0.001438
    22  H    0.014564  -0.017702
    23  C    1.108615   0.006518
    24  H    0.008864   0.000389
    25  H   -0.137247   0.001536
    26  H    0.006844  -0.000608
 Sum of Mulliken charges =  -0.00000   1.00000

 Dipole moment (field-independent basis, Debye):
    X=              0.0008    Y=              0.6645    Z=              1.1587  Tot=              1.3357
                          Isotropic Fermi Contact Couplings
        Atom                 a.u.       MegaHertz       Gauss      10(-4) cm-1
     1  O(17)              0.04212     -25.53231      -9.11056      -8.51666
     2  C(13)             -0.05859     -65.86216     -23.50126     -21.96925
     3  C(13)             -0.00205      -2.30450      -0.82230      -0.76870
     4  C(13)              0.03586      40.31820      14.38654      13.44870
     5  H(1)              -0.00090      -4.00821      -1.43023      -1.33699
     6  H(1)              -0.00009      -0.40964      -0.14617      -0.13664
     7  H(1)               0.00341      15.22448       5.43247       5.07834
     8  C(13)              0.21823     245.33527      87.54172      81.83504

 Normal termination of Gaussian 16 at Tue Apr  8 22:58:19 2025.
