 Gaussian 16, Revision C.01,

 ----------------------------------------------------------------------
 #t hf aug-cc-pvdz symm=none int=(grid=ultrafine) guess=(read,tcheck) s
 table=(opt,rrhf)
 ----------------------------------------------------------------------
 -----
 title
 -----
 Symbolic Z-matrix:
 Charge =  0 Multiplicity = 1

 SCF Done:  E(RHF) =  -656.293944372     A.U. after   10 cycles

 1\1\GINC-SE368\Stability\RHF\Aug-CC-pVDZ\H6O1Si2\OHZDE\08-Apr-2025\0\\
 #t hf aug-cc-pvdz symm=none int=(grid=ultrafine) guess=(read,tcheck) s
 table=(opt,rrhf)\\title\\0,1\Si,0,-1.59638,-0.054896,0.000002\O,0,0.,0
 .313339,-0.000005\H,0,-1.93837,-0.844385,1.205533\H,0,-1.938306,-0.844
 715,-1.205332\H,0,-2.369485,1.204287,-0.00019\Si,0,1.59638,-0.054896,0
 .\H,0,2.369485,1.204287,-0.000204\H,0,1.938302,-0.844724,-1.205329\H,0
 ,1.938373,-0.844376,1.205536\\Version=ES64L-G16RevC.01\HF=-656.2939444
 \RMSD=7.552e-09\Dipole=0.0000006,-0.1133527,0.0000018\Quadrupole=0.839

 Normal termination of Gaussian 16 at Tue Apr  8 22:54:39 2025.
 Gaussian 16:  ES64L-G16RevC.01  3-Jul-2019

 ----------------------------------------------------------------------
 #t hf aug-cc-pvdz iop(5/13=1,5/36=2,99/5=2) pseudo=read geom=check gue
 ss=(read,tcheck) scf=(maxcycle=1)
 ----------------------------------------------------------------------
 -----
 title
 -----
 Structure from the checkpoint file:  "BDE49_expt_1906_mol1.chk"
 Charge =  0 Multiplicity = 1

                         Standard orientation:
 ---------------------------------------------------------------------
 Center     Atomic      Atomic             Coordinates (Angstroms)
 Number     Number       Type             X           Y           Z
 ---------------------------------------------------------------------
      1         14           0       -1.596380   -0.054896    0.000002
      2          8           0        0.000000    0.313339   -0.000005
      3          1           0       -1.938370   -0.844385    1.205533
      4          1           0       -1.938306   -0.844715   -1.205332
      5          1           0       -2.369485    1.204287   -0.000190
      6         14           0        1.596380   -0.054896   -0.000000
      7          1           0        2.369485    1.204287   -0.000204
      8          1           0        1.938302   -0.844724   -1.205329
      9          1           0        1.938373   -0.844376    1.205536
 ---------------------------------------------------------------------

 SCF Done:  E(RHF) =  -656.386608697     A.U. after    2 cycles

 The electronic state is 1-A.
 Alpha  occ. eigenvalues --  -69.10144 -69.10144 -20.56537  -6.84850  -6.84846
 Alpha  occ. eigenvalues --   -3.95845  -3.95772  -3.95619  -3.95618  -3.95614
 Alpha  occ. eigenvalues --   -3.95608  -1.29507  -0.79291  -0.67142  -0.60195
 Alpha  occ. eigenvalues --   -0.59822  -0.59756  -0.48721  -0.48616  -0.45585
 Alpha  occ. eigenvalues --   -0.45407
 Alpha virt. eigenvalues --    0.03572   0.04323   0.05641   0.06028   0.06246
 Alpha virt. eigenvalues --    0.07695   0.07846   0.08422   0.08862   0.09713
 Alpha virt. eigenvalues --    0.10792   0.10817   0.14135   0.15880   0.16813

 Mulliken charges:
               1
     1  Si   0.524917
     2  O   -0.923418
     3  H   -0.039698
     4  H   -0.039702
     5  H    0.016193
     6  Si   0.524916
     7  H    0.016193
     8  H   -0.039702
     9  H   -0.039698
 Sum of Mulliken charges =  -0.00000

 Dipole moment (field-independent basis, Debye):
    X=              0.0000    Y=             -0.3110    Z=              0.0000  Tot=              0.3110

 Test job not archived.
 1\1\GINC-SE368\SP\RHF\Aug-CC-pVDZ\H6O1Si2\OHZDE\08-Apr-2025\0\\#t hf a
 ug-cc-pvdz iop(5/13=1,5/36=2,99/5=2) pseudo=read geom=check guess=(rea
 d,tcheck) scf=(maxcycle=1)\\title\\0,1\Si,0,-1.59638,-0.054896,0.00000
 2\O,0,0.,0.313339,-0.000005\H,0,-1.93837,-0.844385,1.205533\H,0,-1.938
 306,-0.844715,-1.205332\H,0,-2.369485,1.204287,-0.00019\Si,0,1.59638,-
 0.054896,0.\H,0,2.369485,1.204287,-0.000204\H,0,1.938302,-0.844724,-1.
 205329\H,0,1.938373,-0.844376,1.205536\\Version=ES64L-G16RevC.01\State
 =1-A\HF=-656.3866087\RMSD=6.481e-03\Dipole=0.0000006,-0.1223533,0.0000

 Normal termination of Gaussian 16 at Tue Apr  8 22:54:41 2025.
