 Gaussian 16, Revision C.01,

 ----------------------------------------------------------------------
 #t hf aug-cc-pvdz symm=none int=(grid=ultrafine) guess=(read,tcheck) s
 table=(opt,rrhf)
 ----------------------------------------------------------------------
 -----
 title
 -----
 Symbolic Z-matrix:
 Charge =  0 Multiplicity = 1

 SCF Done:  E(RHF) =  -798.563463620     A.U. after   15 cycles
 Normal termination of Gaussian 16 at Tue Apr  8 23:16:53 2025.
 Gaussian 16:  ES64L-G16RevC.01  3-Jul-2019

 ----------------------------------------------------------------------
 #t hf aug-cc-pvdz iop(5/13=1,5/36=2,99/5=2) pseudo=read geom=check gue
 ss=(read,tcheck) scf=(maxcycle=1)
 ----------------------------------------------------------------------
 -----
 title
 -----
 Structure from the checkpoint file:  "BDE49_nonexpt_1071_mol1.chk"
 Charge =  0 Multiplicity = 1

                         Standard orientation:
 ---------------------------------------------------------------------
 Center     Atomic      Atomic             Coordinates (Angstroms)
 Number     Number       Type             X           Y           Z
 ---------------------------------------------------------------------
      1         17           0       -1.889328   -0.018744    0.008346
      2          8           0       -0.369241   -0.823556   -0.251874
      3          6           0        0.768223    0.019535   -0.019956
      4          8           0        1.834186   -0.787820   -0.323086
      5          1           0        1.864829   -1.474091    0.354589
      6          8           0        0.720594    0.394540    1.320239
      7          1           0        1.387952    1.081113    1.438346
      8          8           0        0.844093    1.092653   -0.873161
      9          1           0        0.019411    1.587895   -0.792021
 ---------------------------------------------------------------------

 SCF Done:  E(RHF) =  -798.691656632     A.U. after    2 cycles

 The electronic state is 1-A.
 Alpha  occ. eigenvalues -- -103.72823 -20.66873 -20.62013 -20.61879 -20.61725
 Alpha  occ. eigenvalues --  -11.49550 -10.75506  -8.41265  -8.40861  -8.40824
 Alpha  occ. eigenvalues --   -1.48639  -1.36069  -1.35435  -1.34810  -1.12378
 Alpha  occ. eigenvalues --   -0.91549  -0.84066  -0.75735  -0.74787  -0.68554
 Alpha  occ. eigenvalues --   -0.67009  -0.63430  -0.61187  -0.59145  -0.56511
 Alpha  occ. eigenvalues --   -0.55018  -0.53191  -0.49229  -0.47435
 Alpha virt. eigenvalues --    0.03144   0.03970   0.05348   0.05718   0.09342
 Alpha virt. eigenvalues --    0.11535   0.12904   0.14321   0.14747   0.15018
 Alpha virt. eigenvalues --    0.15894   0.18905   0.20115   0.20984   0.21247

 Mulliken charges:
               1
     1  Cl   0.266135
     2  O   -0.701645
     3  C    1.470603
     4  O   -0.473801
     5  H    0.137618
     6  O   -0.506855
     7  H    0.138417
     8  O   -0.488419
     9  H    0.157948
 Sum of Mulliken charges =  -0.00000

 Dipole moment (field-independent basis, Debye):
    X=              0.0126    Y=              1.4146    Z=              1.7247  Tot=              2.2307

 Test job not archived.
 1\1\GINC-SE460\SP\RHF\Aug-CC-pVDZ\C1H3Cl1O4\OHZDE\08-Apr-2025\0\\#t hf
  aug-cc-pvdz iop(5/13=1,5/36=2,99/5=2) pseudo=read geom=check guess=(r
 ead,tcheck) scf=(maxcycle=1)\\title\\0,1\Cl,0,-1.889328,-0.018744,0.00
 8346\O,0,-0.369241,-0.823556,-0.251874\C,0,0.768223,0.019535,-0.019956
 \O,0,1.834186,-0.78782,-0.323086\H,0,1.864829,-1.474091,0.354589\O,0,0
 .720594,0.39454,1.320239\H,0,1.387952,1.081113,1.438346\O,0,0.844093,1
 .092653,-0.873161\H,0,0.019411,1.587895,-0.792021\\Version=ES64L-G16Re
 vC.01\State=1-A\HF=-798.6916566\RMSD=2.631e-03\Dipole=0.0049479,0.5565

 Normal termination of Gaussian 16 at Tue Apr  8 23:16:55 2025.
