 Gaussian 16, Revision C.01,

 ----------------------------------------------------------------------
 #t hf aug-cc-pvdz symm=none int=(grid=ultrafine) guess=(read,tcheck) s
 table=(opt,rrhf)
 ----------------------------------------------------------------------
 -----
 title
 -----
 Symbolic Z-matrix:
 Charge =  0 Multiplicity = 1

 SCF Done:  E(RHF) =  -761.556736912     A.U. after   15 cycles
 Normal termination of Gaussian 16 at Tue Apr  8 23:15:57 2025.
 Gaussian 16:  ES64L-G16RevC.01  3-Jul-2019

 ----------------------------------------------------------------------
 #t hf aug-cc-pvdz iop(5/13=1,5/36=2,99/5=2) pseudo=read geom=check gue
 ss=(read,tcheck) scf=(maxcycle=1)
 ----------------------------------------------------------------------
 -----
 title
 -----
 Structure from the checkpoint file:  "BDE49_nonexpt_1043_mol1.chk"
 Charge =  0 Multiplicity = 1

                         Standard orientation:
 ---------------------------------------------------------------------
 Center     Atomic      Atomic             Coordinates (Angstroms)
 Number     Number       Type             X           Y           Z
 ---------------------------------------------------------------------
      1         17           0        2.194515    0.021977    0.000090
      2          8           0        0.667158   -0.773946   -0.000027
      3          6           0       -0.402239    0.094715   -0.000105
      4          8           0       -0.361242    1.286497   -0.000028
      5          8           0       -1.473034   -0.694349   -0.000059
      6          6           0       -2.736452    0.005468   -0.000003
      7          1           0       -3.491580   -0.776054    0.000028
      8          1           0       -2.823080    0.627860   -0.890991
      9          1           0       -2.823006    0.627857    0.890994
 ---------------------------------------------------------------------

 SCF Done:  E(RHF) =  -761.676123586     A.U. after    2 cycles

 The electronic state is 1-A.
 Alpha  occ. eigenvalues -- -103.73774 -20.69190 -20.64748 -20.58904 -11.47357
 Alpha  occ. eigenvalues --  -11.31954 -10.76396  -8.42173  -8.41707  -8.41691
 Alpha  occ. eigenvalues --   -1.48880  -1.39068  -1.36514  -1.14128  -0.99352
 Alpha  occ. eigenvalues --   -0.83147  -0.78318  -0.73857  -0.73300  -0.65636
 Alpha  occ. eigenvalues --   -0.65167  -0.62222  -0.57016  -0.56789  -0.51988
 Alpha  occ. eigenvalues --   -0.51128  -0.49868  -0.47994
 Alpha virt. eigenvalues --    0.03302   0.04028   0.05529   0.05748   0.07117
 Alpha virt. eigenvalues --    0.10491   0.11313   0.11839   0.13635   0.14928
 Alpha virt. eigenvalues --    0.14972   0.16031   0.16706   0.17246   0.18499

 Mulliken charges:
               1
     1  Cl   0.333453
     2  O   -0.664378
     3  C    0.687436
     4  O   -0.313781
     5  O   -0.459466
     6  C    0.727239
     7  H   -0.224899
     8  H   -0.042800
     9  H   -0.042804
 Sum of Mulliken charges =  -0.00000

 Dipole moment (field-independent basis, Debye):
    X=             -1.9182    Y=             -0.3733    Z=             -0.0001  Tot=              1.9542

 Test job not archived.
 1\1\GINC-SE039\SP\RHF\Aug-CC-pVDZ\C2H3Cl1O3\OHZDE\08-Apr-2025\0\\#t hf
  aug-cc-pvdz iop(5/13=1,5/36=2,99/5=2) pseudo=read geom=check guess=(r
 ead,tcheck) scf=(maxcycle=1)\\title\\0,1\Cl,0,-2.194515,0.021977,-0.00
 009\O,0,-0.667158,-0.773946,0.000027\C,0,0.402239,0.094715,0.000105\O,
 0,0.361242,1.286497,0.000028\O,0,1.473034,-0.694349,0.000059\C,0,2.736
 452,0.005468,0.000003\H,0,3.49158,-0.776054,-0.000028\H,0,2.82308,0.62
 786,0.890991\H,0,2.823006,0.627857,-0.890994\\Version=ES64L-G16RevC.01
 \State=1-A\HF=-761.6761236\RMSD=2.487e-03\Dipole=0.7546838,-0.1468746,

 Normal termination of Gaussian 16 at Tue Apr  8 23:16:02 2025.
