 Gaussian 16, Revision C.01,

 ----------------------------------------------------------------------
 #t hf aug-cc-pvdz symm=none int=(grid=ultrafine) guess=(read,tcheck) s
 table=(opt,rrhf)
 ----------------------------------------------------------------------
 -----
 title
 -----
 Symbolic Z-matrix:
 Charge =  0 Multiplicity = 1

 SCF Done:  E(RHF) =  -1814.47291909     A.U. after   14 cycles
 Normal termination of Gaussian 16 at Wed Apr  9 00:14:35 2025.
 Gaussian 16:  ES64L-G16RevC.01  3-Jul-2019

 ----------------------------------------------------------------------
 #t hf aug-cc-pvdz iop(5/13=1,5/36=2,99/5=2) pseudo=read geom=check gue
 ss=(read,tcheck) scf=(maxcycle=1)
 ----------------------------------------------------------------------
 -----
 title
 -----
 Structure from the checkpoint file:  "BDE49_nonexpt_2530_mol1.chk"
 Charge =  0 Multiplicity = 1

                         Standard orientation:
 ---------------------------------------------------------------------
 Center     Atomic      Atomic             Coordinates (Angstroms)
 Number     Number       Type             X           Y           Z
 ---------------------------------------------------------------------
      1         17           0       -2.399740    0.014077    0.206374
      2         16           0       -0.676200   -0.959653   -0.407858
      3          6           0        0.584749    0.048655    0.415412
      4         17           0        2.094347   -0.870626    0.110497
      5         17           0        0.710401    1.737158   -0.167099
      6          1           0        0.425566    0.092161    1.487151
 ---------------------------------------------------------------------

 SCF Done:  E(RHF) =  -1814.56254405     A.U. after    2 cycles

 The electronic state is 1-A.
 Alpha  occ. eigenvalues -- -103.70191-103.69793-103.69050 -93.62886 -11.42781
 Alpha  occ. eigenvalues --  -10.73458 -10.72956 -10.72339  -8.92232  -8.39177
 Alpha  occ. eigenvalues --   -8.38853  -8.38834  -8.38687  -8.38335  -8.38299
 Alpha  occ. eigenvalues --   -8.38058  -8.37726  -8.37719  -6.26279  -6.26016
 Alpha  occ. eigenvalues --   -6.25571  -1.24813  -1.18420  -1.16263  -1.00221
 Alpha  occ. eigenvalues --   -0.85640  -0.68381  -0.63776  -0.62377  -0.54388
 Alpha  occ. eigenvalues --   -0.53661  -0.50754  -0.50206  -0.49520  -0.47736
 Alpha  occ. eigenvalues --   -0.46202  -0.39464
 Alpha virt. eigenvalues --    0.03456   0.04278   0.06555   0.07822   0.08508
 Alpha virt. eigenvalues --    0.10503   0.11016   0.12808   0.13587   0.13722
 Alpha virt. eigenvalues --    0.14474   0.16188   0.16268   0.17279   0.17593

 Mulliken charges:
               1
     1  Cl  -0.292305
     2  S    0.683715
     3  C   -0.618140
     4  Cl   0.038336
     5  Cl   0.013150
     6  H    0.175243
 Sum of Mulliken charges =  -0.00000

 Dipole moment (field-independent basis, Debye):
    X=              0.2882    Y=             -0.5045    Z=              0.9096  Tot=              1.0793

 Test job not archived.
 1\1\GINC-SE455\SP\RHF\Aug-CC-pVDZ\C1H1Cl3S1\OHZDE\09-Apr-2025\0\\#t hf
  aug-cc-pvdz iop(5/13=1,5/36=2,99/5=2) pseudo=read geom=check guess=(r
 ead,tcheck) scf=(maxcycle=1)\\title\\0,1\Cl,0,-2.39974,0.014077,0.2063
 74\S,0,-0.6762,-0.959653,-0.407858\C,0,0.584749,0.048655,0.415412\Cl,0
 ,2.094347,-0.870626,0.110497\Cl,0,0.710401,1.737158,-0.167099\H,0,0.42
 5566,0.092161,1.487151\\Version=ES64L-G16RevC.01\State=1-A\HF=-1814.56
 2544\RMSD=3.704e-03\Dipole=0.113376,-0.198497,0.3578606\Quadrupole=-0.
 8531767,-0.1373957,0.9905724,-0.5548365,0.2872193,0.779126\PG=C01 [X(C

 Normal termination of Gaussian 16 at Wed Apr  9 00:14:38 2025.
