 Gaussian 16, Revision C.01,

 ----------------------------------------------------------------------
 #t hf aug-cc-pvdz symm=none int=(grid=ultrafine) guess=(read,tcheck) s
 table=(opt,rrhf)
 ----------------------------------------------------------------------
 -----
 title
 -----
 Symbolic Z-matrix:
 Charge =  0 Multiplicity = 1

 SCF Done:  E(RHF) =  -1846.59657993     A.U. after   13 cycles
 Normal termination of Gaussian 16 at Tue Apr  8 23:23:00 2025.
 Gaussian 16:  ES64L-G16RevC.01  3-Jul-2019

 ----------------------------------------------------------------------
 #t hf aug-cc-pvdz iop(5/13=1,5/36=2,99/5=2) pseudo=read geom=check gue
 ss=(read,tcheck) scf=(maxcycle=1)
 ----------------------------------------------------------------------
 -----
 title
 -----
 Structure from the checkpoint file:  "BDE49_nonexpt_1252_mol1.chk"
 Charge =  0 Multiplicity = 1

                         Standard orientation:
 ---------------------------------------------------------------------
 Center     Atomic      Atomic             Coordinates (Angstroms)
 Number     Number       Type             X           Y           Z
 ---------------------------------------------------------------------
      1         17           0        1.525102   -1.620771    0.232187
      2         16           0       -1.345950    0.000004   -0.116267
      3          8           0       -1.885350   -1.265064   -0.577842
      4         15           0        0.797988    0.000001   -0.861205
      5          6           0       -1.339457   -0.000020    1.682348
      6          1           0       -2.394090   -0.000017    1.963335
      7          1           0       -0.845998   -0.902918    2.035817
      8         17           0        1.525112    1.620763    0.232193
      9          8           0       -1.885332    1.265094   -0.577808
     10          1           0       -0.845988    0.902863    2.035842
 ---------------------------------------------------------------------

 SCF Done:  E(RHF) =  -1846.78555063     A.U. after    2 cycles

 The electronic state is 1-A.
 Alpha  occ. eigenvalues -- -103.70415-103.70415 -93.79931 -81.41663 -20.58183
 Alpha  occ. eigenvalues --  -20.58182 -11.30651 -10.73742 -10.73742  -9.06779
 Alpha  occ. eigenvalues --   -8.39443  -8.39441  -8.39143  -8.39142  -8.39132
 Alpha  occ. eigenvalues --   -8.39131  -7.90979  -6.41372  -6.41111  -6.41056
 Alpha  occ. eigenvalues --   -5.04574  -5.04500  -5.04239  -1.43660  -1.32627
 Alpha  occ. eigenvalues --   -1.20010  -1.17062  -1.05388  -0.88603  -0.78616
 Alpha  occ. eigenvalues --   -0.70144  -0.69369  -0.68495  -0.62904  -0.62120
 Alpha  occ. eigenvalues --   -0.60705  -0.56242  -0.54929  -0.54515  -0.52232
 Alpha  occ. eigenvalues --   -0.52195  -0.51051  -0.49546  -0.46995  -0.39715
 Alpha virt. eigenvalues --    0.02956   0.04280   0.04788   0.05460   0.06401
 Alpha virt. eigenvalues --    0.06450   0.08042   0.09908   0.10246   0.11121
 Alpha virt. eigenvalues --    0.12507   0.12509   0.13594   0.14502   0.14850

 Mulliken charges:
               1
     1  Cl  -0.356891
     2  S    2.214590
     3  O   -1.091994
     4  P    0.816740
     5  C   -0.126493
     6  H    0.033672
     7  H   -0.020371
     8  Cl  -0.356890
     9  O   -1.091993
    10  H   -0.020371
 Sum of Mulliken charges =  -0.00000

 Dipole moment (field-independent basis, Debye):
    X=              2.3214    Y=             -0.0001    Z=              2.9430  Tot=              3.7484

 Test job not archived.
 1\1\GINC-SE015\SP\RHF\Aug-CC-pVDZ\C1H3Cl2O2P1S1\OHZDE\08-Apr-2025\0\\#
 t hf aug-cc-pvdz iop(5/13=1,5/36=2,99/5=2) pseudo=read geom=check gues
 s=(read,tcheck) scf=(maxcycle=1)\\title\\0,1\Cl,0,-1.525103,1.62077,0.
 232187\S,0,1.34595,-0.000004,-0.116267\O,0,1.885349,1.265065,-0.577842
 \P,0,-0.797988,-0.000001,-0.861205\C,0,1.339457,0.00002,1.682348\H,0,2
 .39409,0.000018,1.963335\H,0,0.845998,0.902918,2.035817\Cl,0,-1.525112
 ,-1.620764,0.232193\O,0,1.885332,-1.265093,-0.577808\H,0,0.845988,-0.9
 02863,2.035842\\Version=ES64L-G16RevC.01\State=1-A\HF=-1846.7855506\RM

 Normal termination of Gaussian 16 at Tue Apr  8 23:23:05 2025.
