 Gaussian 16, Revision C.01,

 ----------------------------------------------------------------------
 #t hf aug-cc-pvdz symm=none int=(grid=ultrafine) guess=(read,tcheck) s
 table=opt
 ----------------------------------------------------------------------
 -----
 title
 -----
 Symbolic Z-matrix:
 Charge =  0 Multiplicity = 2

 SCF Done:  E(UHF) =  -458.991203714     A.U. after   16 cycles
 Normal termination of Gaussian 16 at Tue Apr  8 23:34:11 2025.
 Gaussian 16:  ES64L-G16RevC.01  3-Jul-2019

 ----------------------------------------------------------------------
 #t hf aug-cc-pvdz iop(5/13=1,5/36=2,99/5=2) pseudo=read geom=check gue
 ss=(read,tcheck) scf=(maxcycle=1)
 ----------------------------------------------------------------------
 -----
 title
 -----
 Structure from the checkpoint file:  "BDE49_nonexpt_1494_mol2.chk"
 Charge =  0 Multiplicity = 2

                         Standard orientation:
 ---------------------------------------------------------------------
 Center     Atomic      Atomic             Coordinates (Angstroms)
 Number     Number       Type             X           Y           Z
 ---------------------------------------------------------------------
      1         15           0       -1.821677   -0.187262   -0.000082
      2          6           0        2.406202    0.099976    0.000100
      3          6           0       -0.108315    0.553682    0.000048
      4          6           0        1.000180   -0.507711   -0.000016
      5          1           0       -0.010862    1.205862    0.876957
      6          1           0       -0.010800    1.206033   -0.876727
      7          1           0        0.881457   -1.155654   -0.875722
      8          1           0        0.881389   -1.155831    0.875549
      9          1           0        2.566638    0.725794    0.883438
     10          1           0        2.566705    0.725977   -0.883097
     11          1           0        3.173536   -0.678896    0.000048
     12          1           0       -2.511315    1.059965    0.000005
 ---------------------------------------------------------------------

 SCF Done:  E(UHF) =  -459.047782583     A.U. after    2 cycles

 The electronic state is 2-A.
 Alpha  occ. eigenvalues --  -81.25713 -11.24359 -11.23909 -11.22876  -7.76143
 Alpha  occ. eigenvalues --   -4.90862  -4.89806  -4.89468  -1.05714  -0.94025
 Alpha  occ. eigenvalues --   -0.82107  -0.74139  -0.64242  -0.58112  -0.56299
 Alpha  occ. eigenvalues --   -0.55447  -0.49367  -0.48352  -0.45439  -0.38512
 Alpha  occ. eigenvalues --   -0.33728
 Alpha virt. eigenvalues --    0.03544   0.04510   0.05106   0.05148   0.06883
 Alpha virt. eigenvalues --    0.07333   0.07849   0.08219   0.10029   0.11023
 Alpha virt. eigenvalues --    0.12401   0.13248   0.14781   0.16542   0.16754

  Beta  occ. eigenvalues --  -81.25022 -11.24497 -11.23903 -11.22883  -7.75315
  Beta  occ. eigenvalues --   -4.89311  -4.89107  -4.87705  -1.05605  -0.93525
  Beta  occ. eigenvalues --   -0.81520  -0.68978  -0.63767  -0.57841  -0.56088
  Beta  occ. eigenvalues --   -0.54649  -0.49212  -0.48095  -0.44984  -0.36237
  Beta virt. eigenvalues --    0.03588   0.03975   0.04554   0.05211   0.05812
  Beta virt. eigenvalues --    0.06930   0.07403   0.07923   0.09017   0.10071
  Beta virt. eigenvalues --    0.11210   0.12505   0.14969   0.15115   0.16639

 Mulliken charges and spin densities:
               1          2
     1  P    0.352836   1.276960
     2  C    0.423864  -0.003133
     3  C   -0.028986  -0.152311
     4  C   -0.019849   0.031518
     5  H   -0.139220   0.010963
     6  H   -0.139220   0.010963
     7  H   -0.101273  -0.002405
     8  H   -0.101276  -0.002406
     9  H   -0.064806  -0.000898
    10  H   -0.064804  -0.000898
    11  H   -0.074056  -0.000202
    12  H   -0.043212  -0.168150
 Sum of Mulliken charges =  -0.00000   1.00000

 Dipole moment (field-independent basis, Debye):
    X=              1.0587    Y=              0.8262    Z=              0.0001  Tot=              1.3430
                          Isotropic Fermi Contact Couplings
        Atom                 a.u.       MegaHertz       Gauss      10(-4) cm-1
     1  P(31)              0.22351     404.80285     144.44372     135.02770
     2  C(13)             -0.00180      -2.02631      -0.72304      -0.67590
     3  C(13)             -0.02851     -32.04785     -11.43547     -10.69001
     4  C(13)              0.00056       0.62468       0.22290       0.20837
     5  H(1)               0.01037      46.35191      16.53951      15.46133
     6  H(1)               0.01037      46.35113      16.53924      15.46107
     7  H(1)              -0.00036      -1.59472      -0.56904      -0.53194
     8  H(1)              -0.00036      -1.59473      -0.56904      -0.53194

 Normal termination of Gaussian 16 at Tue Apr  8 23:34:14 2025.
