 Gaussian 16, Revision C.01,

 ----------------------------------------------------------------------
 #t hf aug-cc-pvdz symm=none int=(grid=ultrafine) guess=(read,tcheck) s
 table=opt
 ----------------------------------------------------------------------
 -----
 title
 -----
 Symbolic Z-matrix:
 Charge =  0 Multiplicity = 2

 SCF Done:  E(UHF) =  -748.416133155     A.U. after   19 cycles
 Normal termination of Gaussian 16 at Wed Apr  9 00:04:36 2025.
 Gaussian 16:  ES64L-G16RevC.01  3-Jul-2019

 ----------------------------------------------------------------------
 #t hf aug-cc-pvdz iop(5/13=1,5/36=2,99/5=2) pseudo=read geom=check gue
 ss=(read,tcheck) scf=(maxcycle=1)
 ----------------------------------------------------------------------
 -----
 title
 -----
 Structure from the checkpoint file:  "BDE49_nonexpt_223_mol2.chk"
 Charge =  0 Multiplicity = 2

                         Standard orientation:
 ---------------------------------------------------------------------
 Center     Atomic      Atomic             Coordinates (Angstroms)
 Number     Number       Type             X           Y           Z
 ---------------------------------------------------------------------
      1          5           0       -0.575318   -0.749832   -0.307894
      2         17           0       -2.128564   -0.044750   -0.023736
      3          6           0        0.831747   -0.035415   -0.033886
      4          8           0        1.886668   -0.610099   -0.749257
      5          1           0        1.771542   -1.565972   -0.710444
      6          8           0        1.023407   -0.144283    1.358035
      7          1           0        1.941658    0.114066    1.528026
      8          8           0        0.853242    1.302759   -0.457618
      9          1           0        0.251968    1.787299    0.119435
 ---------------------------------------------------------------------

 SCF Done:  E(UHF) =  -748.523979755     A.U. after    2 cycles

 The electronic state is 2-A.
 Alpha  occ. eigenvalues -- -103.68923 -20.60568 -20.60329 -20.59980 -11.41455
 Alpha  occ. eigenvalues --  -10.72409  -8.38148  -8.37890  -8.37822  -7.71660
 Alpha  occ. eigenvalues --   -1.43000  -1.32653  -1.32384  -1.18640  -0.92336
 Alpha  occ. eigenvalues --   -0.82553  -0.73368  -0.70436  -0.66498  -0.65430
 Alpha  occ. eigenvalues --   -0.63695  -0.57830  -0.54912  -0.53530  -0.52107
 Alpha  occ. eigenvalues --   -0.51382  -0.49541  -0.36886
 Alpha virt. eigenvalues --    0.03323   0.04189   0.04602   0.05153   0.06469
 Alpha virt. eigenvalues --    0.07103   0.07502   0.10114   0.12157   0.14555
 Alpha virt. eigenvalues --    0.15042   0.15413   0.16680   0.16813   0.18996

  Beta  occ. eigenvalues -- -103.68855 -20.60560 -20.60333 -20.59881 -11.41278
  Beta  occ. eigenvalues --  -10.72329  -8.38034  -8.37853  -8.37647  -7.69665
  Beta  occ. eigenvalues --   -1.42817  -1.32585  -1.32193  -1.17865  -0.91567
  Beta  occ. eigenvalues --   -0.81916  -0.72290  -0.70031  -0.66261  -0.64522
  Beta  occ. eigenvalues --   -0.62522  -0.57120  -0.54649  -0.52035  -0.51883
  Beta  occ. eigenvalues --   -0.50941  -0.47497
  Beta virt. eigenvalues --    0.02541   0.04209   0.04768   0.05382   0.06520
  Beta virt. eigenvalues --    0.07348   0.07636   0.09103   0.11924   0.12335
  Beta virt. eigenvalues --    0.15143   0.15333   0.15763   0.16831   0.17273

 Mulliken charges and spin densities:
               1          2
     1  B    0.123802   1.037144
     2  Cl  -0.216576   0.001327
     3  C    1.348799  -0.063572
     4  O   -0.557671   0.013296
     5  H    0.183258  -0.014819
     6  O   -0.562256   0.007907
     7  H    0.102309   0.000071
     8  O   -0.561116   0.022269
     9  H    0.139451  -0.003623
 Sum of Mulliken charges =   0.00000   1.00000

 Dipole moment (field-independent basis, Debye):
    X=             -0.1450    Y=             -0.8429    Z=              1.0714  Tot=              1.3709
                          Isotropic Fermi Contact Couplings
        Atom                 a.u.       MegaHertz       Gauss      10(-4) cm-1
     1  B(11)              0.34022     487.99844     174.12998     162.77876
     2  Cl(35)             0.06842      29.99858      10.70424      10.00645
     3  C(13)              0.04112      46.22786      16.49525      15.41996
     4  O(17)              0.00019      -0.11349      -0.04050      -0.03786
     5  H(1)              -0.00040      -1.77569      -0.63361      -0.59231
     6  O(17)              0.00144      -0.87448      -0.31204      -0.29170
     7  H(1)               0.00049       2.17034       0.77443       0.72395
     8  O(17)              0.01014      -6.14760      -2.19362      -2.05062

 1\1\GINC-SE366\SP\UHF\Aug-CC-pVDZ\C1H3B1Cl1O3(2)\OHZDE\09-Apr-2025\0\\
 #t hf aug-cc-pvdz iop(5/13=1,5/36=2,99/5=2) pseudo=read geom=check gue
 ss=(read,tcheck) scf=(maxcycle=1)\\title\\0,2\B,0,-0.575318,-0.749832,
 -0.307894\Cl,0,-2.128564,-0.04475,-0.023736\C,0,0.831747,-0.035415,-0.
 033886\O,0,1.886668,-0.610099,-0.749257\H,0,1.771542,-1.565972,-0.7104
 44\O,0,1.023407,-0.144283,1.358035\H,0,1.941658,0.114066,1.528026\O,0,
 0.853242,1.302759,-0.457618\H,0,0.251968,1.787299,0.119435\\Version=ES
 64L-G16RevC.01\State=2-A\HF=-748.5239798\S2=0.754353\S2-1=0.\S2A=0.750

 Normal termination of Gaussian 16 at Wed Apr  9 00:04:39 2025.
