 Gaussian 16, Revision C.01,

 ----------------------------------------------------------------------
 #t hf aug-cc-pvdz symm=none int=(grid=ultrafine) guess=(read,tcheck) s
 table=(opt,rrhf)
 ----------------------------------------------------------------------
 -----
 title
 -----
 Symbolic Z-matrix:
 Charge =  0 Multiplicity = 1

 SCF Done:  E(RHF) =  -795.727268131     A.U. after   11 cycles

 1\1\GINC-SE051\Stability\RHF\Aug-CC-pVDZ\C1Cl1F3\OHZDE\08-Apr-2025\0\\
 #t hf aug-cc-pvdz symm=none int=(grid=ultrafine) guess=(read,tcheck) s
 table=(opt,rrhf)\\title\\0,1\C,0,-0.357698,0.000029,-0.000006\F,0,-0.8
 1452,-0.649193,-1.067563\Cl,0,1.419864,-0.000004,-0.000009\F,0,-0.8144
 83,-0.600015,1.095968\F,0,-0.814497,1.249195,-0.028384\\Version=ES64L-
 G16RevC.01\HF=-795.7272681\RMSD=8.208e-09\Dipole=0.1908158,0.0000503,-
 0.0000197\Quadrupole=0.9613894,-0.4807415,-0.4806479,-0.0001305,0.0000
 283,0.000013\PG=Unknown\\@

 Normal termination of Gaussian 16 at Tue Apr  8 22:42:38 2025.
 Gaussian 16:  ES64L-G16RevC.01  3-Jul-2019

 ----------------------------------------------------------------------
 #t hf aug-cc-pvdz iop(5/13=1,5/36=2,99/5=2) pseudo=read geom=check gue
 ss=(read,tcheck) scf=(maxcycle=1)
 ----------------------------------------------------------------------
 -----
 title
 -----
 Structure from the checkpoint file:  "BDE49_expt_1500_mol1.chk"
 Charge =  0 Multiplicity = 1

                         Standard orientation:
 ---------------------------------------------------------------------
 Center     Atomic      Atomic             Coordinates (Angstroms)
 Number     Number       Type             X           Y           Z
 ---------------------------------------------------------------------
      1          6           0       -0.357698    0.000029   -0.000006
      2          9           0       -0.814520   -0.649193   -1.067563
      3         17           0        1.419864   -0.000004   -0.000009
      4          9           0       -0.814483   -0.600015    1.095968
      5          9           0       -0.814497    1.249195   -0.028384
 ---------------------------------------------------------------------

 SCF Done:  E(RHF) =  -795.872187503     A.U. after    2 cycles

 The electronic state is 1-A.
 Alpha  occ. eigenvalues -- -103.71071 -26.20082 -26.20081 -26.20065 -11.60500
 Alpha  occ. eigenvalues --  -10.74442  -8.40165  -8.39812  -8.39812  -1.80326
 Alpha  occ. eigenvalues --   -1.72996  -1.72995  -1.22402  -1.03944  -0.92152
 Alpha  occ. eigenvalues --   -0.92151  -0.87684  -0.80587  -0.80586  -0.76367
 Alpha  occ. eigenvalues --   -0.76366  -0.75027  -0.62654  -0.52229  -0.52229
 Alpha virt. eigenvalues --    0.06822   0.08579   0.09733   0.09733   0.10908
 Alpha virt. eigenvalues --    0.14859   0.14859   0.18973   0.23425   0.23426
 Alpha virt. eigenvalues --    0.27834   0.29436   0.29438   0.29897   0.29897

 Mulliken charges:
               1
     1  C    0.786259
     2  F   -0.222718
     3  Cl  -0.118077
     4  F   -0.222724
     5  F   -0.222741
 Sum of Mulliken charges =  -0.00000

 Dipole moment (field-independent basis, Debye):
    X=              0.7468    Y=              0.0001    Z=             -0.0001  Tot=              0.7468

 Test job not archived.
 1\1\GINC-SE051\SP\RHF\Aug-CC-pVDZ\C1Cl1F3\OHZDE\08-Apr-2025\0\\#t hf a
 ug-cc-pvdz iop(5/13=1,5/36=2,99/5=2) pseudo=read geom=check guess=(rea
 d,tcheck) scf=(maxcycle=1)\\title\\0,1\C,0,-0.357698,0.000029,-0.00000
 6\F,0,-0.81452,-0.649193,-1.067563\Cl,0,1.419864,-0.000004,-0.000009\F
 ,0,-0.814483,-0.600015,1.095968\F,0,-0.814497,1.249195,-0.028384\\Vers
 ion=ES64L-G16RevC.01\State=1-A\HF=-795.8721875\RMSD=5.954e-03\Dipole=0
 .2938215,0.0000557,-0.000022\Quadrupole=1.1283118,-0.5642301,-0.564081
 7,-0.0001371,0.0000253,0.0000125\PG=C01 [X(C1Cl1F3)]\\@

 Normal termination of Gaussian 16 at Tue Apr  8 22:42:40 2025.
