 Gaussian 16, Revision C.01,

 ----------------------------------------------------------------------
 #t hf aug-cc-pvdz symm=none int=(grid=ultrafine) guess=(read,tcheck) s
 table=(opt,rrhf)
 ----------------------------------------------------------------------
 -----
 title
 -----
 Symbolic Z-matrix:
 Charge =  0 Multiplicity = 1

 SCF Done:  E(RHF) =  -780.140181740     A.U. after   14 cycles
 Normal termination of Gaussian 16 at Tue Apr  8 23:29:01 2025.
 Gaussian 16:  ES64L-G16RevC.01  3-Jul-2019

 ----------------------------------------------------------------------
 #t hf aug-cc-pvdz iop(5/13=1,5/36=2,99/5=2) pseudo=read geom=check gue
 ss=(read,tcheck) scf=(maxcycle=1)
 ----------------------------------------------------------------------
 -----
 title
 -----
 Structure from the checkpoint file:  "BDE49_nonexpt_1357_mol1.chk"
 Charge =  0 Multiplicity = 1

                         Standard orientation:
 ---------------------------------------------------------------------
 Center     Atomic      Atomic             Coordinates (Angstroms)
 Number     Number       Type             X           Y           Z
 ---------------------------------------------------------------------
      1          9           0        2.679324   -1.123003    0.252085
      2          8           0       -2.458892   -1.831733   -0.193982
      3         15           0        1.903628    0.139827   -0.478386
      4          7           0       -0.432655   -1.032619    0.573439
      5          7           0       -0.512686    1.129172   -0.201755
      6          6           0        0.335919    0.188020    0.547483
      7          6           0       -1.666995   -0.937050   -0.011361
      8          6           0       -1.845324    0.541405   -0.353148
      9          6           0       -0.484405    2.500753    0.284214
     10          1           0       -0.025938   -1.925238    0.810341
     11          1           0       -2.237888    0.651515   -1.366355
     12          1           0       -2.579568    0.971250    0.346782
     13          1           0       -1.006249    3.148850   -0.422554
     14          1           0       -0.958725    2.608974    1.274593
     15          1           0        0.547833    2.849699    0.352317
     16          1           0        1.285302   -0.612060   -1.509382
     17          1           0        0.560260    0.535863    1.568222
 ---------------------------------------------------------------------

 SCF Done:  E(RHF) =  -780.304944195     A.U. after    2 cycles

 The electronic state is 1-A.
 Alpha  occ. eigenvalues --  -81.33246 -26.11960 -20.54966 -15.66721 -15.65538
 Alpha  occ. eigenvalues --  -11.37838 -11.33919 -11.29421 -11.28603  -7.82809
 Alpha  occ. eigenvalues --   -4.96943  -4.96612  -4.96337  -1.63827  -1.36443
 Alpha  occ. eigenvalues --   -1.27972  -1.17324  -1.02095  -0.97150  -0.86053
 Alpha  occ. eigenvalues --   -0.82619  -0.82096  -0.73918  -0.73401  -0.71785
 Alpha  occ. eigenvalues --   -0.71132  -0.66315  -0.64234  -0.63979  -0.62027
 Alpha  occ. eigenvalues --   -0.59440  -0.58755  -0.56490  -0.54488  -0.51343
 Alpha  occ. eigenvalues --   -0.44904  -0.42998  -0.39844  -0.35870
 Alpha virt. eigenvalues --    0.02736   0.03514   0.04202   0.04600   0.06532
 Alpha virt. eigenvalues --    0.06621   0.07455   0.07546   0.08383   0.09086
 Alpha virt. eigenvalues --    0.10804   0.11702   0.12213   0.13039   0.13658

 Mulliken charges:
               1
     1  F   -0.695615
     2  O   -0.503093
     3  P    0.837630
     4  N   -0.483155
     5  N   -0.795263
     6  C    1.067490
     7  C    0.283650
     8  C    0.605923
     9  C    0.659841
    10  H   -0.127706
    11  H   -0.142832
    12  H   -0.034760
    13  H   -0.191555
    14  H   -0.045775
    15  H   -0.207311
    16  H    0.093883
    17  H   -0.321353
 Sum of Mulliken charges =  -0.00000

 Dipole moment (field-independent basis, Debye):
    X=              0.7793    Y=              4.0659    Z=              0.7760  Tot=              4.2120

 Test job not archived.
 1\1\GINC-SE361\SP\RHF\Aug-CC-pVDZ\C4H8F1N2O1P1\OHZDE\08-Apr-2025\0\\#t
  hf aug-cc-pvdz iop(5/13=1,5/36=2,99/5=2) pseudo=read geom=check guess
 =(read,tcheck) scf=(maxcycle=1)\\title\\0,1\F,0,2.679324,-1.123003,0.2
 52085\O,0,-2.458892,-1.831733,-0.193982\P,0,1.903628,0.139827,-0.47838
 6\N,0,-0.432655,-1.032619,0.573439\N,0,-0.512686,1.129172,-0.201755\C,
 0,0.335919,0.18802,0.547483\C,0,-1.666995,-0.93705,-0.011361\C,0,-1.84
 5324,0.541405,-0.353148\C,0,-0.484405,2.500753,0.284214\H,0,-0.025938,
 -1.925238,0.810341\H,0,-2.237888,0.651515,-1.366355\H,0,-2.579568,0.97

 Normal termination of Gaussian 16 at Tue Apr  8 23:29:08 2025.
