 Gaussian 16, Revision C.01,

 ----------------------------------------------------------------------
 #t hf aug-cc-pvdz symm=none int=(grid=ultrafine) guess=(read,tcheck) s
 table=opt
 ----------------------------------------------------------------------
 -----
 title
 -----
 Symbolic Z-matrix:
 Charge =  0 Multiplicity = 2

 SCF Done:  E(UHF) =  -285.439214447     A.U. after   21 cycles
 Normal termination of Gaussian 16 at Tue Apr  8 23:02:10 2025.
 Gaussian 16:  ES64L-G16RevC.01  3-Jul-2019

 ----------------------------------------------------------------------
 #t hf aug-cc-pvdz iop(5/13=1,5/36=2,99/5=2) pseudo=read geom=check gue
 ss=(read,tcheck) scf=(maxcycle=1)
 ----------------------------------------------------------------------
 -----
 title
 -----
 Structure from the checkpoint file:  "BDE49_expt_355_mol2.chk"
 Charge =  0 Multiplicity = 2

                         Standard orientation:
 ---------------------------------------------------------------------
 Center     Atomic      Atomic             Coordinates (Angstroms)
 Number     Number       Type             X           Y           Z
 ---------------------------------------------------------------------
      1          7           0        0.570944    0.051851   -0.056491
      2          6           0        1.186015    1.368217   -0.026050
      3          1           0        2.135630    1.327216   -0.565443
      4          1           0        1.393968    1.712499    0.996210
      5          1           0        0.561883    2.106712   -0.526680
      6          6           0        1.471819   -1.085734    0.050731
      7          1           0        2.203469   -1.070181   -0.763843
      8          1           0        0.881556   -1.996463   -0.007249
      9          1           0        2.015243   -1.069790    1.004009
     10          6           0       -0.792168   -0.176564   -0.021656
     11          8           0       -1.261384   -1.317250   -0.023887
     12          6           0       -1.692533    0.967585    0.038152
     13          1           0       -1.390745    1.982751    0.253550
     14          1           0       -2.745348    0.741274   -0.051081
 ---------------------------------------------------------------------

 SCF Done:  E(UHF) =  -285.530484592     A.U. after    2 cycles

 The electronic state is 2-A.
 Alpha  occ. eigenvalues --  -20.53974 -15.64647 -11.35784 -11.28235 -11.27278
 Alpha  occ. eigenvalues --  -11.26271  -1.34796  -1.20930  -1.02688  -0.96917
 Alpha  occ. eigenvalues --   -0.90951  -0.74152  -0.70408  -0.66486  -0.65740
 Alpha  occ. eigenvalues --   -0.60071  -0.58653  -0.57391  -0.56118  -0.55977
 Alpha  occ. eigenvalues --   -0.53278  -0.45325  -0.41863  -0.37173
 Alpha virt. eigenvalues --    0.02899   0.03898   0.04596   0.04926   0.06669
 Alpha virt. eigenvalues --    0.07344   0.07776   0.08923   0.10175   0.12094
 Alpha virt. eigenvalues --    0.12883   0.13582   0.13918   0.15043   0.15279

  Beta  occ. eigenvalues --  -20.52899 -15.64644 -11.36329 -11.28228 -11.26281
  Beta  occ. eigenvalues --  -11.25005  -1.33015  -1.20439  -0.98350  -0.96013
  Beta  occ. eigenvalues --   -0.88530  -0.73464  -0.69491  -0.65725  -0.65213
  Beta  occ. eigenvalues --   -0.59070  -0.57893  -0.56393  -0.55844  -0.53246
  Beta  occ. eigenvalues --   -0.51972  -0.43874  -0.35531
  Beta virt. eigenvalues --    0.02938   0.03637   0.03943   0.04916   0.05750
  Beta virt. eigenvalues --    0.06688   0.07623   0.07792   0.09065   0.10245
  Beta virt. eigenvalues --    0.12464   0.13206   0.13881   0.14122   0.15309

 Mulliken charges and spin densities:
               1          2
     1  N   -0.434733   0.008767
     2  C    0.765818   0.010632
     3  H   -0.155432  -0.000292
     4  H   -0.088683  -0.002885
     5  H   -0.244509  -0.008541
     6  C    0.645289  -0.004029
     7  H   -0.122952   0.000809
     8  H   -0.224733  -0.001342
     9  H   -0.046662   0.001346
    10  C    0.170216  -0.301105
    11  O   -0.525647   0.238682
    12  C    0.815414   1.241085
    13  H   -0.292330  -0.085047
    14  H   -0.261056  -0.098080
 Sum of Mulliken charges =  -0.00000   1.00000

 Dipole moment (field-independent basis, Debye):
    X=              2.2265    Y=              3.6448    Z=              0.1504  Tot=              4.2737
                          Isotropic Fermi Contact Couplings
        Atom                 a.u.       MegaHertz       Gauss      10(-4) cm-1
     1  N(14)             -0.00274      -0.88516      -0.31585      -0.29526
     2  C(13)              0.00074       0.82839       0.29559       0.27632
     3  H(1)              -0.00010      -0.44476      -0.15870      -0.14836
     4  H(1)              -0.00087      -3.88680      -1.38691      -1.29650
     5  H(1)              -0.00033      -1.48312      -0.52922      -0.49472
     6  C(13)             -0.00205      -2.30190      -0.82137      -0.76783
     7  H(1)               0.00054       2.39783       0.85560       0.79983
     8  H(1)               0.00018       0.81424       0.29054       0.27160

 Normal termination of Gaussian 16 at Tue Apr  8 23:02:14 2025.
