 Gaussian 16, Revision C.01,

 ----------------------------------------------------------------------
 #t hf aug-cc-pvdz symm=none int=(grid=ultrafine) guess=(read,tcheck) s
 table=(opt,rrhf)
 ----------------------------------------------------------------------
 -----
 title
 -----
 Symbolic Z-matrix:
 Charge =  0 Multiplicity = 1

 SCF Done:  E(RHF) =  -1887.56154572     A.U. after   11 cycles
 Normal termination of Gaussian 16 at Tue Apr  8 23:24:57 2025.
 Gaussian 16:  ES64L-G16RevC.01  3-Jul-2019

 ----------------------------------------------------------------------
 #t hf aug-cc-pvdz iop(5/13=1,5/36=2,99/5=2) pseudo=read geom=check gue
 ss=(read,tcheck) scf=(maxcycle=1)
 ----------------------------------------------------------------------
 -----
 title
 -----
 Structure from the checkpoint file:  "BDE49_nonexpt_12_mol1.chk"
 Charge =  0 Multiplicity = 1

                         Standard orientation:
 ---------------------------------------------------------------------
 Center     Atomic      Atomic             Coordinates (Angstroms)
 Number     Number       Type             X           Y           Z
 ---------------------------------------------------------------------
      1          5           0        0.842179   -0.000251    0.000139
      2          5           0       -0.842203   -0.000767   -0.000745
      3         17           0       -1.728544   -1.079846    1.065693
      4         17           0        1.729128   -1.066223   -1.078901
      5         17           0       -1.727994    1.079676   -1.066244
      6         17           0        1.727417    1.066692    1.079631
 ---------------------------------------------------------------------

 SCF Done:  E(RHF) =  -1887.64485191     A.U. after    2 cycles

 The electronic state is 1-A.
 Alpha  occ. eigenvalues -- -103.68781-103.68781-103.68780-103.68780 -10.72272
 Alpha  occ. eigenvalues --  -10.72271 -10.72240 -10.72240  -8.37948  -8.37946
 Alpha  occ. eigenvalues --   -8.37942  -8.37941  -8.37724  -8.37722  -8.37720
 Alpha  occ. eigenvalues --   -8.37720  -8.37687  -8.37687  -8.37685  -8.37683
 Alpha  occ. eigenvalues --   -7.74354  -7.74285  -1.20463  -1.19309  -1.16326
 Alpha  occ. eigenvalues --   -1.16326  -0.75941  -0.68172  -0.61210  -0.60510
 Alpha  occ. eigenvalues --   -0.60508  -0.54014  -0.54013  -0.52707  -0.50028
 Alpha  occ. eigenvalues --   -0.49272  -0.48665  -0.48664  -0.44480
 Alpha virt. eigenvalues --    0.04391   0.04707   0.04789   0.04793   0.06160
 Alpha virt. eigenvalues --    0.06162   0.07426   0.07586   0.07586   0.11316
 Alpha virt. eigenvalues --    0.12789   0.13806   0.13885   0.15897   0.15898

 Mulliken charges:
               1
     1  B    0.634384
     2  B    0.634387
     3  Cl  -0.317193
     4  Cl  -0.317195
     5  Cl  -0.317184
     6  Cl  -0.317199
 Sum of Mulliken charges =  -0.00000

 Dipole moment (field-independent basis, Debye):
    X=             -0.0001    Y=             -0.0014    Z=             -0.0009  Tot=              0.0017

 Test job not archived.
 1\1\GINC-SE403\SP\RHF\Aug-CC-pVDZ\B2Cl4\OHZDE\08-Apr-2025\0\\#t hf aug
 -cc-pvdz iop(5/13=1,5/36=2,99/5=2) pseudo=read geom=check guess=(read,
 tcheck) scf=(maxcycle=1)\\title\\0,1\B,0,0.842179,-0.000251,0.000139\B
 ,0,-0.842203,-0.000767,-0.000745\Cl,0,-1.728544,-1.079846,1.065693\Cl,
 0,1.729128,-1.066223,-1.078901\Cl,0,-1.727994,1.079676,-1.066244\Cl,0,
 1.727417,1.066692,1.079631\\Version=ES64L-G16RevC.01\State=1-A\HF=-188
 7.6448519\RMSD=2.979e-03\Dipole=-0.000039,-0.0005599,-0.0003482\Quadru
 pole=-1.5796553,0.7891365,0.7905187,0.000551,0.0009277,-0.0000654\PG=C

 Normal termination of Gaussian 16 at Tue Apr  8 23:24:59 2025.
