 Gaussian 16, Revision C.01,

 ----------------------------------------------------------------------
 #t hf aug-cc-pvdz symm=none int=(grid=ultrafine) guess=(read,tcheck) s
 table=(opt,rrhf)
 ----------------------------------------------------------------------
 -----
 title
 -----
 Symbolic Z-matrix:
 Charge =  0 Multiplicity = 1

 SCF Done:  E(RHF) =  -573.191146768     A.U. after   14 cycles
 Normal termination of Gaussian 16 at Wed Apr  9 00:20:36 2025.
 Gaussian 16:  ES64L-G16RevC.01  3-Jul-2019

 ----------------------------------------------------------------------
 #t hf aug-cc-pvdz iop(5/13=1,5/36=2,99/5=2) pseudo=read geom=check gue
 ss=(read,tcheck) scf=(maxcycle=1)
 ----------------------------------------------------------------------
 -----
 title
 -----
 Structure from the checkpoint file:  "BDE49_nonexpt_2653_mol1.chk"
 Charge =  0 Multiplicity = 1

                         Standard orientation:
 ---------------------------------------------------------------------
 Center     Atomic      Atomic             Coordinates (Angstroms)
 Number     Number       Type             X           Y           Z
 ---------------------------------------------------------------------
      1          9           0        1.444759    0.831754   -0.000001
      2         16           0        0.570429   -0.597950   -0.000004
      3          6           0       -0.995752   -0.038371    0.000003
      4          6           0       -2.161662    0.289200    0.000007
      5          1           0       -3.185217    0.576439    0.000011
 ---------------------------------------------------------------------

 SCF Done:  E(RHF) =  -573.276848954     A.U. after    2 cycles

 The electronic state is 1-A.
 Alpha  occ. eigenvalues --  -93.66242 -26.14135 -11.29650 -11.28963  -8.94941
 Alpha  occ. eigenvalues --   -6.29147  -6.28833  -6.28325  -1.65058  -1.09786
 Alpha  occ. eigenvalues --   -0.99358  -0.78602  -0.74412  -0.74241  -0.72511
 Alpha  occ. eigenvalues --   -0.57180  -0.50478  -0.44908  -0.36995
 Alpha virt. eigenvalues --    0.03100   0.03320   0.06704   0.09218   0.09224
 Alpha virt. eigenvalues --    0.09555   0.13300   0.14881   0.15617   0.15679
 Alpha virt. eigenvalues --    0.16132   0.17553   0.21574   0.23193   0.23592

 Mulliken charges:
               1
     1  F   -0.589522
     2  S    0.778214
     3  C   -0.211996
     4  C    0.359303
     5  H   -0.335999
 Sum of Mulliken charges =  -0.00000

 Dipole moment (field-independent basis, Debye):
    X=             -2.4385    Y=             -1.1146    Z=              0.0000  Tot=              2.6812

 Test job not archived.
 1\1\GINC-SE132\SP\RHF\Aug-CC-pVDZ\C2H1F1S1\OHZDE\09-Apr-2025\0\\#t hf
 aug-cc-pvdz iop(5/13=1,5/36=2,99/5=2) pseudo=read geom=check guess=(re
 ad,tcheck) scf=(maxcycle=1)\\title\\0,1\F,0,1.444759,0.831754,-0.00000
 1\S,0,0.570429,-0.59795,-0.000004\C,0,-0.995752,-0.038371,0.000003\C,0
 ,-2.161662,0.2892,0.000007\H,0,-3.185217,0.576439,0.000011\\Version=ES
 64L-G16RevC.01\State=1-A\HF=-573.276849\RMSD=1.043e-02\Dipole=-0.95939
 27,-0.4385022,0.000001\Quadrupole=3.5399219,-1.1350005,-2.4049214,-2.6
 207517,-0.0000265,0.0000124\PG=C01 [X(C2H1F1S1)]\\@

 Normal termination of Gaussian 16 at Wed Apr  9 00:20:37 2025.
