 Gaussian 16, Revision C.01,

 ----------------------------------------------------------------------
 #t hf aug-cc-pvdz symm=none int=(grid=ultrafine) guess=(read,tcheck) s
 table=(opt,rrhf)
 ----------------------------------------------------------------------
 -----
 title
 -----
 Symbolic Z-matrix:
 Charge =  0 Multiplicity = 1

 SCF Done:  E(RHF) =  -530.608652643     A.U. after   13 cycles
 Normal termination of Gaussian 16 at Wed Apr  9 00:51:59 2025.
 Gaussian 16:  ES64L-G16RevC.01  3-Jul-2019

 ----------------------------------------------------------------------
 #t hf aug-cc-pvdz iop(5/13=1,5/36=2,99/5=2) pseudo=read geom=check gue
 ss=(read,tcheck) scf=(maxcycle=1)
 ----------------------------------------------------------------------
 -----
 title
 -----
 Structure from the checkpoint file:  "BDE49_nonexpt_990_mol1.chk"
 Charge =  0 Multiplicity = 1

                         Standard orientation:
 ---------------------------------------------------------------------
 Center     Atomic      Atomic             Coordinates (Angstroms)
 Number     Number       Type             X           Y           Z
 ---------------------------------------------------------------------
      1         16           0        1.659353    0.146084    0.000000
      2          7           0        0.000000    0.482857    0.000000
      3          6           0       -0.889696   -0.424312    0.000000
      4          6           0       -2.347406   -0.077638    0.000000
      5          1           0       -0.633212   -1.493266    0.000000
      6          1           0       -2.478477    1.004280    0.000000
      7          1           0       -2.842851   -0.501129    0.880689
      8          1           0       -2.842851   -0.501129   -0.880689
      9          1           0        1.670351   -1.214394    0.000000
 ---------------------------------------------------------------------

 SCF Done:  E(RHF) =  -530.673134901     A.U. after    2 cycles

 The electronic state is 1-A'.
 Alpha  occ. eigenvalues --  -93.56721 -15.65919 -11.30827 -11.24885  -8.86173
 Alpha  occ. eigenvalues --   -6.20407  -6.20064  -6.19686  -1.21584  -1.02068
 Alpha  occ. eigenvalues --   -0.92232  -0.77845  -0.66682  -0.61399  -0.59512
 Alpha  occ. eigenvalues --   -0.55325  -0.49533  -0.47749  -0.42217  -0.33885
 Alpha virt. eigenvalues --    0.03215   0.04238   0.05499   0.05776   0.07577
 Alpha virt. eigenvalues --    0.09587   0.09783   0.11128   0.12432   0.13841
 Alpha virt. eigenvalues --    0.15058   0.15298   0.16204   0.16887   0.17268

 Mulliken charges:
               1
     1  S    0.468397
     2  N   -0.770249
     3  C    0.505886
     4  C    0.079298
     5  H   -0.313627
     6  H   -0.065608
     7  H    0.028943
     8  H    0.028943
     9  H    0.038017
 Sum of Mulliken charges =  -0.00000

 Dipole moment (field-independent basis, Debye):
    X=             -1.7434    Y=             -2.3622    Z=             -0.0000  Tot=              2.9358

 Test job not archived.
 1\1\GINC-SE083\SP\RHF\Aug-CC-pVDZ\C2H5N1S1\OHZDE\09-Apr-2025\0\\#t hf
 aug-cc-pvdz iop(5/13=1,5/36=2,99/5=2) pseudo=read geom=check guess=(re
 ad,tcheck) scf=(maxcycle=1)\\title\\0,1\S,0,1.659353,0.146083,0.\N,0,0
 .,0.482857,0.\C,0,-0.889696,-0.424312,0.\C,0,-2.347406,-0.077637,0.\H,
 0,-0.633213,-1.493266,0.\H,0,-2.478477,1.004281,0.\H,0,-2.842851,-0.50
 1128,0.880689\H,0,-2.842851,-0.501128,-0.880689\H,0,1.670351,-1.214395
 ,0.\\Version=ES64L-G16RevC.01\State=1-A'\HF=-530.6731349\RMSD=4.682e-0
 3\Dipole=-0.6858987,-0.9293445,0.\Quadrupole=1.3771939,0.4403411,-1.81

 Normal termination of Gaussian 16 at Wed Apr  9 00:52:03 2025.
