 Gaussian 16, Revision C.01,

 ----------------------------------------------------------------------
 #t hf aug-cc-pvdz symm=none int=(grid=ultrafine) guess=(read,tcheck) s
 table=opt
 ----------------------------------------------------------------------
 -----
 title
 -----
 Symbolic Z-matrix:
 Charge =  0 Multiplicity = 2

 SCF Done:  E(UHF) =  -406.557484358     A.U. after   15 cycles

 1\1\GINC-SE364\Stability\UHF\Aug-CC-pVDZ\C3H7Si1\OHZDE\08-Apr-2025\0\\
 #t hf aug-cc-pvdz symm=none int=(grid=ultrafine) guess=(read,tcheck) s
 table=opt\\title\\0,2\Si,0,0.321183,1.065768,0.\C,0,-0.140179,-0.32662
 5,1.220559\C,0,-0.140179,-0.326625,-1.220559\C,0,-0.140179,-1.306381,0
 .\H,0,0.532558,-0.598463,-2.033785\H,0,-1.139391,-0.175594,-1.640845\H
 ,0,0.771925,-1.90754,0.\H,0,-0.988861,-1.996107,0.\H,0,-1.139391,-0.17
 5594,1.640845\H,0,0.532558,-0.598463,2.033785\H,0,-0.542738,2.288791,0
 .\\Version=ES64L-G16RevC.01\HF=-406.5574844\S2=0.75401\S2-1=0.\S2A=0.7

 Normal termination of Gaussian 16 at Tue Apr  8 23:40:16 2025.
 Gaussian 16:  ES64L-G16RevC.01  3-Jul-2019

 ----------------------------------------------------------------------
 #t hf aug-cc-pvdz iop(5/13=1,5/36=2,99/5=2) pseudo=read geom=check gue
 ss=(read,tcheck) scf=(maxcycle=1)
 ----------------------------------------------------------------------
 -----
 title
 -----
 Structure from the checkpoint file:  "BDE49_nonexpt_1656_mol2.chk"
 Charge =  0 Multiplicity = 2

                         Standard orientation:
 ---------------------------------------------------------------------
 Center     Atomic      Atomic             Coordinates (Angstroms)
 Number     Number       Type             X           Y           Z
 ---------------------------------------------------------------------
      1         14           0        0.321183    1.065768   -0.000000
      2          6           0       -0.140179   -0.326625    1.220559
      3          6           0       -0.140179   -0.326625   -1.220559
      4          6           0       -0.140179   -1.306381    0.000000
      5          1           0        0.532558   -0.598463   -2.033785
      6          1           0       -1.139391   -0.175594   -1.640845
      7          1           0        0.771925   -1.907540    0.000000
      8          1           0       -0.988861   -1.996107    0.000000
      9          1           0       -1.139391   -0.175594    1.640845
     10          1           0        0.532558   -0.598463    2.033785
     11          1           0       -0.542738    2.288791   -0.000000
 ---------------------------------------------------------------------

 SCF Done:  E(UHF) =  -406.614669583     A.U. after    2 cycles

 The electronic state is 2-A'.
 Alpha  occ. eigenvalues --  -69.06402 -11.24099 -11.21870 -11.21869  -6.81680
 Alpha  occ. eigenvalues --   -3.92992  -3.92130  -3.92031  -1.05454  -0.89592
 Alpha  occ. eigenvalues --   -0.80452  -0.66368  -0.63127  -0.58293  -0.54778
 Alpha  occ. eigenvalues --   -0.48525  -0.48253  -0.41691  -0.41540  -0.30945
 Alpha virt. eigenvalues --    0.03447   0.04513   0.04824   0.04845   0.06802
 Alpha virt. eigenvalues --    0.06984   0.07311   0.07431   0.08300   0.10541
 Alpha virt. eigenvalues --    0.13192   0.13240   0.15195   0.15256   0.15856

  Beta  occ. eigenvalues --  -69.05868 -11.24109 -11.21758 -11.21758  -6.80879
  Beta  occ. eigenvalues --   -3.91795  -3.91675  -3.90884  -1.05052  -0.89127
  Beta  occ. eigenvalues --   -0.79755  -0.64377  -0.62759  -0.55917  -0.54370
  Beta  occ. eigenvalues --   -0.47954  -0.47879  -0.40574  -0.39826
  Beta virt. eigenvalues --    0.03017   0.04263   0.04652   0.04878   0.06112
  Beta virt. eigenvalues --    0.06977   0.06992   0.07542   0.07552   0.09186
  Beta virt. eigenvalues --    0.11096   0.13533   0.13719   0.15235   0.15268

 Mulliken charges and spin densities:
               1          2
     1  Si   0.357420   0.924418
     2  C    0.349673  -0.014782
     3  C    0.349673  -0.014782
     4  C    0.073709   0.043128
     5  H   -0.215688   0.001686
     6  H   -0.251022  -0.000590
     7  H   -0.137317   0.000916
     8  H   -0.125978   0.002043
     9  H   -0.251022  -0.000590
    10  H   -0.215688   0.001686
    11  H    0.066240   0.056868
 Sum of Mulliken charges =   0.00000   1.00000

 Dipole moment (field-independent basis, Debye):
    X=             -0.1316    Y=             -0.4575    Z=              0.0000  Tot=              0.4761
                          Isotropic Fermi Contact Couplings
        Atom                 a.u.       MegaHertz       Gauss      10(-4) cm-1
     1  Si(29)             0.49507    -439.97932    -156.99556    -146.76130
     2  C(13)              0.01181      13.27681       4.73750       4.42867
     3  C(13)              0.01181      13.27681       4.73750       4.42867
     4  C(13)             -0.00374      -4.20355      -1.49993      -1.40215
     5  H(1)               0.00149       6.65395       2.37430       2.21952
     6  H(1)               0.00454      20.30954       7.24695       6.77453
     7  H(1)               0.00014       0.61273       0.21864       0.20439
     8  H(1)               0.00115       5.15831       1.84061       1.72063

 Normal termination of Gaussian 16 at Tue Apr  8 23:40:20 2025.
