 Gaussian 16, Revision C.01,

 ----------------------------------------------------------------------
 #t hf aug-cc-pvdz symm=none int=(grid=ultrafine) guess=(read,tcheck) s
 table=opt
 ----------------------------------------------------------------------
 -----
 title
 -----
 Symbolic Z-matrix:
 Charge =  0 Multiplicity = 2

 SCF Done:  E(UHF) =  -407.772720872     A.U. after   14 cycles

 1\1\GINC-SE036\Stability\UHF\Aug-CC-pVDZ\C3H9Si1\OHZDE\08-Apr-2025\0\\
 #t hf aug-cc-pvdz symm=none int=(grid=ultrafine) guess=(read,tcheck) s
 table=opt\\title\\0,2\Si,0,0.000007,0.000004,-0.426733\C,0,1.297362,1.
 235158,0.177601\H,0,2.297278,0.96723,-0.174047\H,0,1.323537,1.259676,1
 .274707\H,0,1.078494,2.247105,-0.173601\C,0,0.421002,-1.74113,0.177474
 \H,0,1.406758,-2.057582,-0.17384\H,0,-0.311056,-2.473073,-0.174129\H,0
 ,0.429263,-1.776052,1.274576\C,0,-1.718381,0.505964,0.177339\H,0,-2.48
 5279,-0.189496,-0.174059\H,0,-1.986199,1.505925,-0.174266\H,0,-1.75279

 Normal termination of Gaussian 16 at Tue Apr  8 22:44:44 2025.
 Gaussian 16:  ES64L-G16RevC.01  3-Jul-2019

 ----------------------------------------------------------------------
 #t hf aug-cc-pvdz iop(5/13=1,5/36=2,99/5=2) pseudo=read geom=check gue
 ss=(read,tcheck) scf=(maxcycle=1)
 ----------------------------------------------------------------------
 -----
 title
 -----
 Structure from the checkpoint file:  "BDE49_expt_1539_mol2.chk"
 Charge =  0 Multiplicity = 2

                         Standard orientation:
 ---------------------------------------------------------------------
 Center     Atomic      Atomic             Coordinates (Angstroms)
 Number     Number       Type             X           Y           Z
 ---------------------------------------------------------------------
      1         14           0       -0.000007   -0.000004   -0.426733
      2          6           0       -1.301555   -1.230739    0.177601
      3          1           0       -2.300554   -0.959411   -0.174047
      4          1           0       -1.327814   -1.255167    1.274707
      5          1           0       -1.086130   -2.243424   -0.173601
      6          6           0       -0.415078    1.742552    0.177474
      7          1           0       -1.399752    2.062354   -0.173840
      8          1           0        0.319465    2.472001   -0.174129
      9          1           0       -0.423220    1.777501    1.274576
     10          6           0        1.716650   -0.511806    0.177339
     11          1           0        2.485909    0.181042   -0.174059
     12          1           0        1.981066   -1.512672   -0.174266
     13          1           0        1.751027   -0.522209    1.274438
 ---------------------------------------------------------------------

 SCF Done:  E(UHF) =  -407.836527358     A.U. after    2 cycles

 The electronic state is 2-A.
 Alpha  occ. eigenvalues --  -69.05289 -11.21306 -11.21301 -11.21301  -6.80551
 Alpha  occ. eigenvalues --   -3.91881  -3.91024  -3.91024  -0.96041  -0.91975
 Alpha  occ. eigenvalues --   -0.91975  -0.62299  -0.57393  -0.56442  -0.56442
 Alpha  occ. eigenvalues --   -0.54575  -0.54574  -0.53409  -0.43495  -0.43494
 Alpha  occ. eigenvalues --   -0.29449
 Alpha virt. eigenvalues --    0.03340   0.04762   0.04762   0.05096   0.06932
 Alpha virt. eigenvalues --    0.06932   0.07374   0.07374   0.07523   0.09120
 Alpha virt. eigenvalues --    0.10202   0.10202   0.13900   0.15313   0.16859

  Beta  occ. eigenvalues --  -69.04759 -11.21232 -11.21226 -11.21226  -6.79753
  Beta  occ. eigenvalues --   -3.90669  -3.90669  -3.89819  -0.95228  -0.91641
  Beta  occ. eigenvalues --   -0.91640  -0.59067  -0.56259  -0.56259  -0.55874
  Beta  occ. eigenvalues --   -0.54007  -0.54006  -0.53313  -0.42651  -0.42651
  Beta virt. eigenvalues --    0.02747   0.04818   0.04818   0.05121   0.06946
  Beta virt. eigenvalues --    0.06948   0.06948   0.07411   0.07411   0.09122
  Beta virt. eigenvalues --    0.09380   0.10442   0.10442   0.14366   0.16225

 Mulliken charges and spin densities:
               1          2
     1  Si   1.364277   0.977027
     2  C    0.263483   0.010451
     3  H   -0.264768  -0.009004
     4  H   -0.188726   0.015191
     5  H   -0.264784  -0.008985
     6  C    0.263484   0.010454
     7  H   -0.264775  -0.008990
     8  H   -0.264761  -0.009000
     9  H   -0.188708   0.015191
    10  C    0.263479   0.010465
    11  H   -0.264760  -0.008990
    12  H   -0.264737  -0.009002
    13  H   -0.188705   0.015191
 Sum of Mulliken charges =   0.00000   1.00000

 Dipole moment (field-independent basis, Debye):
    X=              0.0002    Y=              0.0000    Z=              0.5619  Tot=              0.5619
                          Isotropic Fermi Contact Couplings
        Atom                 a.u.       MegaHertz       Gauss      10(-4) cm-1
     1  Si(29)             0.50471    -448.55163    -160.05438    -149.62072
     2  C(13)              0.01992      22.39521       7.99117       7.47024
     3  H(1)               0.00007       0.31190       0.11129       0.10404
     4  H(1)               0.00862      38.53533      13.75036      12.85400
     5  H(1)               0.00007       0.30173       0.10767       0.10065
     6  C(13)              0.01992      22.39580       7.99138       7.47043
     7  H(1)               0.00007       0.30527       0.10893       0.10183
     8  H(1)               0.00007       0.30832       0.11002       0.10284

 Normal termination of Gaussian 16 at Tue Apr  8 22:44:50 2025.
