 Gaussian 16, Revision C.01,

 ----------------------------------------------------------------------
 #t hf aug-cc-pvdz symm=none int=(grid=ultrafine) guess=(read,tcheck) s
 table=(opt,rrhf)
 ----------------------------------------------------------------------
 -----
 title
 -----
 Symbolic Z-matrix:
 Charge =  0 Multiplicity = 1

 SCF Done:  E(RHF) =  -993.727026067     A.U. after   13 cycles
 Normal termination of Gaussian 16 at Tue Apr  8 22:55:33 2025.
 Gaussian 16:  ES64L-G16RevC.01  3-Jul-2019

 ----------------------------------------------------------------------
 #t hf aug-cc-pvdz iop(5/13=1,5/36=2,99/5=2) pseudo=read geom=check gue
 ss=(read,tcheck) scf=(maxcycle=1)
 ----------------------------------------------------------------------
 -----
 title
 -----
 Structure from the checkpoint file:  "BDE49_expt_1922_mol1.chk"
 Charge =  0 Multiplicity = 1

                         Standard orientation:
 ---------------------------------------------------------------------
 Center     Atomic      Atomic             Coordinates (Angstroms)
 Number     Number       Type             X           Y           Z
 ---------------------------------------------------------------------
      1          8           0        0.000000   -0.000000    0.782964
      2         17           0        0.000000    1.443627   -0.184227
      3         17           0       -0.000000   -1.443627   -0.184227
 ---------------------------------------------------------------------

 SCF Done:  E(RHF) =  -993.789608016     A.U. after    2 cycles

 The electronic state is 1-A1.
 Alpha  occ. eigenvalues -- -103.74340-103.74340 -20.72608 -10.77028 -10.77010
 Alpha  occ. eigenvalues --   -8.42781  -8.42769  -8.42331  -8.42328  -8.42302
 Alpha  occ. eigenvalues --   -8.42300  -1.40841  -1.18045  -1.06851  -0.68450
 Alpha  occ. eigenvalues --   -0.68082  -0.65988  -0.51892  -0.50597  -0.49712
 Alpha  occ. eigenvalues --   -0.47177
 Alpha virt. eigenvalues --   -0.00291   0.06001   0.11728   0.12430   0.12548
 Alpha virt. eigenvalues --    0.12685   0.15570   0.15741   0.16020   0.24283
 Alpha virt. eigenvalues --    0.25050   0.26143   0.31873   0.37753   0.39338

 Mulliken charges:
               1
     1  O   -0.689081
     2  Cl   0.344541
     3  Cl   0.344541
 Sum of Mulliken charges =   0.00000

 Dipole moment (field-independent basis, Debye):
    X=             -0.0000    Y=              0.0000    Z=             -0.8857  Tot=              0.8857

 Test job not archived.
 1\1\GINC-SE454\SP\RHF\Aug-CC-pVDZ\Cl2O1\OHZDE\08-Apr-2025\0\\#t hf aug
 -cc-pvdz iop(5/13=1,5/36=2,99/5=2) pseudo=read geom=check guess=(read,
 tcheck) scf=(maxcycle=1)\\title\\0,1\O,0,0.,0.,0.782964\Cl,0,0.,1.4436
 27,-0.184227\Cl,0,0.,-1.443627,-0.184227\\Version=ES64L-G16RevC.01\Sta
 te=1-A1\HF=-993.789608\RMSD=2.564e-03\Dipole=0.,0.,-0.3484443\Quadrupo
 le=-1.3805566,2.3237331,-0.9431764,0.,0.,0.\PG=C02V [C2(O1),SGV(Cl2)]\
 \@

 Normal termination of Gaussian 16 at Tue Apr  8 22:55:34 2025.
