 Gaussian 16, Revision C.01,

 ----------------------------------------------------------------------
 #t hf aug-cc-pvdz symm=none int=(grid=ultrafine) guess=(read,tcheck) s
 table=(opt,rrhf)
 ----------------------------------------------------------------------
 -----
 title
 -----
 Symbolic Z-matrix:
 Charge =  0 Multiplicity = 1

 SCF Done:  E(RHF) =  -629.597941304     A.U. after   14 cycles
 Normal termination of Gaussian 16 at Tue Apr  8 23:49:32 2025.
 Gaussian 16:  ES64L-G16RevC.01  3-Jul-2019

 ----------------------------------------------------------------------
 #t hf aug-cc-pvdz iop(5/13=1,5/36=2,99/5=2) pseudo=read geom=check gue
 ss=(read,tcheck) scf=(maxcycle=1)
 ----------------------------------------------------------------------
 -----
 title
 -----
 Structure from the checkpoint file:  "BDE49_nonexpt_1886_mol1.chk"
 Charge =  0 Multiplicity = 1

                         Standard orientation:
 ---------------------------------------------------------------------
 Center     Atomic      Atomic             Coordinates (Angstroms)
 Number     Number       Type             X           Y           Z
 ---------------------------------------------------------------------
      1         14           0       -0.895491   -0.972047   -0.135866
      2          6           0        0.860774   -0.979561    0.591218
      3          8           0       -1.324495    0.585691   -0.595357
      4          1           0       -1.824463   -1.552728    0.857472
      5          1           0       -0.936544   -1.707171   -1.417879
      6          8           0       -1.202285    1.384627    0.632008
      7          1           0       -0.266518    1.648929    0.555762
      8          8           0        1.833596   -0.302016   -0.221110
      9          8           0        1.546353    1.129700   -0.161829
     10          1           0        1.431604    1.320011   -1.104004
     11          1           0        1.240005   -2.008094    0.615530
     12          1           0        0.902796   -0.598952    1.618228
 ---------------------------------------------------------------------

 SCF Done:  E(RHF) =  -629.736863285     A.U. after    2 cycles

 The electronic state is 1-A.
 Alpha  occ. eigenvalues --  -69.10769 -20.66252 -20.66050 -20.64617 -20.62787
 Alpha  occ. eigenvalues --  -11.29949  -6.85643  -3.96549  -3.96412  -3.96382
 Alpha  occ. eigenvalues --   -1.44133  -1.41196  -1.22595  -1.17823  -0.93091
 Alpha  occ. eigenvalues --   -0.75967  -0.74968  -0.72939  -0.68607  -0.66574
 Alpha  occ. eigenvalues --   -0.64244  -0.62330  -0.58336  -0.55378  -0.53396
 Alpha  occ. eigenvalues --   -0.52871  -0.50427  -0.48460  -0.44138
 Alpha virt. eigenvalues --    0.03231   0.04504   0.05024   0.05331   0.06631
 Alpha virt. eigenvalues --    0.07498   0.07852   0.08193   0.10330   0.10981
 Alpha virt. eigenvalues --    0.14139   0.14814   0.15510   0.15710   0.16630

 Mulliken charges:
               1
     1  Si   1.023962
     2  C    0.614014
     3  O   -0.703610
     4  H    0.013825
     5  H    0.070253
     6  O   -0.280288
     7  H    0.287605
     8  O   -0.458170
     9  O   -0.330329
    10  H    0.249030
    11  H   -0.296528
    12  H   -0.189764
 Sum of Mulliken charges =  -0.00000

 Dipole moment (field-independent basis, Debye):
    X=              1.0092    Y=             -1.5937    Z=             -0.0002  Tot=              1.8864

 Test job not archived.
 1\1\GINC-SE457\SP\RHF\Aug-CC-pVDZ\C1H6O4Si1\OHZDE\08-Apr-2025\0\\#t hf
  aug-cc-pvdz iop(5/13=1,5/36=2,99/5=2) pseudo=read geom=check guess=(r
 ead,tcheck) scf=(maxcycle=1)\\title\\0,1\Si,0,-0.895491,-0.972047,-0.1
 35866\C,0,0.860774,-0.979561,0.591218\O,0,-1.324495,0.585691,-0.595357
 \H,0,-1.824463,-1.552729,0.857472\H,0,-0.936544,-1.707171,-1.417879\O,
 0,-1.202286,1.384627,0.632008\H,0,-0.266519,1.648929,0.555762\O,0,1.83
 3596,-0.302015,-0.22111\O,0,1.546353,1.129701,-0.161829\H,0,1.431603,1
 .320012,-1.104004\H,0,1.240006,-2.008094,0.61553\H,0,0.902796,-0.59895

 Normal termination of Gaussian 16 at Tue Apr  8 23:49:37 2025.
