 Gaussian 16, Revision C.01,

 ----------------------------------------------------------------------
 #t hf aug-cc-pvdz symm=none int=(grid=ultrafine) guess=(read,tcheck) s
 table=(opt,rrhf)
 ----------------------------------------------------------------------
 -----
 title
 -----
 Symbolic Z-matrix:
 Charge =  0 Multiplicity = 1

 SCF Done:  E(RHF) =  -1086.01207453     A.U. after   15 cycles
 Normal termination of Gaussian 16 at Tue Apr  8 23:32:58 2025.
 Gaussian 16:  ES64L-G16RevC.01  3-Jul-2019

 ----------------------------------------------------------------------
 #t hf aug-cc-pvdz iop(5/13=1,5/36=2,99/5=2) pseudo=read geom=check gue
 ss=(read,tcheck) scf=(maxcycle=1)
 ----------------------------------------------------------------------
 -----
 title
 -----
 Structure from the checkpoint file:  "BDE49_nonexpt_1459_mol1.chk"
 Charge =  0 Multiplicity = 1

                         Standard orientation:
 ---------------------------------------------------------------------
 Center     Atomic      Atomic             Coordinates (Angstroms)
 Number     Number       Type             X           Y           Z
 ---------------------------------------------------------------------
      1          6           0       -0.985861   -1.156722   -0.130286
      2          6           0        0.399006   -1.007174   -0.168787
      3          6           0       -1.787061   -0.028650   -0.001588
      4          6           0       -1.227136    1.242624    0.090573
      5          6           0        0.156447    1.375881    0.053314
      6          6           0        0.988793    0.256179   -0.070982
      7          1           0        1.031557   -1.881665   -0.265586
      8          1           0       -1.438300   -2.137840   -0.199575
      9          1           0       -1.865781    2.110528    0.193769
     10          1           0        0.586652    2.369859    0.131546
     11         15           0        2.810203    0.485359   -0.245649
     12          7           0        3.402848   -1.011242    0.320317
     13          1           0        4.284525   -1.301186   -0.074228
     14          1           0        3.318096   -1.260593    1.296654
     15         17           0       -3.535032   -0.207564    0.049151
     16          1           0        2.940690    1.334977    0.890916
 ---------------------------------------------------------------------

 SCF Done:  E(RHF) =  -1086.14111083     A.U. after    2 cycles

 The electronic state is 1-A.
 Alpha  occ. eigenvalues -- -103.66526 -81.28620 -15.62794 -11.31340 -11.26237
 Alpha  occ. eigenvalues --  -11.26123 -11.26079 -11.25852 -11.25686 -10.69794
 Alpha  occ. eigenvalues --   -8.35529  -8.35227  -8.35209  -7.78578  -4.92731
 Alpha  occ. eigenvalues --   -4.92578  -4.92230  -1.19718  -1.13919  -1.12538
 Alpha  occ. eigenvalues --   -1.02761  -1.00551  -0.85092  -0.83692  -0.77248
 Alpha  occ. eigenvalues --   -0.68951  -0.67695  -0.66187  -0.64531  -0.60923
 Alpha  occ. eigenvalues --   -0.57911  -0.56840  -0.55034  -0.51959  -0.50057
 Alpha  occ. eigenvalues --   -0.47916  -0.46666  -0.41544  -0.38268  -0.35634
 Alpha  occ. eigenvalues --   -0.31476
 Alpha virt. eigenvalues --    0.03045   0.03839   0.04455   0.05193   0.05690
 Alpha virt. eigenvalues --    0.06378   0.07726   0.08423   0.09082   0.09553
 Alpha virt. eigenvalues --    0.10078   0.10860   0.11520   0.12684   0.13441

 Mulliken charges:
               1
     1  C    0.587294
     2  C    0.782992
     3  C   -0.325393
     4  C    0.652393
     5  C    0.829030
     6  C   -0.252597
     7  H   -0.594223
     8  H   -0.444038
     9  H   -0.448730
    10  H   -0.589311
    11  P    0.561583
    12  N   -0.432406
    13  H    0.001881
    14  H   -0.038655
    15  Cl  -0.351187
    16  H    0.061367
 Sum of Mulliken charges =   0.00000

 Dipole moment (field-independent basis, Debye):
    X=              2.7049    Y=             -0.4611    Z=              1.2542  Tot=              3.0170

 Test job not archived.
 1\1\GINC-SE364\SP\RHF\Aug-CC-pVDZ\C6H7Cl1N1P1\OHZDE\08-Apr-2025\0\\#t
 hf aug-cc-pvdz iop(5/13=1,5/36=2,99/5=2) pseudo=read geom=check guess=
 (read,tcheck) scf=(maxcycle=1)\\title\\0,1\C,0,-0.985861,-1.156722,-0.
 130286\C,0,0.399006,-1.007174,-0.168787\C,0,-1.787061,-0.02865,-0.0015
 88\C,0,-1.227136,1.242624,0.090573\C,0,0.156447,1.375881,0.053314\C,0,
 0.988793,0.256179,-0.070982\H,0,1.031557,-1.881665,-0.265586\H,0,-1.43
 83,-2.13784,-0.199575\H,0,-1.865781,2.110528,0.193769\H,0,0.586652,2.3
 69859,0.131546\P,0,2.810203,0.485359,-0.245649\N,0,3.402848,-1.011242,

 Normal termination of Gaussian 16 at Tue Apr  8 23:33:06 2025.
