 Gaussian 16, Revision C.01,

 ----------------------------------------------------------------------
 #t hf aug-cc-pvdz symm=none int=(grid=ultrafine) guess=(read,tcheck) s
 table=(opt,rrhf)
 ----------------------------------------------------------------------
 -----
 title
 -----
 Symbolic Z-matrix:
 Charge =  0 Multiplicity = 1

 SCF Done:  E(RHF) =  -634.764539547     A.U. after   15 cycles
 Normal termination of Gaussian 16 at Wed Apr  9 00:03:12 2025.
 Gaussian 16:  ES64L-G16RevC.01  3-Jul-2019

 ----------------------------------------------------------------------
 #t hf aug-cc-pvdz iop(5/13=1,5/36=2,99/5=2) pseudo=read geom=check gue
 ss=(read,tcheck) scf=(maxcycle=1)
 ----------------------------------------------------------------------
 -----
 title
 -----
 Structure from the checkpoint file:  "BDE49_nonexpt_2194_mol1.chk"
 Charge =  0 Multiplicity = 1

                         Standard orientation:
 ---------------------------------------------------------------------
 Center     Atomic      Atomic             Coordinates (Angstroms)
 Number     Number       Type             X           Y           Z
 ---------------------------------------------------------------------
      1          6           0       -2.592794   -0.893654    0.000029
      2          6           0       -2.302787    0.470507    0.000050
      3          6           0       -0.990506    0.942932    0.000009
      4          6           0       -1.552099   -1.815211   -0.000010
      5          6           0       -0.230728   -1.372059   -0.000053
      6          6           0        0.045959   -0.005531   -0.000057
      7          1           0       -1.759385   -2.879211   -0.000013
      8          1           0        0.581269   -2.091419   -0.000083
      9          8           0        1.328264    0.483422   -0.000084
     10         14           0        2.792885   -0.298417    0.000049
     11          1           0       -3.622906   -1.230205    0.000066
     12          6           0       -0.669449    2.414029   -0.000008
     13          1           0       -1.583355    3.010672    0.000251
     14          1           0       -0.076683    2.689728   -0.876973
     15          1           0       -0.076219    2.689663    0.876659
     16          1           0       -3.114250    1.191154    0.000102
     17          1           0        3.797281    0.779551    0.000038
     18          1           0        2.941137   -1.147826   -1.203967
     19          1           0        2.941037   -1.147716    1.204148
 ---------------------------------------------------------------------

 SCF Done:  E(RHF) =  -634.900980847     A.U. after    2 cycles

 The electronic state is 1-A.
 Alpha  occ. eigenvalues --  -69.10362 -20.58683 -11.31322 -11.24709 -11.24692
 Alpha  occ. eigenvalues --  -11.24396 -11.24364 -11.23763 -11.23079  -6.85160
 Alpha  occ. eigenvalues --   -3.96071  -3.95926  -3.95897  -1.34401  -1.14018
 Alpha  occ. eigenvalues --   -1.04099  -1.00235  -0.93060  -0.85117  -0.80919
 Alpha  occ. eigenvalues --   -0.75087  -0.68669  -0.66911  -0.63918  -0.62326
 Alpha  occ. eigenvalues --   -0.61097  -0.57968  -0.56375  -0.55895  -0.54681
 Alpha  occ. eigenvalues --   -0.50857  -0.49769  -0.49283  -0.47198  -0.47066
 Alpha  occ. eigenvalues --   -0.33838  -0.31733
 Alpha virt. eigenvalues --    0.03219   0.03901   0.04072   0.05166   0.05752
 Alpha virt. eigenvalues --    0.05804   0.06706   0.07432   0.07802   0.08907
 Alpha virt. eigenvalues --    0.09375   0.09385   0.11259   0.11549   0.11842

 Mulliken charges:
               1
     1  C    0.384147
     2  C    1.089506
     3  C   -0.468523
     4  C    0.322333
     5  C    0.781455
     6  C   -0.003413
     7  H   -0.430672
     8  H   -0.646636
     9  O   -0.890792
    10  Si   0.074674
    11  H   -0.455926
    12  C    0.541848
    13  H   -0.212942
    14  H    0.059103
    15  H    0.059028
    16  H   -0.554165
    17  H    0.065327
    18  H    0.142835
    19  H    0.142813
 Sum of Mulliken charges =  -0.00000

 Dipole moment (field-independent basis, Debye):
    X=              0.1251    Y=             -0.3739    Z=              0.0002  Tot=              0.3943

 Test job not archived.
 1\1\GINC-SE284\SP\RHF\Aug-CC-pVDZ\C7H10O1Si1\OHZDE\09-Apr-2025\0\\#t h
 f aug-cc-pvdz iop(5/13=1,5/36=2,99/5=2) pseudo=read geom=check guess=(
 read,tcheck) scf=(maxcycle=1)\\title\\0,1\C,0,2.592794,-0.893654,-0.00
 0029\C,0,2.302787,0.470507,-0.00005\C,0,0.990506,0.942932,-0.000009\C,
 0,1.552099,-1.815211,0.00001\C,0,0.230728,-1.372059,0.000053\C,0,-0.04
 5959,-0.005531,0.000057\H,0,1.759385,-2.879211,0.000013\H,0,-0.581269,
 -2.091419,0.000083\O,0,-1.328264,0.483422,0.000084\Si,0,-2.792885,-0.2
 98417,-0.000049\H,0,3.622906,-1.230205,-0.000066\C,0,0.669449,2.414029

 Normal termination of Gaussian 16 at Wed Apr  9 00:03:21 2025.
