 Gaussian 16, Revision C.01,

 ----------------------------------------------------------------------
 #t hf aug-cc-pvdz symm=none int=(grid=ultrafine) guess=(read,tcheck) s
 table=(opt,rrhf)
 ----------------------------------------------------------------------
 -----
 title
 -----
 Symbolic Z-matrix:
 Charge =  0 Multiplicity = 1

 SCF Done:  E(RHF) =  -1181.17202721     A.U. after   13 cycles
 Normal termination of Gaussian 16 at Wed Apr  9 00:29:45 2025.
 Gaussian 16:  ES64L-G16RevC.01  3-Jul-2019

 ----------------------------------------------------------------------
 #t hf aug-cc-pvdz iop(5/13=1,5/36=2,99/5=2) pseudo=read geom=check gue
 ss=(read,tcheck) scf=(maxcycle=1)
 ----------------------------------------------------------------------
 -----
 title
 -----
 Structure from the checkpoint file:  "BDE49_nonexpt_364_mol1.chk"
 Charge =  0 Multiplicity = 1

                         Standard orientation:
 ---------------------------------------------------------------------
 Center     Atomic      Atomic             Coordinates (Angstroms)
 Number     Number       Type             X           Y           Z
 ---------------------------------------------------------------------
      1          9           0       -2.214458    0.071984   -0.816892
      2          9           0       -1.437126   -0.670607    1.177348
      3          5           0       -1.194282   -0.202924   -0.025798
      4          6           0        0.277099    0.056177   -0.539236
      5         17           0        1.385319   -1.283667   -0.106798
      6         17           0        0.780706    1.628784    0.208731
      7          1           0        0.350649    0.198177   -1.612566
 ---------------------------------------------------------------------

 SCF Done:  E(RHF) =  -1181.31238794     A.U. after    2 cycles

 The electronic state is 1-A.
 Alpha  occ. eigenvalues -- -103.69240-103.69005 -26.16693 -26.16347 -11.38213
 Alpha  occ. eigenvalues --  -10.72483 -10.72264  -8.38197  -8.37985  -8.37885
 Alpha  occ. eigenvalues --   -8.37870  -8.37667  -8.37653  -7.77845  -1.71959
 Alpha  occ. eigenvalues --   -1.69827  -1.22882  -1.15638  -0.94479  -0.89454
 Alpha  occ. eigenvalues --   -0.85093  -0.80178  -0.79589  -0.74727  -0.74420
 Alpha  occ. eigenvalues --   -0.66778  -0.62110  -0.60911  -0.50232  -0.49318
 Alpha  occ. eigenvalues --   -0.47636  -0.46655
 Alpha virt. eigenvalues --    0.03506   0.05162   0.05548   0.05968   0.07856
 Alpha virt. eigenvalues --    0.08326   0.09021   0.12119   0.12887   0.13881
 Alpha virt. eigenvalues --    0.14635   0.16761   0.17152   0.17986   0.18275

 Mulliken charges:
               1
     1  F   -0.386504
     2  F   -0.401764
     3  B    1.291327
     4  C   -0.226331
     5  Cl  -0.137666
     6  Cl  -0.102868
     7  H   -0.036193
 Sum of Mulliken charges =  -0.00000

 Dipole moment (field-independent basis, Debye):
    X=              0.1062    Y=              0.0214    Z=             -1.5082  Tot=              1.5120

 Test job not archived.
 1\1\GINC-SE141\SP\RHF\Aug-CC-pVDZ\C1H1B1Cl2F2\OHZDE\09-Apr-2025\0\\#t
 hf aug-cc-pvdz iop(5/13=1,5/36=2,99/5=2) pseudo=read geom=check guess=
 (read,tcheck) scf=(maxcycle=1)\\title\\0,1\F,0,-2.214458,0.071985,-0.8
 16892\F,0,-1.437126,-0.670606,1.177348\B,0,-1.194282,-0.202924,-0.0257
 98\C,0,0.277099,0.056177,-0.539236\Cl,0,1.385319,-1.283667,-0.106798\C
 l,0,0.780706,1.628784,0.208731\H,0,0.350649,0.198177,-1.612566\\Versio
 n=ES64L-G16RevC.01\State=1-A\HF=-1181.3123879\RMSD=4.997e-03\Dipole=0.
 0417899,0.0084099,-0.5933559\Quadrupole=-2.1114241,1.0237955,1.0876286

 Normal termination of Gaussian 16 at Wed Apr  9 00:29:48 2025.
