 Gaussian 16, Revision C.01,

 ----------------------------------------------------------------------
 #t hf aug-cc-pvdz symm=none int=(grid=ultrafine) guess=(read,tcheck) s
 table=(opt,rrhf)
 ----------------------------------------------------------------------
 -----
 title
 -----
 Symbolic Z-matrix:
 Charge =  0 Multiplicity = 1

 SCF Done:  E(RHF) =  -156.443517409     A.U. after   11 cycles
 Normal termination of Gaussian 16 at Wed Apr  9 00:36:47 2025.
 Gaussian 16:  ES64L-G16RevC.01  3-Jul-2019

 ----------------------------------------------------------------------
 #t hf aug-cc-pvdz iop(5/13=1,5/36=2,99/5=2) pseudo=read geom=check gue
 ss=(read,tcheck) scf=(maxcycle=1)
 ----------------------------------------------------------------------
 -----
 title
 -----
 Structure from the checkpoint file:  "BDE49_nonexpt_603_mol1.chk"
 Charge =  0 Multiplicity = 1

                         Standard orientation:
 ---------------------------------------------------------------------
 Center     Atomic      Atomic             Coordinates (Angstroms)
 Number     Number       Type             X           Y           Z
 ---------------------------------------------------------------------
      1          7           0        1.185766   -0.179568   -0.000002
      2          5           0       -0.046645    0.499585   -0.000013
      3          8           0       -1.268104   -0.122937    0.000006
      4          1           0       -0.053102    1.692219    0.000008
      5          1           0       -1.221660   -1.083767    0.000009
      6          1           0        1.291318   -1.182675    0.000003
      7          1           0        2.061137    0.316764    0.000007
 ---------------------------------------------------------------------

 SCF Done:  E(RHF) =  -156.499636937     A.U. after    2 cycles

 The electronic state is 1-A.
 Alpha  occ. eigenvalues --  -20.57225 -15.61434  -7.63106  -1.31497  -1.12038
 Alpha  occ. eigenvalues --   -0.76383  -0.68570  -0.68366  -0.57012  -0.55431
 Alpha  occ. eigenvalues --   -0.49533  -0.42240
 Alpha virt. eigenvalues --    0.03080   0.04237   0.05634   0.05848   0.07501
 Alpha virt. eigenvalues --    0.08176   0.10487   0.12716   0.17089   0.18367
 Alpha virt. eigenvalues --    0.19271   0.19638   0.21696   0.22960   0.23193

 Mulliken charges:
               1
     1  N   -0.112319
     2  B    0.290083
     3  O   -0.470126
     4  H    0.140281
     5  H    0.173026
     6  H    0.008987
     7  H   -0.029932
 Sum of Mulliken charges =  -0.00000

 Dipole moment (field-independent basis, Debye):
    X=              2.0575    Y=             -2.0054    Z=             -0.0000  Tot=              2.8731

 Test job not archived.
 1\1\GINC-SE462\SP\RHF\Aug-CC-pVDZ\B1H4N1O1\OHZDE\09-Apr-2025\0\\#t hf
 aug-cc-pvdz iop(5/13=1,5/36=2,99/5=2) pseudo=read geom=check guess=(re
 ad,tcheck) scf=(maxcycle=1)\\title\\0,1\N,0,-1.185766,-0.179568,0.0000
 02\B,0,0.046645,0.499585,0.000013\O,0,1.268104,-0.122937,-0.000006\H,0
 ,0.053102,1.692219,-0.000008\H,0,1.22166,-1.083767,-0.000009\H,0,-1.29
 1318,-1.182675,-0.000003\H,0,-2.061137,0.316764,-0.000007\\Version=ES6
 4L-G16RevC.01\State=1-A\HF=-156.4996369\RMSD=2.570e-03\Dipole=-0.80948
 61,-0.7889692,0.0000074\Quadrupole=-0.327328,1.8123892,-1.4850611,-1.2

 Normal termination of Gaussian 16 at Wed Apr  9 00:36:48 2025.
