 Gaussian 16, Revision C.01,

 ----------------------------------------------------------------------
 #t hf aug-cc-pvdz symm=none int=(grid=ultrafine) guess=(read,tcheck) s
 table=(opt,rrhf)
 ----------------------------------------------------------------------
 -----
 title
 -----
 Symbolic Z-matrix:
 Charge =  0 Multiplicity = 1

 SCF Done:  E(RHF) =  -1100.13788230     A.U. after   15 cycles
 Normal termination of Gaussian 16 at Wed Apr  9 00:15:38 2025.
 Gaussian 16:  ES64L-G16RevC.01  3-Jul-2019

 ----------------------------------------------------------------------
 #t hf aug-cc-pvdz iop(5/13=1,5/36=2,99/5=2) pseudo=read geom=check gue
 ss=(read,tcheck) scf=(maxcycle=1)
 ----------------------------------------------------------------------
 -----
 title
 -----
 Structure from the checkpoint file:  "BDE49_nonexpt_2539_mol1.chk"
 Charge =  0 Multiplicity = 1

                         Standard orientation:
 ---------------------------------------------------------------------
 Center     Atomic      Atomic             Coordinates (Angstroms)
 Number     Number       Type             X           Y           Z
 ---------------------------------------------------------------------
      1         17           0       -1.912155   -0.804682   -0.238455
      2         16           0       -0.976725    0.958884    0.317499
      3          6           0        0.565749    0.801344   -0.558762
      4          7           0        1.610236   -0.155251    0.058538
      5          1           0        1.037404    1.786655   -0.542503
      6          1           0        0.442525    0.472208   -1.587616
      7          8           0        1.429110   -0.595473    1.171286
      8          8           0        2.569410   -0.359867   -0.665452
 ---------------------------------------------------------------------

 SCF Done:  E(RHF) =  -1100.25350970     A.U. after    2 cycles

 The electronic state is 1-A.
 Alpha  occ. eigenvalues -- -103.70380 -93.63298 -20.64178 -20.63458 -15.93371
 Alpha  occ. eigenvalues --  -11.37660 -10.73531  -8.92670  -8.39266  -8.38909
 Alpha  occ. eigenvalues --   -8.38873  -6.26744  -6.26506  -6.26067  -1.57113
 Alpha  occ. eigenvalues --   -1.39124  -1.20061  -1.11519  -0.95507  -0.85405
 Alpha  occ. eigenvalues --   -0.78138  -0.76386  -0.75400  -0.65965  -0.61442
 Alpha  occ. eigenvalues --   -0.55359  -0.53737  -0.53235  -0.52199  -0.49125
 Alpha  occ. eigenvalues --   -0.48264  -0.40222
 Alpha virt. eigenvalues --    0.02110   0.03419   0.04762   0.06647   0.07352
 Alpha virt. eigenvalues --    0.09215   0.11034   0.12329   0.12646   0.13626
 Alpha virt. eigenvalues --    0.14295   0.14854   0.16095   0.16791   0.17274

 Mulliken charges:
               1
     1  Cl  -0.297086
     2  S    0.596986
     3  C    0.425163
     4  N    0.421218
     5  H   -0.016920
     6  H   -0.055865
     7  O   -0.520081
     8  O   -0.553414
 Sum of Mulliken charges =  -0.00000

 Dipole moment (field-independent basis, Debye):
    X=             -1.4944    Y=              3.0622    Z=             -1.5350  Tot=              3.7372

 Test job not archived.
 1\1\GINC-SE143\SP\RHF\Aug-CC-pVDZ\C1H2Cl1N1O2S1\OHZDE\09-Apr-2025\0\\#
 t hf aug-cc-pvdz iop(5/13=1,5/36=2,99/5=2) pseudo=read geom=check gues
 s=(read,tcheck) scf=(maxcycle=1)\\title\\0,1\Cl,0,-1.912155,-0.804682,
 -0.238455\S,0,-0.976725,0.958884,0.317499\C,0,0.565749,0.801344,-0.558
 762\N,0,1.610236,-0.155251,0.058538\H,0,1.037404,1.786655,-0.542503\H,
 0,0.442525,0.472208,-1.587616\O,0,1.42911,-0.595473,1.171286\O,0,2.569
 41,-0.359867,-0.665452\\Version=ES64L-G16RevC.01\State=1-A\HF=-1100.25
 35097\RMSD=4.091e-03\Dipole=-0.5879416,1.204772,-0.603917\Quadrupole=-

 Normal termination of Gaussian 16 at Wed Apr  9 00:15:41 2025.
