 Gaussian 16, Revision C.01,

 ----------------------------------------------------------------------
 #t hf aug-cc-pvdz symm=none int=(grid=ultrafine) guess=(read,tcheck) s
 table=(opt,rrhf)
 ----------------------------------------------------------------------
 -----
 title
 -----
 Symbolic Z-matrix:
 Charge =  0 Multiplicity = 1

 SCF Done:  E(RHF) =  -634.711412442     A.U. after   15 cycles
 Normal termination of Gaussian 16 at Tue Apr  8 23:51:39 2025.
 Gaussian 16:  ES64L-G16RevC.01  3-Jul-2019

 ----------------------------------------------------------------------
 #t hf aug-cc-pvdz iop(5/13=1,5/36=2,99/5=2) pseudo=read geom=check gue
 ss=(read,tcheck) scf=(maxcycle=1)
 ----------------------------------------------------------------------
 -----
 title
 -----
 Structure from the checkpoint file:  "BDE49_nonexpt_1891_mol1.chk"
 Charge =  0 Multiplicity = 1

                         Standard orientation:
 ---------------------------------------------------------------------
 Center     Atomic      Atomic             Coordinates (Angstroms)
 Number     Number       Type             X           Y           Z
 ---------------------------------------------------------------------
      1          6           0       -1.747585    0.633763   -0.000001
      2         14           0       -3.485368   -0.124546    0.000001
      3          8           0       -0.816020   -0.450677    0.000001
      4          1           0       -4.467512    0.986430   -0.000001
      5          1           0       -3.680336   -0.953077    1.209704
      6          6           0        0.525611   -0.177216   -0.000000
      7          1           0       -3.680336   -0.953081   -1.209701
      8          6           0        1.070631    1.108205   -0.000001
      9          6           0        1.370697   -1.293396    0.000001
     10          6           0        2.458529    1.265161   -0.000002
     11          6           0        3.302444    0.161144   -0.000001
     12          6           0        2.747289   -1.120779    0.000001
     13          1           0        0.434085    1.982579   -0.000002
     14          1           0        2.874433    2.266694   -0.000003
     15          1           0        4.377879    0.292780   -0.000001
     16          1           0        3.392587   -1.992235    0.000002
     17          1           0        0.923087   -2.279889    0.000002
     18          1           0       -1.608138    1.268787    0.885129
     19          1           0       -1.608139    1.268785   -0.885131
 ---------------------------------------------------------------------

 SCF Done:  E(RHF) =  -634.839422176     A.U. after    2 cycles

 The electronic state is 1-A.
 Alpha  occ. eigenvalues --  -69.06676 -20.60290 -11.31239 -11.29001 -11.25037
 Alpha  occ. eigenvalues --  -11.24909 -11.24181 -11.23800 -11.23684  -6.82028
 Alpha  occ. eigenvalues --   -3.92818  -3.92801  -3.92788  -1.36741  -1.13945
 Alpha  occ. eigenvalues --   -1.01925  -1.01098  -0.93756  -0.83647  -0.81251
 Alpha  occ. eigenvalues --   -0.73271  -0.70724  -0.67267  -0.66858  -0.65370
 Alpha  occ. eigenvalues --   -0.61863  -0.59361  -0.56530  -0.53802  -0.52306
 Alpha  occ. eigenvalues --   -0.49601  -0.48416  -0.48408  -0.47322  -0.45385
 Alpha  occ. eigenvalues --   -0.34468  -0.31941
 Alpha virt. eigenvalues --    0.03195   0.03884   0.04071   0.04947   0.05254
 Alpha virt. eigenvalues --    0.05554   0.06600   0.07732   0.08233   0.08840
 Alpha virt. eigenvalues --    0.09506   0.09672   0.10617   0.11028   0.11394

 Mulliken charges:
               1
     1  C    0.474049
     2  Si   0.306182
     3  O   -0.633644
     4  H    0.002617
     5  H   -0.028048
     6  C    0.563210
     7  H   -0.028049
     8  C    0.188646
     9  C    0.224811
    10  C    0.830181
    11  C    0.396641
    12  C    0.796591
    13  H   -0.737242
    14  H   -0.451293
    15  H   -0.447350
    16  H   -0.431529
    17  H   -0.580963
    18  H   -0.222403
    19  H   -0.222407
 Sum of Mulliken charges =  -0.00000

 Dipole moment (field-independent basis, Debye):
    X=             -0.0385    Y=              1.3065    Z=              0.0000  Tot=              1.3070

 Test job not archived.
 1\1\GINC-SE106\SP\RHF\Aug-CC-pVDZ\C7H10O1Si1\OHZDE\08-Apr-2025\0\\#t h
 f aug-cc-pvdz iop(5/13=1,5/36=2,99/5=2) pseudo=read geom=check guess=(
 read,tcheck) scf=(maxcycle=1)\\title\\0,1\C,0,-1.747585,0.633763,-0.00
 0001\Si,0,-3.485368,-0.124546,0.000001\O,0,-0.81602,-0.450677,0.000001
 \H,0,-4.467512,0.98643,-0.000001\H,0,-3.680336,-0.953077,1.209704\C,0,
 0.525611,-0.177216,0.\H,0,-3.680336,-0.953081,-1.209701\C,0,1.070631,1
 .108205,-0.000001\C,0,1.370697,-1.293396,0.000001\C,0,2.458529,1.26516
 1,-0.000002\C,0,3.302444,0.161144,-0.000001\C,0,2.747289,-1.120779,0.0

 Normal termination of Gaussian 16 at Tue Apr  8 23:51:49 2025.
