 Gaussian 16, Revision C.01,

 ----------------------------------------------------------------------
 #t hf aug-cc-pvdz symm=none int=(grid=ultrafine) guess=(read,tcheck) s
 table=(opt,rrhf)
 ----------------------------------------------------------------------
 -----
 title
 -----
 Symbolic Z-matrix:
 Charge =  0 Multiplicity = 1

 SCF Done:  E(RHF) =  -1061.48729344     A.U. after   12 cycles
 Normal termination of Gaussian 16 at Tue Apr  8 23:46:30 2025.
 Gaussian 16:  ES64L-G16RevC.01  3-Jul-2019

 ----------------------------------------------------------------------
 #t hf aug-cc-pvdz iop(5/13=1,5/36=2,99/5=2) pseudo=read geom=check gue
 ss=(read,tcheck) scf=(maxcycle=1)
 ----------------------------------------------------------------------
 -----
 title
 -----
 Structure from the checkpoint file:  "BDE49_nonexpt_179_mol1.chk"
 Charge =  0 Multiplicity = 1

                         Standard orientation:
 ---------------------------------------------------------------------
 Center     Atomic      Atomic             Coordinates (Angstroms)
 Number     Number       Type             X           Y           Z
 ---------------------------------------------------------------------
      1         17           0        1.760952   -1.043173   -0.249911
      2         17           0        0.626713    1.694093    0.314490
      3          5           0        0.339602    0.002817   -0.112819
      4          6           0       -1.103470   -0.580704   -0.299376
      5          6           0       -1.587751   -1.124594    1.073190
      6          1           0       -0.904467   -1.872821    1.482237
      7          1           0       -2.569280   -1.593581    0.959133
      8          1           0       -1.687153   -0.317464    1.804656
      9          6           0       -2.128801    0.403682   -0.889026
     10          1           0       -1.018452   -1.442542   -0.972096
     11          1           0       -2.275546    1.266149   -0.234071
     12          1           0       -3.097293   -0.089235   -1.015587
     13          1           0       -1.815988    0.779474   -1.866757
 ---------------------------------------------------------------------

 SCF Done:  E(RHF) =  -1061.56677149     A.U. after    2 cycles

 The electronic state is 1-A.
 Alpha  occ. eigenvalues -- -103.66733-103.66649 -11.24375 -11.23950 -11.23611
 Alpha  occ. eigenvalues --  -10.70208 -10.70116  -8.35898  -8.35811  -8.35686
 Alpha  occ. eigenvalues --   -8.35654  -8.35600  -8.35565  -7.72507  -1.18064
 Alpha  occ. eigenvalues --   -1.14193  -1.06063  -0.93807  -0.82777  -0.68799
 Alpha  occ. eigenvalues --   -0.63795  -0.61677  -0.58483  -0.56343  -0.55304
 Alpha  occ. eigenvalues --   -0.52536  -0.51873  -0.49179  -0.48795  -0.47675
 Alpha  occ. eigenvalues --   -0.46430  -0.44680
 Alpha virt. eigenvalues --    0.03242   0.04643   0.04827   0.05026   0.06670
 Alpha virt. eigenvalues --    0.06845   0.07306   0.07387   0.07622   0.08644
 Alpha virt. eigenvalues --    0.09724   0.11076   0.13027   0.14286   0.14943

 Mulliken charges:
               1
     1  Cl  -0.378598
     2  Cl  -0.361052
     3  B    0.709357
     4  C   -0.241148
     5  C    0.441931
     6  H   -0.127812
     7  H   -0.062834
     8  H   -0.085728
     9  C    0.453564
    10  H   -0.135522
    11  H   -0.056934
    12  H   -0.054194
    13  H   -0.101031
 Sum of Mulliken charges =  -0.00000

 Dipole moment (field-independent basis, Debye):
    X=             -1.8027    Y=             -0.6669    Z=             -0.1908  Tot=              1.9315

 Test job not archived.
 1\1\GINC-SE398\SP\RHF\Aug-CC-pVDZ\C3H7B1Cl2\OHZDE\08-Apr-2025\0\\#t hf
  aug-cc-pvdz iop(5/13=1,5/36=2,99/5=2) pseudo=read geom=check guess=(r
 ead,tcheck) scf=(maxcycle=1)\\title\\0,1\Cl,0,1.760952,-1.043173,-0.24
 9911\Cl,0,0.626713,1.694093,0.31449\B,0,0.339602,0.002817,-0.112819\C,
 0,-1.10347,-0.580704,-0.299376\C,0,-1.587751,-1.124594,1.07319\H,0,-0.
 904466,-1.872821,1.482237\H,0,-2.56928,-1.593582,0.959133\H,0,-1.68715
 3,-0.317464,1.804656\C,0,-2.128801,0.403681,-0.889026\H,0,-1.018452,-1
 .442542,-0.972096\H,0,-2.275546,1.266148,-0.234071\H,0,-3.097293,-0.08

 Normal termination of Gaussian 16 at Tue Apr  8 23:46:34 2025.
