 Gaussian 16, Revision C.01,

 ----------------------------------------------------------------------
 #t hf aug-cc-pvdz symm=none int=(grid=ultrafine) guess=(read,tcheck) s
 table=(opt,rrhf)
 ----------------------------------------------------------------------
 -----
 title
 -----
 Symbolic Z-matrix:
 Charge =  0 Multiplicity = 1

 SCF Done:  E(RHF) =  -607.009779333     A.U. after   15 cycles
 Normal termination of Gaussian 16 at Tue Apr  8 23:30:11 2025.
 Gaussian 16:  ES64L-G16RevC.01  3-Jul-2019

 ----------------------------------------------------------------------
 #t hf aug-cc-pvdz iop(5/13=1,5/36=2,99/5=2) pseudo=read geom=check gue
 ss=(read,tcheck) scf=(maxcycle=1)
 ----------------------------------------------------------------------
 -----
 title
 -----
 Structure from the checkpoint file:  "BDE49_nonexpt_1400_mol1.chk"
 Charge =  0 Multiplicity = 1

                         Standard orientation:
 ---------------------------------------------------------------------
 Center     Atomic      Atomic             Coordinates (Angstroms)
 Number     Number       Type             X           Y           Z
 ---------------------------------------------------------------------
      1         15           0        0.169413    1.304075   -0.215790
      2          6           0       -0.994674   -0.169896    0.008074
      3          8           0       -0.290590   -1.337990    0.037924
      4          6           0        1.124240   -1.187154   -0.184452
      5          6           0        1.581365    0.194628    0.307972
      6          1           0        1.318735   -1.307501   -1.254931
      7          1           0        1.608113   -2.002785    0.351923
      8          8           0       -2.184595   -0.139232    0.097442
      9          1           0        2.523911    0.478265   -0.161428
     10          1           0        1.711046    0.198176    1.390773
     11          1           0       -0.167107    1.865022    1.038014
 ---------------------------------------------------------------------

 SCF Done:  E(RHF) =  -607.114376483     A.U. after    2 cycles

 The electronic state is 1-A.
 Alpha  occ. eigenvalues --  -81.28592 -20.62499 -20.56841 -11.39981 -11.32856
 Alpha  occ. eigenvalues --  -11.27452  -7.78996  -4.92972  -4.92898  -4.92626
 Alpha  occ. eigenvalues --   -1.42119  -1.34184  -1.05342  -0.93996  -0.82472
 Alpha  occ. eigenvalues --   -0.76727  -0.70623  -0.69593  -0.66267  -0.61501
 Alpha  occ. eigenvalues --   -0.59385  -0.56642  -0.54239  -0.50536  -0.47964
 Alpha  occ. eigenvalues --   -0.43515  -0.38025
 Alpha virt. eigenvalues --    0.02701   0.04222   0.04599   0.05125   0.06481
 Alpha virt. eigenvalues --    0.08424   0.09292   0.09692   0.10246   0.11373
 Alpha virt. eigenvalues --    0.12760   0.13662   0.14108   0.14750   0.15357

 Mulliken charges:
               1
     1  P    0.321190
     2  C    0.362287
     3  O   -0.630590
     4  C    0.799900
     5  C   -0.076517
     6  H   -0.151617
     7  H   -0.173551
     8  O   -0.452314
     9  H   -0.047294
    10  H   -0.170521
    11  H    0.219025
 Sum of Mulliken charges =  -0.00000

 Dipole moment (field-independent basis, Debye):
    X=              5.3923    Y=              0.8077    Z=              0.2820  Tot=              5.4598

 Test job not archived.
 1\1\GINC-SE039\SP\RHF\Aug-CC-pVDZ\C3H5O2P1\OHZDE\08-Apr-2025\0\\#t hf
 aug-cc-pvdz iop(5/13=1,5/36=2,99/5=2) pseudo=read geom=check guess=(re
 ad,tcheck) scf=(maxcycle=1)\\title\\0,1\P,0,0.169413,1.304075,-0.21579
 \C,0,-0.994674,-0.169896,0.008074\O,0,-0.29059,-1.33799,0.037924\C,0,1
 .12424,-1.187154,-0.184452\C,0,1.581365,0.194628,0.307972\H,0,1.318735
 ,-1.307501,-1.254931\H,0,1.608113,-2.002785,0.351923\O,0,-2.184595,-0.
 139232,0.097442\H,0,2.523911,0.478265,-0.161428\H,0,1.711046,0.198176,
 1.390773\H,0,-0.167107,1.865022,1.038014\\Version=ES64L-G16RevC.01\Sta

 Normal termination of Gaussian 16 at Tue Apr  8 23:30:18 2025.
