 Gaussian 16, Revision C.01,

 ----------------------------------------------------------------------
 #t hf aug-cc-pvdz symm=none int=(grid=ultrafine) guess=(read,tcheck) s
 table=(opt,rrhf)
 ----------------------------------------------------------------------
 -----
 title
 -----
 Symbolic Z-matrix:
 Charge =  0 Multiplicity = 1

 SCF Done:  E(RHF) =  -780.540872363     A.U. after   13 cycles
 Normal termination of Gaussian 16 at Tue Apr  8 23:56:19 2025.
 Gaussian 16:  ES64L-G16RevC.01  3-Jul-2019

 ----------------------------------------------------------------------
 #t hf aug-cc-pvdz iop(5/13=1,5/36=2,99/5=2) pseudo=read geom=check gue
 ss=(read,tcheck) scf=(maxcycle=1)
 ----------------------------------------------------------------------
 -----
 title
 -----
 Structure from the checkpoint file:  "BDE49_nonexpt_2047_mol1.chk"
 Charge =  0 Multiplicity = 1

                         Standard orientation:
 ---------------------------------------------------------------------
 Center     Atomic      Atomic             Coordinates (Angstroms)
 Number     Number       Type             X           Y           Z
 ---------------------------------------------------------------------
      1         14           0       -1.511216   -0.482441    0.000045
      2          6           0        1.416111   -0.124691   -0.000097
      3          7           0        2.315962   -0.854349    0.000013
      4         16           0        0.126170    0.982671   -0.000019
      5          1           0       -2.711296    0.376515   -0.000030
      6          1           0       -1.429433   -1.308168    1.218005
      7          1           0       -1.429380   -1.308323   -1.217808
 ---------------------------------------------------------------------

 SCF Done:  E(RHF) =  -780.609906661     A.U. after    2 cycles

 The electronic state is 1-A.
 Alpha  occ. eigenvalues --  -93.59356 -69.12858 -15.65344 -11.31787  -8.89193
 Alpha  occ. eigenvalues --   -6.87926  -6.23404  -6.23071  -6.22774  -3.98760
 Alpha  occ. eigenvalues --   -3.98645  -3.98609  -1.20452  -1.03391  -0.75331
 Alpha  occ. eigenvalues --   -0.65248  -0.55449  -0.54818  -0.54762  -0.51821
 Alpha  occ. eigenvalues --   -0.51123  -0.43936  -0.39421
 Alpha virt. eigenvalues --    0.02886   0.04175   0.05256   0.05917   0.08070
 Alpha virt. eigenvalues --    0.08506   0.09146   0.09602   0.10858   0.12441
 Alpha virt. eigenvalues --    0.12507   0.13772   0.14608   0.14739   0.15902

 Mulliken charges:
               1
     1  Si   0.575682
     2  C   -0.394398
     3  N   -0.172470
     4  S    0.043111
     5  H   -0.041075
     6  H   -0.005428
     7  H   -0.005421
 Sum of Mulliken charges =  -0.00000

 Dipole moment (field-independent basis, Debye):
    X=             -4.1395    Y=              0.7693    Z=             -0.0000  Tot=              4.2104

 Test job not archived.
 1\1\GINC-SE345\SP\RHF\Aug-CC-pVDZ\C1H3N1S1Si1\OHZDE\08-Apr-2025\0\\#t
 hf aug-cc-pvdz iop(5/13=1,5/36=2,99/5=2) pseudo=read geom=check guess=
 (read,tcheck) scf=(maxcycle=1)\\title\\0,1\Si,0,1.511216,-0.482441,-0.
 000045\C,0,-1.416111,-0.124691,0.000097\N,0,-2.315962,-0.854349,-0.000
 013\S,0,-0.12617,0.982671,0.000019\H,0,2.711296,0.376515,0.00003\H,0,1
 .429433,-1.308168,-1.218005\H,0,1.42938,-1.308323,1.217808\\Version=ES
 64L-G16RevC.01\State=1-A\HF=-780.6099067\RMSD=6.594e-03\Dipole=1.62860
 09,0.3026772,0.0000038\Quadrupole=-1.8813873,0.8858434,0.9955439,-3.43

 Normal termination of Gaussian 16 at Tue Apr  8 23:56:21 2025.
