 Gaussian 16, Revision C.01,

 ----------------------------------------------------------------------
 #t hf aug-cc-pvdz symm=none int=(grid=ultrafine) guess=(read,tcheck) s
 table=(opt,rrhf)
 ----------------------------------------------------------------------
 -----
 title
 -----
 Symbolic Z-matrix:
 Charge =  0 Multiplicity = 1

 SCF Done:  E(RHF) =  -381.518448922     A.U. after   14 cycles
 Normal termination of Gaussian 16 at Tue Apr  8 23:19:55 2025.
 Gaussian 16:  ES64L-G16RevC.01  3-Jul-2019

 ----------------------------------------------------------------------
 #t hf aug-cc-pvdz iop(5/13=1,5/36=2,99/5=2) pseudo=read geom=check gue
 ss=(read,tcheck) scf=(maxcycle=1)
 ----------------------------------------------------------------------
 -----
 title
 -----
 Structure from the checkpoint file:  "BDE49_nonexpt_1159_mol1.chk"
 Charge =  0 Multiplicity = 1

                         Standard orientation:
 ---------------------------------------------------------------------
 Center     Atomic      Atomic             Coordinates (Angstroms)
 Number     Number       Type             X           Y           Z
 ---------------------------------------------------------------------
      1          9           0       -2.030481   -0.719941   -0.000026
      2          8           0       -1.313682    0.519311   -0.000094
      3          6           0        0.038516    0.284430   -0.000025
      4          7           0        0.510639   -0.890609    0.000005
      5          8           0        1.922920   -0.835014    0.000107
      6          1           0        2.155347   -1.768366    0.000026
      7          6           0        0.762626    1.594770    0.000017
      8          1           0        0.060876    2.428329   -0.000759
      9          1           0        1.402047    1.651762   -0.882772
     10          1           0        1.400830    1.652437    0.883649
 ---------------------------------------------------------------------

 SCF Done:  E(RHF) =  -381.642059130     A.U. after    2 cycles

 The electronic state is 1-A.
 Alpha  occ. eigenvalues --  -26.18537 -20.73332 -20.62599 -15.69259 -11.37831
 Alpha  occ. eigenvalues --  -11.27277  -1.68968  -1.40001  -1.36515  -1.14489
 Alpha  occ. eigenvalues --   -1.01555  -0.85575  -0.79361  -0.77630  -0.72796
 Alpha  occ. eigenvalues --   -0.71823  -0.66339  -0.64028  -0.63023  -0.60055
 Alpha  occ. eigenvalues --   -0.58860  -0.58276  -0.46501  -0.40490
 Alpha virt. eigenvalues --    0.03301   0.04267   0.05561   0.06147   0.08330
 Alpha virt. eigenvalues --    0.10066   0.12117   0.12617   0.13069   0.14595
 Alpha virt. eigenvalues --    0.15844   0.16124   0.16246   0.19037   0.19434

 Mulliken charges:
               1
     1  F   -0.317306
     2  O   -0.140629
     3  C    0.501485
     4  N   -0.153802
     5  O   -0.495796
     6  H    0.185147
     7  C    0.299745
     8  H   -0.061919
     9  H    0.091543
    10  H    0.091531
 Sum of Mulliken charges =  -0.00000

 Dipole moment (field-independent basis, Debye):
    X=              2.1321    Y=              1.6316    Z=             -0.0001  Tot=              2.6848

 Test job not archived.
 1\1\GINC-SE338\SP\RHF\Aug-CC-pVDZ\C2H4F1N1O2\OHZDE\08-Apr-2025\0\\#t h
 f aug-cc-pvdz iop(5/13=1,5/36=2,99/5=2) pseudo=read geom=check guess=(
 read,tcheck) scf=(maxcycle=1)\\title\\0,1\F,0,-2.030481,-0.719942,-0.0
 00026\O,0,-1.313682,0.519311,-0.000094\C,0,0.038516,0.28443,-0.000025\
 N,0,0.510639,-0.890609,0.000005\O,0,1.92292,-0.835014,0.000107\H,0,2.1
 55347,-1.768366,0.000026\C,0,0.762625,1.59477,0.000017\H,0,0.060875,2.
 428329,-0.000759\H,0,1.402046,1.651762,-0.882772\H,0,1.400829,1.652437
 ,0.883649\\Version=ES64L-G16RevC.01\State=1-A\HF=-381.6420591\RMSD=3.9

 Normal termination of Gaussian 16 at Tue Apr  8 23:19:58 2025.
