 Gaussian 16, Revision C.01,

 ----------------------------------------------------------------------
 #t hf aug-cc-pvdz symm=none int=(grid=ultrafine) guess=(read,tcheck) s
 table=opt
 ----------------------------------------------------------------------
 -----
 title
 -----
 Symbolic Z-matrix:
 Charge =  0 Multiplicity = 2

 SCF Done:  E(UHF) =  -539.671033640     A.U. after   13 cycles
 Normal termination of Gaussian 16 at Tue Apr  8 22:56:38 2025.
 Gaussian 16:  ES64L-G16RevC.01  3-Jul-2019

 ----------------------------------------------------------------------
 #t hf aug-cc-pvdz iop(5/13=1,5/36=2,99/5=2) pseudo=read geom=check gue
 ss=(read,tcheck) scf=(maxcycle=1)
 ----------------------------------------------------------------------
 -----
 title
 -----
 Structure from the checkpoint file:  "BDE49_expt_1948_mol2.chk"
 Charge =  0 Multiplicity = 2

                         Standard orientation:
 ---------------------------------------------------------------------
 Center     Atomic      Atomic             Coordinates (Angstroms)
 Number     Number       Type             X           Y           Z
 ---------------------------------------------------------------------
      1         15           0        0.000000   -0.000000    0.568498
      2          9           0        0.000000    1.227070   -0.473748
      3          9           0       -0.000000   -1.227070   -0.473748
 ---------------------------------------------------------------------

 SCF Done:  E(UHF) =  -539.777305565     A.U. after    2 cycles

 The electronic state is 2-B1.
 Alpha  occ. eigenvalues --  -81.40951 -26.15534 -26.15530  -7.89857  -5.04322
 Alpha  occ. eigenvalues --   -5.03598  -5.03036  -1.69065  -1.67719  -0.91255
 Alpha  occ. eigenvalues --   -0.80998  -0.79404  -0.78193  -0.76324  -0.72548
 Alpha  occ. eigenvalues --   -0.54993  -0.37434
 Alpha virt. eigenvalues --    0.05813   0.06743   0.08277   0.09043   0.15954
 Alpha virt. eigenvalues --    0.17790   0.23683   0.26019   0.26179   0.26718
 Alpha virt. eigenvalues --    0.27114   0.34260   0.34603   0.35844   0.39279

  Beta  occ. eigenvalues --  -81.40241 -26.15094 -26.15089  -7.88993  -5.03184
  Beta  occ. eigenvalues --   -5.02864  -5.00880  -1.67845  -1.66548  -0.88364
  Beta  occ. eigenvalues --   -0.80305  -0.77785  -0.75301  -0.72672  -0.72318
  Beta  occ. eigenvalues --   -0.48819
  Beta virt. eigenvalues --    0.03225   0.06150   0.07512   0.08524   0.12648
  Beta virt. eigenvalues --    0.16406   0.21449   0.23891   0.26075   0.26991
  Beta virt. eigenvalues --    0.27516   0.28021   0.34292   0.37479   0.38761

 Mulliken charges and spin densities:
               1          2
     1  P    1.178658   0.999960
     2  F   -0.589329   0.000020
     3  F   -0.589329   0.000020
 Sum of Mulliken charges =  -0.00000   1.00000

 Dipole moment (field-independent basis, Debye):
    X=              0.0000    Y=             -0.0000    Z=              1.8072  Tot=              1.8072
                          Isotropic Fermi Contact Couplings
        Atom                 a.u.       MegaHertz       Gauss      10(-4) cm-1
     1  P(31)              0.32090     581.17938     207.37925     193.86057
     2  F(19)              0.05220     219.63629      78.37169      73.26278
     3  F(19)              0.05220     219.63629      78.37169      73.26278
 --------------------------------------------------------
       Center         ----  Spin Dipole Couplings  ----
                      3XX-RR        3YY-RR        3ZZ-RR
 --------------------------------------------------------
     1   Atom        3.582072     -1.588448     -1.993624

 Normal termination of Gaussian 16 at Tue Apr  8 22:56:40 2025.
