 Gaussian 16, Revision C.01,

 ----------------------------------------------------------------------
 #t hf aug-cc-pvdz symm=none int=(grid=ultrafine) guess=(read,tcheck) s
 table=(opt,rrhf)
 ----------------------------------------------------------------------
 -----
 title
 -----
 Symbolic Z-matrix:
 Charge =  0 Multiplicity = 1

 SCF Done:  E(RHF) =  -485.377241038     A.U. after   11 cycles

 1\1\GINC-SE365\Stability\RHF\Aug-CC-pVDZ\B1Cl1H2\OHZDE\09-Apr-2025\0\\
 #t hf aug-cc-pvdz symm=none int=(grid=ultrafine) guess=(read,tcheck) s
 table=(opt,rrhf)\\title\\0,1\H,0,0.,1.046247,-1.749563\B,0,0.,0.,-1.19
 3645\H,0,0.,-1.046247,-1.749563\Cl,0,0.,0.,0.556903\\Version=ES64L-G16
 RevC.01\HF=-485.377241\RMSD=3.337e-09\Dipole=0.,0.,-0.4265315\Quadrupo
 le=0.5053682,-0.7728478,0.2674796,0.,0.,0.\PG=Unknown\\@
 The archive entry for this job was punched.

 Normal termination of Gaussian 16 at Wed Apr  9 00:34:44 2025.
 Gaussian 16:  ES64L-G16RevC.01  3-Jul-2019

 ----------------------------------------------------------------------
 #t hf aug-cc-pvdz iop(5/13=1,5/36=2,99/5=2) pseudo=read geom=check gue
 ss=(read,tcheck) scf=(maxcycle=1)
 ----------------------------------------------------------------------
 -----
 title
 -----
 Structure from the checkpoint file:  "BDE49_nonexpt_520_mol1.chk"
 Charge =  0 Multiplicity = 1

                         Standard orientation:
 ---------------------------------------------------------------------
 Center     Atomic      Atomic             Coordinates (Angstroms)
 Number     Number       Type             X           Y           Z
 ---------------------------------------------------------------------
      1          1           0        0.000000    1.046247   -1.749563
      2          5           0        0.000000    0.000000   -1.193645
      3          1           0       -0.000000   -1.046247   -1.749563
      4         17           0        0.000000    0.000000    0.556903
 ---------------------------------------------------------------------

 SCF Done:  E(RHF) =  -485.405143727     A.U. after    2 cycles

 The electronic state is 1-A1.
 Alpha  occ. eigenvalues -- -103.66502 -10.70022  -8.35707  -8.35508  -8.35446
 Alpha  occ. eigenvalues --   -7.68443  -1.15882  -0.71086  -0.57190  -0.55186
 Alpha  occ. eigenvalues --   -0.49820  -0.45093
 Alpha virt. eigenvalues --    0.03842   0.04722   0.05035   0.05582   0.09636
 Alpha virt. eigenvalues --    0.10365   0.10753   0.14245   0.16790   0.18242
 Alpha virt. eigenvalues --    0.20635   0.23732   0.23806   0.29395   0.30377

 Mulliken charges:
               1
     1  H    0.181504
     2  B   -0.067561
     3  H    0.181504
     4  Cl  -0.295447
 Sum of Mulliken charges =  -0.00000

 Dipole moment (field-independent basis, Debye):
    X=             -0.0000    Y=              0.0000    Z=             -1.1559  Tot=              1.1559

 Test job not archived.
 1\1\GINC-SE365\SP\RHF\Aug-CC-pVDZ\B1Cl1H2\OHZDE\09-Apr-2025\0\\#t hf a
 ug-cc-pvdz iop(5/13=1,5/36=2,99/5=2) pseudo=read geom=check guess=(rea
 d,tcheck) scf=(maxcycle=1)\\title\\0,1\H,0,0.,1.046247,-1.749563\B,0,0
 .,0.,-1.193645\H,0,0.,-1.046247,-1.749563\Cl,0,0.,0.,0.556903\\Version
 =ES64L-G16RevC.01\State=1-A1\HF=-485.4051437\RMSD=3.164e-03\Dipole=0.,
 0.,-0.4547758\Quadrupole=0.4912862,-0.7977752,0.306489,0.,0.,0.\PG=C02
 V [C2(B1Cl1),SGV(H2)]\\@

 Normal termination of Gaussian 16 at Wed Apr  9 00:34:45 2025.
