 Gaussian 16, Revision C.01,

 ----------------------------------------------------------------------
 #t hf aug-cc-pvdz symm=none int=(grid=ultrafine) guess=(read,tcheck) s
 table=opt
 ----------------------------------------------------------------------
 -----
 title
 -----
 Symbolic Z-matrix:
 Charge =  0 Multiplicity = 2

 SCF Done:  E(UHF) =  -557.471831553     A.U. after   16 cycles
 Normal termination of Gaussian 16 at Tue Apr  8 23:58:01 2025.
 Gaussian 16:  ES64L-G16RevC.01  3-Jul-2019

 ----------------------------------------------------------------------
 #t hf aug-cc-pvdz iop(5/13=1,5/36=2,99/5=2) pseudo=read geom=check gue
 ss=(read,tcheck) scf=(maxcycle=1)
 ----------------------------------------------------------------------
 -----
 title
 -----
 Structure from the checkpoint file:  "BDE49_nonexpt_2071_mol2.chk"
 Charge =  0 Multiplicity = 2

                         Standard orientation:
 ---------------------------------------------------------------------
 Center     Atomic      Atomic             Coordinates (Angstroms)
 Number     Number       Type             X           Y           Z
 ---------------------------------------------------------------------
      1         14           0       -1.810595   -0.557854   -0.026151
      2          6           0       -0.049097    0.231262    0.064839
      3          8           0        0.814041   -0.889697   -0.084831
      4          8           0        0.156189    0.874345    1.321359
      5          6           0        2.218305   -0.621497   -0.115329
      6          1           0        2.528270   -0.190394   -1.073315
      7          1           0        2.712106   -1.584329    0.013480
      8          1           0        2.510346    0.048347    0.698033
      9          6           0        0.166998    1.315222   -0.989193
     10          1           0        0.127558    0.887382   -1.992852
     11          1           0        1.137259    1.799203   -0.843101
     12          1           0       -0.601467    2.084845   -0.900879
     13          1           0        0.008809    0.216901    2.011738
     14          1           0       -2.000487   -1.378655   -1.248989
     15          1           0       -2.853143    0.499541    0.047872
 ---------------------------------------------------------------------

 SCF Done:  E(UHF) =  -557.577282126     A.U. after    2 cycles

 The electronic state is 2-A.
 Alpha  occ. eigenvalues --  -69.07090 -20.58367 -20.57991 -11.34417 -11.28388
 Alpha  occ. eigenvalues --  -11.23493  -6.82504  -3.93845  -3.92943  -3.92932
 Alpha  occ. eigenvalues --   -1.36895  -1.29984  -1.01319  -0.94392  -0.81356
 Alpha  occ. eigenvalues --   -0.74418  -0.70989  -0.66402  -0.63195  -0.61064
 Alpha  occ. eigenvalues --   -0.59074  -0.56460  -0.54768  -0.53894  -0.49595
 Alpha  occ. eigenvalues --   -0.48181  -0.45985  -0.42007  -0.32600
 Alpha virt. eigenvalues --    0.03259   0.04546   0.04887   0.05172   0.06061
 Alpha virt. eigenvalues --    0.06407   0.06947   0.06979   0.08725   0.09618
 Alpha virt. eigenvalues --    0.09722   0.10488   0.12703   0.13526   0.13915

  Beta  occ. eigenvalues --  -69.06526 -20.58381 -20.57998 -11.34378 -11.28395
  Beta  occ. eigenvalues --  -11.23456  -6.81659  -3.92551  -3.92540  -3.91675
  Beta  occ. eigenvalues --   -1.36876  -1.30000  -1.01072  -0.94345  -0.81123
  Beta  occ. eigenvalues --   -0.73103  -0.70190  -0.66308  -0.61625  -0.60748
  Beta  occ. eigenvalues --   -0.58502  -0.56330  -0.54679  -0.53778  -0.49472
  Beta  occ. eigenvalues --   -0.47461  -0.45902  -0.41160
  Beta virt. eigenvalues --    0.02807   0.03563   0.04607   0.05204   0.05682
  Beta virt. eigenvalues --    0.06248   0.06746   0.07002   0.07989   0.08944
  Beta virt. eigenvalues --    0.09689   0.10130   0.10686   0.13096   0.14055

 Mulliken charges and spin densities:
               1          2
     1  Si  -0.091681   1.014223
     2  C    0.388270   0.027676
     3  O   -0.594162  -0.031965
     4  O   -0.603978  -0.007464
     5  C    0.831321  -0.006697
     6  H   -0.127639   0.000535
     7  H   -0.280758   0.000037
     8  H   -0.063263  -0.001451
     9  C    0.458752  -0.024184
    10  H   -0.005218  -0.006023
    11  H   -0.090018   0.008471
    12  H   -0.094038  -0.003924
    13  H    0.139223   0.007281
    14  H    0.057717   0.007851
    15  H    0.075473   0.015634
 Sum of Mulliken charges =   0.00000   1.00000

 Dipole moment (field-independent basis, Debye):
    X=              0.7975    Y=             -0.0418    Z=             -0.2757  Tot=              0.8448
                          Isotropic Fermi Contact Couplings
        Atom                 a.u.       MegaHertz       Gauss      10(-4) cm-1
     1  Si(29)             0.52047    -462.55463    -165.05099    -154.29162
     2  C(13)              0.00123       1.37725       0.49144       0.45940
     3  O(17)             -0.00543       3.28910       1.17363       1.09712
     4  O(17)              0.00010      -0.06047      -0.02158      -0.02017
     5  C(13)             -0.00107      -1.20500      -0.42997      -0.40194
     6  H(1)               0.00007       0.30339       0.10826       0.10120
     7  H(1)               0.00000       0.01813       0.00647       0.00605
     8  H(1)               0.00004       0.16528       0.05898       0.05513

 Normal termination of Gaussian 16 at Tue Apr  8 23:58:06 2025.
