 Gaussian 16, Revision C.01,

 ----------------------------------------------------------------------
 #t hf aug-cc-pvdz symm=none int=(grid=ultrafine) guess=(read,tcheck) s
 table=(opt,rrhf)
 ----------------------------------------------------------------------
 -----
 title
 -----
 Symbolic Z-matrix:
 Charge =  0 Multiplicity = 1

 SCF Done:  E(RHF) =  -342.472050459     A.U. after    9 cycles
 Normal termination of Gaussian 16 at Tue Apr  8 23:10:42 2025.
 Gaussian 16:  ES64L-G16RevC.01  3-Jul-2019

 ----------------------------------------------------------------------
 #t hf aug-cc-pvdz iop(5/13=1,5/36=2,99/5=2) pseudo=read geom=check gue
 ss=(read,tcheck) scf=(maxcycle=1)
 ----------------------------------------------------------------------
 -----
 title
 -----
 Structure from the checkpoint file:  "BDE49_expt_816_mol1.chk"
 Charge =  0 Multiplicity = 1

                         Standard orientation:
 ---------------------------------------------------------------------
 Center     Atomic      Atomic             Coordinates (Angstroms)
 Number     Number       Type             X           Y           Z
 ---------------------------------------------------------------------
      1         15           0        0.000001   -0.000002   -0.128066
      2          1           0       -0.802175   -0.883613    0.640332
      3          1           0        1.166322   -0.252871    0.640339
      4          1           0       -0.364169    1.136516    0.640314
 ---------------------------------------------------------------------

 SCF Done:  E(RHF) =  -342.494222744     A.U. after    2 cycles

 The electronic state is 1-A.
 Alpha  occ. eigenvalues --  -81.26035  -7.76465  -4.90354  -4.90354  -4.90069
 Alpha  occ. eigenvalues --   -0.80519  -0.51666  -0.51665  -0.37393
 Alpha virt. eigenvalues --    0.03388   0.07241   0.07241   0.09915   0.09915
 Alpha virt. eigenvalues --    0.10490   0.16777   0.20749   0.20749   0.25907
 Alpha virt. eigenvalues --    0.26125   0.26125   0.36145   0.39402   0.39402

 Mulliken charges:
               1
     1  P   -0.227723
     2  H    0.075908
     3  H    0.075911
     4  H    0.075904
 Sum of Mulliken charges =  -0.00000

 Dipole moment (field-independent basis, Debye):
    X=              0.0000    Y=             -0.0000    Z=              0.5733  Tot=              0.5733

 Test job not archived.
 1\1\GINC-SE336\SP\RHF\Aug-CC-pVDZ\H3P1\OHZDE\08-Apr-2025\0\\#t hf aug-
 cc-pvdz iop(5/13=1,5/36=2,99/5=2) pseudo=read geom=check guess=(read,t
 check) scf=(maxcycle=1)\\title\\0,1\P,0,-0.000001,0.000002,-0.128066\H
 ,0,0.806689,0.879494,0.640332\H,0,-1.165012,0.258838,0.640339\H,0,0.35
 8346,-1.138366,0.640314\\Version=ES64L-G16RevC.01\State=1-A\HF=-342.49
 42227\RMSD=1.891e-02\Dipole=-0.0000002,0.0000008,0.2255712\Quadrupole=
 0.6239569,0.6239349,-1.2478918,0.0000023,-0.0000115,0.00002\PG=C01 [X(
 H3P1)]\\@

 Normal termination of Gaussian 16 at Tue Apr  8 23:10:43 2025.
