 Gaussian 16, Revision C.01,

 ----------------------------------------------------------------------
 #t hf aug-cc-pvdz symm=none int=(grid=ultrafine) guess=(read,tcheck) s
 table=opt
 ----------------------------------------------------------------------
 -----
 title
 -----
 Symbolic Z-matrix:
 Charge =  0 Multiplicity = 2

 SCF Done:  E(UHF) =  -664.917702143     A.U. after   22 cycles
 Normal termination of Gaussian 16 at Wed Apr  9 00:17:40 2025.
 Gaussian 16:  ES64L-G16RevC.01  3-Jul-2019

 ----------------------------------------------------------------------
 #t hf aug-cc-pvdz iop(5/13=1,5/36=2,99/5=2) pseudo=read geom=check gue
 ss=(read,tcheck) scf=(maxcycle=1)
 ----------------------------------------------------------------------
 -----
 title
 -----
 Structure from the checkpoint file:  "BDE49_nonexpt_2586_mol2.chk"
 Charge =  0 Multiplicity = 2

                         Standard orientation:
 ---------------------------------------------------------------------
 Center     Atomic      Atomic             Coordinates (Angstroms)
 Number     Number       Type             X           Y           Z
 ---------------------------------------------------------------------
      1         16           0       -1.484368   -1.098722   -0.100664
      2          6           0        0.013269   -0.195040    0.483801
      3          8           0       -0.196223    1.157259    0.721907
      4          8           0        0.967306   -0.457151   -0.506185
      5          6           0       -0.491920    1.970378   -0.421276
      6          1           0       -0.660570    2.972940   -0.032235
      7          1           0       -1.389408    1.613394   -0.932126
      8          1           0        0.344366    1.978349   -1.123546
      9          6           0        2.311239   -0.509332   -0.019390
     10          1           0        2.949487   -0.645209   -0.891121
     11          1           0        2.448228   -1.354695    0.664180
     12          1           0        2.579280    0.421695    0.489757
     13          1           0        0.314313   -0.603814    1.451130
 ---------------------------------------------------------------------

 SCF Done:  E(UHF) =  -665.022921955     A.U. after    2 cycles

 The electronic state is 2-A.
 Alpha  occ. eigenvalues --  -93.55181 -20.59877 -20.59197 -11.38720 -11.30072
 Alpha  occ. eigenvalues --  -11.28539  -8.84943  -6.20312  -6.18618  -6.18162
 Alpha  occ. eigenvalues --   -1.39486  -1.32556  -1.03025  -0.95255  -0.93321
 Alpha  occ. eigenvalues --   -0.81939  -0.72366  -0.71059  -0.67612  -0.63168
 Alpha  occ. eigenvalues --   -0.62116  -0.59112  -0.54293  -0.53622  -0.49655
 Alpha  occ. eigenvalues --   -0.48329  -0.44193  -0.43557  -0.37964
 Alpha virt. eigenvalues --    0.03390   0.04601   0.04936   0.05677   0.06624
 Alpha virt. eigenvalues --    0.07083   0.07469   0.09107   0.11073   0.12334
 Alpha virt. eigenvalues --    0.13647   0.14614   0.14813   0.15578   0.16361

  Beta  occ. eigenvalues --  -93.54267 -20.59729 -20.59170 -11.38862 -11.30062
  Beta  occ. eigenvalues --  -11.28545  -8.83924  -6.18065  -6.17607  -6.16308
  Beta  occ. eigenvalues --   -1.39275  -1.32339  -1.01232  -0.94961  -0.89018
  Beta  occ. eigenvalues --   -0.79501  -0.72292  -0.70704  -0.66269  -0.62946
  Beta  occ. eigenvalues --   -0.61958  -0.58701  -0.54195  -0.53274  -0.49333
  Beta  occ. eigenvalues --   -0.47668  -0.43096  -0.35637
  Beta virt. eigenvalues --    0.01762   0.03398   0.04609   0.05022   0.05713
  Beta virt. eigenvalues --    0.06661   0.07113   0.07580   0.09259   0.11338
  Beta virt. eigenvalues --    0.13219   0.13719   0.14880   0.15425   0.15695

 Mulliken charges and spin densities:
               1          2
     1  S    0.183563   1.096616
     2  C    0.652240  -0.075874
     3  O   -0.669149   0.004352
     4  O   -0.634990  -0.014669
     5  C    0.711288   0.002532
     6  H   -0.230945   0.000351
     7  H   -0.050793  -0.016329
     8  H   -0.063520   0.000975
     9  C    0.646701  -0.003627
    10  H   -0.236696  -0.000615
    11  H   -0.082136  -0.000002
    12  H   -0.028099   0.000399
    13  H   -0.197464   0.005893
 Sum of Mulliken charges =  -0.00000   1.00000

 Dipole moment (field-independent basis, Debye):
    X=              1.9515    Y=              0.6743    Z=              0.1940  Tot=              2.0738
                          Isotropic Fermi Contact Couplings
        Atom                 a.u.       MegaHertz       Gauss      10(-4) cm-1
     1  S(33)              0.19523      67.05706      23.92763      22.36783
     2  C(13)             -0.02518     -28.31018     -10.10178      -9.44326
     3  O(17)              0.00246      -1.49370      -0.53299      -0.49825
     4  O(17)              0.04987     -30.23016     -10.78687     -10.08370
     5  C(13)             -0.00115      -1.28888      -0.45990      -0.42992
     6  H(1)               0.00009       0.39184       0.13982       0.13070
     7  H(1)               0.00012       0.52410       0.18701       0.17482
     8  H(1)              -0.00003      -0.14942      -0.05332      -0.04984

 Normal termination of Gaussian 16 at Wed Apr  9 00:17:45 2025.
