 Gaussian 16, Revision C.01,

 ----------------------------------------------------------------------
 #t hf aug-cc-pvdz symm=none int=(grid=ultrafine) guess=(read,tcheck) s
 table=(opt,rrhf)
 ----------------------------------------------------------------------
 -----
 title
 -----
 Symbolic Z-matrix:
 Charge =  0 Multiplicity = 1

 SCF Done:  E(RHF) =  -624.033245560     A.U. after   13 cycles
 Normal termination of Gaussian 16 at Tue Apr  8 23:37:00 2025.
 Gaussian 16:  ES64L-G16RevC.01  3-Jul-2019

 ----------------------------------------------------------------------
 #t hf aug-cc-pvdz iop(5/13=1,5/36=2,99/5=2) pseudo=read geom=check gue
 ss=(read,tcheck) scf=(maxcycle=1)
 ----------------------------------------------------------------------
 -----
 title
 -----
 Structure from the checkpoint file:  "BDE49_nonexpt_1562_mol1.chk"
 Charge =  0 Multiplicity = 1

                         Standard orientation:
 ---------------------------------------------------------------------
 Center     Atomic      Atomic             Coordinates (Angstroms)
 Number     Number       Type             X           Y           Z
 ---------------------------------------------------------------------
      1          6           0        1.391852   -0.014692    0.600959
      2          7           0       -1.283331   -0.134303   -0.250247
      3          8           0       -1.274406    1.178769   -0.781461
      4          8           0       -1.518930   -0.030182    1.158649
      5          6           0        2.450566    0.659462    0.147543
      6          1           0        3.110765    1.207503    0.813730
      7          1           0        2.702888    0.678218   -0.908975
      8          1           0       -2.480929   -0.089513    1.216991
      9          1           0       -0.581894    1.663726   -0.298820
     10         15           0        0.290932   -0.902781   -0.566530
     11          1           0        1.154640   -0.017719    1.660819
     12          1           0        0.006059   -2.017688    0.257422
 ---------------------------------------------------------------------

 SCF Done:  E(RHF) =  -624.146050654     A.U. after    2 cycles

 The electronic state is 1-A.
 Alpha  occ. eigenvalues --  -81.28969 -20.61999 -20.61709 -15.73736 -11.27094
 Alpha  occ. eigenvalues --  -11.25910  -7.79034  -4.93115  -4.92941  -4.92654
 Alpha  occ. eigenvalues --   -1.41615  -1.31173  -1.05793  -1.01043  -0.83866
 Alpha  occ. eigenvalues --   -0.76431  -0.74578  -0.66795  -0.66415  -0.65171
 Alpha  occ. eigenvalues --   -0.63139  -0.57874  -0.52172  -0.51405  -0.49703
 Alpha  occ. eigenvalues --   -0.41910  -0.39812  -0.36630
 Alpha virt. eigenvalues --    0.03268   0.04282   0.05294   0.05483   0.06400
 Alpha virt. eigenvalues --    0.07229   0.08715   0.09427   0.09653   0.11974
 Alpha virt. eigenvalues --    0.13983   0.14304   0.15763   0.16303   0.16707

 Mulliken charges:
               1
     1  C    0.209981
     2  N   -0.102067
     3  O   -0.439855
     4  O   -0.515510
     5  C    0.444166
     6  H   -0.234319
     7  H   -0.250374
     8  H    0.221907
     9  H    0.221873
    10  P    0.741535
    11  H   -0.421502
    12  H    0.124165
 Sum of Mulliken charges =  -0.00000

 Dipole moment (field-independent basis, Debye):
    X=              1.4842    Y=              0.2010    Z=              1.6919  Tot=              2.2596

 Test job not archived.
 1\1\GINC-SE054\SP\RHF\Aug-CC-pVDZ\C2H6N1O2P1\OHZDE\08-Apr-2025\0\\#t h
 f aug-cc-pvdz iop(5/13=1,5/36=2,99/5=2) pseudo=read geom=check guess=(
 read,tcheck) scf=(maxcycle=1)\\title\\0,1\C,0,1.391852,-0.014692,0.600
 959\N,0,-1.283331,-0.134303,-0.250247\O,0,-1.274406,1.178769,-0.781461
 \O,0,-1.51893,-0.030182,1.158649\C,0,2.450566,0.659462,0.147543\H,0,3.
 110765,1.207503,0.81373\H,0,2.702888,0.678218,-0.908975\H,0,-2.480929,
 -0.089513,1.216991\H,0,-0.581894,1.663726,-0.29882\P,0,0.290932,-0.902
 781,-0.56653\H,0,1.15464,-0.017719,1.660819\H,0,0.006059,-2.017688,0.2

 Normal termination of Gaussian 16 at Tue Apr  8 23:37:05 2025.
