 Gaussian 16, Revision C.01,

 ----------------------------------------------------------------------
 #t hf aug-cc-pvdz symm=none int=(grid=ultrafine) guess=(read,tcheck) s
 table=(opt,rrhf)
 ----------------------------------------------------------------------
 -----
 title
 -----
 Symbolic Z-matrix:
 Charge =  0 Multiplicity = 1

 SCF Done:  E(RHF) =  -808.613179192     A.U. after   13 cycles
 Normal termination of Gaussian 16 at Tue Apr  8 23:22:11 2025.
 Gaussian 16:  ES64L-G16RevC.01  3-Jul-2019

 ----------------------------------------------------------------------
 #t hf aug-cc-pvdz iop(5/13=1,5/36=2,99/5=2) pseudo=read geom=check gue
 ss=(read,tcheck) scf=(maxcycle=1)
 ----------------------------------------------------------------------
 -----
 title
 -----
 Structure from the checkpoint file:  "BDE49_expt_823_mol1.chk"
 Charge =  0 Multiplicity = 1

                         Standard orientation:
 ---------------------------------------------------------------------
 Center     Atomic      Atomic             Coordinates (Angstroms)
 Number     Number       Type             X           Y           Z
 ---------------------------------------------------------------------
      1         15           0        0.009580   -1.392770   -0.148924
      2          6           0        1.445654   -0.233010    0.212170
      3          6           0        2.651221   -1.055430    0.710663
      4          6           0       -1.483904   -0.257943   -0.296033
      5          1           0       -0.218840   -1.792762    1.196586
      6          6           0       -1.709719    0.730611    0.861447
      7          6           0        3.885652   -0.172827    0.953771
      8          1           0        2.897212   -1.822458   -0.034995
      9          1           0        2.387364   -1.589267    1.629626
     10          6           0        4.255794    0.636825   -0.296067
     11          1           0        4.730320   -0.794849    1.267773
     12          1           0        3.680106    0.515792    1.783479
     13          6           0        3.062920    1.460519   -0.798998
     14          1           0        4.578929   -0.050750   -1.088413
     15          1           0        5.107381    1.291986   -0.085812
     16          6           0        1.826220    0.579881   -1.040223
     17          1           0        3.327324    1.989162   -1.720771
     18          1           0        2.817737    2.231516   -0.057118
     19          1           0        0.986291    1.205368   -1.359774
     20          1           0        2.029828   -0.112877   -1.867425
     21          1           0        1.159593    0.464865    1.007130
     22          6           0       -2.968846    1.588487    0.648647
     23          1           0       -0.840815    1.382728    0.986740
     24          1           0       -1.812085    0.163952    1.796157
     25          6           0       -2.742269   -1.122952   -0.523555
     26          1           0       -1.311440    0.317931   -1.216044
     27          6           0       -3.999749   -0.265273   -0.734803
     28          1           0       -2.894144   -1.771902    0.349474
     29          1           0       -2.589816   -1.787118   -1.379690
     30          6           0       -4.213999    0.721825    0.420140
     31          1           0       -4.875550   -0.912362   -0.849817
     32          1           0       -3.899478    0.293374   -1.674415
     33          1           0       -5.085877    1.353941    0.222777
     34          1           0       -4.436396    0.161157    1.337430
     35          1           0       -2.817671    2.240722   -0.221357
     36          1           0       -3.117513    2.249118    1.509361
 ---------------------------------------------------------------------

 SCF Done:  E(RHF) =  -808.772069491     A.U. after    2 cycles

 The electronic state is 1-A.
 Alpha  occ. eigenvalues --  -81.23528 -11.23665 -11.23527 -11.22919 -11.22886
 Alpha  occ. eigenvalues --  -11.22806 -11.22798 -11.22669 -11.22661 -11.22592
 Alpha  occ. eigenvalues --  -11.22573 -11.22503 -11.22492  -7.73850  -4.87932
 Alpha  occ. eigenvalues --   -4.87898  -4.87557  -1.10654  -1.10076  -1.00595
 Alpha  occ. eigenvalues --   -0.99609  -0.99583  -0.99003  -0.84719  -0.83261
 Alpha  occ. eigenvalues --   -0.83241  -0.81935  -0.75740  -0.75461  -0.71665
 Alpha  occ. eigenvalues --   -0.64463  -0.64148  -0.60951  -0.60497  -0.60131
 Alpha  occ. eigenvalues --   -0.59927  -0.59837  -0.57413  -0.53314  -0.52967
 Alpha  occ. eigenvalues --   -0.52793  -0.52668  -0.49920  -0.49850  -0.49013
 Alpha  occ. eigenvalues --   -0.48637  -0.48479  -0.47390  -0.45634  -0.45117
 Alpha  occ. eigenvalues --   -0.43791  -0.43450  -0.42419  -0.38961  -0.32038
 Alpha virt. eigenvalues --    0.03260   0.03715   0.03998   0.04208   0.05004
 Alpha virt. eigenvalues --    0.05073   0.05221   0.06145   0.06331   0.06681
 Alpha virt. eigenvalues --    0.06978   0.07226   0.07434   0.07775   0.09021

 Mulliken charges:
               1
     1  P    0.358314
     2  C   -0.584116
     3  C    0.592996
     4  C   -0.766535
     5  H    0.133490
     6  C    0.424815
     7  C    0.464082
     8  H   -0.129530
     9  H   -0.209273
    10  C    0.339839
    11  H   -0.110726
    12  H   -0.115216
    13  C    0.372029
    14  H   -0.098062
    15  H   -0.115710
    16  C    0.284426
    17  H   -0.126996
    18  H   -0.088203
    19  H   -0.236622
    20  H   -0.081944
    21  H   -0.349594
    22  C    0.355716
    23  H   -0.290660
    24  H   -0.139920
    25  C    0.529843
    26  H   -0.266707
    27  C    0.500774
    28  H   -0.118917
    29  H   -0.205027
    30  C    0.331870
    31  H   -0.105629
    32  H   -0.111977
    33  H   -0.107421
    34  H   -0.106352
    35  H   -0.094945
    36  H   -0.128113
 Sum of Mulliken charges =  -0.00000

 Dipole moment (field-independent basis, Debye):
    X=             -0.0799    Y=              1.3633    Z=              0.4819  Tot=              1.4482

 Test job not archived.
 1\1\GINC-SE041\SP\RHF\Aug-CC-pVDZ\C12H23P1\OHZDE\08-Apr-2025\0\\#t hf
 aug-cc-pvdz iop(5/13=1,5/36=2,99/5=2) pseudo=read geom=check guess=(re
 ad,tcheck) scf=(maxcycle=1)\\title\\0,1\P,0,0.00958,-1.39277,-0.148924
 \C,0,1.445654,-0.23301,0.21217\C,0,2.651221,-1.05543,0.710663\C,0,-1.4
 83904,-0.257943,-0.296033\H,0,-0.21884,-1.792762,1.196586\C,0,-1.70971
 9,0.730611,0.861447\C,0,3.885652,-0.172827,0.953771\H,0,2.897212,-1.82
 2458,-0.034995\H,0,2.387364,-1.589267,1.629626\C,0,4.255794,0.636825,-
 0.296067\H,0,4.73032,-0.794849,1.267773\H,0,3.680106,0.515792,1.783479

 Normal termination of Gaussian 16 at Tue Apr  8 23:23:00 2025.
