 Gaussian 16, Revision C.01,

 ----------------------------------------------------------------------
 #t hf aug-cc-pvdz symm=none int=(grid=ultrafine) guess=(read,tcheck) s
 table=(opt,rrhf)
 ----------------------------------------------------------------------
 -----
 title
 -----
 Symbolic Z-matrix:
 Charge =  0 Multiplicity = 1

 SCF Done:  E(RHF) =  -1897.64276179     A.U. after   17 cycles
 Normal termination of Gaussian 16 at Tue Apr  8 23:46:24 2025.
 Gaussian 16:  ES64L-G16RevC.01  3-Jul-2019

 ----------------------------------------------------------------------
 #t hf aug-cc-pvdz iop(5/13=1,5/36=2,99/5=2) pseudo=read geom=check gue
 ss=(read,tcheck) scf=(maxcycle=1)
 ----------------------------------------------------------------------
 -----
 title
 -----
 Structure from the checkpoint file:  "BDE49_nonexpt_1778_mol1.chk"
 Charge =  0 Multiplicity = 1

                         Standard orientation:
 ---------------------------------------------------------------------
 Center     Atomic      Atomic             Coordinates (Angstroms)
 Number     Number       Type             X           Y           Z
 ---------------------------------------------------------------------
      1          6           0        0.489676   -1.528797   -0.361671
      2          6           0       -0.856697   -1.763781   -0.118952
      3          6           0       -1.741507   -0.694559    0.016434
      4          6           0       -1.267119    0.616312   -0.093724
      5          6           0        0.085875    0.843290   -0.336220
      6          6           0        0.985292   -0.220463   -0.472681
      7          1           0        1.155863   -2.378304   -0.465531
      8          1           0       -1.237949   -2.773195   -0.033745
      9         14           0        2.793758    0.105848   -0.793736
     10          1           0        0.422530    1.869983   -0.418141
     11         17           0        3.879287    0.090953    0.988634
     12         17           0       -2.335744    1.985090    0.062940
     13         17           0       -3.423514   -1.028796    0.316940
     14          1           0        2.968156    1.441686   -1.393098
     15          1           0        3.365164   -0.957269   -1.641023
 ---------------------------------------------------------------------

 SCF Done:  E(RHF) =  -1897.78795070     A.U. after    2 cycles

 The electronic state is 1-A.
 Alpha  occ. eigenvalues -- -103.68444-103.68217-103.65550 -69.12665 -11.34345
 Alpha  occ. eigenvalues --  -11.33811 -11.28870 -11.28445 -11.28192 -11.26828
 Alpha  occ. eigenvalues --  -10.71728 -10.71496 -10.68981  -8.37466  -8.37235
 Alpha  occ. eigenvalues --   -8.37143  -8.37132  -8.36914  -8.36900  -8.34673
 Alpha  occ. eigenvalues --   -8.34449  -8.34447  -6.87556  -3.98357  -3.98255
 Alpha  occ. eigenvalues --   -3.98240  -1.23853  -1.18418  -1.14923  -1.13720
 Alpha  occ. eigenvalues --   -1.03840  -1.01610  -0.86974  -0.84382  -0.74375
 Alpha  occ. eigenvalues --   -0.69457  -0.68988  -0.65598  -0.62086  -0.59146
 Alpha  occ. eigenvalues --   -0.59063  -0.54901  -0.54226  -0.53520  -0.51892
 Alpha  occ. eigenvalues --   -0.51151  -0.49501  -0.48806  -0.47538  -0.46352
 Alpha  occ. eigenvalues --   -0.45860  -0.37140  -0.36077
 Alpha virt. eigenvalues --    0.02976   0.03997   0.04777   0.05070   0.05833
 Alpha virt. eigenvalues --    0.06253   0.07021   0.07211   0.08736   0.08824
 Alpha virt. eigenvalues --    0.09464   0.09859   0.10898   0.11772   0.12500

 Mulliken charges:
               1
     1  C    0.774307
     2  C    1.034203
     3  C   -0.232308
     4  C    0.552966
     5  C    0.757886
     6  C   -0.768013
     7  H   -0.619257
     8  H   -0.451108
     9  Si   0.696533
    10  H   -0.538984
    11  Cl  -0.566391
    12  Cl  -0.350684
    13  Cl  -0.313328
    14  H    0.001119
    15  H    0.023060
 Sum of Mulliken charges =  -0.00000

 Dipole moment (field-independent basis, Debye):
    X=              0.7977    Y=             -1.2283    Z=             -1.6964  Tot=              2.2411

 Test job not archived.
 1\1\GINC-SE396\SP\RHF\Aug-CC-pVDZ\C6H5Cl3Si1\OHZDE\08-Apr-2025\0\\#t h
 f aug-cc-pvdz iop(5/13=1,5/36=2,99/5=2) pseudo=read geom=check guess=(
 read,tcheck) scf=(maxcycle=1)\\title\\0,1\C,0,0.489676,-1.528797,-0.36
 1671\C,0,-0.856697,-1.763781,-0.118952\C,0,-1.741507,-0.694559,0.01643
 4\C,0,-1.267119,0.616312,-0.093724\C,0,0.085875,0.84329,-0.33622\C,0,0
 .985292,-0.220463,-0.472681\H,0,1.155863,-2.378304,-0.465531\H,0,-1.23
 7949,-2.773195,-0.033745\Si,0,2.793758,0.105848,-0.793736\H,0,0.42253,
 1.869983,-0.418141\Cl,0,3.879287,0.090954,0.988634\Cl,0,-2.335744,1.98

 Normal termination of Gaussian 16 at Tue Apr  8 23:46:32 2025.
