 Gaussian 16, Revision C.01,

 ----------------------------------------------------------------------
 #t hf aug-cc-pvdz symm=none int=(grid=ultrafine) guess=(read,tcheck) s
 table=(opt,rrhf)
 ----------------------------------------------------------------------
 -----
 title
 -----
 Symbolic Z-matrix:
 Charge =  0 Multiplicity = 1

 SCF Done:  E(RHF) =  -794.109453697     A.U. after   14 cycles
 Normal termination of Gaussian 16 at Tue Apr  8 23:22:05 2025.
 Gaussian 16:  ES64L-G16RevC.01  3-Jul-2019

 ----------------------------------------------------------------------
 #t hf aug-cc-pvdz iop(5/13=1,5/36=2,99/5=2) pseudo=read geom=check gue
 ss=(read,tcheck) scf=(maxcycle=1)
 ----------------------------------------------------------------------
 -----
 title
 -----
 Structure from the checkpoint file:  "BDE49_expt_810_mol1.chk"
 Charge =  0 Multiplicity = 1

                         Standard orientation:
 ---------------------------------------------------------------------
 Center     Atomic      Atomic             Coordinates (Angstroms)
 Number     Number       Type             X           Y           Z
 ---------------------------------------------------------------------
      1         14           0       -0.645512    1.420973    0.018914
      2          6           0       -1.922166    0.267279   -0.783625
      3          6           0        1.015595    0.580207    0.317540
      4          6           0        1.704010   -0.067707   -0.722371
      5          6           0        2.948070   -0.672567   -0.533495
      6          6           0        3.519314   -0.624526    0.744332
      7          6           0        2.862665    0.010646    1.792024
      8          6           0        1.620726    0.609207    1.581168
      9          1           0        1.120001    1.100179    2.409604
     10          1           0        1.263404   -0.106991   -1.715787
     11          1           0        3.318139    0.039558    2.776248
     12          6           0       -0.411984    2.900804   -1.125528
     13          1           0       -1.111527    1.912218    1.342035
     14          1           0       -0.063141    2.586347   -2.114023
     15          1           0        0.327938    3.594909   -0.718001
     16          1           0       -1.350843    3.446419   -1.260205
     17          6           0       -2.683647   -0.804526    0.046025
     18          1           0       -1.401829   -0.234094   -1.612017
     19          1           0       -2.662512    0.919598   -1.266663
     20          6           0       -3.561834   -1.631473   -0.915115
     21          1           0       -4.274393   -0.992532   -1.446117
     22          1           0       -4.132862   -2.390771   -0.370993
     23          1           0       -2.950044   -2.144872   -1.663478
     24          6           0       -1.703123   -1.752183    0.760553
     25          1           0       -1.025537   -2.232859    0.048733
     26          1           0       -2.247928   -2.540389    1.289819
     27          1           0       -1.088298   -1.223959    1.493952
     28          6           0       -3.595812   -0.128193    1.086809
     29          1           0       -4.309846    0.546883    0.604058
     30          1           0       -3.021122    0.454582    1.810621
     31          1           0       -4.169208   -0.877380    1.641566
     32          1           0        4.485469   -1.089387    0.916300
     33          6           0        3.667023   -1.359924   -1.670117
     34          1           0        3.077479   -1.332492   -2.588692
     35          1           0        3.870992   -2.408918   -1.434228
     36          1           0        4.629800   -0.881938   -1.876734
 ---------------------------------------------------------------------

 SCF Done:  E(RHF) =  -794.286091970     A.U. after    2 cycles

 The electronic state is 1-A.
 Alpha  occ. eigenvalues --  -69.04792 -11.24963 -11.24342 -11.24184 -11.23987
 Alpha  occ. eigenvalues --  -11.23959 -11.23918 -11.23537 -11.22556 -11.21649
 Alpha  occ. eigenvalues --  -11.21591 -11.21424 -11.21132 -11.20845  -6.80076
 Alpha  occ. eigenvalues --   -3.90838  -3.90815  -3.90770  -1.13926  -1.08677
 Alpha  occ. eigenvalues --   -1.03498  -1.00280  -0.93841  -0.92918  -0.92200
 Alpha  occ. eigenvalues --   -0.92141  -0.90868  -0.82227  -0.79560  -0.73193
 Alpha  occ. eigenvalues --   -0.69649  -0.65077  -0.63826  -0.61426  -0.61203
 Alpha  occ. eigenvalues --   -0.60999  -0.58813  -0.57851  -0.57131  -0.56389
 Alpha  occ. eigenvalues --   -0.55097  -0.54892  -0.54383  -0.53825  -0.52715
 Alpha  occ. eigenvalues --   -0.51000  -0.50947  -0.49080  -0.48772  -0.47677
 Alpha  occ. eigenvalues --   -0.46270  -0.45465  -0.43815  -0.42782  -0.40963
 Alpha  occ. eigenvalues --   -0.33437  -0.32539
 Alpha virt. eigenvalues --    0.02916   0.03754   0.03804   0.04237   0.05061
 Alpha virt. eigenvalues --    0.05101   0.05606   0.05721   0.06129   0.06797
 Alpha virt. eigenvalues --    0.06876   0.07209   0.07664   0.08149   0.08297

 Mulliken charges:
               1
     1  Si   0.365355
     2  C    1.157313
     3  C   -0.441913
     4  C    0.535292
     5  C   -0.384402
     6  C    1.447173
     7  C    0.224473
     8  C    0.549095
     9  H   -0.755984
    10  H   -0.844583
    11  H   -0.496381
    12  C    0.580994
    13  H    0.206459
    14  H   -0.184110
    15  H   -0.390061
    16  H   -0.327521
    17  C   -4.435344
    18  H   -0.188253
    19  H   -0.304218
    20  C    1.494407
    21  H    0.006313
    22  H   -0.044825
    23  H   -0.020196
    24  C    1.322974
    25  H   -0.039420
    26  H   -0.103561
    27  H   -0.033704
    28  C    1.231396
    29  H   -0.039896
    30  H   -0.101535
    31  H   -0.011185
    32  H   -0.629696
    33  C    0.733115
    34  H   -0.221613
    35  H    0.070918
    36  H    0.073124
 Sum of Mulliken charges =  -0.00000

 Dipole moment (field-independent basis, Debye):
    X=              0.4298    Y=             -0.4482    Z=             -0.6494  Tot=              0.8985

 Test job not archived.
 1\1\GINC-SE054\SP\RHF\Aug-CC-pVDZ\C13H22Si1\OHZDE\08-Apr-2025\0\\#t hf
  aug-cc-pvdz iop(5/13=1,5/36=2,99/5=2) pseudo=read geom=check guess=(r
 ead,tcheck) scf=(maxcycle=1)\\title\\0,1\Si,0,-0.645512,1.420973,0.018
 914\C,0,-1.922166,0.267279,-0.783625\C,0,1.015595,0.580207,0.31754\C,0
 ,1.70401,-0.067707,-0.722371\C,0,2.94807,-0.672567,-0.533495\C,0,3.519
 314,-0.624526,0.744332\C,0,2.862665,0.010646,1.792024\C,0,1.620726,0.6
 09207,1.581168\H,0,1.120001,1.100179,2.409604\H,0,1.263404,-0.106991,-
 1.715787\H,0,3.318139,0.039558,2.776248\C,0,-0.411984,2.900804,-1.1255

 Normal termination of Gaussian 16 at Tue Apr  8 23:22:56 2025.
