 Gaussian 16, Revision C.01,

 ----------------------------------------------------------------------
 #t hf aug-cc-pvdz symm=none int=(grid=ultrafine) guess=(read,tcheck) s
 table=(opt,rrhf)
 ----------------------------------------------------------------------
 -----
 title
 -----
 Symbolic Z-matrix:
 Charge =  0 Multiplicity = 1

 SCF Done:  E(RHF) =  -588.622575557     A.U. after   12 cycles
 Normal termination of Gaussian 16 at Tue Apr  8 22:30:31 2025.
 Gaussian 16:  ES64L-G16RevC.01  3-Jul-2019

 ----------------------------------------------------------------------
 #t hf aug-cc-pvdz iop(5/13=1,5/36=2,99/5=2) pseudo=read geom=check gue
 ss=(read,tcheck) scf=(maxcycle=1)
 ----------------------------------------------------------------------
 -----
 title
 -----
 Structure from the checkpoint file:  "BDE49_expt_1054_mol1.chk"
 Charge =  0 Multiplicity = 1

                         Standard orientation:
 ---------------------------------------------------------------------
 Center     Atomic      Atomic             Coordinates (Angstroms)
 Number     Number       Type             X           Y           Z
 ---------------------------------------------------------------------
      1          6           0        1.203650   -0.077271   -0.843476
      2          8           0        1.760499   -1.268078   -0.340331
      3          1           0        1.053770   -1.908387   -0.208945
      4          6           0        0.218383    0.589949    0.114326
      5          1           0        0.692198   -0.211636   -1.804719
      6          1           0        2.023532    0.628499   -0.985675
      7          6           0       -1.129480   -0.119327    0.294621
      8          9           0       -0.067312    1.845295   -0.358702
      9          9           0        0.763496    0.732208    1.355669
     10          9           0       -0.912941   -1.403715    0.719884
     11          9           0       -1.765842   -0.186687   -0.904630
     12          1           0       -1.765413    0.392138    1.019170
 ---------------------------------------------------------------------

 SCF Done:  E(RHF) =  -588.825444916     A.U. after    2 cycles

 The electronic state is 1-A.
 Alpha  occ. eigenvalues --  -26.17322 -26.17075 -26.16392 -26.16067 -20.59935
 Alpha  occ. eigenvalues --  -11.45994 -11.45543 -11.32690  -1.73813  -1.72277
 Alpha  occ. eigenvalues --   -1.69152  -1.67905  -1.35425  -1.11086  -1.01548
 Alpha  occ. eigenvalues --   -0.93335  -0.87214  -0.86200  -0.85554  -0.82393
 Alpha  occ. eigenvalues --   -0.80615  -0.77591  -0.76572  -0.75640  -0.73188
 Alpha  occ. eigenvalues --   -0.72598  -0.71657  -0.67698  -0.65826  -0.63760
 Alpha  occ. eigenvalues --   -0.60135  -0.53056  -0.49647
 Alpha virt. eigenvalues --    0.03723   0.04323   0.05392   0.06013   0.08573
 Alpha virt. eigenvalues --    0.09701   0.10405   0.11632   0.12943   0.14684
 Alpha virt. eigenvalues --    0.14834   0.15072   0.16378   0.17005   0.18872

 Mulliken charges:
               1
     1  C    0.723403
     2  O   -0.527935
     3  H    0.191257
     4  C    0.348895
     5  H    0.000753
     6  H   -0.059686
     7  C    0.970753
     8  F   -0.404997
     9  F   -0.387830
    10  F   -0.388292
    11  F   -0.351083
    12  H   -0.115239
 Sum of Mulliken charges =  -0.00000

 Dipole moment (field-independent basis, Debye):
    X=             -1.2845    Y=              0.0213    Z=             -0.5218  Tot=              1.3866

 Test job not archived.
 1\1\GINC-SE366\SP\RHF\Aug-CC-pVDZ\C3H4F4O1\OHZDE\08-Apr-2025\0\\#t hf
 aug-cc-pvdz iop(5/13=1,5/36=2,99/5=2) pseudo=read geom=check guess=(re
 ad,tcheck) scf=(maxcycle=1)\\title\\0,1\C,0,1.20365,-0.077272,-0.84347
 6\O,0,1.760499,-1.268079,-0.340331\H,0,1.053769,-1.908387,-0.208945\C,
 0,0.218383,0.589949,0.114326\H,0,0.692198,-0.211636,-1.804719\H,0,2.02
 3532,0.628498,-0.985675\C,0,-1.12948,-0.119327,0.294621\F,0,-0.067311,
 1.845295,-0.358702\F,0,0.763496,0.732208,1.355669\F,0,-0.912942,-1.403
 715,0.719884\F,0,-1.765842,-0.186686,-0.90463\H,0,-1.765413,0.392139,1

 Normal termination of Gaussian 16 at Tue Apr  8 22:30:35 2025.
