 Gaussian 16, Revision C.01,

 ----------------------------------------------------------------------
 #t hf aug-cc-pvdz symm=none int=(grid=ultrafine) guess=(read,tcheck) s
 table=(opt,rrhf)
 ----------------------------------------------------------------------
 -----
 title
 -----
 Symbolic Z-matrix:
 Charge =  0 Multiplicity = 1

 SCF Done:  E(RHF) =  -165.599909771     A.U. after   13 cycles
 Normal termination of Gaussian 16 at Wed Apr  9 00:33:47 2025.
 Gaussian 16:  ES64L-G16RevC.01  3-Jul-2019

 ----------------------------------------------------------------------
 #t hf aug-cc-pvdz iop(5/13=1,5/36=2,99/5=2) pseudo=read geom=check gue
 ss=(read,tcheck) scf=(maxcycle=1)
 ----------------------------------------------------------------------
 -----
 title
 -----
 Structure from the checkpoint file:  "BDE49_nonexpt_45_mol1.chk"
 Charge =  0 Multiplicity = 1

                         Standard orientation:
 ---------------------------------------------------------------------
 Center     Atomic      Atomic             Coordinates (Angstroms)
 Number     Number       Type             X           Y           Z
 ---------------------------------------------------------------------
      1          5           0        0.634008    0.426064   -0.000151
      2          5           0        2.221313   -0.102631    0.000043
      3          8           0       -0.419529   -0.417103   -0.000065
      4          6           0       -1.774580    0.035130    0.000066
      5          1           0       -2.273844   -0.357182    0.888317
      6          1           0       -2.274004   -0.357164   -0.888102
      7          1           0       -1.823479    1.127944    0.000081
      8          1           0        2.838465   -0.261777    1.012575
      9          1           0        2.838675   -0.261797   -1.012357
     10          1           0        0.421296    1.618853    0.000147
 ---------------------------------------------------------------------

 SCF Done:  E(RHF) =  -165.659373919     A.U. after    2 cycles

 The electronic state is 1-A.
 Alpha  occ. eigenvalues --  -20.58375 -11.29492  -7.61640  -7.59858  -1.33303
 Alpha  occ. eigenvalues --   -0.94786  -0.74210  -0.68301  -0.64634  -0.64401
 Alpha  occ. eigenvalues --   -0.56128  -0.51250  -0.49926  -0.47333  -0.41106
 Alpha virt. eigenvalues --    0.03538   0.04473   0.04608   0.05041   0.05984
 Alpha virt. eigenvalues --    0.06118   0.06618   0.08131   0.08885   0.09592
 Alpha virt. eigenvalues --    0.10063   0.11520   0.13750   0.14276   0.14767

 Mulliken charges:
               1
     1  B    0.228447
     2  B   -0.343915
     3  O   -0.608274
     4  C    0.825472
     5  H   -0.149029
     6  H   -0.149033
     7  H   -0.212211
     8  H    0.194792
     9  H    0.194724
    10  H    0.019026
 Sum of Mulliken charges =  -0.00000

 Dipole moment (field-independent basis, Debye):
    X=             -1.4445    Y=              0.7127    Z=             -0.0002  Tot=              1.6108

 Test job not archived.
 1\1\GINC-SE419\SP\RHF\Aug-CC-pVDZ\C1H6B2O1\OHZDE\09-Apr-2025\0\\#t hf
 aug-cc-pvdz iop(5/13=1,5/36=2,99/5=2) pseudo=read geom=check guess=(re
 ad,tcheck) scf=(maxcycle=1)\\title\\0,1\B,0,-0.634008,0.426064,0.00015
 1\B,0,-2.221313,-0.102631,-0.000043\O,0,0.419529,-0.417103,0.000065\C,
 0,1.77458,0.03513,-0.000066\H,0,2.273844,-0.357182,-0.888317\H,0,2.274
 004,-0.357164,0.888102\H,0,1.823479,1.127944,-0.000081\H,0,-2.838465,-
 0.261777,-1.012575\H,0,-2.838675,-0.261797,1.012357\H,0,-0.421296,1.61
 8853,-0.000147\\Version=ES64L-G16RevC.01\State=1-A\HF=-165.6593739\RMS

 Normal termination of Gaussian 16 at Wed Apr  9 00:33:49 2025.
