 Gaussian 16, Revision C.01,

 ----------------------------------------------------------------------
 #t hf aug-cc-pvdz symm=none int=(grid=ultrafine) guess=(read,tcheck) s
 table=(opt,rrhf)
 ----------------------------------------------------------------------
 -----
 title
 -----
 Symbolic Z-matrix:
 Charge =  0 Multiplicity = 1

 SCF Done:  E(RHF) =  -420.320310059     A.U. after   16 cycles
 Normal termination of Gaussian 16 at Tue Apr  8 23:20:06 2025.
 Gaussian 16:  ES64L-G16RevC.01  3-Jul-2019

 ----------------------------------------------------------------------
 #t hf aug-cc-pvdz iop(5/13=1,5/36=2,99/5=2) pseudo=read geom=check gue
 ss=(read,tcheck) scf=(maxcycle=1)
 ----------------------------------------------------------------------
 -----
 title
 -----
 Structure from the checkpoint file:  "BDE49_nonexpt_1174_mol1.chk"
 Charge =  0 Multiplicity = 1

                         Standard orientation:
 ---------------------------------------------------------------------
 Center     Atomic      Atomic             Coordinates (Angstroms)
 Number     Number       Type             X           Y           Z
 ---------------------------------------------------------------------
      1          9           0        2.645881    0.420683    0.000001
      2          8           0        1.766727   -0.709608   -0.000004
      3          6           0        0.464779   -0.270643   -0.000001
      4          6           0       -0.484037   -1.293459    0.000002
      5          6           0        0.061925    1.056910   -0.000003
      6          6           0       -1.311367    1.299906   -0.000001
      7          6           0       -1.821313   -0.916193    0.000003
      8          7           0       -2.249004    0.351300    0.000002
      9          1           0       -0.184852   -2.333485    0.000004
     10          1           0       -2.590333   -1.683076    0.000006
     11          1           0        0.779168    1.863030   -0.000005
     12          1           0       -1.667629    2.326026   -0.000002
 ---------------------------------------------------------------------

 SCF Done:  E(RHF) =  -420.451082888     A.U. after    2 cycles

 The electronic state is 1-A.
 Alpha  occ. eigenvalues --  -26.19657 -20.74036 -15.64053 -11.36192 -11.30671
 Alpha  occ. eigenvalues --  -11.30640 -11.27005 -11.26819  -1.70224  -1.37638
 Alpha  occ. eigenvalues --   -1.24573  -1.08599  -1.05085  -0.89036  -0.88790
 Alpha  occ. eigenvalues --   -0.80598  -0.80403  -0.77438  -0.70163  -0.68581
 Alpha  occ. eigenvalues --   -0.66658  -0.64317  -0.63212  -0.62173  -0.54971
 Alpha  occ. eigenvalues --   -0.54404  -0.43195  -0.38773  -0.37146
 Alpha virt. eigenvalues --    0.03328   0.03591   0.04841   0.05768   0.08002
 Alpha virt. eigenvalues --    0.09067   0.09134   0.09596   0.11111   0.11303
 Alpha virt. eigenvalues --    0.12677   0.13275   0.13546   0.13592   0.13703

 Mulliken charges:
               1
     1  F   -0.333688
     2  O   -0.230747
     3  C   -0.238309
     4  C    0.819502
     5  C    1.173308
     6  C    0.317010
     7  C    0.388987
     8  N   -0.425570
     9  H   -0.440413
    10  H   -0.310425
    11  H   -0.407376
    12  H   -0.312280
 Sum of Mulliken charges =  -0.00000

 Dipole moment (field-independent basis, Debye):
    X=             -0.2930    Y=             -0.4967    Z=             -0.0000  Tot=              0.5766

 Test job not archived.
 1\1\GINC-SE072\SP\RHF\Aug-CC-pVDZ\C5H4F1N1O1\OHZDE\08-Apr-2025\0\\#t h
 f aug-cc-pvdz iop(5/13=1,5/36=2,99/5=2) pseudo=read geom=check guess=(
 read,tcheck) scf=(maxcycle=1)\\title\\0,1\F,0,2.645881,0.420683,0.0000
 01\O,0,1.766727,-0.709608,-0.000004\C,0,0.464779,-0.270643,-0.000001\C
 ,0,-0.484037,-1.293459,0.000002\C,0,0.061925,1.05691,-0.000003\C,0,-1.
 311367,1.299906,-0.000001\C,0,-1.821313,-0.916193,0.000003\N,0,-2.2490
 04,0.3513,0.000002\H,0,-0.184852,-2.333485,0.000004\H,0,-2.590333,-1.6
 83076,0.000006\H,0,0.779168,1.86303,-0.000005\H,0,-1.667629,2.326026,-

 Normal termination of Gaussian 16 at Tue Apr  8 23:20:11 2025.
