 Gaussian 16, Revision C.01,

 ----------------------------------------------------------------------
 #t hf aug-cc-pvdz symm=none int=(grid=ultrafine) guess=(read,tcheck) s
 table=(opt,rrhf)
 ----------------------------------------------------------------------
 -----
 title
 -----
 Symbolic Z-matrix:
 Charge =  0 Multiplicity = 1

 SCF Done:  E(RHF) =  -628.258305747     A.U. after   15 cycles
 Normal termination of Gaussian 16 at Tue Apr  8 22:44:53 2025.
 Gaussian 16:  ES64L-G16RevC.01  3-Jul-2019

 ----------------------------------------------------------------------
 #t hf aug-cc-pvdz iop(5/13=1,5/36=2,99/5=2) pseudo=read geom=check gue
 ss=(read,tcheck) scf=(maxcycle=1)
 ----------------------------------------------------------------------
 -----
 title
 -----
 Structure from the checkpoint file:  "BDE49_expt_1559_mol1.chk"
 Charge =  0 Multiplicity = 1

                         Standard orientation:
 ---------------------------------------------------------------------
 Center     Atomic      Atomic             Coordinates (Angstroms)
 Number     Number       Type             X           Y           Z
 ---------------------------------------------------------------------
      1          6           0        2.293494    0.003727   -0.000001
      2          6           0        1.588513    1.204992   -0.000001
      3          6           0        0.196377    1.209311   -0.000001
      4          6           0        1.591372   -1.199917   -0.000000
      5          6           0        0.200225   -1.206360    0.000003
      6          6           0       -0.506310    0.000956    0.000001
      7          1           0        3.376999    0.005331   -0.000002
      8          1           0        2.121643    2.149176   -0.000002
      9          1           0       -0.338308    2.152247   -0.000004
     10          1           0        2.126903   -2.142643    0.000001
     11          1           0       -0.336653   -2.148416    0.000007
     12         16           0       -2.288731   -0.083246   -0.000003
     13          1           0       -2.512912    1.239988    0.000054
 ---------------------------------------------------------------------

 SCF Done:  E(RHF) =  -628.346327215     A.U. after    2 cycles

 The electronic state is 1-A.
 Alpha  occ. eigenvalues --  -93.55024 -11.28978 -11.25569 -11.25507 -11.25415
 Alpha  occ. eigenvalues --  -11.25255 -11.24813  -8.84798  -6.19003  -6.18799
 Alpha  occ. eigenvalues --   -6.18381  -1.15744  -1.04995  -1.02057  -0.94300
 Alpha  occ. eigenvalues --   -0.84096  -0.81216  -0.70835  -0.65149  -0.64121
 Alpha  occ. eigenvalues --   -0.60234  -0.58307  -0.52764  -0.52739  -0.50769
 Alpha  occ. eigenvalues --   -0.46913  -0.41711  -0.35093  -0.31155
 Alpha virt. eigenvalues --    0.03378   0.03963   0.04374   0.05700   0.06146
 Alpha virt. eigenvalues --    0.07771   0.08963   0.09737   0.10306   0.11770
 Alpha virt. eigenvalues --    0.11996   0.13042   0.13965   0.14079   0.14193

 Mulliken charges:
               1
     1  C    0.283900
     2  C    0.674420
     3  C    0.399798
     4  C    0.503031
     5  C   -0.054943
     6  C    0.292753
     7  H   -0.428179
     8  H   -0.429476
     9  H   -0.571802
    10  H   -0.431878
    11  H   -0.482062
    12  S    0.239133
    13  H    0.005305
 Sum of Mulliken charges =   0.00000

 Dipole moment (field-independent basis, Debye):
    X=              1.0140    Y=              0.7857    Z=              0.0000  Tot=              1.2828

 Test job not archived.
 1\1\GINC-SE457\SP\RHF\Aug-CC-pVDZ\C6H6S1\OHZDE\08-Apr-2025\0\\#t hf au
 g-cc-pvdz iop(5/13=1,5/36=2,99/5=2) pseudo=read geom=check guess=(read
 ,tcheck) scf=(maxcycle=1)\\title\\0,1\C,0,2.293494,0.003727,-0.000001\
 C,0,1.588513,1.204992,-0.000001\C,0,0.196377,1.209311,-0.000001\C,0,1.
 591372,-1.199917,0.\C,0,0.200225,-1.20636,0.000003\C,0,-0.50631,0.0009
 56,0.000001\H,0,3.376999,0.005331,-0.000002\H,0,2.121643,2.149176,-0.0
 00002\H,0,-0.338308,2.152247,-0.000004\H,0,2.126903,-2.142643,0.000001
 \H,0,-0.336653,-2.148416,0.000007\S,0,-2.288731,-0.083246,-0.000003\H,

 Normal termination of Gaussian 16 at Tue Apr  8 22:44:57 2025.
