 Gaussian 16, Revision C.01,

 ----------------------------------------------------------------------
 #t hf aug-cc-pvdz symm=none int=(grid=ultrafine) guess=(read,tcheck) s
 table=(opt,rrhf)
 ----------------------------------------------------------------------
 -----
 title
 -----
 Symbolic Z-matrix:
 Charge =  0 Multiplicity = 1

 SCF Done:  E(RHF) =  -862.152992034     A.U. after   15 cycles
 Normal termination of Gaussian 16 at Tue Apr  8 23:41:02 2025.
 Gaussian 16:  ES64L-G16RevC.01  3-Jul-2019

 ----------------------------------------------------------------------
 #t hf aug-cc-pvdz iop(5/13=1,5/36=2,99/5=2) pseudo=read geom=check gue
 ss=(read,tcheck) scf=(maxcycle=1)
 ----------------------------------------------------------------------
 -----
 title
 -----
 Structure from the checkpoint file:  "BDE49_nonexpt_1652_mol1.chk"
 Charge =  0 Multiplicity = 1

                         Standard orientation:
 ---------------------------------------------------------------------
 Center     Atomic      Atomic             Coordinates (Angstroms)
 Number     Number       Type             X           Y           Z
 ---------------------------------------------------------------------
      1          6           0        0.355685    0.230012    0.316371
      2          6           0        0.897219   -1.051449    0.512388
      3          6           0        2.223627   -1.326484    0.192491
      4          6           0        3.037052   -0.323459   -0.333125
      5          6           0        2.519079    0.953214   -0.535921
      6          6           0        1.190820    1.225803   -0.213624
      7         15           0       -2.813155   -0.571450   -0.662175
      8          1           0        2.623445   -2.321605    0.353202
      9          1           0        4.070549   -0.537022   -0.582290
     10          1           0        3.148336    1.736986   -0.943062
     11          1           0        0.802822    2.226723   -0.373614
     12          1           0        0.279051   -1.845217    0.920684
     13         14           0       -1.435110    0.603985    0.730490
     14          1           0       -2.581056    0.266389   -1.784535
     15          1           0       -3.986675    0.122962   -0.263043
     16          1           0       -1.644300    2.069110    0.642402
     17          1           0       -1.764207    0.151801    2.104530
 ---------------------------------------------------------------------

 SCF Done:  E(RHF) =  -862.260640238     A.U. after    2 cycles

 The electronic state is 1-A.
 Alpha  occ. eigenvalues --  -81.24645 -69.07514 -11.25505 -11.25475 -11.25409
 Alpha  occ. eigenvalues --  -11.25028 -11.25011 -11.24061  -7.75176  -6.82750
 Alpha  occ. eigenvalues --   -4.89119  -4.89034  -4.88817  -3.93476  -3.93464
 Alpha  occ. eigenvalues --   -3.93449  -1.14575  -1.01574  -1.01329  -0.83358
 Alpha  occ. eigenvalues --   -0.83225  -0.79632  -0.72118  -0.66673  -0.63478
 Alpha  occ. eigenvalues --   -0.63176  -0.59739  -0.55784  -0.52298  -0.51133
 Alpha  occ. eigenvalues --   -0.50288  -0.48808  -0.45847  -0.43158  -0.35910
 Alpha  occ. eigenvalues --   -0.34583  -0.33708
 Alpha virt. eigenvalues --    0.03114   0.03987   0.04200   0.05131   0.05606
 Alpha virt. eigenvalues --    0.06051   0.07176   0.07392   0.08136   0.08742
 Alpha virt. eigenvalues --    0.08928   0.09660   0.10165   0.10497   0.11496

 Mulliken charges:
               1
     1  C   -0.476436
     2  C    0.516828
     3  C    0.713131
     4  C    0.594660
     5  C    0.708810
     6  C    0.419487
     7  P   -0.573794
     8  H   -0.443163
     9  H   -0.437405
    10  H   -0.446379
    11  H   -0.599593
    12  H   -0.576971
    13  Si   0.208751
    14  H    0.189923
    15  H    0.163830
    16  H   -0.014473
    17  H    0.052794
 Sum of Mulliken charges =  -0.00000

 Dipole moment (field-independent basis, Debye):
    X=              1.0106    Y=              0.4758    Z=             -0.1107  Tot=              1.1225

 Test job not archived.
 1\1\GINC-SE331\SP\RHF\Aug-CC-pVDZ\C6H9P1Si1\OHZDE\08-Apr-2025\0\\#t hf
  aug-cc-pvdz iop(5/13=1,5/36=2,99/5=2) pseudo=read geom=check guess=(r
 ead,tcheck) scf=(maxcycle=1)\\title\\0,1\C,0,0.355685,0.230012,0.31637
 1\C,0,0.897219,-1.051449,0.512388\C,0,2.223627,-1.326484,0.192491\C,0,
 3.037052,-0.323459,-0.333125\C,0,2.519079,0.953214,-0.535921\C,0,1.190
 82,1.225803,-0.213624\P,0,-2.813155,-0.57145,-0.662175\H,0,2.623445,-2
 .321605,0.353202\H,0,4.070549,-0.537022,-0.58229\H,0,3.148336,1.736986
 ,-0.943062\H,0,0.802822,2.226723,-0.373614\H,0,0.279051,-1.845217,0.92

 Normal termination of Gaussian 16 at Tue Apr  8 23:41:10 2025.
