 Gaussian 16, Revision C.01,

 ----------------------------------------------------------------------
 #t hf aug-cc-pvdz symm=none int=(grid=ultrafine) guess=(read,tcheck) s
 table=(opt,rrhf)
 ----------------------------------------------------------------------
 -----
 title
 -----
 Symbolic Z-matrix:
 Charge =  0 Multiplicity = 1

 SCF Done:  E(RHF) =  -884.905662198     A.U. after   15 cycles
 Normal termination of Gaussian 16 at Wed Apr  9 00:09:33 2025.
 Gaussian 16:  ES64L-G16RevC.01  3-Jul-2019

 ----------------------------------------------------------------------
 #t hf aug-cc-pvdz iop(5/13=1,5/36=2,99/5=2) pseudo=read geom=check gue
 ss=(read,tcheck) scf=(maxcycle=1)
 ----------------------------------------------------------------------
 -----
 title
 -----
 Structure from the checkpoint file:  "BDE49_nonexpt_2340_mol1.chk"
 Charge =  0 Multiplicity = 1

                         Standard orientation:
 ---------------------------------------------------------------------
 Center     Atomic      Atomic             Coordinates (Angstroms)
 Number     Number       Type             X           Y           Z
 ---------------------------------------------------------------------
      1         14           0        1.091426   -1.227502    0.213124
      2         14           0       -1.073976   -1.087705   -0.698512
      3          6           0       -2.039257    0.289315    0.281379
      4          1           0       -1.805134   -2.359843   -0.497774
      5          1           0       -0.971299   -0.803964   -2.152080
      6          8           0       -2.362549    0.018500    1.419565
      7          6           0        1.880170    0.537394   -0.041681
      8          1           0        1.079633   -1.520059    1.668247
      9          1           0        1.947415   -2.250631   -0.442583
     10          8           0        1.159393    1.434871   -0.436939
     11          6           0       -2.325850    1.631584   -0.349987
     12          1           0       -2.910703    1.498925   -1.266306
     13          1           0       -1.376797    2.095679   -0.636191
     14          1           0       -2.865787    2.269462    0.351964
     15          6           0        3.344701    0.775400    0.259609
     16          1           0        3.963290    0.125532   -0.368443
     17          1           0        3.559836    0.507676    1.299593
     18          1           0        3.601915    1.820983    0.082091
 ---------------------------------------------------------------------

 SCF Done:  E(RHF) =  -885.041648644     A.U. after    2 cycles

 The electronic state is 1-A.
 Alpha  occ. eigenvalues --  -69.07901 -69.07348 -20.58509 -20.56996 -11.34623
 Alpha  occ. eigenvalues --  -11.33406 -11.25460 -11.23721  -6.83321  -6.82744
 Alpha  occ. eigenvalues --   -3.94079  -3.94052  -3.94027  -3.93498  -3.93486
 Alpha  occ. eigenvalues --   -3.93464  -1.36628  -1.35268  -1.01339  -0.99827
 Alpha  occ. eigenvalues --   -0.80769  -0.78229  -0.72447  -0.68791  -0.64504
 Alpha  occ. eigenvalues --   -0.63091  -0.62591  -0.61521  -0.60236  -0.59734
 Alpha  occ. eigenvalues --   -0.55530  -0.54069  -0.52835  -0.51395  -0.49606
 Alpha  occ. eigenvalues --   -0.48447  -0.42495  -0.40114  -0.38185
 Alpha virt. eigenvalues --    0.02924   0.03786   0.04727   0.05089   0.05836
 Alpha virt. eigenvalues --    0.05985   0.06440   0.06625   0.07329   0.08166
 Alpha virt. eigenvalues --    0.08435   0.08778   0.08901   0.09325   0.09539

 Mulliken charges:
               1
     1  Si   0.222899
     2  Si  -0.124235
     3  C    0.118623
     4  H    0.115113
     5  H    0.125661
     6  O   -0.544890
     7  C   -0.070221
     8  H    0.064937
     9  H    0.064998
    10  O   -0.459839
    11  C    0.301810
    12  H   -0.008837
    13  H    0.034818
    14  H   -0.063536
    15  C    0.280226
    16  H    0.015765
    17  H    0.025558
    18  H   -0.098849
 Sum of Mulliken charges =  -0.00000

 Dipole moment (field-independent basis, Debye):
    X=              2.9561    Y=             -0.9325    Z=             -1.9030  Tot=              3.6373

 Test job not archived.
 1\1\GINC-SE404\SP\RHF\Aug-CC-pVDZ\C4H10O2Si2\OHZDE\09-Apr-2025\0\\#t h
 f aug-cc-pvdz iop(5/13=1,5/36=2,99/5=2) pseudo=read geom=check guess=(
 read,tcheck) scf=(maxcycle=1)\\title\\0,1\Si,0,-1.091426,1.227502,0.21
 3124\Si,0,1.073976,1.087705,-0.698512\C,0,2.039257,-0.289315,0.281379\
 H,0,1.805134,2.359843,-0.497774\H,0,0.971299,0.803964,-2.15208\O,0,2.3
 62549,-0.0185,1.419565\C,0,-1.88017,-0.537394,-0.041681\H,0,-1.079633,
 1.520059,1.668247\H,0,-1.947415,2.250631,-0.442583\O,0,-1.159393,-1.43
 4871,-0.436939\C,0,2.32585,-1.631584,-0.349987\H,0,2.910703,-1.498925,

 Normal termination of Gaussian 16 at Wed Apr  9 00:09:41 2025.
