 Gaussian 16, Revision C.01,

 ----------------------------------------------------------------------
 #t hf aug-cc-pvdz symm=none int=(grid=ultrafine) guess=(read,tcheck) s
 table=(opt,rrhf)
 ----------------------------------------------------------------------
 -----
 title
 -----
 Symbolic Z-matrix:
 Charge =  0 Multiplicity = 1

 SCF Done:  E(RHF) =  -368.633660538     A.U. after   14 cycles
 Normal termination of Gaussian 16 at Tue Apr  8 23:11:17 2025.
 Gaussian 16:  ES64L-G16RevC.01  3-Jul-2019

 ----------------------------------------------------------------------
 #t hf aug-cc-pvdz iop(5/13=1,5/36=2,99/5=2) pseudo=read geom=check gue
 ss=(read,tcheck) scf=(maxcycle=1)
 ----------------------------------------------------------------------
 -----
 title
 -----
 Structure from the checkpoint file:  "BDE49_expt_81_mol1.chk"
 Charge =  0 Multiplicity = 1

                         Standard orientation:
 ---------------------------------------------------------------------
 Center     Atomic      Atomic             Coordinates (Angstroms)
 Number     Number       Type             X           Y           Z
 ---------------------------------------------------------------------
      1          6           0        1.200870   -0.376049   -0.000000
      2          6           0        1.353176    1.003088   -0.000000
      3          6           0        0.202724    1.785642   -0.000000
      4          6           0       -1.059403    1.192844   -0.000000
      5          6           0       -1.198498   -0.197975   -0.000000
      6          6           0       -0.041828   -0.986312   -0.000000
      7          1           0       -1.945795    1.817525   -0.000001
      8          1           0        2.345778    1.435302   -0.000000
      9          1           0        0.291547    2.866009   -0.000000
     10          1           0       -0.096913   -2.069066   -0.000000
     11          6           0       -2.559536   -0.850718   -0.000000
     12          1           0       -3.356729   -0.105389   -0.000009
     13          1           0       -2.693325   -1.485823    0.880960
     14          1           0       -2.693318   -1.485840   -0.880948
     15          9           0        2.307081   -1.155094   -0.000000
 ---------------------------------------------------------------------

 SCF Done:  E(RHF) =  -368.750178132     A.U. after    2 cycles

 The electronic state is 1-A.
 Alpha  occ. eigenvalues --  -26.13205 -11.33963 -11.26637 -11.25883 -11.24949
 Alpha  occ. eigenvalues --  -11.24810 -11.24466 -11.24336  -1.66998  -1.15910
 Alpha  occ. eigenvalues --   -1.05259  -1.02296  -0.94721  -0.86314  -0.84014
 Alpha  occ. eigenvalues --   -0.75315  -0.74642  -0.73364  -0.69238  -0.63492
 Alpha  occ. eigenvalues --   -0.61520  -0.58802  -0.58688  -0.55086  -0.52667
 Alpha  occ. eigenvalues --   -0.50442  -0.50183  -0.34829  -0.33962
 Alpha virt. eigenvalues --    0.03329   0.03816   0.04500   0.05643   0.05729
 Alpha virt. eigenvalues --    0.06101   0.08324   0.09899   0.10184   0.11070
 Alpha virt. eigenvalues --    0.11097   0.12418   0.13687   0.14379   0.14383

 Mulliken charges:
               1
     1  C    0.099848
     2  C    0.511136
     3  C    0.236410
     4  C    0.703541
     5  C   -0.059125
     6  C    0.402317
     7  H   -0.535811
     8  H   -0.412844
     9  H   -0.429791
    10  H   -0.518420
    11  C    0.404690
    12  H   -0.187043
    13  H    0.065148
    14  H    0.065143
    15  F   -0.345200
 Sum of Mulliken charges =  -0.00000

 Dipole moment (field-independent basis, Debye):
    X=             -2.1269    Y=              0.9705    Z=              0.0000  Tot=              2.3379

 Test job not archived.
 1\1\GINC-SE423\SP\RHF\Aug-CC-pVDZ\C7H7F1\OHZDE\08-Apr-2025\0\\#t hf au
 g-cc-pvdz iop(5/13=1,5/36=2,99/5=2) pseudo=read geom=check guess=(read
 ,tcheck) scf=(maxcycle=1)\\title\\0,1\C,0,1.20087,-0.376049,0.\C,0,1.3
 53176,1.003088,0.\C,0,0.202724,1.785642,0.\C,0,-1.059403,1.192844,0.\C
 ,0,-1.198498,-0.197975,0.\C,0,-0.041828,-0.986312,0.\H,0,-1.945795,1.8
 17525,-0.000001\H,0,2.345778,1.435302,0.\H,0,0.291547,2.866009,0.\H,0,
 -0.096913,-2.069066,0.\C,0,-2.559536,-0.850718,0.\H,0,-3.356729,-0.105
 389,-0.000009\H,0,-2.693325,-1.485823,0.88096\H,0,-2.693318,-1.48584,-

 Normal termination of Gaussian 16 at Tue Apr  8 23:11:22 2025.
