 Gaussian 16, Revision C.01,

 ----------------------------------------------------------------------
 #t hf aug-cc-pvdz symm=none int=(grid=ultrafine) guess=(read,tcheck) s
 table=(opt,rrhf)
 ----------------------------------------------------------------------
 -----
 title
 -----
 Symbolic Z-matrix:
 Charge =  0 Multiplicity = 1

 SCF Done:  E(RHF) =  -680.254493113     A.U. after   15 cycles
 Normal termination of Gaussian 16 at Wed Apr  9 00:51:37 2025.
 Gaussian 16:  ES64L-G16RevC.01  3-Jul-2019

 ----------------------------------------------------------------------
 #t hf aug-cc-pvdz iop(5/13=1,5/36=2,99/5=2) pseudo=read geom=check gue
 ss=(read,tcheck) scf=(maxcycle=1)
 ----------------------------------------------------------------------
 -----
 title
 -----
 Structure from the checkpoint file:  "BDE49_nonexpt_985_mol1.chk"
 Charge =  0 Multiplicity = 1

                         Standard orientation:
 ---------------------------------------------------------------------
 Center     Atomic      Atomic             Coordinates (Angstroms)
 Number     Number       Type             X           Y           Z
 ---------------------------------------------------------------------
      1          6           0        1.523583   -0.178841    0.539424
      2         16           0        0.037064   -1.079421   -0.005147
      3          7           0       -1.195075    0.275669    0.010387
      4          8           0       -0.846204    1.377098    0.380272
      5          8           0       -2.297472   -0.064379   -0.357764
      6          6           0        2.205466    0.647553   -0.545669
      7          1           0        2.170777   -0.981755    0.907704
      8          1           0        1.230642    0.427725    1.397234
      9          1           0        2.493477    0.026009   -1.395866
     10          1           0        3.107932    1.115874   -0.141673
     11          1           0        1.544798    1.439169   -0.900345
 ---------------------------------------------------------------------

 SCF Done:  E(RHF) =  -680.364933875     A.U. after    2 cycles

 The electronic state is 1-A.
 Alpha  occ. eigenvalues --  -93.61377 -20.63394 -20.63298 -15.93709 -11.30506
 Alpha  occ. eigenvalues --  -11.25435  -8.90804  -6.24958  -6.24608  -6.24253
 Alpha  occ. eigenvalues --   -1.56569  -1.38918  -1.10740  -1.01262  -0.90013
 Alpha  occ. eigenvalues --   -0.83266  -0.75182  -0.74984  -0.73855  -0.65141
 Alpha  occ. eigenvalues --   -0.61245  -0.57044  -0.54306  -0.53297  -0.49524
 Alpha  occ. eigenvalues --   -0.49062  -0.47576  -0.40659
 Alpha virt. eigenvalues --    0.02783   0.04304   0.04700   0.06067   0.07124
 Alpha virt. eigenvalues --    0.07630   0.07882   0.08556   0.11840   0.12143
 Alpha virt. eigenvalues --    0.12698   0.14128   0.14908   0.15876   0.16434

 Mulliken charges:
               1
     1  C   -0.184075
     2  S    0.822764
     3  N    0.294234
     4  O   -0.510253
     5  O   -0.519242
     6  C    0.237241
     7  H   -0.022081
     8  H    0.012848
     9  H   -0.039011
    10  H   -0.042716
    11  H   -0.049710
 Sum of Mulliken charges =  -0.00000

 Dipole moment (field-independent basis, Debye):
    X=              4.4568    Y=             -1.3439    Z=              0.5441  Tot=              4.6867

 Test job not archived.
 1\1\GINC-SE187\SP\RHF\Aug-CC-pVDZ\C2H5N1O2S1\OHZDE\09-Apr-2025\0\\#t h
 f aug-cc-pvdz iop(5/13=1,5/36=2,99/5=2) pseudo=read geom=check guess=(
 read,tcheck) scf=(maxcycle=1)\\title\\0,1\C,0,1.523583,-0.178841,0.539
 424\S,0,0.037064,-1.079421,-0.005147\N,0,-1.195075,0.275669,0.010387\O
 ,0,-0.846204,1.377098,0.380272\O,0,-2.297472,-0.064379,-0.357764\C,0,2
 .205466,0.647553,-0.545669\H,0,2.170777,-0.981755,0.907704\H,0,1.23064
 2,0.427725,1.397234\H,0,2.493477,0.026009,-1.395866\H,0,3.107932,1.115
 874,-0.141673\H,0,1.544798,1.439169,-0.900345\\Version=ES64L-G16RevC.0

 Normal termination of Gaussian 16 at Wed Apr  9 00:51:41 2025.
