 Gaussian 16, Revision C.01,

 ----------------------------------------------------------------------
 #t hf aug-cc-pvdz symm=none int=(grid=ultrafine) guess=(read,tcheck) s
 table=(opt,rrhf)
 ----------------------------------------------------------------------
 -----
 title
 -----
 Symbolic Z-matrix:
 Charge =  0 Multiplicity = 1

 SCF Done:  E(RHF) =  -1353.07516059     A.U. after   14 cycles
 Normal termination of Gaussian 16 at Tue Apr  8 23:54:32 2025.
 Gaussian 16:  ES64L-G16RevC.01  3-Jul-2019

 ----------------------------------------------------------------------
 #t hf aug-cc-pvdz iop(5/13=1,5/36=2,99/5=2) pseudo=read geom=check gue
 ss=(read,tcheck) scf=(maxcycle=1)
 ----------------------------------------------------------------------
 -----
 title
 -----
 Structure from the checkpoint file:  "BDE49_nonexpt_1967_mol1.chk"
 Charge =  0 Multiplicity = 1

                         Standard orientation:
 ---------------------------------------------------------------------
 Center     Atomic      Atomic             Coordinates (Angstroms)
 Number     Number       Type             X           Y           Z
 ---------------------------------------------------------------------
      1         14           0        0.604210    1.574566    0.045190
      2          6           0       -1.047963    1.165343   -0.784605
      3         16           0       -2.063217    0.012585    0.229949
      4          8           0       -1.276378   -0.200031    1.503331
      5          6           0       -1.841585   -1.483088   -0.788602
      6         16           0        1.992891   -0.185183   -0.256096
      7          1           0        0.535429    2.039338    1.442278
      8          1           0        1.225719    2.626323   -0.794258
      9          8           0        1.303501   -0.998309   -1.349847
     10          6           0        1.776389   -1.055059    1.339988
     11          1           0       -2.413453   -1.355240   -1.710714
     12          1           0       -2.256350   -2.306248   -0.206058
     13          1           0       -0.778396   -1.626872   -0.995952
     14          1           0        2.293324   -0.470072    2.105011
     15          1           0        2.267619   -2.021684    1.218327
     16          1           0        0.719268   -1.163028    1.580553
     17          1           0       -0.846141    0.729903   -1.765360
     18          1           0       -1.618777    2.088762   -0.916697
 ---------------------------------------------------------------------

 SCF Done:  E(RHF) =  -1353.25815518     A.U. after    2 cycles

 The electronic state is 1-A.
 Alpha  occ. eigenvalues --  -93.66407 -93.63593 -69.10832 -20.52729 -20.51693
 Alpha  occ. eigenvalues --  -11.27493 -11.26616 -11.26524  -8.94788  -8.92261
 Alpha  occ. eigenvalues --   -6.85864  -6.29062  -6.28880  -6.28575  -6.26520
 Alpha  occ. eigenvalues --   -6.26315  -6.26065  -3.96647  -3.96586  -3.96571
 Alpha  occ. eigenvalues --   -1.30651  -1.28110  -1.04908  -1.01308  -0.96875
 Alpha  occ. eigenvalues --   -0.84401  -0.81998  -0.69805  -0.65334  -0.63370
 Alpha  occ. eigenvalues --   -0.61958  -0.61277  -0.60417  -0.58487  -0.58149
 Alpha  occ. eigenvalues --   -0.56619  -0.54660  -0.53127  -0.52727  -0.49709
 Alpha  occ. eigenvalues --   -0.48207  -0.44274  -0.41454  -0.38283  -0.36244
 Alpha virt. eigenvalues --    0.03004   0.04074   0.04363   0.05380   0.05527
 Alpha virt. eigenvalues --    0.05875   0.07047   0.07138   0.08317   0.08495
 Alpha virt. eigenvalues --    0.08951   0.09932   0.10673   0.11307   0.11864

 Mulliken charges:
               1
     1  Si   0.469131
     2  C    0.137219
     3  S    1.096225
     4  O   -1.110542
     5  C    0.297893
     6  S    0.694036
     7  H    0.225325
     8  H    0.035863
     9  O   -1.150604
    10  C    0.238143
    11  H   -0.032296
    12  H   -0.039085
    13  H   -0.206438
    14  H   -0.089235
    15  H   -0.042457
    16  H   -0.153432
    17  H   -0.246799
    18  H   -0.122948
 Sum of Mulliken charges =  -0.00000

 Dipole moment (field-independent basis, Debye):
    X=             -0.9755    Y=              1.8536    Z=             -0.2294  Tot=              2.1071

 Test job not archived.
 1\1\GINC-SE363\SP\RHF\Aug-CC-pVDZ\C3H10O2S2Si1\OHZDE\08-Apr-2025\0\\#t
  hf aug-cc-pvdz iop(5/13=1,5/36=2,99/5=2) pseudo=read geom=check guess
 =(read,tcheck) scf=(maxcycle=1)\\title\\0,1\Si,0,0.60421,1.574566,0.04
 519\C,0,-1.047963,1.165343,-0.784605\S,0,-2.063217,0.012585,0.229949\O
 ,0,-1.276378,-0.200031,1.503331\C,0,-1.841585,-1.483088,-0.788602\S,0,
 1.992891,-0.185183,-0.256096\H,0,0.535429,2.039338,1.442278\H,0,1.2257
 19,2.626323,-0.794258\O,0,1.303501,-0.998309,-1.349847\C,0,1.776389,-1
 .055059,1.339988\H,0,-2.413453,-1.35524,-1.710714\H,0,-2.25635,-2.3062

 Normal termination of Gaussian 16 at Tue Apr  8 23:54:41 2025.
