 Gaussian 16, Revision C.01,

 ----------------------------------------------------------------------
 #t hf aug-cc-pvdz symm=none int=(grid=ultrafine) guess=(read,tcheck) s
 table=opt
 ----------------------------------------------------------------------
 -----
 title
 -----
 Symbolic Z-matrix:
 Charge =  0 Multiplicity = 2

 SCF Done:  E(UHF) =  -751.576444579     A.U. after   18 cycles
 Normal termination of Gaussian 16 at Wed Apr  9 00:06:10 2025.
 Gaussian 16:  ES64L-G16RevC.01  3-Jul-2019

 ----------------------------------------------------------------------
 #t hf aug-cc-pvdz iop(5/13=1,5/36=2,99/5=2) pseudo=read geom=check gue
 ss=(read,tcheck) scf=(maxcycle=1)
 ----------------------------------------------------------------------
 -----
 title
 -----
 Structure from the checkpoint file:  "BDE49_nonexpt_226_mol2.chk"
 Charge =  0 Multiplicity = 2

                         Standard orientation:
 ---------------------------------------------------------------------
 Center     Atomic      Atomic             Coordinates (Angstroms)
 Number     Number       Type             X           Y           Z
 ---------------------------------------------------------------------
      1         17           0       -2.614773   -0.008202   -0.012679
      2          5           0       -1.019298   -0.645876   -0.247879
      3          6           0        0.293769   -0.015492    0.399402
      4          8           0        0.695452    0.976128   -0.524058
      5          8           0        1.311144   -0.940115    0.712255
      6          6           0        1.575679    1.957194    0.024598
      7          1           0        1.071503    2.540647    0.805006
      8          1           0        1.856690    2.619304   -0.793832
      9          1           0        2.471654    1.490789    0.444800
     10          6           0        1.823089   -1.673919   -0.399519
     11          1           0        2.530813   -2.394367    0.009026
     12          1           0        2.334212   -1.018149   -1.110168
     13          1           0        1.020142   -2.205696   -0.924469
     14          1           0        0.054631    0.441485    1.372112
 ---------------------------------------------------------------------

 SCF Done:  E(UHF) =  -751.687812316     A.U. after    2 cycles

 The electronic state is 2-A.
 Alpha  occ. eigenvalues -- -103.67460 -20.58998 -20.58277 -11.34209 -11.29182
 Alpha  occ. eigenvalues --  -11.28475 -10.70940  -8.36683  -8.36421  -8.36363
 Alpha  occ. eigenvalues --   -7.69918  -1.37765  -1.31238  -1.17176  -0.99269
 Alpha  occ. eigenvalues --   -0.94095  -0.85172  -0.72581  -0.71018  -0.69643
 Alpha  occ. eigenvalues --   -0.64593  -0.62431  -0.61447  -0.58980  -0.54080
 Alpha  occ. eigenvalues --   -0.53639  -0.51534  -0.50493  -0.48655  -0.46837
 Alpha  occ. eigenvalues --   -0.46113  -0.34760
 Alpha virt. eigenvalues --    0.03420   0.04540   0.04584   0.04886   0.05696
 Alpha virt. eigenvalues --    0.06555   0.06690   0.07043   0.07610   0.08375
 Alpha virt. eigenvalues --    0.09664   0.10768   0.13082   0.14198   0.14968

  Beta  occ. eigenvalues -- -103.67390 -20.59002 -20.58305 -11.34047 -11.29183
  Beta  occ. eigenvalues --  -11.28433 -10.70858  -8.36561  -8.36391  -8.36179
  Beta  occ. eigenvalues --   -7.67905  -1.37716  -1.31263  -1.16371  -0.98915
  Beta  occ. eigenvalues --   -0.93997  -0.84507  -0.71279  -0.70537  -0.69533
  Beta  occ. eigenvalues --   -0.63504  -0.61762  -0.61346  -0.58019  -0.53695
  Beta  occ. eigenvalues --   -0.53410  -0.50545  -0.49469  -0.48113  -0.46788
  Beta  occ. eigenvalues --   -0.44713
  Beta virt. eigenvalues --    0.03050   0.04451   0.04720   0.04839   0.06272
  Beta virt. eigenvalues --    0.06615   0.06761   0.06989   0.07464   0.08552
  Beta virt. eigenvalues --    0.09681   0.10051   0.12086   0.14161   0.14616

 Mulliken charges and spin densities:
               1          2
     1  Cl  -0.238793   0.003355
     2  B    0.166537   1.063810
     3  C    1.122982  -0.036324
     4  O   -0.708326   0.004272
     5  O   -0.700120  -0.012848
     6  C    0.711073  -0.004100
     7  H   -0.078747   0.001487
     8  H   -0.236155   0.000748
     9  H   -0.036859  -0.000845
    10  C    0.738040   0.017400
    11  H   -0.231251   0.000294
    12  H   -0.068709   0.000527
    13  H   -0.093970  -0.026253
    14  H   -0.345701  -0.011524
 Sum of Mulliken charges =  -0.00000   1.00000

 Dipole moment (field-independent basis, Debye):
    X=              1.3897    Y=              0.4838    Z=              0.0825  Tot=              1.4738
                          Isotropic Fermi Contact Couplings
        Atom                 a.u.       MegaHertz       Gauss      10(-4) cm-1
     1  Cl(35)             0.07140      31.30526      11.17050      10.44231
     2  B(11)              0.34176     490.20853     174.91859     163.51596
     3  C(13)              0.02561      28.79012      10.27303       9.60335
     4  O(17)             -0.00403       2.44598       0.87279       0.81589
     5  O(17)              0.00388      -2.35006      -0.83856      -0.78390
     6  C(13)              0.00036       0.40058       0.14294       0.13362
     7  H(1)               0.00020       0.89039       0.31771       0.29700
     8  H(1)               0.00029       1.28891       0.45992       0.42994

 1\1\GINC-SE073\SP\UHF\Aug-CC-pVDZ\C3H7B1Cl1O2(2)\OHZDE\09-Apr-2025\0\\
 #t hf aug-cc-pvdz iop(5/13=1,5/36=2,99/5=2) pseudo=read geom=check gue
 ss=(read,tcheck) scf=(maxcycle=1)\\title\\0,2\Cl,0,-2.614773,-0.008202
 ,-0.012679\B,0,-1.019298,-0.645876,-0.247879\C,0,0.293769,-0.015492,0.
 399402\O,0,0.695452,0.976128,-0.524058\O,0,1.311144,-0.940115,0.712255
 \C,0,1.575679,1.957194,0.024598\H,0,1.071503,2.540647,0.805006\H,0,1.8
 5669,2.619304,-0.793832\H,0,2.471654,1.490789,0.4448\C,0,1.823089,-1.6
 73919,-0.399519\H,0,2.530813,-2.394367,0.009026\H,0,2.334212,-1.018149

 Normal termination of Gaussian 16 at Wed Apr  9 00:06:16 2025.
