 Gaussian 16, Revision C.01,

 ----------------------------------------------------------------------
 #t hf aug-cc-pvdz symm=none int=(grid=ultrafine) guess=(read,tcheck) s
 table=(opt,rrhf)
 ----------------------------------------------------------------------
 -----
 title
 -----
 Symbolic Z-matrix:
 Charge =  0 Multiplicity = 1

 SCF Done:  E(RHF) =  -1203.60304251     A.U. after   15 cycles
 Normal termination of Gaussian 16 at Tue Apr  8 22:49:30 2025.
 Gaussian 16:  ES64L-G16RevC.01  3-Jul-2019

 ----------------------------------------------------------------------
 #t hf aug-cc-pvdz iop(5/13=1,5/36=2,99/5=2) pseudo=read geom=check gue
 ss=(read,tcheck) scf=(maxcycle=1)
 ----------------------------------------------------------------------
 -----
 title
 -----
 Structure from the checkpoint file:  "BDE49_expt_1729_mol1.chk"
 Charge =  0 Multiplicity = 1

                         Standard orientation:
 ---------------------------------------------------------------------
 Center     Atomic      Atomic             Coordinates (Angstroms)
 Number     Number       Type             X           Y           Z
 ---------------------------------------------------------------------
      1          6           0        2.376384    0.968970   -0.000000
      2          6           0        1.375476    0.005258   -0.000000
      3          7           0        2.142690    2.287379   -0.000000
      4          6           0        0.868686    2.679157   -0.000000
      5          6           0       -0.211194    1.796092   -0.000000
      6          6           0        0.045623    0.427475   -0.000000
      7          1           0        3.420344    0.670104   -0.000000
      8          1           0        1.625838   -1.048369   -0.000000
      9          1           0        0.695027    3.751456   -0.000000
     10          1           0       -1.226285    2.176927   -0.000000
     11          6           0       -1.104615   -0.539198    0.000000
     12         17           0       -1.104615   -1.575413    1.480985
     13         17           0       -1.104615   -1.575413   -1.480985
     14          1           0       -2.058980   -0.024247    0.000000
 ---------------------------------------------------------------------

 SCF Done:  E(RHF) =  -1203.72020142     A.U. after    2 cycles

 The electronic state is 1-A'.
 Alpha  occ. eigenvalues -- -103.68050-103.68050 -15.64634 -11.39769 -11.30172
 Alpha  occ. eigenvalues --  -11.30065 -11.29937 -11.27273 -11.26740 -10.71309
 Alpha  occ. eigenvalues --  -10.71305  -8.37026  -8.37023  -8.36712  -8.36712
 Alpha  occ. eigenvalues --   -8.36709  -8.36707  -1.25040  -1.22598  -1.14507
 Alpha  occ. eigenvalues --   -1.10434  -1.04587  -0.94669  -0.87866  -0.83532
 Alpha  occ. eigenvalues --   -0.73260  -0.69972  -0.67286  -0.63381  -0.61623
 Alpha  occ. eigenvalues --   -0.61565  -0.60756  -0.55284  -0.53900  -0.49357
 Alpha  occ. eigenvalues --   -0.49098  -0.46952  -0.46478  -0.42916  -0.39511
 Alpha  occ. eigenvalues --   -0.36505
 Alpha virt. eigenvalues --    0.02980   0.03907   0.04511   0.06045   0.06073
 Alpha virt. eigenvalues --    0.06591   0.07631   0.08777   0.09353   0.10692
 Alpha virt. eigenvalues --    0.10760   0.11492   0.12076   0.12948   0.13468

 Mulliken charges:
               1
     1  C    0.231832
     2  C    0.862713
     3  N   -0.414070
     4  C    0.322675
     5  C    1.099495
     6  C   -0.033818
     7  H   -0.315054
     8  H   -0.493854
     9  H   -0.322010
    10  H   -0.500530
    11  C   -0.071353
    12  Cl  -0.082039
    13  Cl  -0.082039
    14  H   -0.201949
 Sum of Mulliken charges =  -0.00000

 Dipole moment (field-independent basis, Debye):
    X=             -1.0846    Y=              0.8364    Z=             -0.0000  Tot=              1.3696

 Test job not archived.
 1\1\GINC-SE009\SP\RHF\Aug-CC-pVDZ\C6H5Cl2N1\OHZDE\08-Apr-2025\0\\#t hf
  aug-cc-pvdz iop(5/13=1,5/36=2,99/5=2) pseudo=read geom=check guess=(r
 ead,tcheck) scf=(maxcycle=1)\\title\\0,1\C,0,2.376384,0.96897,0.\C,0,1
 .375476,0.005258,0.\N,0,2.14269,2.287379,0.\C,0,0.868686,2.679157,0.\C
 ,0,-0.211194,1.796092,0.\C,0,0.045623,0.427475,0.\H,0,3.420344,0.67010
 4,0.\H,0,1.625838,-1.048369,0.\H,0,0.695027,3.751456,0.\H,0,-1.226285,
 2.176927,0.\C,0,-1.104615,-0.539198,0.\Cl,0,-1.104615,-1.575413,1.4809
 85\Cl,0,-1.104615,-1.575413,-1.480985\H,0,-2.05898,-0.024247,0.\\Versi

 Normal termination of Gaussian 16 at Tue Apr  8 22:49:36 2025.
