 Gaussian 16, Revision C.01,

 ----------------------------------------------------------------------
 #t hf aug-cc-pvdz symm=none int=(grid=ultrafine) guess=(read,tcheck) s
 table=(opt,rrhf)
 ----------------------------------------------------------------------
 -----
 title
 -----
 Symbolic Z-matrix:
 Charge =  0 Multiplicity = 1

 SCF Done:  E(RHF) =  -644.895374987     A.U. after   14 cycles
 Normal termination of Gaussian 16 at Tue Apr  8 22:37:50 2025.
 Gaussian 16:  ES64L-G16RevC.01  3-Jul-2019

 ----------------------------------------------------------------------
 #t hf aug-cc-pvdz iop(5/13=1,5/36=2,99/5=2) pseudo=read geom=check gue
 ss=(read,tcheck) scf=(maxcycle=1)
 ----------------------------------------------------------------------
 -----
 title
 -----
 Structure from the checkpoint file:  "BDE49_expt_1261_mol1.chk"
 Charge =  0 Multiplicity = 1

                         Standard orientation:
 ---------------------------------------------------------------------
 Center     Atomic      Atomic             Coordinates (Angstroms)
 Number     Number       Type             X           Y           Z
 ---------------------------------------------------------------------
      1          6           0       -0.000002    0.555466   -0.000001
      2          7           0        1.238341   -0.366125    0.172739
      3          7           0       -1.238341   -0.366129   -0.172739
      4          8           0        1.133931   -1.159385    1.083470
      5          8           0        2.160531   -0.181648   -0.582160
      6          8           0       -2.160532   -0.181650    0.582157
      7          8           0       -1.133922   -1.159396   -1.083462
      8          9           0       -0.130131    1.291646    1.079070
      9          9           0        0.130125    1.291644   -1.079073
 ---------------------------------------------------------------------

 SCF Done:  E(RHF) =  -645.106707033     A.U. after    2 cycles

 The electronic state is 1-A.
 Alpha  occ. eigenvalues --  -26.25535 -26.25524 -20.69137 -20.69137 -20.68469
 Alpha  occ. eigenvalues --  -20.68469 -15.98793 -15.98792 -11.61645  -1.83805
 Alpha  occ. eigenvalues --   -1.78473  -1.62753  -1.61768  -1.44705  -1.44556
 Alpha  occ. eigenvalues --   -1.18441  -1.04208  -0.99753  -0.95013  -0.89778
 Alpha  occ. eigenvalues --   -0.89439  -0.84725  -0.82914  -0.81241  -0.80238
 Alpha  occ. eigenvalues --   -0.79889  -0.79768  -0.78819  -0.76930  -0.59745
 Alpha  occ. eigenvalues --   -0.58909  -0.58290  -0.55134  -0.53567  -0.52913
 Alpha virt. eigenvalues --    0.01231   0.02291   0.06028   0.07599   0.08335
 Alpha virt. eigenvalues --    0.08924   0.13324   0.13506   0.14499   0.15764
 Alpha virt. eigenvalues --    0.17357   0.21253   0.21856   0.22077   0.24011

 Mulliken charges:
               1
     1  C    1.553246
     2  N    0.366778
     3  N    0.366776
     4  O   -0.526503
     5  O   -0.474960
     6  O   -0.474959
     7  O   -0.526502
     8  F   -0.141939
     9  F   -0.141938
 Sum of Mulliken charges =  -0.00000

 Dipole moment (field-independent basis, Debye):
    X=             -0.0000    Y=              1.8879    Z=             -0.0000  Tot=              1.8879

 Test job not archived.
 1\1\GINC-SE110\SP\RHF\Aug-CC-pVDZ\C1F2N2O4\OHZDE\08-Apr-2025\0\\#t hf
 aug-cc-pvdz iop(5/13=1,5/36=2,99/5=2) pseudo=read geom=check guess=(re
 ad,tcheck) scf=(maxcycle=1)\\title\\0,1\C,0,0.000002,0.555466,0.000001
 \N,0,-1.238341,-0.366125,-0.172739\N,0,1.238341,-0.366129,0.172739\O,0
 ,-1.133931,-1.159385,-1.08347\O,0,-2.160531,-0.181648,0.58216\O,0,2.16
 0532,-0.18165,-0.582157\O,0,1.133922,-1.159396,1.083462\F,0,0.130131,1
 .291646,-1.07907\F,0,-0.130125,1.291644,1.079073\\Version=ES64L-G16Rev
 C.01\State=1-A\HF=-645.106707\RMSD=5.418e-03\Dipole=0.0000083,0.742763

 Normal termination of Gaussian 16 at Tue Apr  8 22:37:54 2025.
