 Gaussian 16, Revision C.01,

 ----------------------------------------------------------------------
 #t hf aug-cc-pvdz symm=none int=(grid=ultrafine) guess=(read,tcheck) s
 table=opt
 ----------------------------------------------------------------------
 -----
 title
 -----
 Symbolic Z-matrix:
 Charge =  0 Multiplicity = 2

 SCF Done:  E(UHF) =  -1692.79791931     A.U. after   18 cycles
 Normal termination of Gaussian 16 at Tue Apr  8 23:42:18 2025.
 Gaussian 16:  ES64L-G16RevC.01  3-Jul-2019

 ----------------------------------------------------------------------
 #t hf aug-cc-pvdz iop(5/13=1,5/36=2,99/5=2) pseudo=read geom=check gue
 ss=(read,tcheck) scf=(maxcycle=1)
 ----------------------------------------------------------------------
 -----
 title
 -----
 Structure from the checkpoint file:  "BDE49_nonexpt_170_mol2.chk"
 Charge =  0 Multiplicity = 2

                         Standard orientation:
 ---------------------------------------------------------------------
 Center     Atomic      Atomic             Coordinates (Angstroms)
 Number     Number       Type             X           Y           Z
 ---------------------------------------------------------------------
      1         17           0       -2.681021   -0.123473   -0.239478
      2          5           0       -1.325692   -0.512266    0.730116
      3         14           0        0.598677    0.003389    0.668349
      4         17           0        1.512588   -1.548064   -0.367550
      5         17           0        0.993752    1.814497   -0.275695
      6          1           0        1.216568    0.083571    1.998820
 ---------------------------------------------------------------------

 SCF Done:  E(UHF) =  -1692.88249680     A.U. after    2 cycles

 The electronic state is 2-A.
 Alpha  occ. eigenvalues -- -103.69918-103.67157-103.66937 -69.16832 -10.73398
 Alpha  occ. eigenvalues --  -10.70598 -10.70376  -8.39092  -8.38908  -8.38814
 Alpha  occ. eigenvalues --   -8.36292  -8.36117  -8.36055  -8.36045  -8.35830
 Alpha  occ. eigenvalues --   -8.35818  -7.72039  -6.91315  -4.02142  -4.02005
 Alpha  occ. eigenvalues --   -4.01965  -1.19645  -1.16451  -1.14401  -0.75652
 Alpha  occ. eigenvalues --   -0.67770  -0.57597  -0.57310  -0.56678  -0.53915
 Alpha  occ. eigenvalues --   -0.52743  -0.49877  -0.49432  -0.48091  -0.46886
 Alpha  occ. eigenvalues --   -0.34822
 Alpha virt. eigenvalues --    0.01120   0.04110   0.04764   0.05509   0.06571
 Alpha virt. eigenvalues --    0.07367   0.07457   0.07674   0.10967   0.12614
 Alpha virt. eigenvalues --    0.12933   0.13361   0.14662   0.15151   0.16074

  Beta  occ. eigenvalues -- -103.69858-103.67155-103.66889 -69.16770 -10.73331
  Beta  occ. eigenvalues --  -10.70597 -10.70323  -8.39065  -8.38856  -8.38596
  Beta  occ. eigenvalues --   -8.36283  -8.36058  -8.36042  -8.35967  -8.35791
  Beta  occ. eigenvalues --   -8.35766  -7.70202  -6.91199  -4.02097  -4.02011
  Beta  occ. eigenvalues --   -4.01765  -1.18941  -1.16260  -1.14166  -0.73542
  Beta  occ. eigenvalues --   -0.65714  -0.56976  -0.56514  -0.55598  -0.52852
  Beta  occ. eigenvalues --   -0.51458  -0.49464  -0.49037  -0.47983  -0.45389
  Beta virt. eigenvalues --    0.02559   0.02984   0.04760   0.04869   0.06742
  Beta virt. eigenvalues --    0.07150   0.07416   0.07607   0.08105   0.11187
  Beta virt. eigenvalues --    0.12705   0.13641   0.14630   0.14864   0.16096

 Mulliken charges and spin densities:
               1          2
     1  Cl  -0.223284   0.006692
     2  B    0.131348   1.004899
     3  Si   1.070420  -0.022681
     4  Cl  -0.491630   0.001079
     5  Cl  -0.520503   0.022550
     6  H    0.033648  -0.012540
 Sum of Mulliken charges =  -0.00000   1.00000

 Dipole moment (field-independent basis, Debye):
    X=             -0.8121    Y=             -0.0498    Z=              1.3450  Tot=              1.5719
                          Isotropic Fermi Contact Couplings
        Atom                 a.u.       MegaHertz       Gauss      10(-4) cm-1
     1  Cl(35)             0.04398      19.28447       6.88118       6.43261
     2  B(11)              0.27348     392.27193     139.97238     130.84783
     3  Si(29)             0.12639    -112.32294     -40.07962     -37.46690
     4  Cl(35)            -0.00024      -0.10492      -0.03744      -0.03500
     5  Cl(35)             0.02950      12.93533       4.61565       4.31476
     6  H(1)              -0.00257     -11.47949      -4.09617      -3.82914
 --------------------------------------------------------
       Center         ----  Spin Dipole Couplings  ----

 Normal termination of Gaussian 16 at Tue Apr  8 23:42:21 2025.
