 Gaussian 16, Revision C.01,

 ----------------------------------------------------------------------
 #t hf aug-cc-pvdz symm=none int=(grid=ultrafine) guess=(read,tcheck) s
 table=opt
 ----------------------------------------------------------------------
 -----
 title
 -----
 Symbolic Z-matrix:
 Charge =  0 Multiplicity = 2

 SCF Done:  E(UHF) =  -640.910877117     A.U. after   17 cycles
 Normal termination of Gaussian 16 at Tue Apr  8 23:47:53 2025.
 Gaussian 16:  ES64L-G16RevC.01  3-Jul-2019

 ----------------------------------------------------------------------
 #t hf aug-cc-pvdz iop(5/13=1,5/36=2,99/5=2) pseudo=read geom=check gue
 ss=(read,tcheck) scf=(maxcycle=1)
 ----------------------------------------------------------------------
 -----
 title
 -----
 Structure from the checkpoint file:  "BDE49_nonexpt_182_mol2.chk"
 Charge =  0 Multiplicity = 2

                         Standard orientation:
 ---------------------------------------------------------------------
 Center     Atomic      Atomic             Coordinates (Angstroms)
 Number     Number       Type             X           Y           Z
 ---------------------------------------------------------------------
      1         17           0        2.119585   -0.808145    0.079771
      2          5           0        1.576771    0.756372   -0.484191
      3          6           0        0.302838    1.522231   -0.034419
      4          6           0       -0.882871    0.720889    0.545978
      5          1           0        0.695416    2.216526    0.729819
      6          6           0       -1.631720   -0.103030   -0.508168
      7          1           0       -1.585166    1.417541    1.018734
      8          1           0       -0.523486    0.057486    1.339922
      9          6           0       -2.817383   -0.879837    0.070379
     10          1           0       -0.936776   -0.803692   -0.985581
     11          1           0       -1.984619    0.566435   -1.302095
     12          1           0       -2.489753   -1.584050    0.841133
     13          1           0       -3.334126   -1.452395   -0.704353
     14          1           0       -3.547712   -0.204755    0.527324
     15          1           0       -0.035754    2.181994   -0.842662
 ---------------------------------------------------------------------

 SCF Done:  E(UHF) =  -640.984735143     A.U. after    2 cycles

 The electronic state is 2-A.
 Alpha  occ. eigenvalues -- -103.66441 -11.23851 -11.23317 -11.23107 -11.22564
 Alpha  occ. eigenvalues --  -10.69921  -8.35668  -8.35400  -8.35351  -7.68677
 Alpha  occ. eigenvalues --   -1.16137  -1.06944  -0.98809  -0.87778  -0.80081
 Alpha  occ. eigenvalues --   -0.67452  -0.63428  -0.59837  -0.59363  -0.57227
 Alpha  occ. eigenvalues --   -0.53350  -0.51293  -0.50084  -0.49258  -0.48533
 Alpha  occ. eigenvalues --   -0.47311  -0.46318  -0.33422
 Alpha virt. eigenvalues --    0.03342   0.04148   0.04501   0.04860   0.05968
 Alpha virt. eigenvalues --    0.06297   0.06614   0.07025   0.07730   0.08620
 Alpha virt. eigenvalues --    0.08983   0.09740   0.10225   0.12855   0.13217

  Beta  occ. eigenvalues -- -103.66362 -11.23741 -11.23325 -11.22987 -11.22561
  Beta  occ. eigenvalues --  -10.69829  -8.35522  -8.35361  -8.35159  -7.66696
  Beta  occ. eigenvalues --   -1.15270  -1.06720  -0.98443  -0.87319  -0.79789
  Beta  occ. eigenvalues --   -0.66038  -0.61917  -0.59711  -0.58916  -0.56155
  Beta  occ. eigenvalues --   -0.52635  -0.50278  -0.49477  -0.48262  -0.47940
  Beta  occ. eigenvalues --   -0.47207  -0.45843
  Beta virt. eigenvalues --    0.03074   0.04018   0.04440   0.04777   0.06236
  Beta virt. eigenvalues --    0.06353   0.06626   0.07177   0.07814   0.08668
  Beta virt. eigenvalues --    0.09065   0.09486   0.10168   0.11776   0.13179

 Mulliken charges and spin densities:
               1          2
     1  Cl  -0.273675   0.002363
     2  B    0.141446   1.047124
     3  C    0.433276  -0.065367
     4  C    0.179764   0.039065
     5  H   -0.006014  -0.024195
     6  C    0.067403   0.010161
     7  H   -0.119262   0.003344
     8  H   -0.166236  -0.005733
     9  C    0.417423   0.001104
    10  H   -0.163420  -0.002503
    11  H   -0.141744  -0.001356
    12  H   -0.063749   0.000117
    13  H   -0.067722   0.000194
    14  H   -0.074222   0.000073
    15  H   -0.163266  -0.004390
 Sum of Mulliken charges =  -0.00000   1.00000

 Dipole moment (field-independent basis, Debye):
    X=             -1.3450    Y=              1.0375    Z=              0.1968  Tot=              1.7100
                          Isotropic Fermi Contact Couplings
        Atom                 a.u.       MegaHertz       Gauss      10(-4) cm-1
     1  Cl(35)             0.08491      37.22846      13.28404      12.41808
     2  B(11)              0.33596     481.89081     171.95062     160.74147
     3  C(13)              0.03341      37.55856      13.40183      12.52819
     4  C(13)              0.02109      23.71300       8.46139       7.90981
     5  H(1)              -0.00157      -7.00557      -2.49976      -2.33681
     6  C(13)             -0.00178      -1.99674      -0.71249      -0.66604
     7  H(1)               0.00106       4.72677       1.68663       1.57668
     8  H(1)              -0.00073      -3.27086      -1.16712      -1.09104

 Normal termination of Gaussian 16 at Tue Apr  8 23:47:58 2025.
