 Gaussian 16, Revision C.01,

 ----------------------------------------------------------------------
 #t hf aug-cc-pvdz symm=none int=(grid=ultrafine) guess=(read,tcheck) s
 table=(opt,rrhf)
 ----------------------------------------------------------------------
 -----
 title
 -----
 Symbolic Z-matrix:
 Charge =  0 Multiplicity = 1

 SCF Done:  E(RHF) =  -824.661648112     A.U. after   16 cycles
 Normal termination of Gaussian 16 at Tue Apr  8 23:37:14 2025.
 Gaussian 16:  ES64L-G16RevC.01  3-Jul-2019

 ----------------------------------------------------------------------
 #t hf aug-cc-pvdz iop(5/13=1,5/36=2,99/5=2) pseudo=read geom=check gue
 ss=(read,tcheck) scf=(maxcycle=1)
 ----------------------------------------------------------------------
 -----
 title
 -----
 Structure from the checkpoint file:  "BDE49_nonexpt_1548_mol1.chk"
 Charge =  0 Multiplicity = 1

                         Standard orientation:
 ---------------------------------------------------------------------
 Center     Atomic      Atomic             Coordinates (Angstroms)
 Number     Number       Type             X           Y           Z
 ---------------------------------------------------------------------
      1          6           0        0.417981   -0.155443    0.515612
      2          7           0       -2.357027    0.166065   -0.185752
      3          9           0       -2.204857   -0.780665   -1.223878
      4          9           0       -1.802967    1.331232   -0.765751
      5          6           0        1.138345   -1.273904    0.073029
      6          6           0        1.022126    1.109839    0.465273
      7          6           0        2.433722   -1.131218   -0.417060
      8          6           0        3.024597    0.129215   -0.459557
      9          6           0        2.319365    1.248044   -0.016012
     10          1           0        2.779842    2.228826   -0.050164
     11          1           0        0.475045    1.983612    0.796968
     12          1           0        2.980845   -2.001775   -0.759978
     13          1           0        4.035297    0.241262   -0.835575
     14          1           0        0.683234   -2.257555    0.114425
     15         15           0       -1.271960   -0.442405    1.141142
     16          1           0       -1.442073    0.764948    1.856407
 ---------------------------------------------------------------------

 SCF Done:  E(RHF) =  -824.837540990     A.U. after    2 cycles

 The electronic state is 1-A.
 Alpha  occ. eigenvalues --  -81.31373 -26.15590 -26.15439 -15.82089 -11.27131
 Alpha  occ. eigenvalues --  -11.27068 -11.26916 -11.26883 -11.26141 -11.26124
 Alpha  occ. eigenvalues --   -7.81460  -4.95539  -4.95387  -4.95114  -1.69965
 Alpha  occ. eigenvalues --   -1.64501  -1.16306  -1.10331  -1.03333  -1.03065
 Alpha  occ. eigenvalues --   -0.87262  -0.84894  -0.82450  -0.79446  -0.79095
 Alpha  occ. eigenvalues --   -0.75311  -0.73426  -0.71285  -0.69072  -0.65602
 Alpha  occ. eigenvalues --   -0.65089  -0.62123  -0.61198  -0.56833  -0.52912
 Alpha  occ. eigenvalues --   -0.51934  -0.51104  -0.46606  -0.39785  -0.36070
 Alpha  occ. eigenvalues --   -0.35846
 Alpha virt. eigenvalues --    0.02983   0.03839   0.04186   0.05461   0.05937
 Alpha virt. eigenvalues --    0.06101   0.07458   0.08159   0.09029   0.09851
 Alpha virt. eigenvalues --    0.11317   0.11873   0.12016   0.13171   0.13770

 Mulliken charges:
               1
     1  C    0.243674
     2  N    0.058142
     3  F   -0.380124
     4  F   -0.386260
     5  C    0.030399
     6  C    0.398997
     7  C    0.612172
     8  C    0.444760
     9  C    0.638579
    10  H   -0.435738
    11  H   -0.575513
    12  H   -0.435502
    13  H   -0.423809
    14  H   -0.527360
    15  P    0.679620
    16  H    0.057964
 Sum of Mulliken charges =  -0.00000

 Dipole moment (field-independent basis, Debye):
    X=              3.0497    Y=              0.0049    Z=              2.0205  Tot=              3.6583

 Test job not archived.
 1\1\GINC-SE341\SP\RHF\Aug-CC-pVDZ\C6H6F2N1P1\OHZDE\08-Apr-2025\0\\#t h
 f aug-cc-pvdz iop(5/13=1,5/36=2,99/5=2) pseudo=read geom=check guess=(
 read,tcheck) scf=(maxcycle=1)\\title\\0,1\C,0,0.417981,-0.155443,0.515
 612\N,0,-2.357027,0.166065,-0.185752\F,0,-2.204857,-0.780665,-1.223878
 \F,0,-1.802967,1.331232,-0.765751\C,0,1.138345,-1.273904,0.073029\C,0,
 1.022126,1.109839,0.465273\C,0,2.433722,-1.131218,-0.41706\C,0,3.02459
 7,0.129215,-0.459557\C,0,2.319365,1.248044,-0.016012\H,0,2.779842,2.22
 8826,-0.050164\H,0,0.475045,1.983612,0.796968\H,0,2.980845,-2.001775,-

 Normal termination of Gaussian 16 at Tue Apr  8 23:37:23 2025.
