 Gaussian 16, Revision C.01,

 ----------------------------------------------------------------------
 #t hf aug-cc-pvdz symm=none int=(grid=ultrafine) guess=(read,tcheck) s
 table=(opt,rrhf)
 ----------------------------------------------------------------------
 -----
 title
 -----
 Symbolic Z-matrix:
 Charge =  0 Multiplicity = 1

 SCF Done:  E(RHF) =  -940.833077443     A.U. after   16 cycles
 Normal termination of Gaussian 16 at Wed Apr  9 00:00:33 2025.
 Gaussian 16:  ES64L-G16RevC.01  3-Jul-2019

 ----------------------------------------------------------------------
 #t hf aug-cc-pvdz iop(5/13=1,5/36=2,99/5=2) pseudo=read geom=check gue
 ss=(read,tcheck) scf=(maxcycle=1)
 ----------------------------------------------------------------------
 -----
 title
 -----
 Structure from the checkpoint file:  "BDE49_nonexpt_2118_mol1.chk"
 Charge =  0 Multiplicity = 1

                         Standard orientation:
 ---------------------------------------------------------------------
 Center     Atomic      Atomic             Coordinates (Angstroms)
 Number     Number       Type             X           Y           Z
 ---------------------------------------------------------------------
      1         14           0        0.000012   -0.000046    0.453834
      2          7           0        1.535427   -0.713152   -0.281448
      3          7           0       -1.385474   -0.973219   -0.281047
      4          7           0       -0.150168    1.686347   -0.281162
      5          6           0        0.000499   -0.000082    2.282217
      6          8           0       -0.911276    1.959769   -1.188580
      7          8           0       -1.241863   -1.769078   -1.188481
      8          8           0        1.804573   -1.783648    0.268447
      9          8           0       -2.447053   -0.670531    0.268686
     10          8           0        2.152498   -0.190808   -1.189098
     11          8           0        0.642670    2.454488    0.268522
     12          1           0        0.052432   -1.027459    2.647534
     13          1           0       -0.914970    0.468773    2.647909
     14          1           0        0.864488    0.558447    2.647208
 ---------------------------------------------------------------------

 SCF Done:  E(RHF) =  -941.060738654     A.U. after    2 cycles

 The electronic state is 1-A.
 Alpha  occ. eigenvalues --  -69.26220 -20.67454 -20.67454 -20.67453 -20.66742
 Alpha  occ. eigenvalues --  -20.66741 -20.66741 -15.94016 -15.94015 -15.94015
 Alpha  occ. eigenvalues --  -11.30819  -7.00673  -4.11478  -4.11478  -4.11280
 Alpha  occ. eigenvalues --   -1.59219  -1.58392  -1.58391  -1.41250  -1.41250
 Alpha  occ. eigenvalues --   -1.41103  -1.06354  -1.00931  -0.97137  -0.97136
 Alpha  occ. eigenvalues --   -0.85328  -0.82814  -0.82813  -0.77988  -0.77967
 Alpha  occ. eigenvalues --   -0.77966  -0.75759  -0.75759  -0.75755  -0.64569
 Alpha  occ. eigenvalues --   -0.64569  -0.62355  -0.57363  -0.57362  -0.56992
 Alpha  occ. eigenvalues --   -0.53906  -0.52007  -0.52007  -0.52002  -0.51204
 Alpha  occ. eigenvalues --   -0.51203
 Alpha virt. eigenvalues --    0.01180   0.01240   0.01240   0.02199   0.04391
 Alpha virt. eigenvalues --    0.04391   0.06242   0.07502   0.07503   0.08651
 Alpha virt. eigenvalues --    0.12488   0.12488   0.12680   0.13962   0.13963

 Mulliken charges:
               1
     1  Si   2.549657
     2  N    0.173377
     3  N    0.173404
     4  N    0.173471
     5  C    0.288657
     6  O   -0.449201
     7  O   -0.449192
     8  O   -0.554080
     9  O   -0.554087
    10  O   -0.449170
    11  O   -0.554097
    12  H   -0.116211
    13  H   -0.116301
    14  H   -0.116227
 Sum of Mulliken charges =   0.00000

 Dipole moment (field-independent basis, Debye):
    X=              0.0004    Y=             -0.0005    Z=              5.1285  Tot=              5.1285

 Test job not archived.
 1\1\GINC-SE398\SP\RHF\Aug-CC-pVDZ\C1H3N3O6Si1\OHZDE\09-Apr-2025\0\\#t
 hf aug-cc-pvdz iop(5/13=1,5/36=2,99/5=2) pseudo=read geom=check guess=
 (read,tcheck) scf=(maxcycle=1)\\title\\0,1\Si,0,-0.000012,0.000046,0.4
 53834\N,0,-1.534682,0.714754,-0.281448\N,0,1.386489,0.971772,-0.281047
 \N,0,0.148408,-1.686503,-0.281162\C,0,-0.000499,0.000083,2.282217\O,0,
 0.90923,-1.960719,-1.18858\O,0,1.243709,1.767781,-1.188481\O,0,-1.8027
 1,1.78553,0.268447\O,0,2.447751,0.667977,0.268686\O,0,-2.152298,0.1930
 54,-1.189098\O,0,-0.645231,-2.453816,0.268522\H,0,-0.05136,1.027513,2.

 Normal termination of Gaussian 16 at Wed Apr  9 00:00:40 2025.
