 Gaussian 16, Revision C.01,

 ----------------------------------------------------------------------
 #t hf aug-cc-pvdz symm=none int=(grid=ultrafine) guess=(read,tcheck) s
 table=(opt,rrhf)
 ----------------------------------------------------------------------
 -----
 title
 -----
 Symbolic Z-matrix:
 Charge =  0 Multiplicity = 1

 SCF Done:  E(RHF) =  -1527.52088144     A.U. after   12 cycles

 1\1\GINC-SE461\Stability\RHF\Aug-CC-pVDZ\B2Cl3F1\OHZDE\08-Apr-2025\0\\
 #t hf aug-cc-pvdz symm=none int=(grid=ultrafine) guess=(read,tcheck) s
 table=(opt,rrhf)\\title\\0,1\B,0,-0.987109,-0.00002,0.473975\B,0,0.660
 447,-0.000001,0.087244\Cl,0,1.520578,-1.516805,-0.125233\Cl,0,1.520551
 ,1.516826,-0.125175\Cl,0,-2.187518,0.000023,-0.824113\F,0,-1.430899,-0
 .00007,1.717863\\Version=ES64L-G16RevC.01\HF=-1527.5208814\RMSD=9.620e
 -09\Dipole=0.1336882,0.0000027,-0.009937\Quadrupole=-1.4911542,1.31533
 25,0.1758217,-0.0000428,0.9104433,0.0000787\PG=Unknown\\@

 Normal termination of Gaussian 16 at Tue Apr  8 23:54:20 2025.
 Gaussian 16:  ES64L-G16RevC.01  3-Jul-2019

 ----------------------------------------------------------------------
 #t hf aug-cc-pvdz iop(5/13=1,5/36=2,99/5=2) pseudo=read geom=check gue
 ss=(read,tcheck) scf=(maxcycle=1)
 ----------------------------------------------------------------------
 -----
 title
 -----
 Structure from the checkpoint file:  "BDE49_nonexpt_19_mol1.chk"
 Charge =  0 Multiplicity = 1

                         Standard orientation:
 ---------------------------------------------------------------------
 Center     Atomic      Atomic             Coordinates (Angstroms)
 Number     Number       Type             X           Y           Z
 ---------------------------------------------------------------------
      1          5           0       -0.987109   -0.000020    0.473975
      2          5           0        0.660447   -0.000001    0.087244
      3         17           0        1.520578   -1.516805   -0.125233
      4         17           0        1.520551    1.516826   -0.125175
      5         17           0       -2.187518    0.000023   -0.824113
      6          9           0       -1.430899   -0.000070    1.717863
 ---------------------------------------------------------------------

 SCF Done:  E(RHF) =  -1527.62922763     A.U. after    2 cycles

 The electronic state is 1-A.
 Alpha  occ. eigenvalues -- -103.68977-103.68976-103.68205 -26.16392 -10.72468
 Alpha  occ. eigenvalues --  -10.72436 -10.71697  -8.38142  -8.38137  -8.37919
 Alpha  occ. eigenvalues --   -8.37916  -8.37883  -8.37879  -8.37382  -8.37166
 Alpha  occ. eigenvalues --   -8.37138  -7.75403  -7.74527  -1.70546  -1.20167
 Alpha  occ. eigenvalues --   -1.17552  -1.16522  -0.87370  -0.79518  -0.76942
 Alpha  occ. eigenvalues --   -0.73026  -0.65060  -0.60463  -0.57626  -0.54478
 Alpha  occ. eigenvalues --   -0.51338  -0.50988  -0.49767  -0.48850  -0.45720
 Alpha virt. eigenvalues --    0.04174   0.04582   0.04726   0.05174   0.06118
 Alpha virt. eigenvalues --    0.07498   0.07579   0.07928   0.08298   0.11911
 Alpha virt. eigenvalues --    0.13224   0.14123   0.14187   0.15896   0.17500

 Mulliken charges:
               1
     1  B    0.878420
     2  B    0.459550
     3  Cl  -0.307300
     4  Cl  -0.307299
     5  Cl  -0.365758
     6  F   -0.357613
 Sum of Mulliken charges =  -0.00000

 Dipole moment (field-independent basis, Debye):
    X=              0.3710    Y=              0.0000    Z=             -0.1746  Tot=              0.4100

 Test job not archived.
 1\1\GINC-SE461\SP\RHF\Aug-CC-pVDZ\B2Cl3F1\OHZDE\08-Apr-2025\0\\#t hf a
 ug-cc-pvdz iop(5/13=1,5/36=2,99/5=2) pseudo=read geom=check guess=(rea
 d,tcheck) scf=(maxcycle=1)\\title\\0,1\B,0,-0.987109,-0.00002,0.473975
 \B,0,0.660447,-0.000001,0.087244\Cl,0,1.520578,-1.516805,-0.125233\Cl,
 0,1.520551,1.516826,-0.125175\Cl,0,-2.187518,0.000023,-0.824113\F,0,-1
 .430899,-0.00007,1.717863\\Version=ES64L-G16RevC.01\State=1-A\HF=-1527
 .6292276\RMSD=4.520e-03\Dipole=0.1459712,0.0000051,-0.0686779\Quadrupo
 le=-1.5420787,1.4812805,0.0607982,-0.0000525,1.1446926,0.0000915\PG=C0

 Normal termination of Gaussian 16 at Tue Apr  8 23:54:22 2025.
