 Gaussian 16, Revision C.01,

 ----------------------------------------------------------------------
 #t hf aug-cc-pvdz symm=none int=(grid=ultrafine) guess=(read,tcheck) s
 table=(opt,rrhf)
 ----------------------------------------------------------------------
 -----
 title
 -----
 Symbolic Z-matrix:
 Charge =  0 Multiplicity = 1

 SCF Done:  E(RHF) =  -987.057711972     A.U. after   14 cycles
 Normal termination of Gaussian 16 at Wed Apr  9 00:23:52 2025.
 Gaussian 16:  ES64L-G16RevC.01  3-Jul-2019

 ----------------------------------------------------------------------
 #t hf aug-cc-pvdz iop(5/13=1,5/36=2,99/5=2) pseudo=read geom=check gue
 ss=(read,tcheck) scf=(maxcycle=1)
 ----------------------------------------------------------------------
 -----
 title
 -----
 Structure from the checkpoint file:  "BDE49_nonexpt_2739_mol1.chk"
 Charge =  0 Multiplicity = 1

                         Standard orientation:
 ---------------------------------------------------------------------
 Center     Atomic      Atomic             Coordinates (Angstroms)
 Number     Number       Type             X           Y           Z
 ---------------------------------------------------------------------
      1         16           0        2.411378    0.346294   -0.065958
      2         16           0        0.785549   -0.943167    0.079804
      3          6           0       -0.658053    0.189472   -0.090823
      4          8           0       -0.559593    1.379771   -0.097618
      5          6           0       -1.955531   -0.591069   -0.224361
      6          6           0       -3.179098    0.219692    0.205321
      7          1           0       -1.875389   -1.528884    0.334419
      8          1           0       -2.030247   -0.874549   -1.281381
      9          1           0       -3.135334    0.463143    1.269186
     10          1           0       -4.093568   -0.348291    0.022025
     11          1           0       -3.233356    1.157266   -0.348953
     12          1           0        2.449898    0.734532    1.223288
 ---------------------------------------------------------------------

 SCF Done:  E(RHF) =  -987.158645995     A.U. after    2 cycles

 The electronic state is 1-A.
 Alpha  occ. eigenvalues --  -93.57871 -93.57323 -20.58890 -11.38658 -11.27172
 Alpha  occ. eigenvalues --  -11.24431  -8.87518  -8.86910  -6.21627  -6.21349
 Alpha  occ. eigenvalues --   -6.21037  -6.21027  -6.20798  -6.20430  -1.38816
 Alpha  occ. eigenvalues --   -1.07649  -1.04176  -0.93321  -0.86234  -0.74893
 Alpha  occ. eigenvalues --   -0.67613  -0.66037  -0.63823  -0.58018  -0.56634
 Alpha  occ. eigenvalues --   -0.54701  -0.53411  -0.51506  -0.47269  -0.43759
 Alpha  occ. eigenvalues --   -0.39037  -0.37499
 Alpha virt. eigenvalues --    0.03233   0.04400   0.04988   0.05049   0.06150
 Alpha virt. eigenvalues --    0.07593   0.08276   0.09354   0.10663   0.11349
 Alpha virt. eigenvalues --    0.11796   0.12487   0.13187   0.14215   0.14615

 Mulliken charges:
               1
     1  S   -0.036905
     2  S    0.030735
     3  C   -0.045405
     4  O   -0.427455
     5  C   -0.008125
     6  C    0.453000
     7  H   -0.028694
     8  H    0.064944
     9  H   -0.067404
    10  H   -0.037662
    11  H   -0.039865
    12  H    0.142838
 Sum of Mulliken charges =  -0.00000

 Dipole moment (field-independent basis, Debye):
    X=             -1.5946    Y=             -1.8081    Z=              0.6565  Tot=              2.4986

 Test job not archived.
 1\1\GINC-SE212\SP\RHF\Aug-CC-pVDZ\C3H6O1S2\OHZDE\09-Apr-2025\0\\#t hf
 aug-cc-pvdz iop(5/13=1,5/36=2,99/5=2) pseudo=read geom=check guess=(re
 ad,tcheck) scf=(maxcycle=1)\\title\\0,1\S,0,2.411378,0.346294,-0.06595
 8\S,0,0.785549,-0.943167,0.079804\C,0,-0.658053,0.189472,-0.090823\O,0
 ,-0.559593,1.379771,-0.097618\C,0,-1.955531,-0.591069,-0.224361\C,0,-3
 .179098,0.219692,0.205321\H,0,-1.875389,-1.528884,0.334419\H,0,-2.0302
 47,-0.874549,-1.281381\H,0,-3.135334,0.463143,1.269186\H,0,-4.093568,-
 0.348291,0.022025\H,0,-3.233356,1.157266,-0.348953\H,0,2.449898,0.7345

 Normal termination of Gaussian 16 at Wed Apr  9 00:23:57 2025.
