 Gaussian 16, Revision C.01,

 ----------------------------------------------------------------------
 #t hf aug-cc-pvdz symm=none int=(grid=ultrafine) guess=(read,tcheck) s
 table=(opt,rrhf)
 ----------------------------------------------------------------------
 -----
 title
 -----
 Symbolic Z-matrix:
 Charge =  0 Multiplicity = 1

 SCF Done:  E(RHF) =  -1165.03960629     A.U. after   16 cycles
 Normal termination of Gaussian 16 at Wed Apr  9 00:49:49 2025.
 Gaussian 16:  ES64L-G16RevC.01  3-Jul-2019

 ----------------------------------------------------------------------
 #t hf aug-cc-pvdz iop(5/13=1,5/36=2,99/5=2) pseudo=read geom=check gue
 ss=(read,tcheck) scf=(maxcycle=1)
 ----------------------------------------------------------------------
 -----
 title
 -----
 Structure from the checkpoint file:  "BDE49_nonexpt_886_mol1.chk"
 Charge =  0 Multiplicity = 1

                         Standard orientation:
 ---------------------------------------------------------------------
 Center     Atomic      Atomic             Coordinates (Angstroms)
 Number     Number       Type             X           Y           Z
 ---------------------------------------------------------------------
      1         16           0       -2.987368   -1.453092    0.306730
      2         16           0       -2.749467    1.703695   -0.266073
      3          8           0        3.702639   -0.491368   -0.108236
      4          6           0        1.560715   -1.396037   -0.348416
      5          6           0        1.757258    0.940568    0.247973
      6          6           0        0.369142    1.034191    0.260957
      7          6           0        0.183411   -1.283965   -0.322373
      8          6           0       -0.462012   -0.064007   -0.019158
      9          6           0        2.362672   -0.282151   -0.061124
     10          6           0        4.576313    0.597961    0.166225
     11          5           0       -2.007944    0.057659    0.006805
     12          1           0       -0.075721    1.989839    0.516228
     13          1           0       -0.411174   -2.159034   -0.560744
     14          1           0        2.048544   -2.332518   -0.590160
     15          1           0        2.351009    1.814425    0.479778
     16          1           0        5.584403    0.199864    0.066656
     17          1           0        4.435868    1.413583   -0.550913
     18          1           0        4.435169    0.977095    1.183890
     19          1           0       -4.215654   -0.962196    0.074709
     20          1           0       -4.029485    1.412587    0.017395
 ---------------------------------------------------------------------

 SCF Done:  E(RHF) =  -1165.18646029     A.U. after    2 cycles

 The electronic state is 1-A.
 Alpha  occ. eigenvalues --  -93.53783 -93.53765 -20.61083 -11.32672 -11.30502
 Alpha  occ. eigenvalues --  -11.26208 -11.25912 -11.24637 -11.24151 -11.22860
 Alpha  occ. eigenvalues --   -8.83745  -8.83712  -7.66733  -6.17942  -6.17924
 Alpha  occ. eigenvalues --   -6.17673  -6.17655  -6.17442  -6.17417  -1.38123
 Alpha  occ. eigenvalues --   -1.14530  -1.03222  -1.02142  -0.98810  -0.94776
 Alpha  occ. eigenvalues --   -0.94211  -0.84294  -0.82096  -0.73981  -0.69625
 Alpha  occ. eigenvalues --   -0.68357  -0.67469  -0.63469  -0.60377  -0.60019
 Alpha  occ. eigenvalues --   -0.59042  -0.56242  -0.53984  -0.53678  -0.52020
 Alpha  occ. eigenvalues --   -0.49408  -0.48590  -0.48501  -0.42774  -0.41699
 Alpha  occ. eigenvalues --   -0.36775  -0.35167  -0.32249
 Alpha virt. eigenvalues --    0.03090   0.03837   0.04359   0.05147   0.05302
 Alpha virt. eigenvalues --    0.05925   0.06526   0.07084   0.07243   0.07570
 Alpha virt. eigenvalues --    0.07679   0.09452   0.09602   0.10004   0.10779

 Mulliken charges:
               1
     1  S   -0.186153
     2  S   -0.191033
     3  O   -0.685014
     4  C    0.886409
     5  C    0.791847
     6  C    0.261667
     7  C    0.616487
     8  C   -0.037504
     9  C    0.372291
    10  C    0.886751
    11  B    0.454684
    12  H   -0.642550
    13  H   -0.656723
    14  H   -0.573981
    15  H   -0.714621
    16  H   -0.302982
    17  H   -0.091834
    18  H   -0.094022
    19  H   -0.048949
    20  H   -0.044771
 Sum of Mulliken charges =   0.00000

 Dipole moment (field-independent basis, Debye):
    X=              1.1709    Y=              1.3068    Z=              0.3405  Tot=              1.7874

 Test job not archived.
 1\1\GINC-SE116\SP\RHF\Aug-CC-pVDZ\C7H9B1O1S2\OHZDE\09-Apr-2025\0\\#t h
 f aug-cc-pvdz iop(5/13=1,5/36=2,99/5=2) pseudo=read geom=check guess=(
 read,tcheck) scf=(maxcycle=1)\\title\\0,1\S,0,-2.987368,-1.453092,0.30
 673\S,0,-2.749467,1.703695,-0.266073\O,0,3.702639,-0.491368,-0.108236\
 C,0,1.560715,-1.396037,-0.348416\C,0,1.757258,0.940568,0.247973\C,0,0.
 369142,1.034191,0.260957\C,0,0.183411,-1.283965,-0.322373\C,0,-0.46201
 2,-0.064007,-0.019158\C,0,2.362672,-0.282151,-0.061124\C,0,4.576313,0.
 597961,0.166225\B,0,-2.007944,0.057659,0.006805\H,0,-0.075721,1.989839

 Normal termination of Gaussian 16 at Wed Apr  9 00:50:03 2025.
