 Gaussian 16, Revision C.01,

 ----------------------------------------------------------------------
 #t hf aug-cc-pvdz symm=none int=(grid=ultrafine) guess=(read,tcheck) s
 table=opt
 ----------------------------------------------------------------------
 -----
 title
 -----
 Symbolic Z-matrix:
 Charge =  0 Multiplicity = 2

 SCF Done:  E(UHF) =  -899.309923230     A.U. after   26 cycles
 Normal termination of Gaussian 16 at Tue Apr  8 23:15:37 2025.
 Gaussian 16:  ES64L-G16RevC.01  3-Jul-2019

 ----------------------------------------------------------------------
 #t hf aug-cc-pvdz iop(5/13=1,5/36=2,99/5=2) pseudo=read geom=check gue
 ss=(read,tcheck) scf=(maxcycle=1)
 ----------------------------------------------------------------------
 -----
 title
 -----
 Structure from the checkpoint file:  "BDE49_expt_694_mol2.chk"
 Charge =  0 Multiplicity = 2

                         Standard orientation:
 ---------------------------------------------------------------------
 Center     Atomic      Atomic             Coordinates (Angstroms)
 Number     Number       Type             X           Y           Z
 ---------------------------------------------------------------------
      1          6           0        1.436373   -0.665850    0.000000
      2          6           0        0.131090   -1.426548   -0.000001
      3          6           0       -0.914954   -0.608871   -0.000001
      4          6           0       -0.559629    0.862905    0.000000
      5          7           0        0.926010    0.734500    0.000002
      6          6           0        2.275966   -0.911423    1.265166
      7          1           0        1.675032   -0.770257    2.165583
      8          1           0        3.108559   -0.205595    1.287516
      9          1           0        2.676341   -1.928436    1.268127
     10          6           0        2.275966   -0.911421   -1.265166
     11          1           0        1.675033   -0.770252   -2.165583
     12          1           0        2.676341   -1.928433   -1.268128
     13          1           0        3.108559   -0.205592   -1.287514
     14          6           0       -1.018543    1.603137   -1.265818
     15          1           0       -0.725298    1.058285   -2.165284
     16          1           0       -0.549788    2.588558   -1.286370
     17          1           0       -2.103532    1.724973   -1.267889
     18          6           0       -1.018545    1.603136    1.265819
     19          1           0       -0.725301    1.058282    2.165285
     20          1           0       -2.103534    1.724972    1.267888
     21          1           0       -0.549789    2.588557    1.286372
     22          8           0        1.694114    1.743456    0.000002
     23         17           0       -2.584181   -1.105141   -0.000002
     24          1           0        0.087128   -2.507195   -0.000001
 ---------------------------------------------------------------------

 SCF Done:  E(UHF) =  -899.460317406     A.U. after    2 cycles

 The electronic state is 2-A.
 Alpha  occ. eigenvalues -- -103.67886 -20.59896 -15.71902 -11.31659 -11.30653
 Alpha  occ. eigenvalues --  -11.30332 -11.26430 -11.23750 -11.23744 -11.23582
 Alpha  occ. eigenvalues --  -11.23576 -10.71128  -8.36869  -8.36564  -8.36550
 Alpha  occ. eigenvalues --   -1.42076  -1.21948  -1.16414  -1.09045  -1.00790
 Alpha  occ. eigenvalues --   -0.97838  -0.95278  -0.94093  -0.85637  -0.78300
 Alpha  occ. eigenvalues --   -0.75919  -0.71112  -0.68961  -0.64026  -0.63551
 Alpha  occ. eigenvalues --   -0.61449  -0.60454  -0.60267  -0.57678  -0.56854
 Alpha  occ. eigenvalues --   -0.55599  -0.55355  -0.55081  -0.53080  -0.52372
 Alpha  occ. eigenvalues --   -0.50956  -0.50079  -0.49199  -0.46958  -0.45075
 Alpha  occ. eigenvalues --   -0.38169  -0.36345
 Alpha virt. eigenvalues --    0.03239   0.04019   0.04342   0.04593   0.05858
 Alpha virt. eigenvalues --    0.06152   0.06641   0.07169   0.07498   0.08157
 Alpha virt. eigenvalues --    0.08621   0.08890   0.09603   0.10908   0.11567

  Beta  occ. eigenvalues -- -103.67889 -20.56994 -15.69795 -11.31675 -11.30861
  Beta  occ. eigenvalues --  -11.30546 -11.26397 -11.23676 -11.23671 -11.23511
  Beta  occ. eigenvalues --  -11.23504 -10.71131  -8.36878  -8.36566  -8.36553
  Beta  occ. eigenvalues --   -1.35688  -1.21097  -1.14700  -1.08943  -1.00370
  Beta  occ. eigenvalues --   -0.94878  -0.93907  -0.93758  -0.85531  -0.77423
  Beta  occ. eigenvalues --   -0.74412  -0.67999  -0.63529  -0.63242  -0.62622
  Beta  occ. eigenvalues --   -0.60928  -0.60121  -0.57535  -0.56342  -0.56094
  Beta  occ. eigenvalues --   -0.55292  -0.54524  -0.52969  -0.52582  -0.51007
  Beta  occ. eigenvalues --   -0.49946  -0.49136  -0.46875  -0.42870  -0.42629
  Beta  occ. eigenvalues --   -0.36731
  Beta virt. eigenvalues --    0.03243   0.04021   0.04354   0.04597   0.05858
  Beta virt. eigenvalues --    0.06155   0.06645   0.07178   0.07450   0.08148
  Beta virt. eigenvalues --    0.08622   0.08886   0.09622   0.10900   0.11211

 Mulliken charges and spin densities:
               1          2
     1  C   -1.813597  -0.176242
     2  C    1.112622   0.063320
     3  C   -0.525419   0.000576
     4  C   -1.364398  -0.143743
     5  N    0.417628   0.585093
     6  C    0.969500   0.026932
     7  H   -0.069650  -0.001334
     8  H    0.052373  -0.004326
     9  H   -0.009572  -0.000821
    10  C    0.969499   0.026932
    11  H   -0.069650  -0.001334
    12  H   -0.009573  -0.000821
    13  H    0.052376  -0.004326
    14  C    0.921865   0.020810
    15  H   -0.063084  -0.001109
    16  H    0.059633  -0.005055
    17  H    0.007187  -0.000931
    18  C    0.921860   0.020811
    19  H   -0.063082  -0.001109
    20  H    0.007186  -0.000931
    21  H    0.059634  -0.005055
    22  O   -0.836459   0.607364
    23  Cl  -0.278871  -0.001846
    24  H   -0.448009  -0.002857
 Sum of Mulliken charges =  -0.00000   1.00000

 Dipole moment (field-independent basis, Debye):
    X=             -0.1660    Y=             -1.9739    Z=             -0.0000  Tot=              1.9808
                          Isotropic Fermi Contact Couplings
        Atom                 a.u.       MegaHertz       Gauss      10(-4) cm-1
     1  C(13)             -0.03615     -40.63966     -14.50124     -13.55593
     2  C(13)              0.00316       3.54878       1.26629       1.18375
     3  C(13)             -0.00280      -3.14544      -1.12237      -1.04921
     4  C(13)             -0.03583     -40.28006     -14.37293     -13.43598
     5  N(14)              0.22190      71.69779      25.58355      23.91581
     6  C(13)              0.01367      15.36368       5.48214       5.12477
     7  H(1)              -0.00055      -2.47855      -0.88441      -0.82676
     8  H(1)              -0.00074      -3.30979      -1.18101      -1.10403

 Normal termination of Gaussian 16 at Tue Apr  8 23:16:00 2025.
