 Gaussian 16, Revision C.01,

 ----------------------------------------------------------------------
 #t hf aug-cc-pvdz symm=none int=(grid=ultrafine) guess=(read,tcheck) s
 table=(opt,rrhf)
 ----------------------------------------------------------------------
 -----
 title
 -----
 Symbolic Z-matrix:
 Charge =  0 Multiplicity = 1

 SCF Done:  E(RHF) =  -983.285372342     A.U. after   13 cycles
 Normal termination of Gaussian 16 at Wed Apr  9 00:33:46 2025.
 Gaussian 16:  ES64L-G16RevC.01  3-Jul-2019

 ----------------------------------------------------------------------
 #t hf aug-cc-pvdz iop(5/13=1,5/36=2,99/5=2) pseudo=read geom=check gue
 ss=(read,tcheck) scf=(maxcycle=1)
 ----------------------------------------------------------------------
 -----
 title
 -----
 Structure from the checkpoint file:  "BDE49_nonexpt_463_mol1.chk"
 Charge =  0 Multiplicity = 1

                         Standard orientation:
 ---------------------------------------------------------------------
 Center     Atomic      Atomic             Coordinates (Angstroms)
 Number     Number       Type             X           Y           Z
 ---------------------------------------------------------------------
      1          1           0       -0.368907    1.810161   -1.316587
      2          1           0       -1.389847    2.227511    0.451034
      3          5           0       -0.622841    1.580535   -0.182901
      4          6           0        0.077908    0.378509    0.521510
      5         17           0        1.626865   -0.223388   -0.094926
      6         17           0       -1.372158   -0.628734   -0.078551
      7          1           0        0.075489    0.274667    1.600114
 ---------------------------------------------------------------------

 SCF Done:  E(RHF) =  -983.342439309     A.U. after    2 cycles

 The electronic state is 1-A.
 Alpha  occ. eigenvalues -- -103.68870-103.68102 -11.36834 -10.72109 -10.71382
 Alpha  occ. eigenvalues --   -8.37805  -8.37534  -8.37491  -8.37106  -8.36790
 Alpha  occ. eigenvalues --   -8.36777  -7.64344  -1.21951  -1.15142  -0.91445
 Alpha  occ. eigenvalues --   -0.73289  -0.64406  -0.60078  -0.56072  -0.50807
 Alpha  occ. eigenvalues --   -0.49975  -0.48648  -0.46884  -0.44820
 Alpha virt. eigenvalues --    0.03392   0.04367   0.04856   0.05560   0.07806
 Alpha virt. eigenvalues --    0.08473   0.09127   0.10303   0.12168   0.12762
 Alpha virt. eigenvalues --    0.13945   0.15078   0.15752   0.17175   0.17879

 Mulliken charges:
               1
     1  H    0.239707
     2  H    0.228883
     3  B    0.061777
     4  C   -0.138279
     5  Cl  -0.144471
     6  Cl  -0.213843
     7  H   -0.033773
 Sum of Mulliken charges =  -0.00000

 Dipole moment (field-independent basis, Debye):
    X=             -0.0519    Y=              0.9715    Z=              1.2331  Tot=              1.5707

 Test job not archived.
 1\1\GINC-SE070\SP\RHF\Aug-CC-pVDZ\C1H3B1Cl2\OHZDE\09-Apr-2025\0\\#t hf
  aug-cc-pvdz iop(5/13=1,5/36=2,99/5=2) pseudo=read geom=check guess=(r
 ead,tcheck) scf=(maxcycle=1)\\title\\0,1\H,0,-0.368907,1.810161,-1.316
 587\H,0,-1.389847,2.227511,0.451034\B,0,-0.622841,1.580535,-0.182901\C
 ,0,0.077908,0.378509,0.52151\Cl,0,1.626865,-0.223387,-0.094926\Cl,0,-1
 .372158,-0.628734,-0.078551\H,0,0.075489,0.274667,1.600114\\Version=ES
 64L-G16RevC.01\State=1-A\HF=-983.3424393\RMSD=3.723e-03\Dipole=-0.0204
 012,0.3822292,0.4851479\Quadrupole=-1.2408919,0.2316135,1.0092784,0.43

 Normal termination of Gaussian 16 at Wed Apr  9 00:33:48 2025.
