 Gaussian 16, Revision C.01,

 ----------------------------------------------------------------------
 #t hf aug-cc-pvdz symm=none int=(grid=ultrafine) guess=(read,tcheck) s
 table=(opt,rrhf)
 ----------------------------------------------------------------------
 -----
 title
 -----
 Symbolic Z-matrix:
 Charge =  0 Multiplicity = 1

 SCF Done:  E(RHF) =  -574.795435176     A.U. after   14 cycles

 1\1\GINC-SE329\Stability\RHF\Aug-CC-pVDZ\C3H3Cl1\OHZDE\08-Apr-2025\0\\
 #t hf aug-cc-pvdz symm=none int=(grid=ultrafine) guess=(read,tcheck) s
 table=(opt,rrhf)\\title\\0,1\C,0,-0.016882,0.833544,0.000025\C,0,1.255
 226,0.14679,-0.000036\C,0,2.32374,-0.400243,-0.000042\Cl,0,-1.433131,-
 0.323059,0.000009\H,0,-0.137565,1.451515,0.888878\H,0,-0.137635,1.4515
 9,-0.888758\H,0,3.265919,-0.891642,0.000038\\Version=ES64L-G16RevC.01\
 HF=-574.7954352\RMSD=3.103e-09\Dipole=0.5909055,0.5317782,0.0000657\Qu
 adrupole=0.8427912,0.580542,-1.4233333,-2.0958136,0.000303,-0.000009\P

 Normal termination of Gaussian 16 at Tue Apr  8 22:46:28 2025.
 Gaussian 16:  ES64L-G16RevC.01  3-Jul-2019

 ----------------------------------------------------------------------
 #t hf aug-cc-pvdz iop(5/13=1,5/36=2,99/5=2) pseudo=read geom=check gue
 ss=(read,tcheck) scf=(maxcycle=1)
 ----------------------------------------------------------------------
 -----
 title
 -----
 Structure from the checkpoint file:  "BDE49_expt_1641_mol1.chk"
 Charge =  0 Multiplicity = 1

                         Standard orientation:
 ---------------------------------------------------------------------
 Center     Atomic      Atomic             Coordinates (Angstroms)
 Number     Number       Type             X           Y           Z
 ---------------------------------------------------------------------
      1          6           0       -0.016882    0.833544    0.000025
      2          6           0        1.255226    0.146790   -0.000036
      3          6           0        2.323740   -0.400243   -0.000042
      4         17           0       -1.433131   -0.323059    0.000009
      5          1           0       -0.137565    1.451515    0.888878
      6          1           0       -0.137635    1.451590   -0.888758
      7          1           0        3.265919   -0.891642    0.000038
 ---------------------------------------------------------------------

 SCF Done:  E(RHF) =  -574.851780917     A.U. after    2 cycles

 The electronic state is 1-A.
 Alpha  occ. eigenvalues -- -103.66106 -11.34196 -11.26742 -11.25974 -10.69333
 Alpha  occ. eigenvalues --   -8.35050  -8.34748  -8.34739  -1.17277  -1.05483
 Alpha  occ. eigenvalues --   -0.95508  -0.74552  -0.67490  -0.65684  -0.58150
 Alpha  occ. eigenvalues --   -0.46604  -0.46263  -0.41218  -0.41079
 Alpha virt. eigenvalues --    0.03367   0.03901   0.05401   0.07688   0.09257
 Alpha virt. eigenvalues --    0.09664   0.11154   0.13294   0.14150   0.15115
 Alpha virt. eigenvalues --    0.15678   0.15729   0.16872   0.16875   0.18356

 Mulliken charges:
               1
     1  C   -0.217871
     2  C   -0.450699
     3  C    0.975487
     4  Cl  -0.105218
     5  H    0.126246
     6  H    0.126226
     7  H   -0.454171
 Sum of Mulliken charges =   0.00000

 Dipole moment (field-independent basis, Debye):
    X=              1.5604    Y=              1.3822    Z=              0.0002  Tot=              2.0846

 Test job not archived.
 1\1\GINC-SE329\SP\RHF\Aug-CC-pVDZ\C3H3Cl1\OHZDE\08-Apr-2025\0\\#t hf a
 ug-cc-pvdz iop(5/13=1,5/36=2,99/5=2) pseudo=read geom=check guess=(rea
 d,tcheck) scf=(maxcycle=1)\\title\\0,1\C,0,-0.016882,0.833544,0.000025
 \C,0,1.255226,0.14679,-0.000036\C,0,2.32374,-0.400243,-0.000042\Cl,0,-
 1.433131,-0.323059,0.000009\H,0,-0.137565,1.451515,0.888878\H,0,-0.137
 635,1.45159,-0.888758\H,0,3.265919,-0.891642,0.000038\\Version=ES64L-G
 16RevC.01\State=1-A\HF=-574.8517809\RMSD=8.694e-03\Dipole=0.6139203,0.
 5438005,0.0000659\Quadrupole=0.838959,0.5948913,-1.4338503,-2.0890515,

 Normal termination of Gaussian 16 at Tue Apr  8 22:46:30 2025.
