 Gaussian 16, Revision C.01,

 ----------------------------------------------------------------------
 #t hf aug-cc-pvdz symm=none int=(grid=ultrafine) guess=(read,tcheck) s
 table=(opt,rrhf)
 ----------------------------------------------------------------------
 -----
 title
 -----
 Symbolic Z-matrix:
 Charge =  0 Multiplicity = 1

 SCF Done:  E(RHF) =  -710.001333950     A.U. after   13 cycles
 Normal termination of Gaussian 16 at Wed Apr  9 00:10:47 2025.
 Gaussian 16:  ES64L-G16RevC.01  3-Jul-2019

 ----------------------------------------------------------------------
 #t hf aug-cc-pvdz iop(5/13=1,5/36=2,99/5=2) pseudo=read geom=check gue
 ss=(read,tcheck) scf=(maxcycle=1)
 ----------------------------------------------------------------------
 -----
 title
 -----
 Structure from the checkpoint file:  "BDE49_nonexpt_2407_mol1.chk"
 Charge =  0 Multiplicity = 1

                         Standard orientation:
 ---------------------------------------------------------------------
 Center     Atomic      Atomic             Coordinates (Angstroms)
 Number     Number       Type             X           Y           Z
 ---------------------------------------------------------------------
      1         14           0       -1.692241   -0.396187   -0.000044
      2         14           0        0.221703    0.984734    0.000069
      3          7           0        1.819369   -0.018064    0.000016
      4          8           0        1.681398   -1.220674   -0.000065
      5          1           0        0.352597    1.843070    1.202413
      6          1           0        0.352621    1.843234   -1.202155
      7          1           0       -2.903114    0.459328    0.000000
      8          1           0       -1.700686   -1.246805    1.211232
      9          1           0       -1.700660   -1.246643   -1.211434
 ---------------------------------------------------------------------

 SCF Done:  E(RHF) =  -710.083102774     A.U. after    2 cycles

 The electronic state is 1-A.
 Alpha  occ. eigenvalues --  -69.10053 -69.07872 -20.65380 -15.74534  -6.85297
 Alpha  occ. eigenvalues --   -6.83281  -3.96075  -3.96001  -3.95963  -3.94036
 Alpha  occ. eigenvalues --   -3.94033  -3.94028  -1.45800  -0.93301  -0.76397
 Alpha  occ. eigenvalues --   -0.70724  -0.66957  -0.61847  -0.59801  -0.51236
 Alpha  occ. eigenvalues --   -0.49821  -0.49007  -0.43054  -0.37021
 Alpha virt. eigenvalues --    0.03433   0.03994   0.05730   0.05827   0.06426
 Alpha virt. eigenvalues --    0.06757   0.07357   0.07443   0.08694   0.08866
 Alpha virt. eigenvalues --    0.09800   0.09894   0.11910   0.13701   0.14336

 Mulliken charges:
               1
     1  Si  -0.071233
     2  Si   0.784164
     3  N   -0.361040
     4  O   -0.313333
     5  H   -0.039083
     6  H   -0.039082
     7  H   -0.007638
     8  H    0.023623
     9  H    0.023623
 Sum of Mulliken charges =  -0.00000

 Dipole moment (field-independent basis, Debye):
    X=             -2.1814    Y=              1.7675    Z=              0.0001  Tot=              2.8076

 Test job not archived.
 1\1\GINC-SE457\SP\RHF\Aug-CC-pVDZ\H5N1O1Si2\OHZDE\09-Apr-2025\0\\#t hf
  aug-cc-pvdz iop(5/13=1,5/36=2,99/5=2) pseudo=read geom=check guess=(r
 ead,tcheck) scf=(maxcycle=1)\\title\\0,1\Si,0,-1.692241,-0.396187,-0.0
 00044\Si,0,0.221703,0.984734,0.000069\N,0,1.819369,-0.018064,0.000016\
 O,0,1.681398,-1.220674,-0.000065\H,0,0.352597,1.84307,1.202413\H,0,0.3
 52621,1.843234,-1.202155\H,0,-2.903114,0.459329,0.\H,0,-1.700686,-1.24
 6805,1.211232\H,0,-1.70066,-1.246643,-1.211434\\Version=ES64L-G16RevC.
 01\State=1-A\HF=-710.0831028\RMSD=4.947e-03\Dipole=-0.8582216,0.695401

 Normal termination of Gaussian 16 at Wed Apr  9 00:10:50 2025.
