 Gaussian 16, Revision C.01,

 ----------------------------------------------------------------------
 #t hf aug-cc-pvdz symm=none int=(grid=ultrafine) guess=(read,tcheck) s
 table=(opt,rrhf)
 ----------------------------------------------------------------------
 -----
 title
 -----
 Symbolic Z-matrix:
 Charge =  0 Multiplicity = 1

 SCF Done:  E(RHF) =  -257.506445690     A.U. after   12 cycles
 Normal termination of Gaussian 16 at Wed Apr  9 00:27:11 2025.
 Gaussian 16:  ES64L-G16RevC.01  3-Jul-2019

 ----------------------------------------------------------------------
 #t hf aug-cc-pvdz iop(5/13=1,5/36=2,99/5=2) pseudo=read geom=check gue
 ss=(read,tcheck) scf=(maxcycle=1)
 ----------------------------------------------------------------------
 -----
 title
 -----
 Structure from the checkpoint file:  "BDE49_nonexpt_318_mol1.chk"
 Charge =  0 Multiplicity = 1

                         Standard orientation:
 ---------------------------------------------------------------------
 Center     Atomic      Atomic             Coordinates (Angstroms)
 Number     Number       Type             X           Y           Z
 ---------------------------------------------------------------------
      1          6           0       -0.379707   -0.003192    0.000007
      2          5           0        1.033665   -0.710427    0.000014
      3          8           0        2.170899    0.029887   -0.000026
      4          6           0       -1.150089   -0.474459    1.256883
      5          1           0       -0.656143   -0.151820    2.179274
      6          1           0       -1.242765   -1.564421    1.290666
      7          6           0       -1.150090   -0.474465   -1.256866
      8          1           0       -1.242765   -1.564427   -1.290643
      9          1           0       -0.656144   -0.151830   -2.179258
     10          1           0       -2.162976   -0.054403   -1.262767
     11          1           0       -2.162975   -0.054396    1.262781
     12          6           0       -0.277266    1.532477    0.000004
     13          1           0       -1.273986    1.989426    0.000003
     14          1           0        0.258888    1.897794   -0.880270
     15          1           0        0.258889    1.897798    0.880277
     16          1           0        2.971753   -0.502431   -0.000059
     17          1           0        1.115617   -1.910414   -0.000041
 ---------------------------------------------------------------------

 SCF Done:  E(RHF) =  -257.592479739     A.U. after    2 cycles

 The electronic state is 1-A.
 Alpha  occ. eigenvalues --  -20.58881 -11.22171 -11.22167 -11.21380 -11.21163
 Alpha  occ. eigenvalues --   -7.62475  -1.33093  -1.06420  -0.92088  -0.91740
 Alpha  occ. eigenvalues --   -0.79576  -0.73322  -0.65644  -0.62687  -0.59181
 Alpha  occ. eigenvalues --   -0.59014  -0.55505  -0.53279  -0.52943  -0.51170
 Alpha  occ. eigenvalues --   -0.50901  -0.45806  -0.45592  -0.41439
 Alpha virt. eigenvalues --    0.02778   0.04598   0.04761   0.05044   0.06434
 Alpha virt. eigenvalues --    0.06547   0.06572   0.07162   0.07195   0.09272
 Alpha virt. eigenvalues --    0.09571   0.09650   0.10943   0.11177   0.12017

 Mulliken charges:
               1
     1  C   -2.757530
     2  B    0.336290
     3  O   -0.461435
     4  C    1.008211
     5  H   -0.125069
     6  H   -0.055093
     7  C    1.008210
     8  H   -0.055100
     9  H   -0.125058
    10  H   -0.032254
    11  H   -0.032256
    12  C    1.040993
    13  H   -0.045058
    14  H   -0.069423
    15  H   -0.069419
    16  H    0.219078
    17  H    0.214914
 Sum of Mulliken charges =  -0.00000

 Dipole moment (field-independent basis, Debye):
    X=              0.7593    Y=             -1.0839    Z=              0.0000  Tot=              1.3234

 Test job not archived.
 1\1\GINC-SE150\SP\RHF\Aug-CC-pVDZ\C4H11B1O1\OHZDE\09-Apr-2025\0\\#t hf
  aug-cc-pvdz iop(5/13=1,5/36=2,99/5=2) pseudo=read geom=check guess=(r
 ead,tcheck) scf=(maxcycle=1)\\title\\0,1\C,0,-0.379707,-0.003192,0.000
 007\B,0,1.033665,-0.710427,0.000014\O,0,2.170899,0.029886,-0.000026\C,
 0,-1.150089,-0.474459,1.256883\H,0,-0.656143,-0.15182,2.179274\H,0,-1.
 242765,-1.564421,1.290666\C,0,-1.15009,-0.474465,-1.256866\H,0,-1.2427
 65,-1.564427,-1.290643\H,0,-0.656144,-0.15183,-2.179258\H,0,-2.162976,
 -0.054403,-1.262767\H,0,-2.162975,-0.054396,1.262781\C,0,-0.277266,1.5

 Normal termination of Gaussian 16 at Wed Apr  9 00:27:17 2025.
