 Gaussian 16, Revision C.01,

 ----------------------------------------------------------------------
 #t hf aug-cc-pvdz symm=none int=(grid=ultrafine) guess=(read,tcheck) s
 table=(opt,rrhf)
 ----------------------------------------------------------------------
 -----
 title
 -----
 Symbolic Z-matrix:
 Charge =  0 Multiplicity = 1

 SCF Done:  E(RHF) =  -513.792200550     A.U. after   13 cycles
 Normal termination of Gaussian 16 at Tue Apr  8 23:51:24 2025.
 Gaussian 16:  ES64L-G16RevC.01  3-Jul-2019

 ----------------------------------------------------------------------
 #t hf aug-cc-pvdz iop(5/13=1,5/36=2,99/5=2) pseudo=read geom=check gue
 ss=(read,tcheck) scf=(maxcycle=1)
 ----------------------------------------------------------------------
 -----
 title
 -----
 Structure from the checkpoint file:  "BDE49_nonexpt_1919_mol1.chk"
 Charge =  0 Multiplicity = 1

                         Standard orientation:
 ---------------------------------------------------------------------
 Center     Atomic      Atomic             Coordinates (Angstroms)
 Number     Number       Type             X           Y           Z
 ---------------------------------------------------------------------
      1         14           0        0.428435    0.689153    0.000064
      2          6           0       -0.785703   -0.772244   -0.000006
      3          6           0       -2.164907   -0.315772   -0.000198
      4          7           0       -3.244109    0.091313    0.000137
      5          6           0        2.129951   -0.047115    0.000204
      6          1           0        0.283170    1.497566    1.221170
      7          1           0        0.283416    1.497484   -1.221124
      8          7           0        3.181317   -0.526392   -0.000280
      9          1           0       -0.600657   -1.393396    0.881653
     10          1           0       -0.600521   -1.393459   -0.881589
 ---------------------------------------------------------------------

 SCF Done:  E(RHF) =  -513.882067050     A.U. after    2 cycles

 The electronic state is 1-A.
 Alpha  occ. eigenvalues --  -69.14149 -15.67434 -15.65619 -11.31077 -11.30998
 Alpha  occ. eigenvalues --  -11.28920  -6.89257  -4.00137  -4.00012  -3.99979
 Alpha  occ. eigenvalues --   -1.21297  -1.21091  -1.05163  -0.81231  -0.71538
 Alpha  occ. eigenvalues --   -0.66057  -0.64746  -0.57358  -0.56051  -0.55635
 Alpha  occ. eigenvalues --   -0.54658  -0.49831  -0.48794  -0.47750  -0.45628
 Alpha virt. eigenvalues --    0.02471   0.03640   0.03853   0.05522   0.06324
 Alpha virt. eigenvalues --    0.07240   0.08352   0.08745   0.09450   0.10346
 Alpha virt. eigenvalues --    0.11200   0.12333   0.12736   0.13342   0.14046

 Mulliken charges:
               1
     1  Si   0.634937
     2  C    0.255820
     3  C   -0.451846
     4  N   -0.155589
     5  C   -0.226082
     6  H    0.053698
     7  H    0.053738
     8  N   -0.174686
     9  H    0.005033
    10  H    0.004976
 Sum of Mulliken charges =   0.00000

 Dipole moment (field-independent basis, Debye):
    X=              0.5168    Y=             -0.0657    Z=              0.0003  Tot=              0.5210

 Test job not archived.
 1\1\GINC-SE273\SP\RHF\Aug-CC-pVDZ\C3H4N2Si1\OHZDE\08-Apr-2025\0\\#t hf
  aug-cc-pvdz iop(5/13=1,5/36=2,99/5=2) pseudo=read geom=check guess=(r
 ead,tcheck) scf=(maxcycle=1)\\title\\0,1\Si,0,-0.428435,0.689153,-0.00
 0064\C,0,0.785703,-0.772244,0.000006\C,0,2.164907,-0.315772,0.000198\N
 ,0,3.244109,0.091313,-0.000137\C,0,-2.129951,-0.047115,-0.000204\H,0,-
 0.28317,1.497566,-1.22117\H,0,-0.283416,1.497484,1.221124\N,0,-3.18131
 7,-0.526392,0.00028\H,0,0.600657,-1.393396,-0.881653\H,0,0.600521,-1.3
 93459,0.881589\\Version=ES64L-G16RevC.01\State=1-A\HF=-513.882067\RMSD

 Normal termination of Gaussian 16 at Tue Apr  8 23:51:29 2025.
