 Gaussian 16, Revision C.01,

 ----------------------------------------------------------------------
 #t hf aug-cc-pvdz symm=none int=(grid=ultrafine) guess=(read,tcheck) s
 table=(opt,rrhf)
 ----------------------------------------------------------------------
 -----
 title
 -----
 Symbolic Z-matrix:
 Charge =  0 Multiplicity = 1

 SCF Done:  E(RHF) =  -1085.35381962     A.U. after   14 cycles
 Normal termination of Gaussian 16 at Tue Apr  8 22:58:45 2025.
 Gaussian 16:  ES64L-G16RevC.01  3-Jul-2019

 ----------------------------------------------------------------------
 #t hf aug-cc-pvdz iop(5/13=1,5/36=2,99/5=2) pseudo=read geom=check gue
 ss=(read,tcheck) scf=(maxcycle=1)
 ----------------------------------------------------------------------
 -----
 title
 -----
 Structure from the checkpoint file:  "BDE49_expt_1981_mol1.chk"
 Charge =  0 Multiplicity = 1

                         Standard orientation:
 ---------------------------------------------------------------------
 Center     Atomic      Atomic             Coordinates (Angstroms)
 Number     Number       Type             X           Y           Z
 ---------------------------------------------------------------------
      1          6           0       -1.352521   -0.190098   -0.731355
      2         17           0        1.181649    1.327526   -0.040254
      3         16           0        0.229854   -0.577556    0.060629
      4          6           0       -2.241095    0.730722    0.090685
      5          1           0       -1.787957   -1.184903   -0.866222
      6          1           0       -1.086398    0.210049   -1.709982
      7          1           0       -2.439794    0.306724    1.075088
      8          1           0       -3.193131    0.858965   -0.430165
      9          1           0       -1.787402    1.714295    0.216749
     10          8           0        0.981499   -1.450636   -0.795576
     11          8           0        0.029837   -0.858854    1.454676
 ---------------------------------------------------------------------

 SCF Done:  E(RHF) =  -1085.51980507     A.U. after    2 cycles

 The electronic state is 1-A.
 Alpha  occ. eigenvalues -- -103.68664 -93.83735 -20.60226 -20.60168 -11.32368
 Alpha  occ. eigenvalues --  -11.27183 -10.71964  -9.10173  -8.37665  -8.37351
 Alpha  occ. eigenvalues --   -8.37334  -6.44754  -6.44585  -6.44387  -1.46406
 Alpha  occ. eigenvalues --   -1.35131  -1.16798  -1.09687  -0.94467  -0.83559
 Alpha  occ. eigenvalues --   -0.72742  -0.72064  -0.69519  -0.66457  -0.61408
 Alpha  occ. eigenvalues --   -0.58115  -0.56521  -0.55246  -0.54461  -0.53726
 Alpha  occ. eigenvalues --   -0.49777  -0.48632  -0.48183
 Alpha virt. eigenvalues --    0.02540   0.04330   0.04698   0.04818   0.06278
 Alpha virt. eigenvalues --    0.07376   0.09859   0.10473   0.11367   0.11918
 Alpha virt. eigenvalues --    0.13991   0.14276   0.15359   0.15428   0.16429

 Mulliken charges:
               1
     1  C   -0.347285
     2  Cl  -0.274474
     3  S    2.348519
     4  C    0.359899
     5  H    0.036775
     6  H   -0.021854
     7  H   -0.013295
     8  H   -0.019606
     9  H   -0.052127
    10  O   -1.000396
    11  O   -1.016156
 Sum of Mulliken charges =  -0.00000

 Dipole moment (field-independent basis, Debye):
    X=             -4.1530    Y=              1.8016    Z=             -1.8289  Tot=              4.8825

 Test job not archived.
 1\1\GINC-SE250\SP\RHF\Aug-CC-pVDZ\C2H5Cl1O2S1\OHZDE\08-Apr-2025\0\\#t
 hf aug-cc-pvdz iop(5/13=1,5/36=2,99/5=2) pseudo=read geom=check guess=
 (read,tcheck) scf=(maxcycle=1)\\title\\0,1\C,0,-1.352521,-0.190099,-0.
 731355\Cl,0,1.181648,1.327527,-0.040254\S,0,0.229854,-0.577556,0.06062
 9\C,0,-2.241095,0.730721,0.090685\H,0,-1.787956,-1.184904,-0.866222\H,
 0,-1.086398,0.210049,-1.709982\H,0,-2.439794,0.306723,1.075088\H,0,-3.
 193131,0.858964,-0.430165\H,0,-1.787403,1.714294,0.216749\O,0,0.9815,-
 1.450636,-0.795576\O,0,0.029837,-0.858854,1.454676\\Version=ES64L-G16R

 Normal termination of Gaussian 16 at Tue Apr  8 22:58:48 2025.
