 Gaussian 16, Revision C.01,

 ----------------------------------------------------------------------
 #t hf aug-cc-pvdz symm=none int=(grid=ultrafine) guess=(read,tcheck) s
 table=(opt,rrhf)
 ----------------------------------------------------------------------
 -----
 title
 -----
 Symbolic Z-matrix:
 Charge =  0 Multiplicity = 1

 SCF Done:  E(RHF) =  -933.269513647     A.U. after   14 cycles
 Normal termination of Gaussian 16 at Wed Apr  9 00:16:03 2025.
 Gaussian 16:  ES64L-G16RevC.01  3-Jul-2019

 ----------------------------------------------------------------------
 #t hf aug-cc-pvdz iop(5/13=1,5/36=2,99/5=2) pseudo=read geom=check gue
 ss=(read,tcheck) scf=(maxcycle=1)
 ----------------------------------------------------------------------
 -----
 title
 -----
 Structure from the checkpoint file:  "BDE49_nonexpt_2561_mol1.chk"
 Charge =  0 Multiplicity = 1

                         Standard orientation:
 ---------------------------------------------------------------------
 Center     Atomic      Atomic             Coordinates (Angstroms)
 Number     Number       Type             X           Y           Z
 ---------------------------------------------------------------------
      1         17           0        1.541849   -0.528408   -0.000000
      2         16           0       -0.002942    0.898823   -0.000000
      3          6           0       -1.379717   -0.045651   -0.000000
      4          6           0       -2.423961   -0.655577   -0.000000
      5          1           0       -3.342283   -1.190857    0.000001
 ---------------------------------------------------------------------

 SCF Done:  E(RHF) =  -933.336558082     A.U. after    2 cycles

 The electronic state is 1-A.
 Alpha  occ. eigenvalues -- -103.69099 -93.63764 -11.29454 -11.28299 -10.72214
 Alpha  occ. eigenvalues --   -8.92958  -8.37943  -8.37583  -8.37554  -6.27071
 Alpha  occ. eigenvalues --   -6.26829  -6.26356  -1.18074  -1.07635  -0.96768
 Alpha  occ. eigenvalues --   -0.75222  -0.65277  -0.56137  -0.54413  -0.48264
 Alpha  occ. eigenvalues --   -0.47464  -0.42922  -0.36312
 Alpha virt. eigenvalues --    0.01515   0.03413   0.06888   0.08578   0.09520
 Alpha virt. eigenvalues --    0.09780   0.12579   0.13840   0.14493   0.14837
 Alpha virt. eigenvalues --    0.15215   0.16405   0.16769   0.17476   0.19745

 Mulliken charges:
               1
     1  Cl  -0.265523
     2  S    0.345763
     3  C   -0.035125
     4  C    0.293303
     5  H   -0.338418
 Sum of Mulliken charges =  -0.00000

 Dipole moment (field-independent basis, Debye):
    X=             -1.8638    Y=             -0.0048    Z=              0.0000  Tot=              1.8638

 Test job not archived.
 1\1\GINC-SE094\SP\RHF\Aug-CC-pVDZ\C2H1Cl1S1\OHZDE\09-Apr-2025\0\\#t hf
  aug-cc-pvdz iop(5/13=1,5/36=2,99/5=2) pseudo=read geom=check guess=(r
 ead,tcheck) scf=(maxcycle=1)\\title\\0,1\Cl,0,1.541849,-0.528408,0.\S,
 0,-0.002942,0.898823,0.\C,0,-1.379717,-0.045651,0.\C,0,-2.423961,-0.65
 5577,0.\H,0,-3.342283,-1.190857,0.000001\\Version=ES64L-G16RevC.01\Sta
 te=1-A\HF=-933.3365581\RMSD=9.596e-03\Dipole=-0.7332592,-0.0018784,0.0
 000005\Quadrupole=3.3944962,-0.0467171,-3.3477791,2.1282659,-0.0000034
 ,-0.0000013\PG=C01 [X(C2H1Cl1S1)]\\@

 Normal termination of Gaussian 16 at Wed Apr  9 00:16:05 2025.
