 Gaussian 16, Revision C.01,

 ----------------------------------------------------------------------
 #t hf aug-cc-pvdz symm=none int=(grid=ultrafine) guess=(read,tcheck) s
 table=(opt,rrhf)
 ----------------------------------------------------------------------
 -----
 title
 -----
 Symbolic Z-matrix:
 Charge =  0 Multiplicity = 1

 SCF Done:  E(RHF) =  -686.764502598     A.U. after   14 cycles
 Normal termination of Gaussian 16 at Tue Apr  8 22:48:31 2025.
 Gaussian 16:  ES64L-G16RevC.01  3-Jul-2019

 ----------------------------------------------------------------------
 #t hf aug-cc-pvdz iop(5/13=1,5/36=2,99/5=2) pseudo=read geom=check gue
 ss=(read,tcheck) scf=(maxcycle=1)
 ----------------------------------------------------------------------
 -----
 title
 -----
 Structure from the checkpoint file:  "BDE49_expt_1715_mol1.chk"
 Charge =  0 Multiplicity = 1

                         Standard orientation:
 ---------------------------------------------------------------------
 Center     Atomic      Atomic             Coordinates (Angstroms)
 Number     Number       Type             X           Y           Z
 ---------------------------------------------------------------------
      1          6           0        1.003517   -0.115348    0.056075
      2          8           0        1.800782   -0.871896   -0.430087
      3          6           0       -0.310845   -0.550915    0.674331
      4          8           0        1.185315    1.214986    0.146666
      5         17           0       -1.724222    0.096985   -0.245718
      6          1           0       -0.397125   -0.177220    1.693278
      7          1           0       -0.368380   -1.634200    0.647475
      8          1           0        2.032478    1.415541   -0.278609
 ---------------------------------------------------------------------

 SCF Done:  E(RHF) =  -686.856242446     A.U. after    2 cycles

 The electronic state is 1-A.
 Alpha  occ. eigenvalues -- -103.67341 -20.64512 -20.58964 -11.42615 -11.33596
 Alpha  occ. eigenvalues --  -10.70578  -8.36304  -8.35994  -8.35982  -1.44898
 Alpha  occ. eigenvalues --   -1.35219  -1.18341  -1.00332  -0.85554  -0.74161
 Alpha  occ. eigenvalues --   -0.72268  -0.67753  -0.63841  -0.62250  -0.57761
 Alpha  occ. eigenvalues --   -0.52243  -0.51209  -0.46820  -0.46195
 Alpha virt. eigenvalues --    0.03213   0.04505   0.05553   0.07032   0.09974
 Alpha virt. eigenvalues --    0.11136   0.11576   0.13058   0.13774   0.14185
 Alpha virt. eigenvalues --    0.15395   0.16237   0.17836   0.18203   0.18822

 Mulliken charges:
               1
     1  C    0.574712
     2  O   -0.423370
     3  C   -0.016142
     4  O   -0.436668
     5  Cl  -0.072170
     6  H    0.110785
     7  H    0.084571
     8  H    0.178282
 Sum of Mulliken charges =   0.00000

 Dipole moment (field-independent basis, Debye):
    X=              0.3929    Y=              0.6922    Z=              1.6466  Tot=              1.8289

 Test job not archived.
 1\1\GINC-SE044\SP\RHF\Aug-CC-pVDZ\C2H3Cl1O2\OHZDE\08-Apr-2025\0\\#t hf
  aug-cc-pvdz iop(5/13=1,5/36=2,99/5=2) pseudo=read geom=check guess=(r
 ead,tcheck) scf=(maxcycle=1)\\title\\0,1\C,0,1.003517,-0.115348,0.0560
 75\O,0,1.800782,-0.871895,-0.430087\C,0,-0.310845,-0.550915,0.674331\O
 ,0,1.185315,1.214986,0.146666\Cl,0,-1.724222,0.096984,-0.245718\H,0,-0
 .397125,-0.17722,1.693278\H,0,-0.368379,-1.6342,0.647475\H,0,2.032478,
 1.415542,-0.278609\\Version=ES64L-G16RevC.01\State=1-A\HF=-686.8562424
 \RMSD=3.432e-03\Dipole=0.1545788,0.2723173,0.6478389\Quadrupole=-1.426

 Normal termination of Gaussian 16 at Tue Apr  8 22:48:34 2025.
