 Gaussian 16, Revision C.01,

 ----------------------------------------------------------------------
 #t hf aug-cc-pvdz symm=none int=(grid=ultrafine) guess=(read,tcheck) s
 table=opt
 ----------------------------------------------------------------------
 -----
 title
 -----
 Symbolic Z-matrix:
 Charge =  0 Multiplicity = 2

 SCF Done:  E(UHF) =  -94.6091925236     A.U. after   15 cycles
 Normal termination of Gaussian 16 at Tue Apr  8 22:36:21 2025.
 Gaussian 16:  ES64L-G16RevC.01  3-Jul-2019

 ----------------------------------------------------------------------
 #t hf aug-cc-pvdz iop(5/13=1,5/36=2,99/5=2) pseudo=read geom=check gue
 ss=(read,tcheck) scf=(maxcycle=1)
 ----------------------------------------------------------------------
 -----
 title
 -----
 Structure from the checkpoint file:  "BDE49_expt_1197_mol2.chk"
 Charge =  0 Multiplicity = 2

                         Standard orientation:
 ---------------------------------------------------------------------
 Center     Atomic      Atomic             Coordinates (Angstroms)
 Number     Number       Type             X           Y           Z
 ---------------------------------------------------------------------
      1          6           0       -0.011349    0.733975   -0.000000
      2          7           0       -0.011349   -0.663670    0.000000
      3          1           0       -0.295657    1.212863    0.928772
      4          1           0       -0.295657    1.212863   -0.928772
      5          1           0        0.369428   -1.091943    0.832988
      6          1           0        0.369428   -1.091943   -0.832988
 ---------------------------------------------------------------------

 SCF Done:  E(UHF) =  -94.6405451033     A.U. after    2 cycles

 The electronic state is 2-A'.
 Alpha  occ. eigenvalues --  -15.62772 -11.25566  -1.16811  -0.88628  -0.69369
 Alpha  occ. eigenvalues --   -0.61083  -0.54062  -0.52361  -0.29759
 Alpha virt. eigenvalues --    0.03699   0.04742   0.04814   0.08228   0.10669
 Alpha virt. eigenvalues --    0.12579   0.17101   0.17685   0.18138   0.18683
 Alpha virt. eigenvalues --    0.20826   0.26296   0.28913   0.30610   0.32048

  Beta  occ. eigenvalues --  -15.62204 -11.23274  -1.14394  -0.82382  -0.68605
  Beta  occ. eigenvalues --   -0.59673  -0.52885  -0.42252
  Beta virt. eigenvalues --    0.03737   0.04765   0.04915   0.08249   0.09301
  Beta virt. eigenvalues --    0.12134   0.16323   0.17242   0.17961   0.19064
  Beta virt. eigenvalues --    0.20885   0.22224   0.26917   0.29341   0.30639

 Mulliken charges and spin densities:
               1          2
     1  C    0.627274   1.112662
     2  N   -0.240046   0.083033
     3  H   -0.193630  -0.086433
     4  H   -0.193630  -0.086433
     5  H    0.000016  -0.011414
     6  H    0.000016  -0.011414
 Sum of Mulliken charges =   0.00000   1.00000

 Dipole moment (field-independent basis, Debye):
    X=              0.6699    Y=             -0.6132    Z=              0.0000  Tot=              0.9081
                          Isotropic Fermi Contact Couplings
        Atom                 a.u.       MegaHertz       Gauss      10(-4) cm-1
     1  C(13)              0.22744     255.68279      91.23398      85.28660
     2  N(14)              0.04168      13.46567       4.80489       4.49167
     3  H(1)              -0.01746     -78.02336     -27.84067     -26.02579
     4  H(1)              -0.01746     -78.02336     -27.84067     -26.02579
     5  H(1)               0.00053       2.38914       0.85250       0.79693
     6  H(1)               0.00053       2.38914       0.85250       0.79693
 --------------------------------------------------------
       Center         ----  Spin Dipole Couplings  ----

 Normal termination of Gaussian 16 at Tue Apr  8 22:36:23 2025.
