 Gaussian 16, Revision C.01,

 ----------------------------------------------------------------------
 #t hf aug-cc-pvdz symm=none int=(grid=ultrafine) guess=(read,tcheck) s
 table=(opt,rrhf)
 ----------------------------------------------------------------------
 -----
 title
 -----
 Symbolic Z-matrix:
 Charge =  0 Multiplicity = 1

 SCF Done:  E(RHF) =  -502.234733986     A.U. after   12 cycles

 1\1\GINC-SE088\Stability\RHF\Aug-CC-pVDZ\C9H20O2\OHZDE\08-Apr-2025\0\\
 #t hf aug-cc-pvdz symm=none int=(grid=ultrafine) guess=(read,tcheck) s
 table=(opt,rrhf)\\title\\0,1\C,0,0.,0.,1.910693\O,0,-0.766323,-0.89578
 5,1.149471\O,0,0.766323,0.895785,1.149471\H,0,0.722544,-0.538033,2.536
 277\H,0,-0.722544,0.538033,2.536277\C,0,0.,-1.878898,0.451843\C,0,0.,1
 .878898,0.451843\C,0,0.948751,2.866667,-0.222901\H,0,-0.650317,2.40554
 2,1.166381\H,0,-0.644865,1.396375,-0.294295\C,0,0.148408,4.002689,-0.8
 72873\H,0,-0.510915,3.620216,-1.659474\H,0,0.817118,4.735971,-1.331208

 Normal termination of Gaussian 16 at Tue Apr  8 23:02:21 2025.
 Gaussian 16:  ES64L-G16RevC.01  3-Jul-2019

 ----------------------------------------------------------------------
 #t hf aug-cc-pvdz iop(5/13=1,5/36=2,99/5=2) pseudo=read geom=check gue
 ss=(read,tcheck) scf=(maxcycle=1)
 ----------------------------------------------------------------------
 -----
 title
 -----
 Structure from the checkpoint file:  "BDE49_expt_193_mol1.chk"
 Charge =  0 Multiplicity = 1

                         Standard orientation:
 ---------------------------------------------------------------------
 Center     Atomic      Atomic             Coordinates (Angstroms)
 Number     Number       Type             X           Y           Z
 ---------------------------------------------------------------------
      1          6           0        0.000000    0.000000    1.910693
      2          8           0       -0.766323   -0.895785    1.149471
      3          8           0        0.766323    0.895785    1.149471
      4          1           0        0.722544   -0.538033    2.536277
      5          1           0       -0.722544    0.538033    2.536277
      6          6           0        0.000000   -1.878898    0.451843
      7          6           0        0.000000    1.878898    0.451843
      8          6           0        0.948751    2.866667   -0.222901
      9          1           0       -0.650317    2.405542    1.166381
     10          1           0       -0.644865    1.396375   -0.294295
     11          6           0        0.148408    4.002689   -0.872873
     12          1           0       -0.510915    3.620216   -1.659474
     13          1           0        0.817118    4.735971   -1.331208
     14          1           0       -0.472750    4.529265   -0.142096
     15          6           0        1.861774    2.166731   -1.236470
     16          1           0        1.577460    3.292856    0.568538
     17          1           0        1.274456    1.731674   -2.053009
     18          1           0        2.426663    1.363897   -0.760270
     19          1           0        2.571369    2.873345   -1.676283
     20          6           0       -0.948751   -2.866667   -0.222901
     21          1           0        0.650317   -2.405542    1.166381
     22          1           0        0.644865   -1.396375   -0.294295
     23          6           0       -0.148408   -4.002689   -0.872873
     24          1           0        0.510915   -3.620216   -1.659474
     25          1           0       -0.817118   -4.735971   -1.331208
     26          1           0        0.472750   -4.529265   -0.142096
     27          6           0       -1.861774   -2.166731   -1.236470
     28          1           0       -1.577460   -3.292856    0.568538
     29          1           0       -2.571369   -2.873345   -1.676283
     30          1           0       -1.274456   -1.731674   -2.053009
     31          1           0       -2.426663   -1.363897   -0.760270
 ---------------------------------------------------------------------

 SCF Done:  E(RHF) =  -502.396308953     A.U. after    2 cycles

 The electronic state is 1-A.
 Alpha  occ. eigenvalues --  -20.57132 -20.57129 -11.33620 -11.27968 -11.27968
 Alpha  occ. eigenvalues --  -11.23441 -11.23441 -11.22434 -11.22434 -11.21649
 Alpha  occ. eigenvalues --  -11.21649  -1.36720  -1.30384  -1.07633  -1.06740
 Alpha  occ. eigenvalues --   -0.95866  -0.92480  -0.92460  -0.91812  -0.84540
 Alpha  occ. eigenvalues --   -0.78053  -0.77226  -0.69464  -0.69299  -0.69015
 Alpha  occ. eigenvalues --   -0.64025  -0.62800  -0.60313  -0.59335  -0.59192
 Alpha  occ. eigenvalues --   -0.56730  -0.55305  -0.54706  -0.54055  -0.53317
 Alpha  occ. eigenvalues --   -0.52962  -0.48742  -0.48295  -0.48157  -0.47603
 Alpha  occ. eigenvalues --   -0.46642  -0.46465  -0.45832  -0.44361  -0.44259
 Alpha virt. eigenvalues --    0.03372   0.03926   0.04363   0.04384   0.05103
 Alpha virt. eigenvalues --    0.05438   0.05517   0.06062   0.06734   0.07300
 Alpha virt. eigenvalues --    0.07478   0.07599   0.08120   0.08716   0.09336

 Mulliken charges:
               1
     1  C    0.968997
     2  O   -0.604355
     3  O   -0.604355
     4  H   -0.278411
     5  H   -0.278411
     6  C    0.999499
     7  C    0.999499
     8  C   -1.349667
     9  H   -0.175408
    10  H   -0.194045
    11  C    0.751351
    12  H   -0.012137
    13  H   -0.061883
    14  H   -0.069783
    15  C    0.802264
    16  H   -0.109606
    17  H   -0.005906
    18  H   -0.047424
    19  H   -0.128987
    20  C   -1.349667
    21  H   -0.175408
    22  H   -0.194045
    23  C    0.751351
    24  H   -0.012137
    25  H   -0.061883
    26  H   -0.069783
    27  C    0.802264
    28  H   -0.109606
    29  H   -0.128987
    30  H   -0.005906
    31  H   -0.047424
 Sum of Mulliken charges =  -0.00000

 Dipole moment (field-independent basis, Debye):
    X=             -0.0000    Y=             -0.0000    Z=              0.0207  Tot=              0.0207

 Test job not archived.
 1\1\GINC-SE088\SP\RHF\Aug-CC-pVDZ\C9H20O2\OHZDE\08-Apr-2025\0\\#t hf a
 ug-cc-pvdz iop(5/13=1,5/36=2,99/5=2) pseudo=read geom=check guess=(rea
 d,tcheck) scf=(maxcycle=1)\\title\\0,1\C,0,0.,0.,1.910693\O,0,-0.76632
 3,-0.895785,1.149471\O,0,0.766323,0.895785,1.149471\H,0,0.722544,-0.53
 8033,2.536277\H,0,-0.722544,0.538033,2.536277\C,0,0.,-1.878898,0.45184
 3\C,0,0.,1.878898,0.451843\C,0,0.948751,2.866667,-0.222901\H,0,-0.6503
 17,2.405542,1.166381\H,0,-0.644865,1.396375,-0.294295\C,0,0.148408,4.0
 02689,-0.872873\H,0,-0.510915,3.620216,-1.659474\H,0,0.817118,4.735971

 Normal termination of Gaussian 16 at Tue Apr  8 23:02:36 2025.
