 Gaussian 16, Revision C.01,

 ----------------------------------------------------------------------
 #t hf aug-cc-pvdz symm=none int=(grid=ultrafine) guess=(read,tcheck) s
 table=opt
 ----------------------------------------------------------------------
 -----
 title
 -----
 Symbolic Z-matrix:
 Charge =  0 Multiplicity = 2

 SCF Done:  E(UHF) =  -719.505583747     A.U. after   16 cycles
 Normal termination of Gaussian 16 at Tue Apr  8 23:53:31 2025.
 Gaussian 16:  ES64L-G16RevC.01  3-Jul-2019

 ----------------------------------------------------------------------
 #t hf aug-cc-pvdz iop(5/13=1,5/36=2,99/5=2) pseudo=read geom=check gue
 ss=(read,tcheck) scf=(maxcycle=1)
 ----------------------------------------------------------------------
 -----
 title
 -----
 Structure from the checkpoint file:  "BDE49_nonexpt_1956_mol2.chk"
 Charge =  0 Multiplicity = 2

                         Standard orientation:
 ---------------------------------------------------------------------
 Center     Atomic      Atomic             Coordinates (Angstroms)
 Number     Number       Type             X           Y           Z
 ---------------------------------------------------------------------
      1          6           0       -2.094043   -1.227700   -0.040207
      2         15           0       -0.052071    0.387193    0.100558
      3          8           0        1.393214    0.130948   -0.483439
      4          8           0       -0.536514    1.621227   -0.779171
      5          1           0       -0.599474    2.425298   -0.250452
      6          8           0       -0.193588    0.544102    1.548754
      7          8           0       -0.861976   -0.851155   -0.536275
      8          6           0        2.195350   -0.956541    0.024989
      9          1           0        3.183500   -0.832522   -0.412480
     10          1           0        1.766773   -1.910940   -0.286646
     11          1           0        2.256607   -0.906016    1.113390
     12          1           0       -2.316709   -0.975640    0.987500
     13          1           0       -2.526564   -2.063608   -0.567336
 ---------------------------------------------------------------------

 SCF Done:  E(UHF) =  -719.706911065     A.U. after    2 cycles

 The electronic state is 2-A.
 Alpha  occ. eigenvalues --  -81.44963 -20.62395 -20.62135 -20.61187 -20.53399
 Alpha  occ. eigenvalues --  -11.31350 -11.31217  -7.92895  -5.07607  -5.07505
 Alpha  occ. eigenvalues --   -5.07479  -1.40844  -1.36778  -1.35573  -1.26893
 Alpha  occ. eigenvalues --   -0.98508  -0.95416  -0.82212  -0.75576  -0.73869
 Alpha  occ. eigenvalues --   -0.70208  -0.66824  -0.66454  -0.65407  -0.64802
 Alpha  occ. eigenvalues --   -0.59997  -0.57955  -0.55142  -0.54128  -0.51894
 Alpha  occ. eigenvalues --   -0.49722  -0.49204  -0.37422
 Alpha virt. eigenvalues --    0.03333   0.04371   0.04592   0.06105   0.06285
 Alpha virt. eigenvalues --    0.07144   0.09566   0.10408   0.11340   0.12408
 Alpha virt. eigenvalues --    0.13598   0.14335   0.14831   0.16069   0.16430

  Beta  occ. eigenvalues --  -81.44963 -20.62136 -20.61987 -20.61196 -20.53411
  Beta  occ. eigenvalues --  -11.31349 -11.28647  -7.92895  -5.07605  -5.07508
  Beta  occ. eigenvalues --   -5.07477  -1.40220  -1.35873  -1.35509  -1.26893
  Beta  occ. eigenvalues --   -0.97714  -0.90724  -0.80855  -0.74676  -0.73180
  Beta  occ. eigenvalues --   -0.69656  -0.66762  -0.66066  -0.64628  -0.60736
  Beta  occ. eigenvalues --   -0.59708  -0.56428  -0.54579  -0.54000  -0.51832
  Beta  occ. eigenvalues --   -0.49642  -0.49197
  Beta virt. eigenvalues --    0.03373   0.04364   0.04644   0.06093   0.06236
  Beta virt. eigenvalues --    0.07159   0.08062   0.10006   0.10694   0.11734
  Beta virt. eigenvalues --    0.13636   0.14394   0.14700   0.15839   0.16175

 Mulliken charges and spin densities:
               1          2
     1  C    0.618532   1.213120
     2  P    2.487469  -0.010541
     3  O   -0.867747  -0.002211
     4  O   -0.653437   0.001105
     5  H    0.150376   0.000534
     6  O   -0.885434   0.002437
     7  O   -0.799414  -0.004842
     8  C    0.729557   0.001381
     9  H   -0.230818  -0.000026
    10  H   -0.073398   0.000549
    11  H   -0.067773   0.000219
    12  H   -0.139090  -0.102587
    13  H   -0.268823  -0.099138
 Sum of Mulliken charges =  -0.00000   1.00000

 Dipole moment (field-independent basis, Debye):
    X=              0.5482    Y=             -1.0102    Z=             -0.6474  Tot=              1.3191
                          Isotropic Fermi Contact Couplings
        Atom                 a.u.       MegaHertz       Gauss      10(-4) cm-1
     1  C(13)              0.25202     283.31600     101.09419      94.50405
     2  P(31)             -0.00236      -4.27410      -1.52511      -1.42569
     3  O(17)             -0.00149       0.90507       0.32295       0.30190
     4  O(17)              0.00025      -0.15113      -0.05393      -0.05041
     5  H(1)               0.00024       1.09463       0.39059       0.36513
     6  O(17)             -0.00170       1.02766       0.36669       0.34279
     7  O(17)              0.03242     -19.65230      -7.01243      -6.55530
     8  C(13)              0.00030       0.33404       0.11919       0.11142

 Normal termination of Gaussian 16 at Tue Apr  8 23:53:37 2025.
