 Gaussian 16, Revision C.01,

 ----------------------------------------------------------------------
 #t hf aug-cc-pvdz symm=none int=(grid=ultrafine) guess=(read,tcheck) s
 table=(opt,rrhf)
 ----------------------------------------------------------------------
 -----
 title
 -----
 Symbolic Z-matrix:
 Charge =  0 Multiplicity = 1

 SCF Done:  E(RHF) =  -534.885568734     A.U. after   13 cycles

 1\1\GINC-SE339\Stability\RHF\Aug-CC-pVDZ\Cl1H1O1\OHZDE\08-Apr-2025\0\\
 #t hf aug-cc-pvdz symm=none int=(grid=ultrafine) guess=(read,tcheck) s
 table=(opt,rrhf)\\title\\0,1\O,0,0.036419,1.125126,0.\Cl,0,0.036419,-0
 .607388,0.\H,0,-0.910486,1.324584,0.\\Version=ES64L-G16RevC.01\HF=-534
 .8855687\RMSD=3.066e-09\Dipole=-0.6366216,0.1041109,0.\Quadrupole=0.50
 27157,0.7656043,-1.2683201,-2.0011262,0.,0.\PG=Unknown\\@
 The archive entry for this job was punched.

 Normal termination of Gaussian 16 at Tue Apr  8 22:55:33 2025.
 Gaussian 16:  ES64L-G16RevC.01  3-Jul-2019

 ----------------------------------------------------------------------
 #t hf aug-cc-pvdz iop(5/13=1,5/36=2,99/5=2) pseudo=read geom=check gue
 ss=(read,tcheck) scf=(maxcycle=1)
 ----------------------------------------------------------------------
 -----
 title
 -----
 Structure from the checkpoint file:  "BDE49_expt_1921_mol1.chk"
 Charge =  0 Multiplicity = 1

                         Standard orientation:
 ---------------------------------------------------------------------
 Center     Atomic      Atomic             Coordinates (Angstroms)
 Number     Number       Type             X           Y           Z
 ---------------------------------------------------------------------
      1          8           0        0.036419    1.125126    0.000000
      2         17           0        0.036419   -0.607388    0.000000
      3          1           0       -0.910486    1.324584    0.000000
 ---------------------------------------------------------------------

 SCF Done:  E(RHF) =  -534.930132939     A.U. after    2 cycles

 The electronic state is 1-A'.
 Alpha  occ. eigenvalues -- -103.72106 -20.66434 -10.74822  -8.40582  -8.40159
 Alpha  occ. eigenvalues --   -8.40135  -1.37645  -1.10623  -0.73466  -0.62733
 Alpha  occ. eigenvalues --   -0.61465  -0.48775  -0.46701
 Alpha virt. eigenvalues --    0.03091   0.05370   0.13451   0.13828   0.15247
 Alpha virt. eigenvalues --    0.18746   0.20020   0.21729   0.22582   0.29262
 Alpha virt. eigenvalues --    0.36418   0.38754   0.40370   0.49785   0.50372

 Mulliken charges:
               1
     1  O   -0.503725
     2  Cl   0.311130
     3  H    0.192594
 Sum of Mulliken charges =  -0.00000

 Dipole moment (field-independent basis, Debye):
    X=             -1.6771    Y=              0.1509    Z=              0.0000  Tot=              1.6839

 Test job not archived.
 1\1\GINC-SE339\SP\RHF\Aug-CC-pVDZ\Cl1H1O1\OHZDE\08-Apr-2025\0\\#t hf a
 ug-cc-pvdz iop(5/13=1,5/36=2,99/5=2) pseudo=read geom=check guess=(rea
 d,tcheck) scf=(maxcycle=1)\\title\\0,1\O,0,0.036419,1.125126,0.\Cl,0,0
 .036419,-0.607388,0.\H,0,-0.910486,1.324584,0.\\Version=ES64L-G16RevC.
 01\State=1-A'\HF=-534.9301329\RMSD=2.797e-03\Dipole=-0.6598241,0.05937
 87,0.\Quadrupole=0.5027412,0.7745254,-1.2772666,-2.0514319,0.,0.\PG=CS
  [SG(Cl1H1O1)]\\@

 Normal termination of Gaussian 16 at Tue Apr  8 22:55:35 2025.
