 Gaussian 16, Revision C.01,

 ----------------------------------------------------------------------
 #t hf aug-cc-pvdz symm=none int=(grid=ultrafine) guess=(read,tcheck) s
 table=(opt,rrhf)
 ----------------------------------------------------------------------
 -----
 title
 -----
 Symbolic Z-matrix:
 Charge =  0 Multiplicity = 1

 SCF Done:  E(RHF) =  -140.396855740     A.U. after   11 cycles
 Normal termination of Gaussian 16 at Wed Apr  9 00:26:57 2025.
 Gaussian 16:  ES64L-G16RevC.01  3-Jul-2019

 ----------------------------------------------------------------------
 #t hf aug-cc-pvdz iop(5/13=1,5/36=2,99/5=2) pseudo=read geom=check gue
 ss=(read,tcheck) scf=(maxcycle=1)
 ----------------------------------------------------------------------
 -----
 title
 -----
 Structure from the checkpoint file:  "BDE49_nonexpt_328_mol1.chk"
 Charge =  0 Multiplicity = 1

                         Standard orientation:
 ---------------------------------------------------------------------
 Center     Atomic      Atomic             Coordinates (Angstroms)
 Number     Number       Type             X           Y           Z
 ---------------------------------------------------------------------
      1          6           0        1.275561   -0.164127    0.000002
      2          5           0       -0.137504    0.520729    0.000010
      3          1           0        1.852682    0.165525   -0.872405
      4          1           0        1.258462   -1.259835   -0.000006
      5          1           0        1.852683    0.165512    0.872413
      6          8           0       -1.310354   -0.160563   -0.000007
      7          1           0       -0.252110    1.711510    0.000003
      8          1           0       -1.194731   -1.117091   -0.000013
 ---------------------------------------------------------------------

 SCF Done:  E(RHF) =  -140.447590045     A.U. after    2 cycles

 The electronic state is 1-A.
 Alpha  occ. eigenvalues --  -20.58676 -11.21142  -7.63001  -1.32877  -0.94674
 Alpha  occ. eigenvalues --   -0.77225  -0.63595  -0.59265  -0.57163  -0.53482
 Alpha  occ. eigenvalues --   -0.52649  -0.45586
 Alpha virt. eigenvalues --    0.03192   0.04453   0.05248   0.05735   0.07411
 Alpha virt. eigenvalues --    0.07838   0.08193   0.10498   0.12638   0.14826
 Alpha virt. eigenvalues --    0.16141   0.16165   0.16826   0.18787   0.21960

 Mulliken charges:
               1
     1  C    0.414678
     2  B    0.382844
     3  H   -0.201671
     4  H   -0.280154
     5  H   -0.201671
     6  O   -0.496796
     7  H    0.200335
     8  H    0.182435
 Sum of Mulliken charges =  -0.00000

 Dipole moment (field-independent basis, Debye):
    X=              1.2030    Y=             -1.4880    Z=              0.0000  Tot=              1.9135

 Test job not archived.
 1\1\GINC-SE212\SP\RHF\Aug-CC-pVDZ\C1H5B1O1\OHZDE\09-Apr-2025\0\\#t hf
 aug-cc-pvdz iop(5/13=1,5/36=2,99/5=2) pseudo=read geom=check guess=(re
 ad,tcheck) scf=(maxcycle=1)\\title\\0,1\C,0,1.275561,-0.164127,0.00000
 2\B,0,-0.137504,0.520729,0.00001\H,0,1.852682,0.165525,-0.872405\H,0,1
 .258462,-1.259835,-0.000006\H,0,1.852683,0.165512,0.872413\O,0,-1.3103
 54,-0.160563,-0.000007\H,0,-0.25211,1.71151,0.000003\H,0,-1.194731,-1.
 117091,-0.000013\\Version=ES64L-G16RevC.01\State=1-A\HF=-140.44759\RMS
 D=2.518e-03\Dipole=0.4733026,-0.5854191,0.0000072\Quadrupole=-2.003258

 Normal termination of Gaussian 16 at Wed Apr  9 00:26:59 2025.
