 Gaussian 16, Revision C.01,

 ----------------------------------------------------------------------
 #t hf aug-cc-pvdz symm=none int=(grid=ultrafine) guess=(read,tcheck) s
 table=(opt,rrhf)
 ----------------------------------------------------------------------
 -----
 title
 -----
 Symbolic Z-matrix:
 Charge =  0 Multiplicity = 1

 SCF Done:  E(RHF) =  -1377.44914837     A.U. after   16 cycles
 Normal termination of Gaussian 16 at Wed Apr  9 00:15:15 2025.
 Gaussian 16:  ES64L-G16RevC.01  3-Jul-2019

 ----------------------------------------------------------------------
 #t hf aug-cc-pvdz iop(5/13=1,5/36=2,99/5=2) pseudo=read geom=check gue
 ss=(read,tcheck) scf=(maxcycle=1)
 ----------------------------------------------------------------------
 -----
 title
 -----
 Structure from the checkpoint file:  "BDE49_nonexpt_248_mol1.chk"
 Charge =  0 Multiplicity = 1

                         Standard orientation:
 ---------------------------------------------------------------------
 Center     Atomic      Atomic             Coordinates (Angstroms)
 Number     Number       Type             X           Y           Z
 ---------------------------------------------------------------------
      1         17           0       -3.179103    1.505027   -0.000443
      2         17           0       -3.179103   -1.505027   -0.000437
      3          5           0       -2.256281    0.000000    0.000727
      4          6           0       -0.703373    0.000000    0.000482
      5          6           0        0.021301   -1.207526    0.000372
      6          6           0        1.409678   -1.217083    0.000168
      7          6           0        2.080038   -0.000000    0.000065
      8          6           0        0.021301    1.207526    0.000367
      9          1           0       -0.509873    2.150824    0.000445
     10          6           0        1.409678    1.217083    0.000163
     11          1           0        1.975603    2.137894    0.000077
     12          7           0        3.565808   -0.000000   -0.000160
     13          8           0        4.127941   -1.084782    0.000107
     14          8           0        4.127942    1.084782    0.000104
     15          1           0       -0.509873   -2.150824    0.000453
     16          1           0        1.975603   -2.137894    0.000086
 ---------------------------------------------------------------------

 SCF Done:  E(RHF) =  -1377.61704398     A.U. after    2 cycles

 The electronic state is 1-A.
 Alpha  occ. eigenvalues -- -103.68385-103.68384 -20.63196 -20.63187 -15.93380
 Alpha  occ. eigenvalues --  -11.34245 -11.29487 -11.29481 -11.29372 -11.29362
 Alpha  occ. eigenvalues --  -11.28101 -10.71880 -10.71848  -8.37559  -8.37554
 Alpha  occ. eigenvalues --   -8.37337  -8.37335  -8.37313  -8.37309  -7.75003
 Alpha  occ. eigenvalues --   -1.56471  -1.38094  -1.20757  -1.19341  -1.15994
 Alpha  occ. eigenvalues --   -1.09473  -1.06075  -0.96837  -0.88091  -0.84808
 Alpha  occ. eigenvalues --   -0.80209  -0.75302  -0.74712  -0.74054  -0.68363
 Alpha  occ. eigenvalues --   -0.67002  -0.66734  -0.64239  -0.59016  -0.57367
 Alpha  occ. eigenvalues --   -0.56340  -0.54397  -0.53428  -0.52862  -0.52288
 Alpha  occ. eigenvalues --   -0.49480  -0.49473  -0.48724  -0.48128  -0.39809
 Alpha  occ. eigenvalues --   -0.38385
 Alpha virt. eigenvalues --   -0.00571   0.02851   0.03635   0.04814   0.04850
 Alpha virt. eigenvalues --    0.05894   0.06420   0.06850   0.07432   0.07615
 Alpha virt. eigenvalues --    0.08438   0.10777   0.11922   0.12268   0.12552

 Mulliken charges:
               1
     1  Cl  -0.335297
     2  Cl  -0.335297
     3  B    0.523135
     4  C   -0.042688
     5  C    0.599793
     6  C    0.461486
     7  C    1.321745
     8  C    0.599793
     9  H   -0.667066
    10  C    0.461486
    11  H   -0.457565
    12  N    0.093301
    13  O   -0.549095
    14  O   -0.549096
    15  H   -0.667066
    16  H   -0.457565
 Sum of Mulliken charges =  -0.00000

 Dipole moment (field-independent basis, Debye):
    X=             -2.8190    Y=             -0.0000    Z=              0.0014  Tot=              2.8190

 Test job not archived.
 1\1\GINC-SE423\SP\RHF\Aug-CC-pVDZ\C6H4B1Cl2N1O2\OHZDE\09-Apr-2025\0\\#
 t hf aug-cc-pvdz iop(5/13=1,5/36=2,99/5=2) pseudo=read geom=check gues
 s=(read,tcheck) scf=(maxcycle=1)\\title\\0,1\Cl,0,3.179103,-1.505027,-
 0.000443\Cl,0,3.179103,1.505027,-0.000437\B,0,2.256281,0.,0.000727\C,0
 ,0.703373,0.,0.000482\C,0,-0.021301,1.207526,0.000372\C,0,-1.409678,1.
 217083,0.000168\C,0,-2.080038,0.,0.000065\C,0,-0.021301,-1.207526,0.00
 0367\H,0,0.509873,-2.150824,0.000445\C,0,-1.409678,-1.217083,0.000163\
 H,0,-1.975603,-2.137894,0.000077\N,0,-3.565808,0.,-0.00016\O,0,-4.1279

 Normal termination of Gaussian 16 at Wed Apr  9 00:15:24 2025.
