 Gaussian 16, Revision C.01,

 ----------------------------------------------------------------------
 #t hf aug-cc-pvdz symm=none int=(grid=ultrafine) guess=(read,tcheck) s
 table=(opt,rrhf)
 ----------------------------------------------------------------------
 -----
 title
 -----
 Symbolic Z-matrix:
 Charge =  0 Multiplicity = 1

 SCF Done:  E(RHF) =  -877.166893496     A.U. after   13 cycles
 Normal termination of Gaussian 16 at Wed Apr  9 00:11:22 2025.
 Gaussian 16:  ES64L-G16RevC.01  3-Jul-2019

 ----------------------------------------------------------------------
 #t hf aug-cc-pvdz iop(5/13=1,5/36=2,99/5=2) pseudo=read geom=check gue
 ss=(read,tcheck) scf=(maxcycle=1)
 ----------------------------------------------------------------------
 -----
 title
 -----
 Structure from the checkpoint file:  "BDE49_nonexpt_2395_mol1.chk"
 Charge =  0 Multiplicity = 1

                         Standard orientation:
 ---------------------------------------------------------------------
 Center     Atomic      Atomic             Coordinates (Angstroms)
 Number     Number       Type             X           Y           Z
 ---------------------------------------------------------------------
      1         14           0       -0.441392    1.097817    0.000078
      2         14           0        0.441392   -1.097817    0.000047
      3          7           0        2.246084   -0.935547   -0.000107
      4          1           0        0.117460   -1.893709   -1.206083
      5          1           0        0.117612   -1.893687    1.206234
      6          7           0        2.609848    0.253809   -0.000198
      7          7           0       -2.246084    0.935547    0.000038
      8          1           0       -0.117516    1.893723   -1.206059
      9          1           0       -0.117557    1.893673    1.206258
     10          7           0       -2.609848   -0.253809   -0.000011
     11          6           0        4.067808    0.439908   -0.000007
     12          1           0        4.327310    1.033869    0.881109
     13          1           0        4.327546    1.033617   -0.881222
     14          1           0        4.593856   -0.518552    0.000201
     15          6           0       -4.067808   -0.439908   -0.000019
     16          1           0       -4.327429   -1.033781    0.881120
     17          1           0       -4.327427   -1.033705   -0.881211
     18          1           0       -4.593856    0.518552    0.000022
 ---------------------------------------------------------------------

 SCF Done:  E(RHF) =  -877.300393194     A.U. after    2 cycles

 The electronic state is 1-A.
 Alpha  occ. eigenvalues --  -69.07863 -69.07863 -15.70367 -15.70366 -15.66441
 Alpha  occ. eigenvalues --  -15.66441 -11.26485 -11.26485  -6.83033  -6.83020
 Alpha  occ. eigenvalues --   -3.93847  -3.93838  -3.93748  -3.93748  -3.93737
 Alpha  occ. eigenvalues --   -3.93669  -1.30363  -1.30179  -1.00990  -1.00837
 Alpha  occ. eigenvalues --   -0.80942  -0.80432  -0.72607  -0.68055  -0.63589
 Alpha  occ. eigenvalues --   -0.62492  -0.61167  -0.61050  -0.60541  -0.57642
 Alpha  occ. eigenvalues --   -0.53138  -0.51780  -0.51744  -0.49905  -0.45348
 Alpha  occ. eigenvalues --   -0.45122  -0.41059  -0.35385  -0.35078
 Alpha virt. eigenvalues --    0.03474   0.03597   0.04123   0.04816   0.05435
 Alpha virt. eigenvalues --    0.05912   0.06105   0.07774   0.07883   0.08332
 Alpha virt. eigenvalues --    0.08759   0.09388   0.09955   0.10039   0.10387

 Mulliken charges:
               1
     1  Si   0.398949
     2  Si   0.398948
     3  N   -0.821174
     4  H    0.084442
     5  H    0.084384
     6  N   -0.164005
     7  N   -0.821174
     8  H    0.084433
     9  H    0.084393
    10  N   -0.164005
    11  C    0.777888
    12  H   -0.102817
    13  H   -0.102831
    14  H   -0.154835
    15  C    0.777888
    16  H   -0.102825
    17  H   -0.102823
    18  H   -0.154835
 Sum of Mulliken charges =  -0.00000

 Dipole moment (field-independent basis, Debye):
    X=              0.0000    Y=             -0.0000    Z=              0.0003  Tot=              0.0003

 Test job not archived.
 1\1\GINC-SE253\SP\RHF\Aug-CC-pVDZ\C2H10N4Si2\OHZDE\09-Apr-2025\0\\#t h
 f aug-cc-pvdz iop(5/13=1,5/36=2,99/5=2) pseudo=read geom=check guess=(
 read,tcheck) scf=(maxcycle=1)\\title\\0,1\Si,0,0.441392,-1.097817,0.00
 0078\Si,0,-0.441392,1.097817,0.000047\N,0,-2.246084,0.935547,-0.000107
 \H,0,-0.11746,1.893709,-1.206083\H,0,-0.117612,1.893687,1.206234\N,0,-
 2.609848,-0.253809,-0.000198\N,0,2.246084,-0.935547,0.000038\H,0,0.117
 516,-1.893723,-1.206059\H,0,0.117557,-1.893673,1.206258\N,0,2.609848,0
 .253809,-0.000011\C,0,-4.067808,-0.439908,-0.000007\H,0,-4.32731,-1.03

 Normal termination of Gaussian 16 at Wed Apr  9 00:11:30 2025.
