 Gaussian 16, Revision C.01,

 ----------------------------------------------------------------------
 #t hf aug-cc-pvdz symm=none int=(grid=ultrafine) guess=(read,tcheck) s
 table=opt
 ----------------------------------------------------------------------
 -----
 title
 -----
 Symbolic Z-matrix:
 Charge =  0 Multiplicity = 2

 SCF Done:  E(UHF) =  -820.920800758     A.U. after   15 cycles
 Normal termination of Gaussian 16 at Wed Apr  9 00:47:55 2025.
 Gaussian 16:  ES64L-G16RevC.01  3-Jul-2019

 ----------------------------------------------------------------------
 #t hf aug-cc-pvdz iop(5/13=1,5/36=2,99/5=2) pseudo=read geom=check gue
 ss=(read,tcheck) scf=(maxcycle=1)
 ----------------------------------------------------------------------
 -----
 title
 -----
 Structure from the checkpoint file:  "BDE49_nonexpt_889_mol3.chk"
 Charge =  0 Multiplicity = 2

                         Standard orientation:
 ---------------------------------------------------------------------
 Center     Atomic      Atomic             Coordinates (Angstroms)
 Number     Number       Type             X           Y           Z
 ---------------------------------------------------------------------
      1          5           0        0.001414   -0.619037   -0.000001
      2         16           0        1.594875    0.166067   -0.000003
      3         16           0       -1.652380    0.002674    0.000002
      4          1           0       -1.438204    1.343775    0.000004
      5          1           0        2.351206   -0.948444    0.000003
 ---------------------------------------------------------------------

 SCF Done:  E(UHF) =  -820.965692776     A.U. after    2 cycles

 The electronic state is 2-A.
 Alpha  occ. eigenvalues --  -93.55595 -93.55487  -8.85558  -8.85448  -7.69119
 Alpha  occ. eigenvalues --   -6.19707  -6.19553  -6.19536  -6.19327  -6.19202
 Alpha  occ. eigenvalues --   -6.19080  -1.00922  -0.96567  -0.66286  -0.60014
 Alpha  occ. eigenvalues --   -0.52277  -0.47551  -0.44045  -0.37758  -0.34468
 Alpha virt. eigenvalues --    0.03768   0.04857   0.05731   0.06017   0.07937
 Alpha virt. eigenvalues --    0.08577   0.09374   0.12025   0.12149   0.13401
 Alpha virt. eigenvalues --    0.14850   0.17061   0.17103   0.17685   0.18385

  Beta  occ. eigenvalues --  -93.55614 -93.55521  -8.85585  -8.85456  -7.67090
  Beta  occ. eigenvalues --   -6.19760  -6.19690  -6.19451  -6.19383  -6.19304
  Beta  occ. eigenvalues --   -6.19168  -0.99754  -0.96316  -0.62753  -0.58118
  Beta  occ. eigenvalues --   -0.49690  -0.46685  -0.43652  -0.38322
  Beta virt. eigenvalues --    0.03040   0.04930   0.05495   0.06270   0.07094
  Beta virt. eigenvalues --    0.08084   0.11242   0.11314   0.12179   0.12751
  Beta virt. eigenvalues --    0.13397   0.15186   0.17346   0.17369   0.18070

 Mulliken charges and spin densities:
               1          2
     1  B    0.148092   1.078568
     2  S   -0.137760  -0.046551
     3  S   -0.100734  -0.113441
     4  H    0.019148   0.065438
     5  H    0.071255   0.015987
 Sum of Mulliken charges =  -0.00000   1.00000

 Dipole moment (field-independent basis, Debye):
    X=              0.6633    Y=              0.2815    Z=              0.0000  Tot=              0.7206
                          Isotropic Fermi Contact Couplings
        Atom                 a.u.       MegaHertz       Gauss      10(-4) cm-1
     1  B(11)              0.31526     452.20394     161.35761     150.83900
     2  S(33)             -0.04195     -14.40775      -5.14104      -4.80591
     3  S(33)              0.13029      44.75021      15.96799      14.92706
     4  H(1)               0.02365     105.70354      37.71765      35.25890
     5  H(1)               0.01527      68.27425      24.36195      22.77384
 --------------------------------------------------------
       Center         ----  Spin Dipole Couplings  ----
                      3XX-RR        3YY-RR        3ZZ-RR

 Normal termination of Gaussian 16 at Wed Apr  9 00:47:57 2025.
