 Gaussian 16, Revision C.01,

 ----------------------------------------------------------------------
 #t hf aug-cc-pvdz symm=none int=(grid=ultrafine) guess=(read,tcheck) s
 table=(opt,rrhf)
 ----------------------------------------------------------------------
 -----
 title
 -----
 Symbolic Z-matrix:
 Charge =  0 Multiplicity = 1

 SCF Done:  E(RHF) =  -298.518053953     A.U. after   13 cycles

 1\1\GINC-SE039\Stability\RHF\Aug-CC-pVDZ\C7H15B1\OHZDE\09-Apr-2025\0\\
 #t hf aug-cc-pvdz symm=none int=(grid=ultrafine) guess=(read,tcheck) s
 table=(opt,rrhf)\\title\\0,1\C,0,0.316541,-1.358731,0.141703\C,0,1.753
 213,-1.078268,-0.322008\C,0,2.264951,0.267351,0.210344\C,0,1.311731,1.
 412061,-0.159913\C,0,-0.123353,1.122941,0.302603\C,0,-2.083288,-0.4892
 75,0.268163\C,0,-0.653351,-0.221916,-0.228336\B,0,-3.242729,0.397503,-
 0.265313\H,0,-3.119742,1.06071,-1.252892\H,0,-4.31146,0.374521,0.26862
 \H,0,0.306662,-1.49041,1.232688\H,0,-0.039964,-2.302813,-0.286042\H,0,

 Normal termination of Gaussian 16 at Wed Apr  9 00:37:33 2025.
 Gaussian 16:  ES64L-G16RevC.01  3-Jul-2019

 ----------------------------------------------------------------------
 #t hf aug-cc-pvdz iop(5/13=1,5/36=2,99/5=2) pseudo=read geom=check gue
 ss=(read,tcheck) scf=(maxcycle=1)
 ----------------------------------------------------------------------
 -----
 title
 -----
 Structure from the checkpoint file:  "BDE49_nonexpt_540_mol1.chk"
 Charge =  0 Multiplicity = 1

                         Standard orientation:
 ---------------------------------------------------------------------
 Center     Atomic      Atomic             Coordinates (Angstroms)
 Number     Number       Type             X           Y           Z
 ---------------------------------------------------------------------
      1          6           0        0.316541   -1.358731    0.141703
      2          6           0        1.753213   -1.078268   -0.322008
      3          6           0        2.264951    0.267351    0.210344
      4          6           0        1.311731    1.412061   -0.159913
      5          6           0       -0.123353    1.122941    0.302603
      6          6           0       -2.083288   -0.489275    0.268163
      7          6           0       -0.653351   -0.221916   -0.228336
      8          5           0       -3.242729    0.397503   -0.265313
      9          1           0       -3.119742    1.060710   -1.252892
     10          1           0       -4.311460    0.374521    0.268620
     11          1           0        0.306662   -1.490410    1.232688
     12          1           0       -0.039964   -2.302813   -0.286042
     13          1           0        1.781968   -1.065816   -1.419385
     14          1           0        2.416559   -1.889382   -0.004181
     15          1           0        3.269553    0.470761   -0.174583
     16          1           0        2.354918    0.212158    1.303147
     17          1           0        1.318340    1.548923   -1.249023
     18          1           0        1.663487    2.354265    0.273010
     19          1           0       -0.789951    1.934076   -0.012647
     20          1           0       -0.153303    1.104644    1.401216
     21          1           0       -2.107222   -0.573856    1.363870
     22          1           0       -2.409609   -1.496659   -0.067157
     23          1           0       -0.685249   -0.153614   -1.325407
 ---------------------------------------------------------------------

 SCF Done:  E(RHF) =  -298.608681503     A.U. after    2 cycles

 The electronic state is 1-A.
 Alpha  occ. eigenvalues --  -11.22988 -11.22361 -11.22325 -11.22295 -11.22264
 Alpha  occ. eigenvalues --  -11.22150 -11.20785  -7.60735  -1.10608  -1.02153
 Alpha  occ. eigenvalues --   -0.99243  -0.91742  -0.82926  -0.80284  -0.74999
 Alpha  occ. eigenvalues --   -0.66525  -0.64374  -0.60725  -0.60197  -0.59128
 Alpha  occ. eigenvalues --   -0.54780  -0.54191  -0.52447  -0.51002  -0.48249
 Alpha  occ. eigenvalues --   -0.47599  -0.46942  -0.45915  -0.44729  -0.42315
 Alpha  occ. eigenvalues --   -0.41781
 Alpha virt. eigenvalues --    0.03325   0.03878   0.04081   0.04226   0.05389
 Alpha virt. eigenvalues --    0.05618   0.05748   0.06331   0.06748   0.07618
 Alpha virt. eigenvalues --    0.08278   0.08294   0.08913   0.09170   0.09816

 Mulliken charges:
               1
     1  C    0.570430
     2  C    0.334506
     3  C    0.269866
     4  C    0.320734
     5  C    0.398213
     6  C    0.738600
     7  C   -0.980084
     8  B   -0.673218
     9  H    0.371981
    10  H    0.379322
    11  H   -0.066531
    12  H   -0.167232
    13  H   -0.091771
    14  H   -0.105384
    15  H   -0.127623
    16  H   -0.095503
    17  H   -0.081859
    18  H   -0.100964
    19  H   -0.169145
    20  H   -0.103507
    21  H   -0.203488
    22  H   -0.134200
    23  H   -0.283145
 Sum of Mulliken charges =  -0.00000

 Dipole moment (field-independent basis, Debye):
    X=              0.4733    Y=             -0.3109    Z=              0.1128  Tot=              0.5774

 Test job not archived.
 1\1\GINC-SE039\SP\RHF\Aug-CC-pVDZ\C7H15B1\OHZDE\09-Apr-2025\0\\#t hf a
 ug-cc-pvdz iop(5/13=1,5/36=2,99/5=2) pseudo=read geom=check guess=(rea
 d,tcheck) scf=(maxcycle=1)\\title\\0,1\C,0,0.316541,-1.358731,0.141703
 \C,0,1.753213,-1.078268,-0.322008\C,0,2.264951,0.267351,0.210344\C,0,1
 .311731,1.412061,-0.159913\C,0,-0.123353,1.122941,0.302603\C,0,-2.0832
 88,-0.489275,0.268163\C,0,-0.653351,-0.221916,-0.228336\B,0,-3.242729,
 0.397503,-0.265313\H,0,-3.119742,1.06071,-1.252892\H,0,-4.31146,0.3745
 21,0.26862\H,0,0.306662,-1.49041,1.232688\H,0,-0.039964,-2.302813,-0.2

 Normal termination of Gaussian 16 at Wed Apr  9 00:37:48 2025.
