 Gaussian 16, Revision C.01,

 ----------------------------------------------------------------------
 #t hf aug-cc-pvdz symm=none int=(grid=ultrafine) guess=(read,tcheck) s
 table=(opt,rrhf)
 ----------------------------------------------------------------------
 -----
 title
 -----
 Symbolic Z-matrix:
 Charge =  0 Multiplicity = 1

 SCF Done:  E(RHF) =  -683.498559521     A.U. after   16 cycles
 Normal termination of Gaussian 16 at Tue Apr  8 22:52:13 2025.
 Gaussian 16:  ES64L-G16RevC.01  3-Jul-2019

 ----------------------------------------------------------------------
 #t hf aug-cc-pvdz iop(5/13=1,5/36=2,99/5=2) pseudo=read geom=check gue
 ss=(read,tcheck) scf=(maxcycle=1)
 ----------------------------------------------------------------------
 -----
 title
 -----
 Structure from the checkpoint file:  "BDE49_expt_1820_mol1.chk"
 Charge =  0 Multiplicity = 1

                         Standard orientation:
 ---------------------------------------------------------------------
 Center     Atomic      Atomic             Coordinates (Angstroms)
 Number     Number       Type             X           Y           Z
 ---------------------------------------------------------------------
      1          7           0       -1.777702    0.461886   -0.000168
      2          8           0       -2.914463    0.142739   -0.000163
      3         16           0       -0.565818   -0.927207    0.000053
      4          6           0        0.989758    0.106144    0.000052
      5          6           0        2.136961   -0.915467   -0.000009
      6          1           0        2.106930   -1.554329    0.885960
      7          1           0        3.093845   -0.383443   -0.000018
      8          1           0        2.106884   -1.554276   -0.886014
      9          6           0        1.034796    0.971315    1.266425
     10          1           0        1.004553    0.354527    2.167272
     11          1           0        0.196318    1.668566    1.298144
     12          1           0        1.963036    1.552720    1.280230
     13          6           0        1.034732    0.971395   -1.266269
     14          1           0        1.004439    0.354665   -2.167153
     15          1           0        1.962972    1.552800   -1.280087
     16          1           0        0.196252    1.668649   -1.297898
 ---------------------------------------------------------------------

 SCF Done:  E(RHF) =  -683.606435252     A.U. after    2 cycles

 The electronic state is 1-A.
 Alpha  occ. eigenvalues --  -93.56225 -20.66668 -15.81062 -11.29994 -11.24726
 Alpha  occ. eigenvalues --  -11.24045 -11.24038  -8.85834  -6.19920  -6.19702
 Alpha  occ. eigenvalues --   -6.19390  -1.50706  -1.12101  -1.00687  -0.95142
 Alpha  occ. eigenvalues --   -0.94792  -0.86472  -0.76054  -0.69978  -0.68031
 Alpha  occ. eigenvalues --   -0.63834  -0.62346  -0.61871  -0.60592  -0.56084
 Alpha  occ. eigenvalues --   -0.56040  -0.53520  -0.49844  -0.49806  -0.44584
 Alpha  occ. eigenvalues --   -0.38103  -0.37260
 Alpha virt. eigenvalues --    0.03209   0.04460   0.04546   0.05579   0.06666
 Alpha virt. eigenvalues --    0.06925   0.07247   0.07358   0.07807   0.09023
 Alpha virt. eigenvalues --    0.09277   0.11377   0.12485   0.13487   0.13837

 Mulliken charges:
               1
     1  N   -0.214637
     2  O   -0.366868
     3  S    0.567645
     4  C   -2.258135
     5  C    1.031868
     6  H   -0.055211
     7  H    0.012098
     8  H   -0.055216
     9  C    0.778506
    10  H   -0.051610
    11  H   -0.047085
    12  H   -0.010623
    13  C    0.778555
    14  H   -0.051611
    15  H   -0.010632
    16  H   -0.047045
 Sum of Mulliken charges =  -0.00000

 Dipole moment (field-independent basis, Debye):
    X=              3.4056    Y=              0.5803    Z=              0.0001  Tot=              3.4547

 Test job not archived.
 1\1\GINC-SE080\SP\RHF\Aug-CC-pVDZ\C4H9N1O1S1\OHZDE\08-Apr-2025\0\\#t h
 f aug-cc-pvdz iop(5/13=1,5/36=2,99/5=2) pseudo=read geom=check guess=(
 read,tcheck) scf=(maxcycle=1)\\title\\0,1\N,0,-1.777702,0.461886,-0.00
 0168\O,0,-2.914463,0.142739,-0.000163\S,0,-0.565818,-0.927207,0.000053
 \C,0,0.989758,0.106144,0.000052\C,0,2.136961,-0.915467,-0.000009\H,0,2
 .10693,-1.554329,0.88596\H,0,3.093845,-0.383443,-0.000018\H,0,2.106884
 ,-1.554276,-0.886014\C,0,1.034796,0.971315,1.266425\H,0,1.004553,0.354
 527,2.167272\H,0,0.196318,1.668566,1.298144\H,0,1.963036,1.55272,1.280

 Normal termination of Gaussian 16 at Tue Apr  8 22:52:19 2025.
