 Gaussian 16, Revision C.01,

 ----------------------------------------------------------------------
 #t hf aug-cc-pvdz symm=none int=(grid=ultrafine) guess=(read,tcheck) s
 table=(opt,rrhf)
 ----------------------------------------------------------------------
 -----
 title
 -----
 Symbolic Z-matrix:
 Charge =  0 Multiplicity = 1

 SCF Done:  E(RHF) =  -237.436470162     A.U. after   14 cycles
 Normal termination of Gaussian 16 at Wed Apr  9 00:40:58 2025.
 Gaussian 16:  ES64L-G16RevC.01  3-Jul-2019

 ----------------------------------------------------------------------
 #t hf aug-cc-pvdz iop(5/13=1,5/36=2,99/5=2) pseudo=read geom=check gue
 ss=(read,tcheck) scf=(maxcycle=1)
 ----------------------------------------------------------------------
 -----
 title
 -----
 Structure from the checkpoint file:  "BDE49_nonexpt_70_mol1.chk"
 Charge =  0 Multiplicity = 1

                         Standard orientation:
 ---------------------------------------------------------------------
 Center     Atomic      Atomic             Coordinates (Angstroms)
 Number     Number       Type             X           Y           Z
 ---------------------------------------------------------------------
      1          5           0        0.783851    1.175879   -0.247832
      2          5           0       -0.783861    1.175882    0.247825
      3          6           0       -1.826346    0.116889   -0.248704
      4          7           0       -1.845662   -1.094984    0.165919
      5          1           0       -2.622388    0.402850   -0.948506
      6          1           0       -1.067924   -1.287805    0.807370
      7          6           0        1.826339    0.116895    0.248710
      8          7           0        1.845674   -1.094976   -0.165919
      9          1           0        2.622373    0.402862    0.948518
     10          1           0        1.067947   -1.287803   -0.807382
     11          1           0       -1.163623    1.969053    1.061816
     12          1           0        1.163618    1.969059   -1.061813
 ---------------------------------------------------------------------

 SCF Done:  E(RHF) =  -237.505675362     A.U. after    2 cycles

 The electronic state is 1-A.
 Alpha  occ. eigenvalues --  -15.63442 -15.63442 -11.29087 -11.29087  -7.63110
 Alpha  occ. eigenvalues --   -7.63020  -1.18173  -1.17673  -0.85704  -0.83984
 Alpha  occ. eigenvalues --   -0.75536  -0.69112  -0.61699  -0.60737  -0.59199
 Alpha  occ. eigenvalues --   -0.56231  -0.51814  -0.44592  -0.42450  -0.40986
 Alpha  occ. eigenvalues --   -0.39311
 Alpha virt. eigenvalues --    0.02399   0.02575   0.03803   0.04039   0.04856
 Alpha virt. eigenvalues --    0.05790   0.06255   0.07081   0.07272   0.07966
 Alpha virt. eigenvalues --    0.09011   0.09553   0.10304   0.10846   0.12277

 Mulliken charges:
               1
     1  B   -0.042601
     2  B   -0.042608
     3  C    0.502181
     4  N   -0.399107
     5  H   -0.322796
     6  H    0.033486
     7  C    0.502184
     8  N   -0.399109
     9  H   -0.322797
    10  H    0.033487
    11  H    0.228842
    12  H    0.228838
 Sum of Mulliken charges =  -0.00000

 Dipole moment (field-independent basis, Debye):
    X=             -0.0000    Y=              3.7858    Z=             -0.0000  Tot=              3.7858

 Test job not archived.
 1\1\GINC-SE106\SP\RHF\Aug-CC-pVDZ\C2H6B2N2\OHZDE\09-Apr-2025\0\\#t hf
 aug-cc-pvdz iop(5/13=1,5/36=2,99/5=2) pseudo=read geom=check guess=(re
 ad,tcheck) scf=(maxcycle=1)\\title\\0,1\B,0,0.783851,1.175879,-0.24783
 2\B,0,-0.783861,1.175882,0.247825\C,0,-1.826346,0.116889,-0.248704\N,0
 ,-1.845662,-1.094984,0.165919\H,0,-2.622388,0.40285,-0.948506\H,0,-1.0
 67924,-1.287805,0.80737\C,0,1.826339,0.116895,0.24871\N,0,1.845674,-1.
 094976,-0.165919\H,0,2.622373,0.402862,0.948518\H,0,1.067947,-1.287803
 ,-0.807382\H,0,-1.163623,1.969053,1.061816\H,0,1.163618,1.969059,-1.06

 Normal termination of Gaussian 16 at Wed Apr  9 00:41:02 2025.
