 Gaussian 16, Revision C.01,

 ----------------------------------------------------------------------
 #t hf aug-cc-pvdz symm=none int=(grid=ultrafine) guess=(read,tcheck) s
 table=(opt,rrhf)
 ----------------------------------------------------------------------
 -----
 title
 -----
 Symbolic Z-matrix:
 Charge =  0 Multiplicity = 1

 SCF Done:  E(RHF) =  -598.820170256     A.U. after   14 cycles
 Normal termination of Gaussian 16 at Wed Apr  9 00:41:48 2025.
 Gaussian 16:  ES64L-G16RevC.01  3-Jul-2019

 ----------------------------------------------------------------------
 #t hf aug-cc-pvdz iop(5/13=1,5/36=2,99/5=2) pseudo=read geom=check gue
 ss=(read,tcheck) scf=(maxcycle=1)
 ----------------------------------------------------------------------
 -----
 title
 -----
 Structure from the checkpoint file:  "BDE49_nonexpt_707_mol1.chk"
 Charge =  0 Multiplicity = 1

                         Standard orientation:
 ---------------------------------------------------------------------
 Center     Atomic      Atomic             Coordinates (Angstroms)
 Number     Number       Type             X           Y           Z
 ---------------------------------------------------------------------
      1          6           0        1.078172    0.096574    0.041482
      2          5           0       -1.927687    0.400241   -0.277450
      3          8           0       -3.121403    0.045673    0.262765
      4          6           0        0.949914    1.043589    1.246760
      5          1           0        0.685819    0.499014    2.157012
      6          1           0        0.187313    1.808643    1.078948
      7          6           0        1.412976    0.900894   -1.228139
      8          1           0        0.642780    1.642023   -1.456145
      9          1           0        1.522141    0.247896   -2.098196
     10          1           0        2.358519    1.436993   -1.089737
     11          1           0        1.901937    1.557680    1.429150
     12          6           0        2.199351   -0.925277    0.309244
     13          1           0        3.150644   -0.404836    0.468856
     14          1           0        2.326436   -1.610894   -0.532406
     15          1           0        1.993891   -1.522504    1.202318
     16         15           0       -0.511263   -0.895098   -0.292512
     17          1           0       -3.808568    0.707568    0.136969
     18          1           0       -1.803846    1.455173   -0.833369
     19          1           0       -0.720930   -1.451550    0.993337
 ---------------------------------------------------------------------

 SCF Done:  E(RHF) =  -598.924650085     A.U. after    2 cycles

 The electronic state is 1-A.
 Alpha  occ. eigenvalues --  -81.22281 -20.59667 -11.25676 -11.22891 -11.22771
 Alpha  occ. eigenvalues --  -11.22650  -7.72939  -7.64863  -4.87014  -4.86962
 Alpha  occ. eigenvalues --   -4.86676  -1.33789  -1.08002  -0.93211  -0.93041
 Alpha  occ. eigenvalues --   -0.81854  -0.77199  -0.70519  -0.66344  -0.60969
 Alpha  occ. eigenvalues --   -0.60725  -0.60048  -0.56833  -0.55788  -0.54571
 Alpha  occ. eigenvalues --   -0.53600  -0.51983  -0.47813  -0.47554  -0.44457
 Alpha  occ. eigenvalues --   -0.40715  -0.32237
 Alpha virt. eigenvalues --    0.02814   0.04134   0.04745   0.05056   0.06084
 Alpha virt. eigenvalues --    0.06239   0.06401   0.07030   0.07280   0.08400
 Alpha virt. eigenvalues --    0.08896   0.09290   0.09378   0.10621   0.10822

 Mulliken charges:
               1
     1  C   -2.864925
     2  B    0.297194
     3  O   -0.529183
     4  C    1.031613
     5  H   -0.053662
     6  H   -0.131842
     7  C    0.956882
     8  H   -0.123137
     9  H   -0.045659
    10  H   -0.004594
    11  H   -0.015779
    12  C    1.112302
    13  H   -0.031001
    14  H   -0.073412
    15  H   -0.063134
    16  P   -0.019873
    17  H    0.176028
    18  H    0.267714
    19  H    0.114468
 Sum of Mulliken charges =  -0.00000

 Dipole moment (field-independent basis, Debye):
    X=             -0.1345    Y=              2.1334    Z=              0.2623  Tot=              2.1536

 Test job not archived.
 1\1\GINC-SE177\SP\RHF\Aug-CC-pVDZ\C4H12B1O1P1\OHZDE\09-Apr-2025\0\\#t
 hf aug-cc-pvdz iop(5/13=1,5/36=2,99/5=2) pseudo=read geom=check guess=
 (read,tcheck) scf=(maxcycle=1)\\title\\0,1\C,0,1.078172,0.096574,0.041
 482\B,0,-1.927687,0.400241,-0.27745\O,0,-3.121403,0.045673,0.262765\C,
 0,0.949914,1.043589,1.24676\H,0,0.685819,0.499014,2.157012\H,0,0.18731
 3,1.808643,1.078948\C,0,1.412976,0.900894,-1.228139\H,0,0.64278,1.6420
 23,-1.456145\H,0,1.522141,0.247896,-2.098196\H,0,2.358519,1.436993,-1.
 089737\H,0,1.901937,1.55768,1.42915\C,0,2.199351,-0.925277,0.309244\H,

 Normal termination of Gaussian 16 at Wed Apr  9 00:41:57 2025.
