 Gaussian 16, Revision C.01,

 ----------------------------------------------------------------------
 #t hf aug-cc-pvdz symm=none int=(grid=ultrafine) guess=(read,tcheck) s
 table=(opt,rrhf)
 ----------------------------------------------------------------------
 -----
 title
 -----
 Symbolic Z-matrix:
 Charge =  0 Multiplicity = 1

 SCF Done:  E(RHF) =  -1054.64335509     A.U. after   16 cycles
 Normal termination of Gaussian 16 at Wed Apr  9 00:02:28 2025.
 Gaussian 16:  ES64L-G16RevC.01  3-Jul-2019

 ----------------------------------------------------------------------
 #t hf aug-cc-pvdz iop(5/13=1,5/36=2,99/5=2) pseudo=read geom=check gue
 ss=(read,tcheck) scf=(maxcycle=1)
 ----------------------------------------------------------------------
 -----
 title
 -----
 Structure from the checkpoint file:  "BDE49_nonexpt_2187_mol1.chk"
 Charge =  0 Multiplicity = 1

                         Standard orientation:
 ---------------------------------------------------------------------
 Center     Atomic      Atomic             Coordinates (Angstroms)
 Number     Number       Type             X           Y           Z
 ---------------------------------------------------------------------
      1          6           0        2.736433   -0.585069    0.275451
      2          6           0        2.082412    0.643119    0.247758
      3          6           0        0.722004    0.698743   -0.038339
      4          6           0        2.026982   -1.754265    0.010945
      5          6           0        0.667503   -1.696226   -0.277889
      6          6           0       -0.002162   -0.471147   -0.304244
      7          1           0        3.795888   -0.623124    0.498227
      8          1           0        2.616943    1.563122    0.446852
      9         17           0       -0.092108    2.248119   -0.075772
     10          1           0        2.530469   -2.713709    0.025268
     11          1           0        0.104002   -2.594726   -0.499924
     12          8           0       -1.323564   -0.409897   -0.634330
     13         14           0       -2.654682   -0.667709    0.331330
     14          1           0       -3.813471   -0.357015   -0.522814
     15          1           0       -2.614598    0.205091    1.523783
     16          1           0       -2.698363   -2.081488    0.770667
 ---------------------------------------------------------------------

 SCF Done:  E(RHF) =  -1054.78498066     A.U. after    2 cycles

 The electronic state is 1-A.
 Alpha  occ. eigenvalues -- -103.66720 -69.10660 -20.59278 -11.33334 -11.31280
 Alpha  occ. eigenvalues --  -11.26608 -11.26239 -11.25782 -11.25633 -10.69980
 Alpha  occ. eigenvalues --   -8.35720  -8.35414  -8.35396  -6.85432  -3.96353
 Alpha  occ. eigenvalues --   -3.96190  -3.96164  -1.35558  -1.19457  -1.13557
 Alpha  occ. eigenvalues --   -1.02375  -1.00418  -0.86057  -0.83972  -0.76778
 Alpha  occ. eigenvalues --   -0.69875  -0.68706  -0.66155  -0.62693  -0.62157
 Alpha  occ. eigenvalues --   -0.60223  -0.56964  -0.54408  -0.53697  -0.51586
 Alpha  occ. eigenvalues --   -0.48918  -0.47806  -0.46895  -0.46523  -0.35302
 Alpha  occ. eigenvalues --   -0.33790
 Alpha virt. eigenvalues --    0.03149   0.03883   0.04355   0.05329   0.05944
 Alpha virt. eigenvalues --    0.06438   0.06941   0.07943   0.09067   0.09119
 Alpha virt. eigenvalues --    0.09633   0.10705   0.11195   0.12040   0.13368

 Mulliken charges:
               1
     1  C    0.747257
     2  C    0.663490
     3  C   -0.226954
     4  C    0.323364
     5  C    0.989091
     6  C    0.254786
     7  H   -0.435025
     8  H   -0.414342
     9  Cl  -0.363606
    10  H   -0.430758
    11  H   -0.579474
    12  O   -0.987078
    13  Si   0.296784
    14  H    0.077699
    15  H    0.086301
    16  H   -0.001535
 Sum of Mulliken charges =  -0.00000

 Dipole moment (field-independent basis, Debye):
    X=              0.8859    Y=             -1.9066    Z=              0.8839  Tot=              2.2807

 Test job not archived.
 1\1\GINC-SE344\SP\RHF\Aug-CC-pVDZ\C6H7Cl1O1Si1\OHZDE\09-Apr-2025\0\\#t
  hf aug-cc-pvdz iop(5/13=1,5/36=2,99/5=2) pseudo=read geom=check guess
 =(read,tcheck) scf=(maxcycle=1)\\title\\0,1\C,0,2.736433,-0.585068,0.2
 75451\C,0,2.082412,0.643119,0.247758\C,0,0.722004,0.698743,-0.038339\C
 ,0,2.026983,-1.754265,0.010945\C,0,0.667504,-1.696226,-0.277889\C,0,-0
 .002162,-0.471147,-0.304244\H,0,3.795888,-0.623123,0.498227\H,0,2.6169
 43,1.563123,0.446852\Cl,0,-0.092109,2.248119,-0.075772\H,0,2.53047,-2.
 713708,0.025268\H,0,0.104003,-2.594726,-0.499924\O,0,-1.323564,-0.4098

 Normal termination of Gaussian 16 at Wed Apr  9 00:02:36 2025.
