 Gaussian 16, Revision C.01,

 ----------------------------------------------------------------------
 #t hf aug-cc-pvdz symm=none int=(grid=ultrafine) guess=(read,tcheck) s
 table=(opt,rrhf)
 ----------------------------------------------------------------------
 -----
 title
 -----
 Symbolic Z-matrix:
 Charge =  0 Multiplicity = 1

 SCF Done:  E(RHF) =  -281.549386811     A.U. after   15 cycles
 Normal termination of Gaussian 16 at Tue Apr  8 22:37:24 2025.
 Gaussian 16:  ES64L-G16RevC.01  3-Jul-2019

 ----------------------------------------------------------------------
 #t hf aug-cc-pvdz iop(5/13=1,5/36=2,99/5=2) pseudo=read geom=check gue
 ss=(read,tcheck) scf=(maxcycle=1)
 ----------------------------------------------------------------------
 -----
 title
 -----
 Structure from the checkpoint file:  "BDE49_expt_1239_mol1.chk"
 Charge =  0 Multiplicity = 1

                         Standard orientation:
 ---------------------------------------------------------------------
 Center     Atomic      Atomic             Coordinates (Angstroms)
 Number     Number       Type             X           Y           Z
 ---------------------------------------------------------------------
      1          6           0        0.745687   -0.645215    0.000108
      2          7           0       -0.562399    0.032539    0.000362
      3          8           0       -1.538593   -0.706824   -0.000212
      4          8           0       -0.594558    1.253943   -0.000180
      5          6           0        1.869460    0.051292    0.000001
      6          1           0        0.640450   -1.719814    0.000035
      7          1           0        1.844470    1.133439    0.000092
      8          1           0        2.826206   -0.454808   -0.000172
 ---------------------------------------------------------------------

 SCF Done:  E(RHF) =  -281.636927290     A.U. after    2 cycles

 The electronic state is 1-A.
 Alpha  occ. eigenvalues --  -20.62547 -20.62166 -15.92369 -11.32793 -11.30385
 Alpha  occ. eigenvalues --   -1.55477  -1.37169  -1.13090  -0.96913  -0.82486
 Alpha  occ. eigenvalues --   -0.76775  -0.74381  -0.73044  -0.67458  -0.60439
 Alpha  occ. eigenvalues --   -0.52209  -0.51735  -0.47914  -0.44143
 Alpha virt. eigenvalues --    0.02665   0.03148   0.04251   0.05496   0.09889
 Alpha virt. eigenvalues --    0.10896   0.11213   0.11380   0.13753   0.15373
 Alpha virt. eigenvalues --    0.15516   0.17353   0.17958   0.19485   0.20608

 Mulliken charges:
               1
     1  C    0.872975
     2  N    0.445984
     3  O   -0.573234
     4  O   -0.590677
     5  C    0.462565
     6  H   -0.241246
     7  H   -0.169440
     8  H   -0.206927
 Sum of Mulliken charges =  -0.00000

 Dipole moment (field-independent basis, Debye):
    X=              4.5753    Y=             -1.3813    Z=              0.0013  Tot=              4.7793

 Test job not archived.
 1\1\GINC-SE454\SP\RHF\Aug-CC-pVDZ\C2H3N1O2\OHZDE\08-Apr-2025\0\\#t hf
 aug-cc-pvdz iop(5/13=1,5/36=2,99/5=2) pseudo=read geom=check guess=(re
 ad,tcheck) scf=(maxcycle=1)\\title\\0,1\C,0,0.745687,-0.645215,0.00010
 8\N,0,-0.562399,0.032539,0.000362\O,0,-1.538593,-0.706824,-0.000212\O,
 0,-0.594558,1.253943,-0.00018\C,0,1.86946,0.051292,0.000001\H,0,0.6404
 5,-1.719814,0.000035\H,0,1.84447,1.133439,0.000092\H,0,2.826206,-0.454
 808,-0.000172\\Version=ES64L-G16RevC.01\State=1-A\HF=-281.6369273\RMSD
 =5.067e-03\Dipole=1.8000684,-0.5434513,0.0005198\Quadrupole=0.8581903,

 Normal termination of Gaussian 16 at Tue Apr  8 22:37:26 2025.
