 Gaussian 16, Revision C.01,

 ----------------------------------------------------------------------
 #t hf aug-cc-pvdz symm=none int=(grid=ultrafine) guess=(read,tcheck) s
 table=opt
 ----------------------------------------------------------------------
 -----
 title
 -----
 Symbolic Z-matrix:
 Charge =  0 Multiplicity = 2

 SCF Done:  E(UHF) =  -921.354051147     A.U. after   16 cycles
 Normal termination of Gaussian 16 at Tue Apr  8 23:38:52 2025.
 Gaussian 16:  ES64L-G16RevC.01  3-Jul-2019

 ----------------------------------------------------------------------
 #t hf aug-cc-pvdz iop(5/13=1,5/36=2,99/5=2) pseudo=read geom=check gue
 ss=(read,tcheck) scf=(maxcycle=1)
 ----------------------------------------------------------------------
 -----
 title
 -----
 Structure from the checkpoint file:  "BDE49_nonexpt_161_mol2.chk"
 Charge =  0 Multiplicity = 2

                         Standard orientation:
 ---------------------------------------------------------------------
 Center     Atomic      Atomic             Coordinates (Angstroms)
 Number     Number       Type             X           Y           Z
 ---------------------------------------------------------------------
      1         17           0        1.824937    0.213651   -0.000042
      2         16           0       -1.234698   -0.663051    0.000034
      3          5           0        0.498569   -0.917798    0.000011
      4          6           0       -1.506168    1.170297    0.000015
      5          1           0       -2.585241    1.321271    0.000031
      6          1           0       -1.069696    1.611332   -0.893908
      7          1           0       -1.069666    1.611356    0.893910
 ---------------------------------------------------------------------

 SCF Done:  E(UHF) =  -921.411664441     A.U. after    2 cycles

 The electronic state is 2-A.
 Alpha  occ. eigenvalues -- -103.67440 -93.55081 -11.28614 -10.70914  -8.85074
 Alpha  occ. eigenvalues --   -8.36646  -8.36395  -8.36339  -7.71105  -6.19163
 Alpha  occ. eigenvalues --   -6.18912  -6.18675  -1.17078  -1.04294  -0.89520
 Alpha  occ. eigenvalues --   -0.66854  -0.61291  -0.60936  -0.56433  -0.52744
 Alpha  occ. eigenvalues --   -0.51055  -0.44912  -0.38775  -0.34760
 Alpha virt. eigenvalues --    0.03334   0.05211   0.05374   0.06071   0.06798
 Alpha virt. eigenvalues --    0.07065   0.07913   0.09024   0.12420   0.13055
 Alpha virt. eigenvalues --    0.13884   0.14157   0.15849   0.17007   0.17056

  Beta  occ. eigenvalues -- -103.67366 -93.55111 -11.28376 -10.70828  -8.85073
  Beta  occ. eigenvalues --   -8.36539  -8.36330  -8.36157  -7.68976  -6.19253
  Beta  occ. eigenvalues --   -6.18947  -6.18825  -1.16256  -1.03627  -0.88469
  Beta  occ. eigenvalues --   -0.64508  -0.60860  -0.60308  -0.54304  -0.50811
  Beta  occ. eigenvalues --   -0.50156  -0.44418  -0.39031
  Beta virt. eigenvalues --    0.03347   0.04249   0.05309   0.05583   0.07054
  Beta virt. eigenvalues --    0.07322   0.07854   0.10335   0.11548   0.12578
  Beta virt. eigenvalues --    0.13320   0.14015   0.15128   0.16674   0.17090

 Mulliken charges and spin densities:
               1          2
     1  Cl  -0.220289  -0.009344
     2  S    0.210157  -0.135724
     3  B    0.232367   1.057012
     4  C    0.046579   0.103576
     5  H   -0.076810  -0.002607
     6  H   -0.096000  -0.006456
     7  H   -0.096004  -0.006456
 Sum of Mulliken charges =  -0.00000   1.00000

 Dipole moment (field-independent basis, Debye):
    X=             -1.2592    Y=              1.6845    Z=              0.0000  Tot=              2.1031
                          Isotropic Fermi Contact Couplings
        Atom                 a.u.       MegaHertz       Gauss      10(-4) cm-1
     1  Cl(35)             0.07378      32.35066      11.54352      10.79102
     2  S(33)              0.15438      53.02476      18.92055      17.68716
     3  B(11)              0.36696     526.35338     187.81598     175.57259
     4  C(13)              0.03944      44.33506      15.81985      14.78858
     5  H(1)               0.00052       2.31618       0.82647       0.77259
     6  H(1)              -0.00209      -9.34648      -3.33506      -3.11765
     7  H(1)              -0.00209      -9.34649      -3.33506      -3.11765
 --------------------------------------------------------

 1\1\GINC-SE097\SP\UHF\Aug-CC-pVDZ\C1H3B1Cl1S1(2)\OHZDE\08-Apr-2025\0\\
 #t hf aug-cc-pvdz iop(5/13=1,5/36=2,99/5=2) pseudo=read geom=check gue
 ss=(read,tcheck) scf=(maxcycle=1)\\title\\0,2\Cl,0,-1.824937,0.213651,
 0.000042\S,0,1.234698,-0.663051,-0.000034\B,0,-0.498569,-0.917798,-0.0
 00011\C,0,1.506168,1.170297,-0.000015\H,0,2.585241,1.321271,-0.000031\
 H,0,1.069696,1.611332,0.893908\H,0,1.069666,1.611356,-0.89391\\Version
 =ES64L-G16RevC.01\State=2-A\HF=-921.4116644\S2=0.759814\S2-1=0.\S2A=0.
 750072\RMSD=4.118e-03\Dipole=0.4954018,0.6627226,-0.0000019\Quadrupole

 Normal termination of Gaussian 16 at Tue Apr  8 23:38:55 2025.
