 Gaussian 16, Revision C.01,

 ----------------------------------------------------------------------
 #t hf aug-cc-pvdz symm=none int=(grid=ultrafine) guess=(read,tcheck) s
 table=(opt,rrhf)
 ----------------------------------------------------------------------
 -----
 title
 -----
 Symbolic Z-matrix:
 Charge =  0 Multiplicity = 1

 SCF Done:  E(RHF) =  -356.134851851     A.U. after   15 cycles
 Normal termination of Gaussian 16 at Wed Apr  9 00:36:22 2025.
 Gaussian 16:  ES64L-G16RevC.01  3-Jul-2019

 ----------------------------------------------------------------------
 #t hf aug-cc-pvdz iop(5/13=1,5/36=2,99/5=2) pseudo=read geom=check gue
 ss=(read,tcheck) scf=(maxcycle=1)
 ----------------------------------------------------------------------
 -----
 title
 -----
 Structure from the checkpoint file:  "BDE49_nonexpt_53_mol1.chk"
 Charge =  0 Multiplicity = 1

                         Standard orientation:
 ---------------------------------------------------------------------
 Center     Atomic      Atomic             Coordinates (Angstroms)
 Number     Number       Type             X           Y           Z
 ---------------------------------------------------------------------
      1          5           0       -2.587185   -0.389668   -0.056294
      2          5           0       -2.719056    1.060985    0.764913
      3          8           0       -1.435952   -1.007921   -0.451333
      4          6           0       -0.181967   -0.460729   -0.251256
      5          6           0        0.834986   -1.314993    0.168894
      6          6           0        0.076991    0.888031   -0.489475
      7          6           0        2.112735   -0.806374    0.378048
      8          6           0        2.380112    0.546153    0.163879
      9          6           0        1.361190    1.387864   -0.272292
     10          1           0        0.606478   -2.361121    0.331123
     11          1           0        2.902439   -1.469403    0.712550
     12          1           0        3.377359    0.937054    0.327106
     13          1           0        1.562471    2.436533   -0.458610
     14          1           0       -0.705811    1.531907   -0.875091
     15          1           0       -2.613353    1.122818    1.954403
     16          1           0       -3.033710    2.077173    0.218166
     17          1           0       -3.581326   -1.007890   -0.328863
 ---------------------------------------------------------------------

 SCF Done:  E(RHF) =  -356.246347304     A.U. after    2 cycles

 The electronic state is 1-A.
 Alpha  occ. eigenvalues --  -20.60406 -11.32090 -11.25990 -11.25858 -11.25389
 Alpha  occ. eigenvalues --  -11.24943 -11.24869  -7.62828  -7.60699  -1.36470
 Alpha  occ. eigenvalues --   -1.14912  -1.02467  -1.01387  -0.86035  -0.84402
 Alpha  occ. eigenvalues --   -0.76496  -0.72158  -0.68259  -0.67237  -0.63900
 Alpha  occ. eigenvalues --   -0.62412  -0.60506  -0.57095  -0.56084  -0.52942
 Alpha  occ. eigenvalues --   -0.50926  -0.50407  -0.48628  -0.42218  -0.35370
 Alpha  occ. eigenvalues --   -0.33725
 Alpha virt. eigenvalues --    0.03129   0.03868   0.03948   0.04616   0.05155
 Alpha virt. eigenvalues --    0.05252   0.06158   0.06853   0.07011   0.07399
 Alpha virt. eigenvalues --    0.08145   0.08687   0.09992   0.10667   0.11266

 Mulliken charges:
               1
     1  B   -0.006089
     2  B   -0.543590
     3  O   -0.861545
     4  C    0.530294
     5  C    0.383094
     6  C    0.521397
     7  C    0.672035
     8  C    0.470079
     9  C    0.463212
    10  H   -0.520161
    11  H   -0.423362
    12  H   -0.446051
    13  H   -0.443111
    14  H   -0.624424
    15  H    0.323665
    16  H    0.245874
    17  H    0.258682
 Sum of Mulliken charges =  -0.00000

 Dipole moment (field-independent basis, Debye):
    X=              1.0706    Y=              0.7612    Z=              0.3585  Tot=              1.3617

 Test job not archived.
 1\1\GINC-SE126\SP\RHF\Aug-CC-pVDZ\C6H8B2O1\OHZDE\09-Apr-2025\0\\#t hf
 aug-cc-pvdz iop(5/13=1,5/36=2,99/5=2) pseudo=read geom=check guess=(re
 ad,tcheck) scf=(maxcycle=1)\\title\\0,1\B,0,-2.587185,-0.389668,-0.056
 294\B,0,-2.719056,1.060985,0.764913\O,0,-1.435952,-1.007921,-0.451333\
 C,0,-0.181967,-0.460729,-0.251256\C,0,0.834986,-1.314993,0.168894\C,0,
 0.076991,0.888031,-0.489475\C,0,2.112735,-0.806374,0.378048\C,0,2.3801
 12,0.546153,0.163879\C,0,1.36119,1.387864,-0.272292\H,0,0.606478,-2.36
 1121,0.331123\H,0,2.902439,-1.469403,0.71255\H,0,3.377359,0.937054,0.3

 Normal termination of Gaussian 16 at Wed Apr  9 00:36:30 2025.
