 Gaussian 16, Revision C.01,

 ----------------------------------------------------------------------
 #t hf aug-cc-pvdz symm=none int=(grid=ultrafine) guess=(read,tcheck) s
 table=(opt,rrhf)
 ----------------------------------------------------------------------
 -----
 title
 -----
 Symbolic Z-matrix:
 Charge =  0 Multiplicity = 1

 SCF Done:  E(RHF) =  -2171.54724707     A.U. after   12 cycles

 1\1\GINC-SE187\Stability\RHF\Aug-CC-pVDZ\H6S4Si2\OHZDE\09-Apr-2025\0\\
 #t hf aug-cc-pvdz symm=none int=(grid=ultrafine) guess=(read,tcheck) s
 table=(opt,rrhf)\\title\\0,1\Si,0,0.897978,1.433368,0.773908\Si,0,-0.8
 97983,1.433349,-0.773939\S,0,-1.798323,-0.536656,-1.00147\H,0,-0.43075
 1,1.765702,-2.14158\H,0,-1.925582,2.415792,-0.355641\S,0,-2.423123,-0.
 88477,0.988051\H,0,-1.305272,-1.505729,1.414291\S,0,1.798325,-0.536629
 ,1.001481\H,0,0.430744,1.765748,2.141543\H,0,1.925572,2.415807,0.35559
 \S,0,2.423123,-0.884785,-0.988035\H,0,1.305339,-1.50591,-1.414211\\Ver

 Normal termination of Gaussian 16 at Wed Apr  9 00:11:48 2025.
 Gaussian 16:  ES64L-G16RevC.01  3-Jul-2019

 ----------------------------------------------------------------------
 #t hf aug-cc-pvdz iop(5/13=1,5/36=2,99/5=2) pseudo=read geom=check gue
 ss=(read,tcheck) scf=(maxcycle=1)
 ----------------------------------------------------------------------
 -----
 title
 -----
 Structure from the checkpoint file:  "BDE49_nonexpt_2419_mol1.chk"
 Charge =  0 Multiplicity = 1

                         Standard orientation:
 ---------------------------------------------------------------------
 Center     Atomic      Atomic             Coordinates (Angstroms)
 Number     Number       Type             X           Y           Z
 ---------------------------------------------------------------------
      1         14           0        0.897978    1.433368    0.773908
      2         14           0       -0.897983    1.433349   -0.773939
      3         16           0       -1.798323   -0.536656   -1.001470
      4          1           0       -0.430751    1.765702   -2.141580
      5          1           0       -1.925582    2.415792   -0.355641
      6         16           0       -2.423123   -0.884770    0.988051
      7          1           0       -1.305272   -1.505729    1.414291
      8         16           0        1.798325   -0.536629    1.001481
      9          1           0        0.430744    1.765748    2.141543
     10          1           0        1.925572    2.415807    0.355590
     11         16           0        2.423123   -0.884785   -0.988035
     12          1           0        1.305339   -1.505910   -1.414211
 ---------------------------------------------------------------------

 SCF Done:  E(RHF) =  -2171.66432973     A.U. after    2 cycles

 The electronic state is 1-A.
 Alpha  occ. eigenvalues --  -93.57801 -93.57800 -93.56338 -93.56336 -69.10391
 Alpha  occ. eigenvalues --  -69.10391  -8.87322  -8.87322  -8.86029  -8.86029
 Alpha  occ. eigenvalues --   -6.85488  -6.85486  -6.21436  -6.21432  -6.21218
 Alpha  occ. eigenvalues --   -6.21212  -6.20866  -6.20859  -6.20125  -6.20122
 Alpha  occ. eigenvalues --   -6.19864  -6.19863  -6.19608  -6.19598  -3.96287
 Alpha  occ. eigenvalues --   -3.96276  -3.96204  -3.96200  -3.96175  -3.96110
 Alpha  occ. eigenvalues --   -1.03398  -1.02854  -0.87370  -0.87163  -0.72603
 Alpha  occ. eigenvalues --   -0.66036  -0.58313  -0.56837  -0.52459  -0.50449
 Alpha  occ. eigenvalues --   -0.50303  -0.49042  -0.48491  -0.46789  -0.42854
 Alpha  occ. eigenvalues --   -0.38921  -0.37721  -0.37132  -0.36219
 Alpha virt. eigenvalues --    0.03863   0.03926   0.04380   0.04940   0.05736
 Alpha virt. eigenvalues --    0.06625   0.07126   0.07380   0.07621   0.08287
 Alpha virt. eigenvalues --    0.09340   0.09958   0.10601   0.10603   0.11345

 Mulliken charges:
               1
     1  Si   0.397755
     2  Si   0.397787
     3  S   -0.501432
     4  H    0.057212
     5  H    0.076255
     6  S   -0.162722
     7  H    0.132910
     8  S   -0.501431
     9  H    0.057220
    10  H    0.076256
    11  S   -0.162725
    12  H    0.132914
 Sum of Mulliken charges =  -0.00000

 Dipole moment (field-independent basis, Debye):
    X=              0.0001    Y=              1.1847    Z=             -0.0000  Tot=              1.1847

 Test job not archived.
 1\1\GINC-SE187\SP\RHF\Aug-CC-pVDZ\H6S4Si2\OHZDE\09-Apr-2025\0\\#t hf a
 ug-cc-pvdz iop(5/13=1,5/36=2,99/5=2) pseudo=read geom=check guess=(rea
 d,tcheck) scf=(maxcycle=1)\\title\\0,1\Si,0,0.897978,1.433368,0.773908
 \Si,0,-0.897983,1.433349,-0.773939\S,0,-1.798323,-0.536656,-1.00147\H,
 0,-0.430751,1.765702,-2.14158\H,0,-1.925582,2.415792,-0.355641\S,0,-2.
 423123,-0.88477,0.988051\H,0,-1.305272,-1.505729,1.414291\S,0,1.798325
 ,-0.536629,1.001481\H,0,0.430744,1.765748,2.141543\H,0,1.925572,2.4158
 07,0.35559\S,0,2.423123,-0.884785,-0.988035\H,0,1.305339,-1.50591,-1.4

 Normal termination of Gaussian 16 at Wed Apr  9 00:11:55 2025.
