 Gaussian 16, Revision C.01,

 ----------------------------------------------------------------------
 #t hf aug-cc-pvdz symm=none int=(grid=ultrafine) guess=(read,tcheck) s
 table=(opt,rrhf)
 ----------------------------------------------------------------------
 -----
 title
 -----
 Symbolic Z-matrix:
 Charge =  0 Multiplicity = 1

 SCF Done:  E(RHF) =  -838.897627522     A.U. after   14 cycles
 Normal termination of Gaussian 16 at Tue Apr  8 22:42:03 2025.
 Gaussian 16:  ES64L-G16RevC.01  3-Jul-2019

 ----------------------------------------------------------------------
 #t hf aug-cc-pvdz iop(5/13=1,5/36=2,99/5=2) pseudo=read geom=check gue
 ss=(read,tcheck) scf=(maxcycle=1)
 ----------------------------------------------------------------------
 -----
 title
 -----
 Structure from the checkpoint file:  "BDE49_expt_1397_mol1.chk"
 Charge =  0 Multiplicity = 1

                         Standard orientation:
 ---------------------------------------------------------------------
 Center     Atomic      Atomic             Coordinates (Angstroms)
 Number     Number       Type             X           Y           Z
 ---------------------------------------------------------------------
      1          6           0       -1.684162    0.180435    0.064885
      2          6           0       -1.152923   -1.102390    0.004863
      3          6           0        0.219655   -1.280324   -0.123548
      4          6           0       -0.839802    1.282035   -0.012496
      5          6           0        0.528630    1.093903   -0.157002
      6          6           0        1.085030   -0.186932   -0.215814
      7          9           0       -3.001636    0.354967    0.197008
      8          9           0       -1.963670   -2.161698    0.085766
      9          9           0        0.713364   -2.521403   -0.163326
     10          9           0       -1.348041    2.517032    0.040785
     11          9           0        1.327571    2.167893   -0.247543
     12          8           0        2.410573   -0.398085   -0.417679
     13          6           0        3.281073   -0.021776    0.665284
     14          1           0        4.283538   -0.300296    0.346322
     15          1           0        3.019672   -0.569721    1.575198
     16          1           0        3.238901    1.053870    0.848663
 ---------------------------------------------------------------------

 SCF Done:  E(RHF) =  -839.181781423     A.U. after    2 cycles

 The electronic state is 1-A.
 Alpha  occ. eigenvalues --  -26.17830 -26.17818 -26.17780 -26.17688 -26.17259
 Alpha  occ. eigenvalues --  -20.62765 -11.39085 -11.38970 -11.38875 -11.38652
 Alpha  occ. eigenvalues --  -11.38498 -11.36121 -11.31672  -1.72543  -1.72064
 Alpha  occ. eigenvalues --   -1.71584  -1.71109  -1.70826  -1.39785  -1.21530
 Alpha  occ. eigenvalues --   -1.08959  -1.08397  -0.98478  -0.95733  -0.93198
 Alpha  occ. eigenvalues --   -0.87614  -0.87449  -0.85097  -0.81615  -0.81243
 Alpha  occ. eigenvalues --   -0.81224  -0.80102  -0.79746  -0.78943  -0.77870
 Alpha  occ. eigenvalues --   -0.77484  -0.76138  -0.75651  -0.74637  -0.70049
 Alpha  occ. eigenvalues --   -0.67726  -0.66174  -0.65002  -0.62466  -0.56228
 Alpha  occ. eigenvalues --   -0.54039  -0.50555  -0.39094  -0.38141
 Alpha virt. eigenvalues --    0.03054   0.04966   0.05482   0.06056   0.08012
 Alpha virt. eigenvalues --    0.08198   0.09234   0.09528   0.10006   0.10139
 Alpha virt. eigenvalues --    0.10485   0.11231   0.12736   0.13286   0.13611

 Mulliken charges:
               1
     1  C    0.540656
     2  C    0.249380
     3  C    0.438435
     4  C    0.131586
     5  C    0.421599
     6  C   -0.144819
     7  F   -0.262980
     8  F   -0.231206
     9  F   -0.269678
    10  F   -0.228394
    11  F   -0.284621
    12  O   -0.713207
    13  C    0.693443
    14  H   -0.189602
    15  H   -0.076370
    16  H   -0.074220
 Sum of Mulliken charges =  -0.00000

 Dipole moment (field-independent basis, Debye):
    X=              2.5470    Y=              0.3299    Z=              1.3273  Tot=              2.8910

 Test job not archived.
 1\1\GINC-SE393\SP\RHF\Aug-CC-pVDZ\C7H3F5O1\OHZDE\08-Apr-2025\0\\#t hf
 aug-cc-pvdz iop(5/13=1,5/36=2,99/5=2) pseudo=read geom=check guess=(re
 ad,tcheck) scf=(maxcycle=1)\\title\\0,1\C,0,-1.684162,0.180435,0.06488
 5\C,0,-1.152923,-1.10239,0.004863\C,0,0.219655,-1.280324,-0.123548\C,0
 ,-0.839802,1.282035,-0.012496\C,0,0.52863,1.093903,-0.157002\C,0,1.085
 03,-0.186932,-0.215814\F,0,-3.001636,0.354967,0.197008\F,0,-1.96367,-2
 .161698,0.085766\F,0,0.713364,-2.521403,-0.163326\F,0,-1.348041,2.5170
 32,0.040785\F,0,1.327571,2.167893,-0.247543\O,0,2.410573,-0.398085,-0.

 Normal termination of Gaussian 16 at Tue Apr  8 22:42:12 2025.
