 Gaussian 16, Revision C.01,

 ----------------------------------------------------------------------
 #t hf aug-cc-pvdz symm=none int=(grid=ultrafine) guess=(read,tcheck) s
 table=(opt,rrhf)
 ----------------------------------------------------------------------
 -----
 title
 -----
 Symbolic Z-matrix:
 Charge =  0 Multiplicity = 1

 SCF Done:  E(RHF) =  -405.218689060     A.U. after   11 cycles
 Normal termination of Gaussian 16 at Wed Apr  9 00:03:56 2025.
 Gaussian 16:  ES64L-G16RevC.01  3-Jul-2019

 ----------------------------------------------------------------------
 #t hf aug-cc-pvdz iop(5/13=1,5/36=2,99/5=2) pseudo=read geom=check gue
 ss=(read,tcheck) scf=(maxcycle=1)
 ----------------------------------------------------------------------
 -----
 title
 -----
 Structure from the checkpoint file:  "BDE49_nonexpt_2234_mol1.chk"
 Charge =  0 Multiplicity = 1

                         Standard orientation:
 ---------------------------------------------------------------------
 Center     Atomic      Atomic             Coordinates (Angstroms)
 Number     Number       Type             X           Y           Z
 ---------------------------------------------------------------------
      1          6           0        1.517180   -0.399189    0.000000
      2         14           0       -0.113723    0.500983   -0.000001
      3          1           0        1.613023   -1.032605   -0.885678
      4          1           0        1.613026   -1.032598    0.885684
      5          1           0        2.347125    0.313972   -0.000004
      6          8           0       -1.301135   -0.655126   -0.000002
      7          1           0       -2.218808   -0.375739    0.000025
      8          1           0       -0.228119    1.374676   -1.197243
      9          1           0       -0.228124    1.374674    1.197242
 ---------------------------------------------------------------------

 SCF Done:  E(RHF) =  -405.291374527     A.U. after    2 cycles

 The electronic state is 1-A.
 Alpha  occ. eigenvalues --  -69.08540 -20.56791 -11.21578  -6.83343  -3.94277
 Alpha  occ. eigenvalues --   -3.94132  -3.94106  -1.29738  -0.94185  -0.74567
 Alpha  occ. eigenvalues --   -0.64407  -0.57751  -0.55867  -0.54568  -0.54262
 Alpha  occ. eigenvalues --   -0.45197  -0.44962
 Alpha virt. eigenvalues --    0.03278   0.04570   0.05481   0.05847   0.07383
 Alpha virt. eigenvalues --    0.07667   0.08514   0.09619   0.10095   0.13951
 Alpha virt. eigenvalues --    0.16248   0.16345   0.16362   0.17674   0.18408

 Mulliken charges:
               1
     1  C    0.215146
     2  Si   1.195487
     3  H   -0.165924
     4  H   -0.165922
     5  H   -0.224053
     6  O   -0.781676
     7  H    0.112854
     8  H   -0.092957
     9  H   -0.092955
 Sum of Mulliken charges =  -0.00000

 Dipole moment (field-independent basis, Debye):
    X=             -0.3671    Y=              0.7159    Z=              0.0000  Tot=              0.8046

 Test job not archived.
 1\1\GINC-SE342\SP\RHF\Aug-CC-pVDZ\C1H6O1Si1\OHZDE\09-Apr-2025\0\\#t hf
  aug-cc-pvdz iop(5/13=1,5/36=2,99/5=2) pseudo=read geom=check guess=(r
 ead,tcheck) scf=(maxcycle=1)\\title\\0,1\C,0,1.51718,-0.399189,0.\Si,0
 ,-0.113723,0.500983,-0.000001\H,0,1.613023,-1.032605,-0.885678\H,0,1.6
 13026,-1.032598,0.885684\H,0,2.347125,0.313972,-0.000004\O,0,-1.301135
 ,-0.655126,-0.000002\H,0,-2.218808,-0.375739,0.000025\H,0,-0.228119,1.
 374676,-1.197243\H,0,-0.228124,1.374674,1.197242\\Version=ES64L-G16Rev
 C.01\State=1-A\HF=-405.2913745\RMSD=4.176e-03\Dipole=-0.1444363,0.2816

 Normal termination of Gaussian 16 at Wed Apr  9 00:03:59 2025.
