 Gaussian 16, Revision C.01,

 ----------------------------------------------------------------------
 #t hf aug-cc-pvdz symm=none int=(grid=ultrafine) guess=(read,tcheck) s
 table=(opt,rrhf)
 ----------------------------------------------------------------------
 -----
 title
 -----
 Symbolic Z-matrix:
 Charge =  0 Multiplicity = 1

 SCF Done:  E(RHF) =  -932.219399231     A.U. after   12 cycles
 Normal termination of Gaussian 16 at Tue Apr  8 23:56:31 2025.
 Gaussian 16:  ES64L-G16RevC.01  3-Jul-2019

 ----------------------------------------------------------------------
 #t hf aug-cc-pvdz iop(5/13=1,5/36=2,99/5=2) pseudo=read geom=check gue
 ss=(read,tcheck) scf=(maxcycle=1)
 ----------------------------------------------------------------------
 -----
 title
 -----
 Structure from the checkpoint file:  "BDE49_nonexpt_2040_mol1.chk"
 Charge =  0 Multiplicity = 1

                         Standard orientation:
 ---------------------------------------------------------------------
 Center     Atomic      Atomic             Coordinates (Angstroms)
 Number     Number       Type             X           Y           Z
 ---------------------------------------------------------------------
      1         14           0       -2.230034   -0.013183   -0.018411
      2         15           0        0.751853   -0.032930    0.101441
      3          8           0        0.790311   -0.532012    1.478014
      4          8           0        1.693615   -0.827575   -0.918250
      5          1           0        1.858425   -1.726023   -0.609005
      6          8           0        1.188970    1.481293   -0.134989
      7          1           0        1.966551    1.716938    0.384614
      8          8           0       -0.657879   -0.033125   -0.599301
      9          1           0       -3.072035    0.248849   -1.198278
     10          1           0       -2.380268    1.057183    0.985235
     11          1           0       -2.550141   -1.327077    0.569783
 ---------------------------------------------------------------------

 SCF Done:  E(RHF) =  -932.426761063     A.U. after    2 cycles

 The electronic state is 1-A.
 Alpha  occ. eigenvalues --  -81.45626 -69.11782 -20.62360 -20.62216 -20.60570
 Alpha  occ. eigenvalues --  -20.53400  -7.93483  -6.86520  -5.08192  -5.08096
 Alpha  occ. eigenvalues --   -5.08060  -3.97466  -3.97267  -3.97250  -1.40098
 Alpha  occ. eigenvalues --   -1.35758  -1.34355  -1.26882  -0.88064  -0.78096
 Alpha  occ. eigenvalues --   -0.77400  -0.70099  -0.67379  -0.66132  -0.62553
 Alpha  occ. eigenvalues --   -0.61527  -0.60594  -0.57516  -0.56406  -0.50361
 Alpha  occ. eigenvalues --   -0.49798  -0.48765  -0.48469
 Alpha virt. eigenvalues --    0.03114   0.04085   0.04714   0.06171   0.06608
 Alpha virt. eigenvalues --    0.07521   0.09211   0.09325   0.10281   0.11286
 Alpha virt. eigenvalues --    0.12660   0.13428   0.14938   0.17072   0.18815

 Mulliken charges:
               1
     1  Si   0.515391
     2  P    2.368567
     3  O   -0.847664
     4  O   -0.638042
     5  H    0.156710
     6  O   -0.618498
     7  H    0.149450
     8  O   -1.112236
     9  H    0.032319
    10  H   -0.012072
    11  H    0.006076
 Sum of Mulliken charges =  -0.00000

 Dipole moment (field-independent basis, Debye):
    X=              0.0310    Y=             -0.0635    Z=             -0.9289  Tot=              0.9316

 Test job not archived.
 1\1\GINC-SE253\SP\RHF\Aug-CC-pVDZ\H5O4P1Si1\OHZDE\08-Apr-2025\0\\#t hf
  aug-cc-pvdz iop(5/13=1,5/36=2,99/5=2) pseudo=read geom=check guess=(r
 ead,tcheck) scf=(maxcycle=1)\\title\\0,1\Si,0,-2.230034,-0.013183,-0.0
 18411\P,0,0.751853,-0.03293,0.101441\O,0,0.790311,-0.532012,1.478014\O
 ,0,1.693615,-0.827575,-0.91825\H,0,1.858425,-1.726023,-0.609005\O,0,1.
 18897,1.481293,-0.134989\H,0,1.966551,1.716938,0.384614\O,0,-0.657879,
 -0.033125,-0.599301\H,0,-3.072035,0.248849,-1.198278\H,0,-2.380268,1.0
 57183,0.985235\H,0,-2.550141,-1.327077,0.569783\\Version=ES64L-G16RevC

 Normal termination of Gaussian 16 at Tue Apr  8 23:56:35 2025.
