 Gaussian 16, Revision C.01,

 ----------------------------------------------------------------------
 #t hf aug-cc-pvdz symm=none int=(grid=ultrafine) guess=(read,tcheck) s
 table=(opt,rrhf)
 ----------------------------------------------------------------------
 -----
 title
 -----
 Symbolic Z-matrix:
 Charge =  0 Multiplicity = 1

 SCF Done:  E(RHF) =  -246.940795651     A.U. after   14 cycles
 Normal termination of Gaussian 16 at Tue Apr  8 22:37:27 2025.
 Gaussian 16:  ES64L-G16RevC.01  3-Jul-2019

 ----------------------------------------------------------------------
 #t hf aug-cc-pvdz iop(5/13=1,5/36=2,99/5=2) pseudo=read geom=check gue
 ss=(read,tcheck) scf=(maxcycle=1)
 ----------------------------------------------------------------------
 -----
 title
 -----
 Structure from the checkpoint file:  "BDE49_expt_1232_mol1.chk"
 Charge =  0 Multiplicity = 1

                         Standard orientation:
 ---------------------------------------------------------------------
 Center     Atomic      Atomic             Coordinates (Angstroms)
 Number     Number       Type             X           Y           Z
 ---------------------------------------------------------------------
      1          6           0        0.310122    0.000000   -0.326776
      2          7           0       -0.952476    0.000000    0.486172
      3          8           0       -1.958461   -0.000000   -0.172010
      4          6           0        1.071371   -1.275209    0.042815
      5          1           0        0.502136   -2.166182   -0.232231
      6          1           0        1.266916   -1.309718    1.117587
      7          6           0        1.071371    1.275208    0.042815
      8          1           0        0.023138    0.000000   -1.383422
      9          1           0        1.266916    1.309718    1.117587
     10          1           0        0.502136    2.166182   -0.232230
     11          1           0        2.028302    1.304652   -0.483773
     12          1           0        2.028301   -1.304651   -0.483773
 ---------------------------------------------------------------------

 SCF Done:  E(RHF) =  -247.017559158     A.U. after    2 cycles

 The electronic state is 1-A.
 Alpha  occ. eigenvalues --  -20.64179 -15.76048 -11.28421 -11.24627 -11.24621
 Alpha  occ. eigenvalues --   -1.46693  -1.10964  -0.95175  -0.93323  -0.80505
 Alpha  occ. eigenvalues --   -0.70170  -0.67708  -0.62618  -0.61530  -0.56396
 Alpha  occ. eigenvalues --   -0.56099  -0.55147  -0.50377  -0.50178  -0.39776
 Alpha virt. eigenvalues --    0.03315   0.04356   0.04538   0.05677   0.07208
 Alpha virt. eigenvalues --    0.07360   0.07635   0.09770   0.11610   0.12269
 Alpha virt. eigenvalues --    0.13223   0.14754   0.15326   0.16501   0.16798

 Mulliken charges:
               1
     1  C   -0.216065
     2  N   -0.246226
     3  O   -0.389776
     4  C    0.545317
     5  H   -0.062543
     6  H    0.023964
     7  C    0.545315
     8  H   -0.128206
     9  H    0.023963
    10  H   -0.062544
    11  H   -0.016598
    12  H   -0.016600
 Sum of Mulliken charges =  -0.00000

 Dipole moment (field-independent basis, Debye):
    X=              3.0485    Y=              0.0000    Z=             -0.5338  Tot=              3.0949

 Test job not archived.
 1\1\GINC-SE398\SP\RHF\Aug-CC-pVDZ\C3H7N1O1\OHZDE\08-Apr-2025\0\\#t hf
 aug-cc-pvdz iop(5/13=1,5/36=2,99/5=2) pseudo=read geom=check guess=(re
 ad,tcheck) scf=(maxcycle=1)\\title\\0,1\C,0,-0.310122,0.,-0.326776\N,0
 ,0.952476,0.,0.486172\O,0,1.958461,0.,-0.17201\C,0,-1.071371,1.275209,
 0.042815\H,0,-0.502136,2.166182,-0.232231\H,0,-1.266916,1.309718,1.117
 587\C,0,-1.071371,-1.275208,0.042815\H,0,-0.023138,0.,-1.383422\H,0,-1
 .266916,-1.309718,1.117587\H,0,-0.502137,-2.166182,-0.23223\H,0,-2.028
 302,-1.304651,-0.483773\H,0,-2.028301,1.304652,-0.483773\\Version=ES64

 Normal termination of Gaussian 16 at Tue Apr  8 22:37:31 2025.
