 Gaussian 16, Revision C.01,

 ----------------------------------------------------------------------
 #t hf aug-cc-pvdz symm=none int=(grid=ultrafine) guess=(read,tcheck) s
 table=(opt,rrhf)
 ----------------------------------------------------------------------
 -----
 title
 -----
 Symbolic Z-matrix:
 Charge =  0 Multiplicity = 1

 SCF Done:  E(RHF) =  -1262.02182767     A.U. after   18 cycles
 Normal termination of Gaussian 16 at Tue Apr  8 23:32:41 2025.
 Gaussian 16:  ES64L-G16RevC.01  3-Jul-2019

 ----------------------------------------------------------------------
 #t hf aug-cc-pvdz iop(5/13=1,5/36=2,99/5=2) pseudo=read geom=check gue
 ss=(read,tcheck) scf=(maxcycle=1)
 ----------------------------------------------------------------------
 -----
 title
 -----
 Structure from the checkpoint file:  "BDE49_nonexpt_1381_mol1.chk"
 Charge =  0 Multiplicity = 1

                         Standard orientation:
 ---------------------------------------------------------------------
 Center     Atomic      Atomic             Coordinates (Angstroms)
 Number     Number       Type             X           Y           Z
 ---------------------------------------------------------------------
      1          9           0        2.835483    1.428932    0.244050
      2          9           0       -0.283358   -1.774730    1.237009
      3          8           0        2.527426   -1.366336   -1.038141
      4          8           0        0.169716    2.305711   -0.599164
      5         15           0        1.642838    0.506832    0.827276
      6         15           0       -0.183541   -1.626577   -0.412203
      7          6           0        1.624282   -0.948667   -0.375814
      8          6           0        0.196125    1.167399   -0.217128
      9          6           0       -0.881171    0.118318   -0.548100
     10          1           0       -1.112011    0.262596   -1.613207
     11          6           0       -2.204867    0.315924    0.262843
     12          1           0       -1.939704    0.280209    1.324578
     13          6           0       -2.846047    1.678420   -0.037863
     14          1           0       -3.737371    1.809098    0.581742
     15          1           0       -3.154139    1.738728   -1.086486
     16          1           0       -2.170880    2.511280    0.156392
     17          6           0       -3.205845   -0.816493   -0.013530
     18          1           0       -4.141042   -0.623133    0.517850
     19          1           0       -3.437929   -0.885767   -1.080955
     20          1           0       -2.837481   -1.789049    0.320462
 ---------------------------------------------------------------------

 SCF Done:  E(RHF) =  -1262.25884136     A.U. after    2 cycles

 The electronic state is 1-A.
 Alpha  occ. eigenvalues --  -81.36654 -81.36227 -26.14716 -26.14405 -20.62885
 Alpha  occ. eigenvalues --  -20.61101 -11.38876 -11.38650 -11.29786 -11.28344
 Alpha  occ. eigenvalues --  -11.25245 -11.24237  -7.86134  -7.85834  -5.00174
 Alpha  occ. eigenvalues --   -4.99958  -4.99887  -4.99667  -4.99578  -4.99390
 Alpha  occ. eigenvalues --   -1.66612  -1.66563  -1.41286  -1.40067  -1.12202
 Alpha  occ. eigenvalues --   -1.03087  -0.95353  -0.93384  -0.88369  -0.82688
 Alpha  occ. eigenvalues --   -0.81180  -0.79400  -0.76264  -0.76200  -0.75551
 Alpha  occ. eigenvalues --   -0.75128  -0.71751  -0.70399  -0.68876  -0.65753
 Alpha  occ. eigenvalues --   -0.64169  -0.64040  -0.59757  -0.58678  -0.58502
 Alpha  occ. eigenvalues --   -0.56454  -0.55397  -0.52520  -0.51919  -0.50056
 Alpha  occ. eigenvalues --   -0.49590  -0.43898  -0.39645  -0.37050
 Alpha virt. eigenvalues --    0.02210   0.02975   0.03912   0.04540   0.04974
 Alpha virt. eigenvalues --    0.05748   0.06291   0.06589   0.07033   0.07385
 Alpha virt. eigenvalues --    0.08651   0.08758   0.09261   0.10013   0.10345

 Mulliken charges:
               1
     1  F   -0.645697
     2  F   -0.672249
     3  O   -0.475979
     4  O   -0.522966
     5  P    1.056712
     6  P    1.110750
     7  C   -0.064465
     8  C    0.100851
     9  C    0.447359
    10  H   -0.078226
    11  C   -1.441376
    12  H   -0.232486
    13  C    0.868575
    14  H   -0.040296
    15  H   -0.002224
    16  H   -0.085287
    17  C    0.835485
    18  H   -0.050647
    19  H   -0.034545
    20  H   -0.073290
 Sum of Mulliken charges =   0.00000

 Dipole moment (field-independent basis, Debye):
    X=             -4.4987    Y=             -1.3648    Z=              0.6631  Tot=              4.7477

 Test job not archived.
 1\1\GINC-SE328\SP\RHF\Aug-CC-pVDZ\C6H8F2O2P2\OHZDE\08-Apr-2025\0\\#t h
 f aug-cc-pvdz iop(5/13=1,5/36=2,99/5=2) pseudo=read geom=check guess=(
 read,tcheck) scf=(maxcycle=1)\\title\\0,1\F,0,2.835483,1.428932,0.2440
 5\F,0,-0.283358,-1.77473,1.237009\O,0,2.527426,-1.366336,-1.038141\O,0
 ,0.169716,2.305711,-0.599164\P,0,1.642838,0.506832,0.827276\P,0,-0.183
 541,-1.626577,-0.412203\C,0,1.624282,-0.948667,-0.375814\C,0,0.196125,
 1.167399,-0.217128\C,0,-0.881171,0.118318,-0.5481\H,0,-1.112011,0.2625
 96,-1.613207\C,0,-2.204867,0.315924,0.262843\H,0,-1.939704,0.280209,1.

 Normal termination of Gaussian 16 at Tue Apr  8 23:32:55 2025.
