 Gaussian 16, Revision C.01,

 ----------------------------------------------------------------------
 #t hf aug-cc-pvdz symm=none int=(grid=ultrafine) guess=(read,tcheck) s
 table=(opt,rrhf)
 ----------------------------------------------------------------------
 -----
 title
 -----
 Symbolic Z-matrix:
 Charge =  0 Multiplicity = 1

 SCF Done:  E(RHF) =  -1394.35951354     A.U. after   13 cycles
 Normal termination of Gaussian 16 at Tue Apr  8 23:40:01 2025.
 Gaussian 16:  ES64L-G16RevC.01  3-Jul-2019

 ----------------------------------------------------------------------
 #t hf aug-cc-pvdz iop(5/13=1,5/36=2,99/5=2) pseudo=read geom=check gue
 ss=(read,tcheck) scf=(maxcycle=1)
 ----------------------------------------------------------------------
 -----
 title
 -----
 Structure from the checkpoint file:  "BDE49_nonexpt_1637_mol1.chk"
 Charge =  0 Multiplicity = 1

                         Standard orientation:
 ---------------------------------------------------------------------
 Center     Atomic      Atomic             Coordinates (Angstroms)
 Number     Number       Type             X           Y           Z
 ---------------------------------------------------------------------
      1         14           0       -0.878984    0.424324    0.001681
      2         15           0        1.327706   -0.131222    0.142949
      3          8           0        1.791777   -0.665899    1.435410
      4          6           0       -1.254529    1.308057   -1.595888
      5          1           0       -0.962038    0.700046   -2.454381
      6          1           0       -0.706317    2.253103   -1.640951
      7          6           0       -1.365822    1.360979    1.536175
      8         17           0       -1.869445   -1.423281   -0.010927
      9          1           0       -0.843897    2.321918    1.571606
     10          1           0       -1.103446    0.794849    2.432153
     11          1           0       -2.442659    1.550479    1.544115
     12          1           0       -2.324998    1.519226   -1.670150
     13          8           0        1.667986   -1.102458   -1.113291
     14          1           0        1.668787   -2.029901   -0.844112
     15          8           0        1.996200    1.248080   -0.358137
     16          1           0        2.959717    1.261838   -0.273883
 ---------------------------------------------------------------------

 SCF Done:  E(RHF) =  -1394.56231915     A.U. after    2 cycles

 The electronic state is 1-A.
 Alpha  occ. eigenvalues -- -103.65517 -81.40676 -69.12515 -20.61961 -20.61380
 Alpha  occ. eigenvalues --  -20.52557 -11.23974 -11.23787 -10.68919  -8.34610
 Alpha  occ. eigenvalues --   -8.34401  -8.34394  -7.89187  -6.87354  -5.03800
 Alpha  occ. eigenvalues --   -5.03688  -5.03270  -3.98184  -3.98051  -3.98008
 Alpha  occ. eigenvalues --   -1.37710  -1.34391  -1.25581  -1.13850  -0.97599
 Alpha  occ. eigenvalues --   -0.94906  -0.85237  -0.76067  -0.69685  -0.67688
 Alpha  occ. eigenvalues --   -0.64666  -0.61819  -0.59507  -0.59136  -0.58370
 Alpha  occ. eigenvalues --   -0.57632  -0.57321  -0.57068  -0.51934  -0.51447
 Alpha  occ. eigenvalues --   -0.50171  -0.48808  -0.48374  -0.45113  -0.41886
 Alpha virt. eigenvalues --    0.02860   0.04030   0.04654   0.05075   0.06091
 Alpha virt. eigenvalues --    0.06758   0.07137   0.07618   0.07861   0.09867
 Alpha virt. eigenvalues --    0.10748   0.11209   0.11827   0.12455   0.13023

 Mulliken charges:
               1
     1  Si   1.141302
     2  P    2.112726
     3  O   -1.010933
     4  C    0.392450
     5  H   -0.255567
     6  H   -0.113057
     7  C    0.382242
     8  Cl  -0.652713
     9  H   -0.146532
    10  H   -0.217822
    11  H   -0.219830
    12  H   -0.232354
    13  O   -0.756579
    14  H    0.150197
    15  O   -0.719679
    16  H    0.146149
 Sum of Mulliken charges =  -0.00000

 Dipole moment (field-independent basis, Debye):
    X=             -0.5669    Y=              2.3884    Z=             -2.0425  Tot=              3.1934

 Test job not archived.
 1\1\GINC-SE363\SP\RHF\Aug-CC-pVDZ\C2H8Cl1O3P1Si1\OHZDE\08-Apr-2025\0\\
 #t hf aug-cc-pvdz iop(5/13=1,5/36=2,99/5=2) pseudo=read geom=check gue
 ss=(read,tcheck) scf=(maxcycle=1)\\title\\0,1\Si,0,-0.878984,0.424324,
 0.001681\P,0,1.327706,-0.131222,0.142949\O,0,1.791777,-0.665899,1.4354
 1\C,0,-1.254529,1.308057,-1.595888\H,0,-0.962038,0.700046,-2.454381\H,
 0,-0.706316,2.253103,-1.640951\C,0,-1.365822,1.36098,1.536175\Cl,0,-1.
 869445,-1.42328,-0.010927\H,0,-0.843896,2.321918,1.571606\H,0,-1.10344
 6,0.794849,2.432153\H,0,-2.442659,1.55048,1.544115\H,0,-2.324998,1.519

 Normal termination of Gaussian 16 at Tue Apr  8 23:40:09 2025.
