 Gaussian 16, Revision C.01,

 ----------------------------------------------------------------------
 #t hf aug-cc-pvdz symm=none int=(grid=ultrafine) guess=(read,tcheck) s
 table=(opt,rrhf)
 ----------------------------------------------------------------------
 -----
 title
 -----
 Symbolic Z-matrix:
 Charge =  0 Multiplicity = 1

 SCF Done:  E(RHF) =  -633.160019891     A.U. after   13 cycles
 Normal termination of Gaussian 16 at Wed Apr  9 00:02:06 2025.
 Gaussian 16:  ES64L-G16RevC.01  3-Jul-2019

 ----------------------------------------------------------------------
 #t hf aug-cc-pvdz iop(5/13=1,5/36=2,99/5=2) pseudo=read geom=check gue
 ss=(read,tcheck) scf=(maxcycle=1)
 ----------------------------------------------------------------------
 -----
 title
 -----
 Structure from the checkpoint file:  "BDE49_nonexpt_2175_mol1.chk"
 Charge =  0 Multiplicity = 1

                         Standard orientation:
 ---------------------------------------------------------------------
 Center     Atomic      Atomic             Coordinates (Angstroms)
 Number     Number       Type             X           Y           Z
 ---------------------------------------------------------------------
      1         14           0        0.651270   -0.001579    0.004239
      2          8           0        0.661894   -0.000821    1.648232
      3          8           0        1.458961   -1.318430   -0.558646
      4          1           0        1.474455   -0.258797    2.090182
      5          6           0       -1.147569   -0.005247   -0.500163
      6          6           0       -1.891063    1.254616   -0.014131
      7          6           0       -1.858346   -1.292406   -0.038058
      8          1           0       -1.142925    0.005620   -1.598852
      9          1           0       -1.880288   -1.355716    1.053463
     10          1           0       -1.352384   -2.185660   -0.413047
     11          1           0       -2.893520   -1.315898   -0.395769
     12          1           0       -1.894908    1.312748    1.078119
     13          1           0       -2.933630    1.246230   -0.349579
     14          1           0       -1.434448    2.172583   -0.397972
     15          1           0        2.138605   -1.154832   -1.216499
     16          8           0        1.491332    1.276252   -0.625472
     17          1           0        1.285645    2.158038   -0.308204
 ---------------------------------------------------------------------

 SCF Done:  E(RHF) =  -633.320364652     A.U. after    2 cycles

 The electronic state is 1-A.
 Alpha  occ. eigenvalues --  -69.12119 -20.57090 -20.56723 -20.56591 -11.22827
 Alpha  occ. eigenvalues --  -11.22155 -11.22034  -6.86352  -3.97381  -3.97373
 Alpha  occ. eigenvalues --   -3.97145  -1.32248  -1.29225  -1.28896  -1.04268
 Alpha  occ. eigenvalues --   -0.92363  -0.81019  -0.76002  -0.73038  -0.71706
 Alpha  occ. eigenvalues --   -0.61703  -0.60992  -0.60201  -0.57604  -0.56736
 Alpha  occ. eigenvalues --   -0.55980  -0.54768  -0.53510  -0.52984  -0.51424
 Alpha  occ. eigenvalues --   -0.47856  -0.47694  -0.41875
 Alpha virt. eigenvalues --    0.02989   0.04556   0.04731   0.05041   0.06380
 Alpha virt. eigenvalues --    0.06544   0.06955   0.07411   0.07693   0.09121
 Alpha virt. eigenvalues --    0.09487   0.09939   0.10351   0.12605   0.14614

 Mulliken charges:
               1
     1  Si   2.375285
     2  O   -0.813704
     3  O   -0.853613
     4  H    0.101155
     5  C   -0.691322
     6  C    0.583731
     7  C    0.555938
     8  H   -0.183587
     9  H   -0.063871
    10  H   -0.127141
    11  H   -0.074254
    12  H   -0.057462
    13  H   -0.078302
    14  H   -0.154093
    15  H    0.166886
    16  O   -0.794939
    17  H    0.109293
 Sum of Mulliken charges =  -0.00000

 Dipole moment (field-independent basis, Debye):
    X=              0.6111    Y=              1.2408    Z=             -0.2003  Tot=              1.3975

 Test job not archived.
 1\1\GINC-SE393\SP\RHF\Aug-CC-pVDZ\C3H10O3Si1\OHZDE\09-Apr-2025\0\\#t h
 f aug-cc-pvdz iop(5/13=1,5/36=2,99/5=2) pseudo=read geom=check guess=(
 read,tcheck) scf=(maxcycle=1)\\title\\0,1\Si,0,0.65127,-0.001579,0.004
 239\O,0,0.661894,-0.000821,1.648232\O,0,1.45896,-1.318431,-0.558646\H,
 0,1.474455,-0.258798,2.090182\C,0,-1.147569,-0.005247,-0.500163\C,0,-1
 .891063,1.254617,-0.014131\C,0,-1.858347,-1.292405,-0.038058\H,0,-1.14
 2925,0.00562,-1.598852\H,0,-1.880289,-1.355715,1.053463\H,0,-1.352385,
 -2.18566,-0.413047\H,0,-2.893521,-1.315897,-0.395769\H,0,-1.894908,1.3

 Normal termination of Gaussian 16 at Wed Apr  9 00:02:13 2025.
