 Gaussian 16, Revision C.01,

 ----------------------------------------------------------------------
 #t hf aug-cc-pvdz symm=none int=(grid=ultrafine) guess=(read,tcheck) s
 table=(opt,rrhf)
 ----------------------------------------------------------------------
 -----
 title
 -----
 Symbolic Z-matrix:
 Charge =  0 Multiplicity = 1

 SCF Done:  E(RHF) =  -325.978976571     A.U. after   14 cycles

 1\1\GINC-SE195\Stability\RHF\Aug-CC-pVDZ\C7H11N1\OHZDE\08-Apr-2025\0\\
 #t hf aug-cc-pvdz symm=none int=(grid=ultrafine) guess=(read,tcheck) s
 table=(opt,rrhf)\\title\\0,1\C,0,-2.157876,0.000286,0.070544\N,0,-3.27
 9464,-0.000157,-0.198325\C,0,-0.729622,0.000121,0.390346\C,0,2.150463,
 -0.000137,-0.33668\C,0,1.459956,-1.268123,0.184357\C,0,-0.038699,-1.27
 7188,-0.144563\H,0,1.592068,-1.333157,1.271918\H,0,1.931527,-2.160011,
 -0.238781\H,0,-0.182337,-1.324322,-1.22973\H,0,-0.522399,-2.161698,0.2
 78026\C,0,-0.038476,1.277296,-0.144602\H,0,-0.650128,0.000129,1.48529\

 Normal termination of Gaussian 16 at Tue Apr  8 22:37:33 2025.
 Gaussian 16:  ES64L-G16RevC.01  3-Jul-2019

 ----------------------------------------------------------------------
 #t hf aug-cc-pvdz iop(5/13=1,5/36=2,99/5=2) pseudo=read geom=check gue
 ss=(read,tcheck) scf=(maxcycle=1)
 ----------------------------------------------------------------------
 -----
 title
 -----
 Structure from the checkpoint file:  "BDE49_expt_1160_mol1.chk"
 Charge =  0 Multiplicity = 1

                         Standard orientation:
 ---------------------------------------------------------------------
 Center     Atomic      Atomic             Coordinates (Angstroms)
 Number     Number       Type             X           Y           Z
 ---------------------------------------------------------------------
      1          6           0        2.157876   -0.000286    0.070544
      2          7           0        3.279464    0.000157   -0.198325
      3          6           0        0.729622   -0.000121    0.390346
      4          6           0       -2.150463    0.000137   -0.336680
      5          6           0       -1.459956    1.268123    0.184357
      6          6           0        0.038699    1.277188   -0.144563
      7          1           0       -1.592068    1.333157    1.271918
      8          1           0       -1.931527    2.160011   -0.238781
      9          1           0        0.182337    1.324322   -1.229730
     10          1           0        0.522399    2.161698    0.278026
     11          6           0        0.038476   -1.277296   -0.144602
     12          1           0        0.650128   -0.000129    1.485290
     13          6           0       -1.460175   -1.267981    0.184329
     14          1           0       -2.125979    0.000146   -1.433692
     15          1           0       -3.205956    0.000225   -0.048374
     16          1           0        0.522036   -2.161902    0.277947
     17          1           0        0.182098   -1.324414   -1.229771
     18          1           0       -1.931899   -2.159778   -0.238829
     19          1           0       -1.592294   -1.333018    1.271888
 ---------------------------------------------------------------------

 SCF Done:  E(RHF) =  -326.075464597     A.U. after    2 cycles

 The electronic state is 1-A.
 Alpha  occ. eigenvalues --  -15.63099 -11.28933 -11.27925 -11.25455 -11.25448
 Alpha  occ. eigenvalues --  -11.24574 -11.24571 -11.24256  -1.18961  -1.13073
 Alpha  occ. eigenvalues --   -1.03600  -1.01961  -0.88083  -0.85520  -0.78304
 Alpha  occ. eigenvalues --   -0.71088  -0.65994  -0.62961  -0.62549  -0.58203
 Alpha  occ. eigenvalues --   -0.56209  -0.55202  -0.53845  -0.52759  -0.50895
 Alpha  occ. eigenvalues --   -0.47914  -0.47312  -0.47184  -0.44499  -0.43734
 Alpha virt. eigenvalues --    0.02796   0.03807   0.03812   0.04600   0.06019
 Alpha virt. eigenvalues --    0.06084   0.06492   0.06627   0.07273   0.08839
 Alpha virt. eigenvalues --    0.08883   0.10691   0.12384   0.12583   0.13393

 Mulliken charges:
               1
     1  C   -0.648632
     2  N   -0.134537
     3  C    0.348783
     4  C    0.268422
     5  C    0.365768
     6  C    0.332098
     7  H   -0.083637
     8  H   -0.086631
     9  H   -0.107826
    10  H   -0.178145
    11  C    0.331879
    12  H   -0.113217
    13  C    0.365817
    14  H   -0.093532
    15  H   -0.110371
    16  H   -0.178127
    17  H   -0.107841
    18  H   -0.086643
    19  H   -0.083629
 Sum of Mulliken charges =  -0.00000

 Dipole moment (field-independent basis, Debye):
    X=             -4.6303    Y=             -0.0004    Z=              0.7497  Tot=              4.6906

 Test job not archived.
 1\1\GINC-SE195\SP\RHF\Aug-CC-pVDZ\C7H11N1\OHZDE\08-Apr-2025\0\\#t hf a
 ug-cc-pvdz iop(5/13=1,5/36=2,99/5=2) pseudo=read geom=check guess=(rea
 d,tcheck) scf=(maxcycle=1)\\title\\0,1\C,0,-2.157876,0.000286,0.070544
 \N,0,-3.279464,-0.000157,-0.198325\C,0,-0.729622,0.000121,0.390346\C,0
 ,2.150463,-0.000137,-0.33668\C,0,1.459956,-1.268123,0.184357\C,0,-0.03
 8699,-1.277188,-0.144563\H,0,1.592068,-1.333157,1.271918\H,0,1.931527,
 -2.160011,-0.238781\H,0,-0.182337,-1.324322,-1.22973\H,0,-0.522399,-2.
 161698,0.278026\C,0,-0.038476,1.277296,-0.144602\H,0,-0.650128,0.00012

 Normal termination of Gaussian 16 at Tue Apr  8 22:37:42 2025.
