 Gaussian 16, Revision C.01,

 ----------------------------------------------------------------------
 #t hf aug-cc-pvdz symm=none int=(grid=ultrafine) guess=(read,tcheck) s
 table=(opt,rrhf)
 ----------------------------------------------------------------------
 -----
 title
 -----
 Symbolic Z-matrix:
 Charge =  0 Multiplicity = 1

 SCF Done:  E(RHF) =  -706.333435607     A.U. after   15 cycles

 1\1\GINC-SE165\Stability\RHF\Aug-CC-pVDZ\C8H10S1\OHZDE\08-Apr-2025\0\\
 #t hf aug-cc-pvdz symm=none int=(grid=ultrafine) guess=(read,tcheck) s
 table=(opt,rrhf)\\title\\0,1\C,0,2.466106,-0.921947,1.276493\C,0,2.426
 977,0.387667,0.497532\S,0,1.453903,0.321929,-1.065937\H,0,3.426623,0.6
 78384,0.163973\H,0,2.038136,1.205121,1.108264\C,0,-0.217951,0.140467,-
 0.442837\H,0,2.892245,-1.725487,0.671751\H,0,1.464144,-1.225931,1.5874
 1\H,0,3.077545,-0.808345,2.177934\C,0,-0.896222,-1.070372,-0.611564\C,
 0,-0.875409,1.21699,0.163731\C,0,-2.184735,1.074692,0.61415\C,0,-2.857

 Normal termination of Gaussian 16 at Tue Apr  8 22:38:46 2025.
 Gaussian 16:  ES64L-G16RevC.01  3-Jul-2019

 ----------------------------------------------------------------------
 #t hf aug-cc-pvdz iop(5/13=1,5/36=2,99/5=2) pseudo=read geom=check gue
 ss=(read,tcheck) scf=(maxcycle=1)
 ----------------------------------------------------------------------
 -----
 title
 -----
 Structure from the checkpoint file:  "BDE49_expt_1225_mol1.chk"
 Charge =  0 Multiplicity = 1

                         Standard orientation:
 ---------------------------------------------------------------------
 Center     Atomic      Atomic             Coordinates (Angstroms)
 Number     Number       Type             X           Y           Z
 ---------------------------------------------------------------------
      1          6           0       -2.466106    0.921947    1.276493
      2          6           0       -2.426977   -0.387667    0.497532
      3         16           0       -1.453903   -0.321929   -1.065937
      4          1           0       -3.426623   -0.678384    0.163973
      5          1           0       -2.038136   -1.205121    1.108264
      6          6           0        0.217951   -0.140467   -0.442837
      7          1           0       -2.892245    1.725487    0.671751
      8          1           0       -1.464144    1.225931    1.587410
      9          1           0       -3.077545    0.808345    2.177934
     10          6           0        0.896222    1.070372   -0.611564
     11          6           0        0.875409   -1.216990    0.163731
     12          6           0        2.184735   -1.074692    0.614150
     13          6           0        2.857605    0.134888    0.443781
     14          6           0        2.213366    1.203553   -0.174365
     15          1           0        2.732083    2.145701   -0.312377
     16          1           0        0.387930    1.901744   -1.084774
     17          1           0        2.685185   -1.913525    1.085086
     18          1           0        3.880492    0.240761    0.786977
     19          1           0        0.362219   -2.165747    0.269227
 ---------------------------------------------------------------------

 SCF Done:  E(RHF) =  -706.446277279     A.U. after    2 cycles

 The electronic state is 1-A.
 Alpha  occ. eigenvalues --  -93.52832 -11.27452 -11.27003 -11.25283 -11.25235
 Alpha  occ. eigenvalues --  -11.25182 -11.25088 -11.25027 -11.23190  -8.82525
 Alpha  occ. eigenvalues --   -6.16735  -6.16488  -6.16182  -1.15273  -1.06487
 Alpha  occ. eigenvalues --   -1.01751  -1.01669  -0.92296  -0.84115  -0.83394
 Alpha  occ. eigenvalues --   -0.78388  -0.70233  -0.64217  -0.63738  -0.62616
 Alpha  occ. eigenvalues --   -0.59817  -0.59235  -0.56121  -0.53652  -0.51737
 Alpha  occ. eigenvalues --   -0.51191  -0.50572  -0.47490  -0.43626  -0.35866
 Alpha  occ. eigenvalues --   -0.34651  -0.32708
 Alpha virt. eigenvalues --    0.03339   0.03922   0.04141   0.05142   0.05456
 Alpha virt. eigenvalues --    0.05714   0.07170   0.07309   0.07833   0.08065
 Alpha virt. eigenvalues --    0.09624   0.10215   0.10612   0.12116   0.12429

 Mulliken charges:
               1
     1  C    0.313613
     2  C   -0.016693
     3  S    0.260893
     4  H   -0.105250
     5  H   -0.108637
     6  C    0.291205
     7  H   -0.065159
     8  H   -0.092742
     9  H   -0.077269
    10  C    0.305947
    11  C    0.207130
    12  C    0.516909
    13  C    0.491001
    14  C    0.447414
    15  H   -0.436729
    16  H   -0.521090
    17  H   -0.441102
    18  H   -0.439663
    19  H   -0.529778
 Sum of Mulliken charges =   0.00000

 Dipole moment (field-independent basis, Debye):
    X=              0.4531    Y=              0.1778    Z=              1.8296  Tot=              1.8933

 Test job not archived.
 1\1\GINC-SE165\SP\RHF\Aug-CC-pVDZ\C8H10S1\OHZDE\08-Apr-2025\0\\#t hf a
 ug-cc-pvdz iop(5/13=1,5/36=2,99/5=2) pseudo=read geom=check guess=(rea
 d,tcheck) scf=(maxcycle=1)\\title\\0,1\C,0,2.466106,-0.921947,1.276493
 \C,0,2.426977,0.387667,0.497532\S,0,1.453903,0.321929,-1.065937\H,0,3.
 426623,0.678384,0.163973\H,0,2.038136,1.205121,1.108264\C,0,-0.217951,
 0.140467,-0.442837\H,0,2.892245,-1.725487,0.671751\H,0,1.464144,-1.225
 931,1.58741\H,0,3.077545,-0.808345,2.177934\C,0,-0.896222,-1.070372,-0
 .611564\C,0,-0.875409,1.21699,0.163731\C,0,-2.184735,1.074692,0.61415\

 Normal termination of Gaussian 16 at Tue Apr  8 22:38:57 2025.
