 Gaussian 16, Revision C.01,

 ----------------------------------------------------------------------
 #t hf aug-cc-pvdz symm=none int=(grid=ultrafine) guess=(read,tcheck) s
 table=(opt,rrhf)
 ----------------------------------------------------------------------
 -----
 title
 -----
 Symbolic Z-matrix:
 Charge =  0 Multiplicity = 1

 SCF Done:  E(RHF) =  -1880.02208123     A.U. after   12 cycles
 Normal termination of Gaussian 16 at Wed Apr  9 00:49:38 2025.
 Gaussian 16:  ES64L-G16RevC.01  3-Jul-2019

 ----------------------------------------------------------------------
 #t hf aug-cc-pvdz iop(5/13=1,5/36=2,99/5=2) pseudo=read geom=check gue
 ss=(read,tcheck) scf=(maxcycle=1)
 ----------------------------------------------------------------------
 -----
 title
 -----
 Structure from the checkpoint file:  "BDE49_nonexpt_924_mol1.chk"
 Charge =  0 Multiplicity = 1

                         Standard orientation:
 ---------------------------------------------------------------------
 Center     Atomic      Atomic             Coordinates (Angstroms)
 Number     Number       Type             X           Y           Z
 ---------------------------------------------------------------------
      1         17           0       -3.041492   -0.323956    0.000001
      2         17           0        1.801324   -2.471979   -0.000001
      3         17           0        1.240189    2.795953   -0.000002
      4          7           0       -1.339601   -0.142692    0.000005
      5          7           0        0.793350   -1.088774    0.000004
      6          7           0        0.546218    1.231452    0.000004
      7          6           0       -0.861111    1.181739    0.000003
      8          6           0       -0.592877   -1.336620    0.000000
      9          6           0        1.453964    0.154864    0.000002
     10          8           0       -1.563643    2.145896   -0.000004
     11          8           0       -1.076568   -2.427124   -0.000004
     12          8           0        2.640214    0.281215   -0.000004
 ---------------------------------------------------------------------

 SCF Done:  E(RHF) =  -1880.23699340     A.U. after    2 cycles

 The electronic state is 1-A.
 Alpha  occ. eigenvalues -- -103.74587-103.74587-103.74586 -20.61401 -20.61401
 Alpha  occ. eigenvalues --  -20.61401 -15.78120 -15.78120 -15.78115 -11.48637
 Alpha  occ. eigenvalues --  -11.48637 -11.48618 -10.77461 -10.77458 -10.77458
 Alpha  occ. eigenvalues --   -8.43244  -8.43244  -8.43239  -8.42791  -8.42791
 Alpha  occ. eigenvalues --   -8.42788  -8.42758  -8.42757  -8.42757  -1.47462
 Alpha  occ. eigenvalues --   -1.44420  -1.44420  -1.33879  -1.31561  -1.31561
 Alpha  occ. eigenvalues --   -1.19300  -1.12001  -1.12001  -0.95141  -0.95141
 Alpha  occ. eigenvalues --   -0.87948  -0.76963  -0.75958  -0.73541  -0.71926
 Alpha  occ. eigenvalues --   -0.71926  -0.67208  -0.67208  -0.66987  -0.66986
 Alpha  occ. eigenvalues --   -0.57409  -0.57409  -0.56247  -0.56247  -0.54714
 Alpha  occ. eigenvalues --   -0.52784  -0.52783  -0.52623  -0.50355  -0.48055
 Alpha  occ. eigenvalues --   -0.44982  -0.44982
 Alpha virt. eigenvalues --    0.03169   0.05571   0.05786   0.05786   0.05912
 Alpha virt. eigenvalues --    0.08609   0.08609   0.10463   0.10581   0.10581
 Alpha virt. eigenvalues --    0.11543   0.11543   0.12291   0.12291   0.13719

 Mulliken charges:
               1
     1  Cl   0.397952
     2  Cl   0.397950
     3  Cl   0.397952
     4  N   -0.758651
     5  N   -0.758647
     6  N   -0.758644
     7  C    0.677053
     8  C    0.677057
     9  C    0.677042
    10  O   -0.316354
    11  O   -0.316357
    12  O   -0.316352
 Sum of Mulliken charges =  -0.00000

 Dipole moment (field-independent basis, Debye):
    X=             -0.0001    Y=              0.0000    Z=              0.0000  Tot=              0.0001

 Test job not archived.
 1\1\GINC-SE396\SP\RHF\Aug-CC-pVDZ\C3Cl3N3O3\OHZDE\09-Apr-2025\0\\#t hf
  aug-cc-pvdz iop(5/13=1,5/36=2,99/5=2) pseudo=read geom=check guess=(r
 ead,tcheck) scf=(maxcycle=1)\\title\\0,1\Cl,0,3.043244,-0.307059,-0.00
 0001\Cl,0,-1.787567,-2.481945,0.000001\Cl,0,-1.255698,2.789022,0.00000
 2\N,0,1.340373,-0.13525,-0.000005\N,0,-0.787291,-1.093164,-0.000004\N,
 0,-0.553049,1.228399,-0.000004\C,0,0.854534,1.186503,-0.000003\C,0,0.6
 00291,-1.333307,0.\C,0,-1.454802,0.146786,-0.000002\O,0,1.551701,2.154
 547,0.000004\O,0,1.090031,-2.421107,0.000004\O,0,-2.641735,0.266547,0.

 Normal termination of Gaussian 16 at Wed Apr  9 00:49:48 2025.
