 Gaussian 16, Revision C.01,

 ----------------------------------------------------------------------
 #t hf aug-cc-pvdz symm=none int=(grid=ultrafine) guess=(read,tcheck) s
 table=(opt,rrhf)
 ----------------------------------------------------------------------
 -----
 title
 -----
 Symbolic Z-matrix:
 Charge =  0 Multiplicity = 1

 SCF Done:  E(RHF) =  -1653.88717732     A.U. after   15 cycles
 Normal termination of Gaussian 16 at Wed Apr  9 00:23:53 2025.
 Gaussian 16:  ES64L-G16RevC.01  3-Jul-2019

 ----------------------------------------------------------------------
 #t hf aug-cc-pvdz iop(5/13=1,5/36=2,99/5=2) pseudo=read geom=check gue
 ss=(read,tcheck) scf=(maxcycle=1)
 ----------------------------------------------------------------------
 -----
 title
 -----
 Structure from the checkpoint file:  "BDE49_nonexpt_2752_mol1.chk"
 Charge =  0 Multiplicity = 1

                         Standard orientation:
 ---------------------------------------------------------------------
 Center     Atomic      Atomic             Coordinates (Angstroms)
 Number     Number       Type             X           Y           Z
 ---------------------------------------------------------------------
      1         16           0       -1.294716   -1.058339   -0.306191
      2         16           0        0.288600   -0.877618    0.991291
      3          6           0       -2.254268    0.413695    0.109153
      4         16           0        1.646411    0.361189   -0.104239
      5          9           0        2.287545   -0.739959   -1.113459
      6          8           0        0.964742    1.293235   -0.940194
      7          8           0        2.677056    0.702161    0.821766
      8          8           0       -2.033784    1.268582    0.881811
      9          9           0       -3.352346    0.362438   -0.670514
 ---------------------------------------------------------------------

 SCF Done:  E(RHF) =  -1654.16494143     A.U. after    2 cycles

 The electronic state is 1-A.
 Alpha  occ. eigenvalues --  -93.89903 -93.65899 -93.65362 -26.20507 -26.19624
 Alpha  occ. eigenvalues --  -20.64488 -20.63601 -20.63520 -11.50525  -9.15740
 Alpha  occ. eigenvalues --   -8.95432  -8.94939  -6.50328  -6.50269  -6.50021
 Alpha  occ. eigenvalues --   -6.29469  -6.29231  -6.29009  -6.28830  -6.28757
 Alpha  occ. eigenvalues --   -6.28411  -1.74935  -1.72828  -1.48909  -1.45366
 Alpha  occ. eigenvalues --   -1.39075  -1.13746  -1.02650  -0.95324  -0.90845
 Alpha  occ. eigenvalues --   -0.83368  -0.82022  -0.80894  -0.80457  -0.79682
 Alpha  occ. eigenvalues --   -0.76828  -0.71817  -0.70971  -0.67398  -0.62818
 Alpha  occ. eigenvalues --   -0.62472  -0.59855  -0.57217  -0.56342  -0.54234
 Alpha  occ. eigenvalues --   -0.52489  -0.45964  -0.45024
 Alpha virt. eigenvalues --    0.02230   0.03251   0.05703   0.07452   0.07997
 Alpha virt. eigenvalues --    0.08541   0.09321   0.09824   0.10610   0.10939
 Alpha virt. eigenvalues --    0.11544   0.11864   0.12994   0.13809   0.14290

 Mulliken charges:
               1
     1  S    0.245062
     2  S    0.085867
     3  C    0.305290
     4  S    2.124042
     5  F   -0.545020
     6  O   -0.853367
     7  O   -0.828082
     8  O   -0.252479
     9  F   -0.281313
 Sum of Mulliken charges =  -0.00000

 Dipole moment (field-independent basis, Debye):
    X=             -1.5877    Y=             -3.4927    Z=              0.4854  Tot=              3.8673

 Test job not archived.
 1\1\GINC-SE462\SP\RHF\Aug-CC-pVDZ\C1F2O3S3\OHZDE\09-Apr-2025\0\\#t hf
 aug-cc-pvdz iop(5/13=1,5/36=2,99/5=2) pseudo=read geom=check guess=(re
 ad,tcheck) scf=(maxcycle=1)\\title\\0,1\S,0,-1.294716,-1.058339,-0.306
 191\S,0,0.2886,-0.877618,0.991291\C,0,-2.254268,0.413695,0.109153\S,0,
 1.646411,0.361189,-0.104239\F,0,2.287545,-0.739959,-1.113459\O,0,0.964
 742,1.293235,-0.940194\O,0,2.677056,0.702161,0.821766\O,0,-2.033784,1.
 268582,0.881811\F,0,-3.352346,0.362438,-0.670514\\Version=ES64L-G16Rev
 C.01\State=1-A\HF=-1654.1649414\RMSD=4.582e-03\Dipole=-0.6246579,-1.37

 Normal termination of Gaussian 16 at Wed Apr  9 00:23:58 2025.
