 Gaussian 16, Revision C.01,

 ----------------------------------------------------------------------
 #t hf aug-cc-pvdz symm=none int=(grid=ultrafine) guess=(read,tcheck) s
 table=(opt,rrhf)
 ----------------------------------------------------------------------
 -----
 title
 -----
 Symbolic Z-matrix:
 Charge =  0 Multiplicity = 1

 SCF Done:  E(RHF) =  -1028.56329142     A.U. after   15 cycles
 Normal termination of Gaussian 16 at Wed Apr  9 00:18:44 2025.
 Gaussian 16:  ES64L-G16RevC.01  3-Jul-2019

 ----------------------------------------------------------------------
 #t hf aug-cc-pvdz iop(5/13=1,5/36=2,99/5=2) pseudo=read geom=check gue
 ss=(read,tcheck) scf=(maxcycle=1)
 ----------------------------------------------------------------------
 -----
 title
 -----
 Structure from the checkpoint file:  "BDE49_nonexpt_2612_mol1.chk"
 Charge =  0 Multiplicity = 1

                         Standard orientation:
 ---------------------------------------------------------------------
 Center     Atomic      Atomic             Coordinates (Angstroms)
 Number     Number       Type             X           Y           Z
 ---------------------------------------------------------------------
      1         17           0        2.227133    0.624532    0.000063
      2          7           0       -0.636120   -0.802942   -0.000033
      3          6           0       -1.238483    1.587892   -0.000019
      4          6           0       -1.525030    0.109080   -0.000019
      5          6           0       -2.972224   -0.313743    0.000008
      6         16           0        0.912800   -1.123843   -0.000040
      7          1           0       -0.173620    1.804825   -0.000018
      8          1           0       -1.696540    2.052183    0.879802
      9          1           0       -1.696538    2.052185   -0.879841
     10          1           0       -3.061635   -1.399077    0.000002
     11          1           0       -3.485253    0.087783   -0.880448
     12          1           0       -3.485220    0.087769    0.880490
 ---------------------------------------------------------------------

 SCF Done:  E(RHF) =  -1028.66157161     A.U. after    2 cycles

 The electronic state is 1-A.
 Alpha  occ. eigenvalues -- -103.64843 -93.63273 -15.67994 -11.33691 -11.25870
 Alpha  occ. eigenvalues --  -11.25594 -10.68004  -8.92097  -8.33702  -8.33431
 Alpha  occ. eigenvalues --   -8.33387  -6.26316  -6.25867  -6.25408  -1.25160
 Alpha  occ. eigenvalues --   -1.12588  -1.06101  -0.97260  -0.93589  -0.72304
 Alpha  occ. eigenvalues --   -0.66358  -0.64440  -0.63523  -0.57690  -0.56838
 Alpha  occ. eigenvalues --   -0.54794  -0.53792  -0.50893  -0.46682  -0.45102
 Alpha  occ. eigenvalues --   -0.41290  -0.33943
 Alpha virt. eigenvalues --    0.02827   0.04308   0.04726   0.05183   0.06017
 Alpha virt. eigenvalues --    0.07527   0.08016   0.08825   0.10154   0.10331
 Alpha virt. eigenvalues --    0.12530   0.13417   0.13845   0.14272   0.14934

 Mulliken charges:
               1
     1  Cl  -0.425686
     2  N   -0.637199
     3  C    0.569644
     4  C   -0.557151
     5  C    0.434685
     6  S    0.748642
     7  H   -0.198455
     8  H    0.074798
     9  H    0.074807
    10  H   -0.169230
    11  H    0.042573
    12  H    0.042573
 Sum of Mulliken charges =  -0.00000

 Dipole moment (field-independent basis, Debye):
    X=             -4.2741    Y=              0.6700    Z=             -0.0001  Tot=              4.3262

 Test job not archived.
 1\1\GINC-SE435\SP\RHF\Aug-CC-pVDZ\C3H6Cl1N1S1\OHZDE\09-Apr-2025\0\\#t
 hf aug-cc-pvdz iop(5/13=1,5/36=2,99/5=2) pseudo=read geom=check guess=
 (read,tcheck) scf=(maxcycle=1)\\title\\0,1\Cl,0,2.227133,0.624532,0.00
 0063\N,0,-0.63612,-0.802942,-0.000033\C,0,-1.238483,1.587892,-0.000019
 \C,0,-1.52503,0.10908,-0.000019\C,0,-2.972224,-0.313743,0.000008\S,0,0
 .9128,-1.123843,-0.00004\H,0,-0.17362,1.804825,-0.000018\H,0,-1.69654,
 2.052183,0.879802\H,0,-1.696538,2.052185,-0.879841\H,0,-3.061635,-1.39
 9077,0.000002\H,0,-3.485253,0.087783,-0.880448\H,0,-3.48522,0.087769,0

 Normal termination of Gaussian 16 at Wed Apr  9 00:18:48 2025.
