 Gaussian 16, Revision C.01,

 ----------------------------------------------------------------------
 #t hf aug-cc-pvdz symm=none int=(grid=ultrafine) guess=(read,tcheck) s
 table=(opt,rrhf)
 ----------------------------------------------------------------------
 -----
 title
 -----
 Symbolic Z-matrix:
 Charge =  0 Multiplicity = 1

 SCF Done:  E(RHF) =  -443.488559957     A.U. after   15 cycles
 Normal termination of Gaussian 16 at Tue Apr  8 22:41:16 2025.
 Gaussian 16:  ES64L-G16RevC.01  3-Jul-2019

 ----------------------------------------------------------------------
 #t hf aug-cc-pvdz iop(5/13=1,5/36=2,99/5=2) pseudo=read geom=check gue
 ss=(read,tcheck) scf=(maxcycle=1)
 ----------------------------------------------------------------------
 -----
 title
 -----
 Structure from the checkpoint file:  "BDE49_expt_1398_mol1.chk"
 Charge =  0 Multiplicity = 1

                         Standard orientation:
 ---------------------------------------------------------------------
 Center     Atomic      Atomic             Coordinates (Angstroms)
 Number     Number       Type             X           Y           Z
 ---------------------------------------------------------------------
      1          6           0       -1.975058   -0.649765    0.000000
      2          6           0       -1.377669    0.596898    0.000000
      3          6           0        0.000000    0.779352    0.000000
      4          6           0       -1.137536   -1.768155    0.000000
      5          6           0        0.242359   -1.631982    0.000000
      6          6           0        0.817980   -0.353619    0.000000
      7          1           0       -3.053593   -0.734657    0.000000
      8          9           0       -2.158717    1.701883    0.000000
      9          1           0        0.390838    1.786622    0.000000
     10          1           0       -1.574692   -2.759854    0.000000
     11          1           0        0.898285   -2.493074    0.000000
     12          8           0        2.177408   -0.312547    0.000000
     13          6           0        2.819005    0.955301    0.000000
     14          1           0        3.887549    0.747351    0.000000
     15          1           0        2.563160    1.534437    0.894234
     16          1           0        2.563160    1.534437   -0.894234
 ---------------------------------------------------------------------

 SCF Done:  E(RHF) =  -443.630445226     A.U. after    2 cycles

 The electronic state is 1-A'.
 Alpha  occ. eigenvalues --  -26.13534 -20.60970 -11.34574 -11.32750 -11.30446
 Alpha  occ. eigenvalues --  -11.26306 -11.25052 -11.24479 -11.24206  -1.67317
 Alpha  occ. eigenvalues --   -1.38020  -1.15479  -1.03381  -1.02772  -0.95558
 Alpha  occ. eigenvalues --   -0.86917  -0.84651  -0.77543  -0.74937  -0.74748
 Alpha  occ. eigenvalues --   -0.69910  -0.67879  -0.67443  -0.66554  -0.61945
 Alpha  occ. eigenvalues --   -0.59158  -0.55192  -0.54076  -0.53272  -0.51479
 Alpha  occ. eigenvalues --   -0.48565  -0.35419  -0.32887
 Alpha virt. eigenvalues --    0.03276   0.03864   0.04554   0.05526   0.05679
 Alpha virt. eigenvalues --    0.06041   0.08161   0.09746   0.10382   0.11263
 Alpha virt. eigenvalues --    0.11561   0.12664   0.13536   0.13557   0.14054

 Mulliken charges:
               1
     1  C    0.546188
     2  C    0.110829
     3  C    0.445030
     4  C    0.586361
     5  C    0.399770
     6  C    0.633261
     7  H   -0.421517
     8  F   -0.351782
     9  H   -0.664275
    10  H   -0.422501
    11  H   -0.520993
    12  O   -0.705949
    13  C    0.817613
    14  H   -0.305454
    15  H   -0.073289
    16  H   -0.073289
 Sum of Mulliken charges =  -0.00000

 Dipole moment (field-independent basis, Debye):
    X=              1.5207    Y=             -0.2383    Z=              0.0000  Tot=              1.5393

 Test job not archived.
 1\1\GINC-SE249\SP\RHF\Aug-CC-pVDZ\C7H7F1O1\OHZDE\08-Apr-2025\0\\#t hf
 aug-cc-pvdz iop(5/13=1,5/36=2,99/5=2) pseudo=read geom=check guess=(re
 ad,tcheck) scf=(maxcycle=1)\\title\\0,1\C,0,-1.975058,-0.649765,0.\C,0
 ,-1.377669,0.596898,0.\C,0,0.,0.779352,0.\C,0,-1.137536,-1.768155,0.\C
 ,0,0.242359,-1.631982,0.\C,0,0.81798,-0.353619,0.\H,0,-3.053593,-0.734
 657,0.\F,0,-2.158717,1.701883,0.\H,0,0.390838,1.786622,0.\H,0,-1.57469
 2,-2.759854,0.\H,0,0.898285,-2.493074,0.\O,0,2.177408,-0.312547,0.\C,0
 ,2.819005,0.955301,0.\H,0,3.887549,0.747352,0.\H,0,2.56316,1.534437,0.

 Normal termination of Gaussian 16 at Tue Apr  8 22:41:24 2025.
