 Gaussian 16, Revision C.01,

 ----------------------------------------------------------------------
 #t hf aug-cc-pvdz symm=none int=(grid=ultrafine) guess=(read,tcheck) s
 table=(opt,rrhf)
 ----------------------------------------------------------------------
 -----
 title
 -----
 Symbolic Z-matrix:
 Charge =  0 Multiplicity = 1

 SCF Done:  E(RHF) =  -514.637634289     A.U. after   13 cycles
 Normal termination of Gaussian 16 at Tue Apr  8 23:36:24 2025.
 Gaussian 16:  ES64L-G16RevC.01  3-Jul-2019

 ----------------------------------------------------------------------
 #t hf aug-cc-pvdz iop(5/13=1,5/36=2,99/5=2) pseudo=read geom=check gue
 ss=(read,tcheck) scf=(maxcycle=1)
 ----------------------------------------------------------------------
 -----
 title
 -----
 Structure from the checkpoint file:  "BDE49_nonexpt_1544_mol1.chk"
 Charge =  0 Multiplicity = 1

                         Standard orientation:
 ---------------------------------------------------------------------
 Center     Atomic      Atomic             Coordinates (Angstroms)
 Number     Number       Type             X           Y           Z
 ---------------------------------------------------------------------
      1          7           0        2.019628    0.413959    0.310330
      2         15           0        0.823838   -0.595214   -0.393259
      3          6           0       -0.737194    0.109971    0.364558
      4          6           0       -1.021372    1.499483   -0.217619
      5          1           0       -1.214983    1.440055   -1.293680
      6          1           0       -0.172351    2.169206   -0.064615
      7          6           0       -1.901747   -0.861650    0.130233
      8          1           0       -1.900639    1.946944    0.257221
      9          1           0       -0.571964    0.208864    1.444443
     10          1           0       -2.826046   -0.465949    0.562271
     11          1           0       -2.077462   -1.015714   -0.939392
     12          1           0       -1.715804   -1.839857    0.583109
     13          1           0        0.862846   -1.752491    0.442002
     14          1           0        2.215267    0.347271    1.300584
     15          1           0        2.868051    0.505344   -0.228409
 ---------------------------------------------------------------------

 SCF Done:  E(RHF) =  -514.720545352     A.U. after    2 cycles

 The electronic state is 1-A.
 Alpha  occ. eigenvalues --  -81.26412 -15.61302 -11.23867 -11.22788 -11.22113
 Alpha  occ. eigenvalues --   -7.76402  -4.90531  -4.90326  -4.90045  -1.11570
 Alpha  occ. eigenvalues --   -1.04955  -0.92623  -0.82036  -0.72541  -0.66246
 Alpha  occ. eigenvalues --   -0.62285  -0.59331  -0.58712  -0.54012  -0.53131
 Alpha  occ. eigenvalues --   -0.48419  -0.48157  -0.45438  -0.39000  -0.33281
 Alpha virt. eigenvalues --    0.03400   0.04204   0.04878   0.05095   0.06706
 Alpha virt. eigenvalues --    0.07064   0.07194   0.07809   0.08352   0.09248
 Alpha virt. eigenvalues --    0.11115   0.11872   0.13030   0.14755   0.15463

 Mulliken charges:
               1
     1  N   -0.473519
     2  P    0.790672
     3  C   -0.818444
     4  C    0.516057
     5  H   -0.055935
     6  H   -0.081794
     7  C    0.568532
     8  H   -0.052381
     9  H   -0.143194
    10  H   -0.056240
    11  H   -0.040100
    12  H   -0.135330
    13  H    0.039346
    14  H   -0.039766
    15  H   -0.017902
 Sum of Mulliken charges =  -0.00000

 Dipole moment (field-independent basis, Debye):
    X=              0.5067    Y=              0.0741    Z=              1.4357  Tot=              1.5243

 Test job not archived.
 1\1\GINC-SE226\SP\RHF\Aug-CC-pVDZ\C3H10N1P1\OHZDE\08-Apr-2025\0\\#t hf
  aug-cc-pvdz iop(5/13=1,5/36=2,99/5=2) pseudo=read geom=check guess=(r
 ead,tcheck) scf=(maxcycle=1)\\title\\0,1\N,0,2.019628,0.413958,0.31033
 \P,0,0.823838,-0.595214,-0.393259\C,0,-0.737194,0.109971,0.364558\C,0,
 -1.021371,1.499483,-0.217619\H,0,-1.214982,1.440055,-1.29368\H,0,-0.17
 235,2.169206,-0.064615\C,0,-1.901747,-0.86165,0.130233\H,0,-1.900638,1
 .946944,0.257221\H,0,-0.571964,0.208864,1.444443\H,0,-2.826046,-0.4659
 49,0.562271\H,0,-2.077462,-1.015714,-0.939392\H,0,-1.715804,-1.839857,

 Normal termination of Gaussian 16 at Tue Apr  8 23:36:29 2025.
