 Gaussian 16, Revision C.01,

 ----------------------------------------------------------------------
 #t hf aug-cc-pvdz symm=none int=(grid=ultrafine) guess=(read,tcheck) s
 table=(opt,rrhf)
 ----------------------------------------------------------------------
 -----
 title
 -----
 Symbolic Z-matrix:
 Charge =  0 Multiplicity = 1

 SCF Done:  E(RHF) =  -976.891449272     A.U. after   13 cycles
 Normal termination of Gaussian 16 at Tue Apr  8 23:47:22 2025.
 Gaussian 16:  ES64L-G16RevC.01  3-Jul-2019

 ----------------------------------------------------------------------
 #t hf aug-cc-pvdz iop(5/13=1,5/36=2,99/5=2) pseudo=read geom=check gue
 ss=(read,tcheck) scf=(maxcycle=1)
 ----------------------------------------------------------------------
 -----
 title
 -----
 Structure from the checkpoint file:  "BDE49_nonexpt_1816_mol1.chk"
 Charge =  0 Multiplicity = 1

                         Standard orientation:
 ---------------------------------------------------------------------
 Center     Atomic      Atomic             Coordinates (Angstroms)
 Number     Number       Type             X           Y           Z
 ---------------------------------------------------------------------
      1          6           0        0.887744    0.491226   -0.000076
      2          8           0        1.667082    1.415961    0.000032
      3         14           0       -0.984008    0.883455    0.000007
      4          8           0        1.240235   -0.801248   -0.000030
      5         17           0       -2.191376   -0.803815    0.000005
      6          6           0        2.661985   -1.073571    0.000018
      7          1           0        2.746851   -2.156957    0.000052
      8          1           0        3.127539   -0.647267    0.889236
      9          1           0        3.127589   -0.647318   -0.889199
     10          1           0       -1.264733    1.662228   -1.217335
     11          1           0       -1.264655    1.662174    1.217403
 ---------------------------------------------------------------------

 SCF Done:  E(RHF) =  -977.008583262     A.U. after    2 cycles

 The electronic state is 1-A.
 Alpha  occ. eigenvalues -- -103.66265 -69.13471 -20.63265 -20.58220 -11.39545
 Alpha  occ. eigenvalues --  -11.30848 -10.69707  -8.35401  -8.35168  -8.35165
 Alpha  occ. eigenvalues --   -6.88317  -3.99183  -3.99051  -3.99007  -1.43126
 Alpha  occ. eigenvalues --   -1.33963  -1.14627  -0.99311  -0.82100  -0.76648
 Alpha  occ. eigenvalues --   -0.70315  -0.69250  -0.67155  -0.59021  -0.57705
 Alpha  occ. eigenvalues --   -0.55040  -0.53770  -0.53732  -0.49893  -0.49353
 Alpha  occ. eigenvalues --   -0.46701  -0.44412
 Alpha virt. eigenvalues --    0.03429   0.04565   0.05093   0.05332   0.06131
 Alpha virt. eigenvalues --    0.06594   0.07058   0.08552   0.10589   0.11000
 Alpha virt. eigenvalues --    0.12155   0.13337   0.14394   0.14532   0.15163

 Mulliken charges:
               1
     1  C    0.330310
     2  O   -0.474512
     3  Si   0.767205
     4  O   -0.505263
     5  Cl  -0.491521
     6  C    0.764410
     7  H   -0.231976
     8  H   -0.066307
     9  H   -0.066306
    10  H   -0.013016
    11  H   -0.013025
 Sum of Mulliken charges =   0.00000

 Dipole moment (field-independent basis, Debye):
    X=              0.6995    Y=             -0.8266    Z=             -0.0001  Tot=              1.0828

 Test job not archived.
 1\1\GINC-SE419\SP\RHF\Aug-CC-pVDZ\C2H5Cl1O2Si1\OHZDE\08-Apr-2025\0\\#t
  hf aug-cc-pvdz iop(5/13=1,5/36=2,99/5=2) pseudo=read geom=check guess
 =(read,tcheck) scf=(maxcycle=1)\\title\\0,1\C,0,-0.887744,0.491226,0.0
 00076\O,0,-1.667082,1.415961,-0.000032\Si,0,0.984008,0.883455,-0.00000
 7\O,0,-1.240235,-0.801248,0.00003\Cl,0,2.191376,-0.803815,-0.000005\C,
 0,-2.661985,-1.073571,-0.000018\H,0,-2.746851,-2.156957,-0.000052\H,0,
 -3.127539,-0.647267,-0.889236\H,0,-3.127589,-0.647318,0.889199\H,0,1.2
 64733,1.662228,1.217335\H,0,1.264655,1.662174,-1.217403\\Version=ES64L

 Normal termination of Gaussian 16 at Tue Apr  8 23:47:26 2025.
