 Gaussian 16, Revision C.01,

 ----------------------------------------------------------------------
 #t hf aug-cc-pvdz symm=none int=(grid=ultrafine) guess=(read,tcheck) s
 table=(opt,rrhf)
 ----------------------------------------------------------------------
 -----
 title
 -----
 Symbolic Z-matrix:
 Charge =  0 Multiplicity = 1

 SCF Done:  E(RHF) =  -1376.48450536     A.U. after   12 cycles

 1\1\GINC-SE058\Stability\RHF\Aug-CC-pVDZ\H6S2Si2\OHZDE\09-Apr-2025\0\\
 #t hf aug-cc-pvdz symm=none int=(grid=ultrafine) guess=(read,tcheck) s
 table=(opt,rrhf)\\title\\0,1\Si,0,1.132637,0.939402,0.335575\Si,0,-1.1
 32637,0.939402,-0.335575\S,0,-2.119819,-0.913038,0.225143\H,0,-1.23971
 1,1.1617,-1.796844\H,0,-1.899402,1.985873,0.379867\H,0,-1.379351,-1.69
 0605,-0.586478\S,0,2.119819,-0.913038,-0.225143\H,0,1.239711,1.1617,1.
 796844\H,0,1.899402,1.985873,-0.379867\H,0,1.379351,-1.690605,0.586478
 \\Version=ES64L-G16RevC.01\HF=-1376.4845054\RMSD=2.039e-09\Dipole=0.,0

 Normal termination of Gaussian 16 at Wed Apr  9 00:11:35 2025.
 Gaussian 16:  ES64L-G16RevC.01  3-Jul-2019

 ----------------------------------------------------------------------
 #t hf aug-cc-pvdz iop(5/13=1,5/36=2,99/5=2) pseudo=read geom=check gue
 ss=(read,tcheck) scf=(maxcycle=1)
 ----------------------------------------------------------------------
 -----
 title
 -----
 Structure from the checkpoint file:  "BDE49_nonexpt_2415_mol1.chk"
 Charge =  0 Multiplicity = 1

                         Standard orientation:
 ---------------------------------------------------------------------
 Center     Atomic      Atomic             Coordinates (Angstroms)
 Number     Number       Type             X           Y           Z
 ---------------------------------------------------------------------
      1         14           0       -0.851188   -0.819119    0.939402
      2         14           0        0.851188    0.819119    0.939402
      3         16           0        0.851188    1.954431   -0.913038
      4          1           0        2.174680    0.190518    1.161700
      5          1           0        0.607790    1.839190    1.985873
      6          1           0        1.191204    0.909725   -1.690605
      7         16           0       -0.851188   -1.954431   -0.913038
      8          1           0       -2.174680   -0.190518    1.161700
      9          1           0       -0.607790   -1.839190    1.985873
     10          1           0       -1.191204   -0.909725   -1.690605
 ---------------------------------------------------------------------

 SCF Done:  E(RHF) =  -1376.56356265     A.U. after    2 cycles

 The electronic state is 1-A.
 Alpha  occ. eigenvalues --  -93.53982 -93.53981 -69.09943 -69.09943  -8.83874
 Alpha  occ. eigenvalues --   -8.83874  -6.85054  -6.85050  -6.18018  -6.18016
 Alpha  occ. eigenvalues --   -6.17809  -6.17802  -6.17517  -6.17513  -3.95854
 Alpha  occ. eigenvalues --   -3.95847  -3.95777  -3.95774  -3.95749  -3.95680
 Alpha  occ. eigenvalues --   -0.96327  -0.95418  -0.72938  -0.66300  -0.55620
 Alpha  occ. eigenvalues --   -0.55533  -0.49892  -0.49346  -0.47794  -0.44714
 Alpha  occ. eigenvalues --   -0.42979  -0.38507  -0.35833
 Alpha virt. eigenvalues --    0.03798   0.04246   0.04516   0.06092   0.06760
 Alpha virt. eigenvalues --    0.06874   0.07377   0.08025   0.08170   0.09599
 Alpha virt. eigenvalues --    0.10332   0.10628   0.11808   0.11835   0.12373

 Mulliken charges:
               1
     1  Si   0.348390
     2  Si   0.348390
     3  S   -0.475527
     4  H    0.035971
     5  H    0.005219
     6  H    0.085948
     7  S   -0.475527
     8  H    0.035971
     9  H    0.005219
    10  H    0.085948
 Sum of Mulliken charges =  -0.00000

 Dipole moment (field-independent basis, Debye):
    X=             -0.0000    Y=             -0.0000    Z=              0.7977  Tot=              0.7977

 Test job not archived.
 1\1\GINC-SE058\SP\RHF\Aug-CC-pVDZ\H6S2Si2\OHZDE\09-Apr-2025\0\\#t hf a
 ug-cc-pvdz iop(5/13=1,5/36=2,99/5=2) pseudo=read geom=check guess=(rea
 d,tcheck) scf=(maxcycle=1)\\title\\0,1\Si,0,1.132637,0.939402,0.335575
 \Si,0,-1.132637,0.939402,-0.335575\S,0,-2.119819,-0.913038,0.225143\H,
 0,-1.239711,1.1617,-1.796844\H,0,-1.899402,1.985873,0.379867\H,0,-1.37
 9351,-1.690605,-0.586478\S,0,2.119819,-0.913038,-0.225143\H,0,1.239711
 ,1.1617,1.796844\H,0,1.899402,1.985873,-0.379867\H,0,1.379351,-1.69060
 5,0.586478\\Version=ES64L-G16RevC.01\State=1-A\HF=-1376.5635627\RMSD=7

 Normal termination of Gaussian 16 at Wed Apr  9 00:11:38 2025.
