 Gaussian 16, Revision C.01,

 ----------------------------------------------------------------------
 #t hf aug-cc-pvdz symm=none int=(grid=ultrafine) guess=(read,tcheck) s
 table=(opt,rrhf)
 ----------------------------------------------------------------------
 -----
 title
 -----
 Symbolic Z-matrix:
 Charge =  0 Multiplicity = 1

 SCF Done:  E(RHF) =  -1156.98193525     A.U. after   12 cycles
 Normal termination of Gaussian 16 at Tue Apr  8 23:36:11 2025.
 Gaussian 16:  ES64L-G16RevC.01  3-Jul-2019

 ----------------------------------------------------------------------
 #t hf aug-cc-pvdz iop(5/13=1,5/36=2,99/5=2) pseudo=read geom=check gue
 ss=(read,tcheck) scf=(maxcycle=1)
 ----------------------------------------------------------------------
 -----
 title
 -----
 Structure from the checkpoint file:  "BDE49_nonexpt_1445_mol1.chk"
 Charge =  0 Multiplicity = 1

                         Standard orientation:
 ---------------------------------------------------------------------
 Center     Atomic      Atomic             Coordinates (Angstroms)
 Number     Number       Type             X           Y           Z
 ---------------------------------------------------------------------
      1         15           0        0.002115   -1.323482    0.092200
      2         14           0       -1.839298    0.027395   -0.005006
      3          6           0       -1.718394    1.529637   -1.141111
      4          1           0       -0.963611    2.242422   -0.798954
      5          1           0       -2.680118    2.054039   -1.167463
      6          1           0       -1.468755    1.239571   -2.165273
      7          6           0       -2.203086    0.606545    1.752134
      8          1           0       -1.405740    1.242583    2.146290
      9          1           0       -2.318329   -0.243243    2.430561
     10          1           0       -3.132507    1.185128    1.777627
     11          6           0       -3.246982   -1.072528   -0.609809
     12          1           0       -3.070083   -1.421954   -1.631066
     13          1           0       -4.192798   -0.520258   -0.605109
     14          1           0       -3.367037   -1.951875    0.028620
     15         14           0        1.844616    0.029431   -0.005110
     16          6           0        2.032742    0.960225   -1.634830
     17          1           0        2.065224    0.266448   -2.479856
     18          1           0        2.968645    1.530019   -1.636950
     19          1           0        1.212673    1.660204   -1.808170
     20          6           0        3.332804   -1.110089    0.202971
     21          1           0        3.378898   -1.853788   -0.598019
     22          1           0        3.289535   -1.648701    1.153415
     23          1           0        4.265489   -0.536246    0.179639
     24          6           0        1.791824    1.248453    1.433357
     25          1           0        0.986617    1.979559    1.321141
     26          1           0        2.735047    1.801676    1.492257
     27          1           0        1.649158    0.734119    2.387950
     28          1           0        0.008052   -1.676483   -1.284295
 ---------------------------------------------------------------------

 SCF Done:  E(RHF) =  -1157.12591443     A.U. after    2 cycles

 The electronic state is 1-A.
 Alpha  occ. eigenvalues --  -81.21453 -69.05896 -69.05880 -11.21389 -11.21367
 Alpha  occ. eigenvalues --  -11.21212 -11.21031 -11.20965 -11.20818  -7.72147
 Alpha  occ. eigenvalues --   -6.80951  -6.80937  -4.86169  -4.86075  -4.85860
 Alpha  occ. eigenvalues --   -3.91725  -3.91704  -3.91693  -3.91680  -3.91676
 Alpha  occ. eigenvalues --   -3.91670  -0.96526  -0.95748  -0.92287  -0.92004
 Alpha  occ. eigenvalues --   -0.91835  -0.91755  -0.76232  -0.62186  -0.60155
 Alpha  occ. eigenvalues --   -0.57904  -0.57349  -0.56815  -0.56535  -0.56239
 Alpha  occ. eigenvalues --   -0.56091  -0.55111  -0.54440  -0.54175  -0.54002
 Alpha  occ. eigenvalues --   -0.53464  -0.53172  -0.46040  -0.43900  -0.43468
 Alpha  occ. eigenvalues --   -0.43320  -0.42149  -0.37031  -0.31557
 Alpha virt. eigenvalues --    0.02698   0.03748   0.04412   0.04789   0.05650
 Alpha virt. eigenvalues --    0.05710   0.05874   0.06420   0.06612   0.07466
 Alpha virt. eigenvalues --    0.07669   0.07924   0.08019   0.08182   0.09251

 Mulliken charges:
               1
     1  P   -0.782506
     2  Si   1.239672
     3  C    0.735324
     4  H   -0.339025
     5  H   -0.309466
     6  H   -0.325365
     7  C    0.631125
     8  H   -0.362202
     9  H   -0.320235
    10  H   -0.262898
    11  C    0.548606
    12  H   -0.341860
    13  H   -0.344342
    14  H   -0.302019
    15  Si   1.238215
    16  C    0.689365
    17  H   -0.351780
    18  H   -0.241020
    19  H   -0.390672
    20  C    0.550722
    21  H   -0.319409
    22  H   -0.314709
    23  H   -0.317362
    24  C    0.707021
    25  H   -0.367031
    26  H   -0.309145
    27  H   -0.327660
    28  H    0.288653
 Sum of Mulliken charges =  -0.00000

 Dipole moment (field-independent basis, Debye):
    X=              0.0060    Y=              1.3967    Z=             -0.4432  Tot=              1.4653

 Test job not archived.
 1\1\GINC-SE054\SP\RHF\Aug-CC-pVDZ\C6H19P1Si2\OHZDE\08-Apr-2025\0\\#t h
 f aug-cc-pvdz iop(5/13=1,5/36=2,99/5=2) pseudo=read geom=check guess=(
 read,tcheck) scf=(maxcycle=1)\\title\\0,1\P,0,0.002115,-1.323482,0.092
 2\Si,0,-1.839298,0.027395,-0.005006\C,0,-1.718394,1.529637,-1.141111\H
 ,0,-0.963611,2.242422,-0.798954\H,0,-2.680118,2.054039,-1.167463\H,0,-
 1.468755,1.239571,-2.165273\C,0,-2.203086,0.606545,1.752134\H,0,-1.405
 74,1.242583,2.14629\H,0,-2.318329,-0.243243,2.430561\H,0,-3.132507,1.1
 85128,1.777627\C,0,-3.246982,-1.072528,-0.609809\H,0,-3.070083,-1.4219

 Normal termination of Gaussian 16 at Tue Apr  8 23:36:34 2025.
