 Gaussian 16, Revision C.01,

 ----------------------------------------------------------------------
 #t hf aug-cc-pvdz symm=none int=(grid=ultrafine) guess=(read,tcheck) s
 table=(opt,rrhf)
 ----------------------------------------------------------------------
 -----
 title
 -----
 Symbolic Z-matrix:
 Charge =  0 Multiplicity = 1

 SCF Done:  E(RHF) =  -636.356372073     A.U. after   16 cycles
 Normal termination of Gaussian 16 at Wed Apr  9 00:44:12 2025.
 Gaussian 16:  ES64L-G16RevC.01  3-Jul-2019

 ----------------------------------------------------------------------
 #t hf aug-cc-pvdz iop(5/13=1,5/36=2,99/5=2) pseudo=read geom=check gue
 ss=(read,tcheck) scf=(maxcycle=1)
 ----------------------------------------------------------------------
 -----
 title
 -----
 Structure from the checkpoint file:  "BDE49_nonexpt_760_mol1.chk"
 Charge =  0 Multiplicity = 1

                         Standard orientation:
 ---------------------------------------------------------------------
 Center     Atomic      Atomic             Coordinates (Angstroms)
 Number     Number       Type             X           Y           Z
 ---------------------------------------------------------------------
      1         15           0       -2.437631   -0.450418   -0.379292
      2          5           0       -0.969922    0.713158   -0.159024
      3          6           0        0.520283    0.310815   -0.064066
      4          6           0        1.506034    1.319773   -0.059343
      5          6           0        0.964903   -1.024885    0.027697
      6          6           0        2.315698   -1.336255    0.114464
      7          6           0        3.266596   -0.314085    0.119249
      8          6           0        2.860585    1.016276    0.033790
      9          1           0        4.321494   -0.556252    0.190056
     10          1           0        3.598597    1.810768    0.037234
     11          1           0        1.193887    2.356131   -0.131415
     12          1           0        0.238932   -1.830840    0.032369
     13          1           0        2.632822   -2.371078    0.181077
     14          6           0       -3.875880    0.345991    0.495739
     15          1           0       -3.694978    0.506339    1.558587
     16          1           0       -4.765006   -0.274372    0.372610
     17          1           0       -4.068532    1.310487    0.022055
     18          1           0       -1.237445    1.875419   -0.255655
     19          1           0       -2.155005   -1.541900    0.472410
 ---------------------------------------------------------------------

 SCF Done:  E(RHF) =  -636.463986320     A.U. after    2 cycles

 The electronic state is 1-A.
 Alpha  occ. eigenvalues --  -81.23138 -11.25957 -11.25564 -11.25537 -11.24814
 Alpha  occ. eigenvalues --  -11.24775 -11.24013 -11.22914  -7.73798  -7.61285
 Alpha  occ. eigenvalues --   -4.87871  -4.87812  -4.87514  -1.14479  -1.01556
 Alpha  occ. eigenvalues --   -1.01376  -0.95918  -0.83688  -0.83097  -0.76443
 Alpha  occ. eigenvalues --   -0.71260  -0.65853  -0.63590  -0.61835  -0.59661
 Alpha  occ. eigenvalues --   -0.58136  -0.57424  -0.54429  -0.51032  -0.50152
 Alpha  occ. eigenvalues --   -0.49133  -0.46245  -0.43834  -0.35721  -0.34533
 Alpha  occ. eigenvalues --   -0.31502
 Alpha virt. eigenvalues --    0.03135   0.03725   0.04051   0.04678   0.05244
 Alpha virt. eigenvalues --    0.05482   0.05654   0.06983   0.07282   0.07443
 Alpha virt. eigenvalues --    0.08454   0.09135   0.09589   0.09957   0.10691

 Mulliken charges:
               1
     1  P   -0.038177
     2  B   -0.337607
     3  C   -0.343589
     4  C    0.549080
     5  C    0.872385
     6  C    0.441618
     7  C    0.741720
     8  C    0.470040
     9  H   -0.435728
    10  H   -0.443628
    11  H   -0.613480
    12  H   -0.606918
    13  H   -0.464129
    14  C    0.194302
    15  H   -0.155663
    16  H   -0.192782
    17  H   -0.160048
    18  H    0.312156
    19  H    0.210449
 Sum of Mulliken charges =  -0.00000

 Dipole moment (field-independent basis, Debye):
    X=              0.7393    Y=              0.1439    Z=              1.1240  Tot=              1.3530

 Test job not archived.
 1\1\GINC-SE097\SP\RHF\Aug-CC-pVDZ\C7H10B1P1\OHZDE\09-Apr-2025\0\\#t hf
  aug-cc-pvdz iop(5/13=1,5/36=2,99/5=2) pseudo=read geom=check guess=(r
 ead,tcheck) scf=(maxcycle=1)\\title\\0,1\P,0,-2.437631,-0.450418,-0.37
 9292\B,0,-0.969922,0.713158,-0.159024\C,0,0.520283,0.310815,-0.064066\
 C,0,1.506034,1.319773,-0.059343\C,0,0.964903,-1.024885,0.027697\C,0,2.
 315698,-1.336255,0.114464\C,0,3.266596,-0.314085,0.119249\C,0,2.860585
 ,1.016276,0.03379\H,0,4.321494,-0.556252,0.190056\H,0,3.598597,1.81076
 8,0.037234\H,0,1.193887,2.356131,-0.131415\H,0,0.238932,-1.83084,0.032

 Normal termination of Gaussian 16 at Wed Apr  9 00:44:22 2025.
