 Gaussian 16, Revision C.01,

 ----------------------------------------------------------------------
 #t hf aug-cc-pvdz symm=none int=(grid=ultrafine) guess=(read,tcheck) s
 table=(opt,rrhf)
 ----------------------------------------------------------------------
 -----
 title
 -----
 Symbolic Z-matrix:
 Charge =  0 Multiplicity = 1

 SCF Done:  E(RHF) =  -551.979073259     A.U. after   16 cycles
 Normal termination of Gaussian 16 at Wed Apr  9 00:37:38 2025.
 Gaussian 16:  ES64L-G16RevC.01  3-Jul-2019

 ----------------------------------------------------------------------
 #t hf aug-cc-pvdz iop(5/13=1,5/36=2,99/5=2) pseudo=read geom=check gue
 ss=(read,tcheck) scf=(maxcycle=1)
 ----------------------------------------------------------------------
 -----
 title
 -----
 Structure from the checkpoint file:  "BDE49_nonexpt_564_mol1.chk"
 Charge =  0 Multiplicity = 1

                         Standard orientation:
 ---------------------------------------------------------------------
 Center     Atomic      Atomic             Coordinates (Angstroms)
 Number     Number       Type             X           Y           Z
 ---------------------------------------------------------------------
      1          7           0        0.209593   -0.105589   -0.342473
      2          7           0        0.747944   -1.331458    0.002533
      3          5           0        0.946449    1.159676   -0.129835
      4          8           0        0.098527   -2.331425   -0.247636
      5          8           0        1.861012   -1.347584    0.542587
      6          8           0        2.165164    1.249000    0.440488
      7          8           0        0.289798    2.273632   -0.566906
      8          6           0       -1.123761   -0.148856   -0.975450
      9          6           0       -2.282510   -0.377740    0.003721
     10          1           0       -1.112325   -0.929666   -1.736597
     11          1           0       -1.231237    0.815006   -1.470452
     12          6           0       -2.420231    0.700955    1.081292
     13          1           0       -2.176673   -1.363511    0.462743
     14          1           0       -3.196824   -0.415606   -0.598911
     15          1           0       -1.546006    0.727310    1.737240
     16          1           0       -3.292788    0.506950    1.709870
     17          1           0       -2.534311    1.695127    0.640995
     18          1           0        0.812686    3.065510   -0.406774
     19          1           0        2.485475    0.364681    0.685000
 ---------------------------------------------------------------------

 SCF Done:  E(RHF) =  -552.157261228     A.U. after    2 cycles

 The electronic state is 1-A.
 Alpha  occ. eigenvalues --  -20.63201 -20.62362 -20.60177 -20.58877 -15.96551
 Alpha  occ. eigenvalues --  -15.71140 -11.29300 -11.24498 -11.23363  -7.70697
 Alpha  occ. eigenvalues --   -1.57823  -1.38485  -1.36442  -1.32657  -1.25014
 Alpha  occ. eigenvalues --   -1.06491  -0.97095  -0.89809  -0.83332  -0.82494
 Alpha  occ. eigenvalues --   -0.77244  -0.76553  -0.75808  -0.73766  -0.68415
 Alpha  occ. eigenvalues --   -0.63821  -0.63035  -0.61277  -0.60855  -0.58015
 Alpha  occ. eigenvalues --   -0.57625  -0.54252  -0.53956  -0.52584  -0.51959
 Alpha  occ. eigenvalues --   -0.50450  -0.50159  -0.48737  -0.43690
 Alpha virt. eigenvalues --    0.02914   0.03818   0.03966   0.05160   0.06096
 Alpha virt. eigenvalues --    0.06576   0.06610   0.07100   0.07507   0.08425
 Alpha virt. eigenvalues --    0.09047   0.09054   0.10036   0.11040   0.13814

 Mulliken charges:
               1
     1  N   -0.041955
     2  N    0.640012
     3  B    0.663160
     4  O   -0.523867
     5  O   -0.640002
     6  O   -0.422176
     7  O   -0.577207
     8  C    0.830855
     9  C    0.107090
    10  H   -0.154837
    11  H   -0.237040
    12  C    0.408328
    13  H   -0.143370
    14  H   -0.052986
    15  H   -0.126137
    16  H   -0.118796
    17  H   -0.059549
    18  H    0.171088
    19  H    0.277389
 Sum of Mulliken charges =  -0.00000

 Dipole moment (field-independent basis, Debye):
    X=             -1.8967    Y=              2.7181    Z=             -0.8738  Tot=              3.4277

 Test job not archived.
 1\1\GINC-SE177\SP\RHF\Aug-CC-pVDZ\C3H9B1N2O4\OHZDE\09-Apr-2025\0\\#t h
 f aug-cc-pvdz iop(5/13=1,5/36=2,99/5=2) pseudo=read geom=check guess=(
 read,tcheck) scf=(maxcycle=1)\\title\\0,1\N,0,0.209593,-0.105589,-0.34
 2473\N,0,0.747944,-1.331458,0.002533\B,0,0.946449,1.159676,-0.129835\O
 ,0,0.098527,-2.331425,-0.247636\O,0,1.861012,-1.347584,0.542587\O,0,2.
 165164,1.249,0.440488\O,0,0.289798,2.273632,-0.566906\C,0,-1.123761,-0
 .148856,-0.97545\C,0,-2.28251,-0.37774,0.003721\H,0,-1.112325,-0.92966
 6,-1.736597\H,0,-1.231237,0.815006,-1.470452\C,0,-2.420231,0.700955,1.

 Normal termination of Gaussian 16 at Wed Apr  9 00:37:49 2025.
