 Gaussian 16, Revision C.01,

 ----------------------------------------------------------------------
 #t hf aug-cc-pvdz symm=none int=(grid=ultrafine) guess=(read,tcheck) s
 table=(opt,rrhf)
 ----------------------------------------------------------------------
 -----
 title
 -----
 Symbolic Z-matrix:
 Charge =  0 Multiplicity = 1

 SCF Done:  E(RHF) =  -765.607176258     A.U. after   17 cycles
 Normal termination of Gaussian 16 at Tue Apr  8 23:17:54 2025.
 Gaussian 16:  ES64L-G16RevC.01  3-Jul-2019

 ----------------------------------------------------------------------
 #t hf aug-cc-pvdz iop(5/13=1,5/36=2,99/5=2) pseudo=read geom=check gue
 ss=(read,tcheck) scf=(maxcycle=1)
 ----------------------------------------------------------------------
 -----
 title
 -----
 Structure from the checkpoint file:  "BDE49_nonexpt_1095_mol1.chk"
 Charge =  0 Multiplicity = 1

                         Standard orientation:
 ---------------------------------------------------------------------
 Center     Atomic      Atomic             Coordinates (Angstroms)
 Number     Number       Type             X           Y           Z
 ---------------------------------------------------------------------
      1          9           0        2.867204   -0.698513   -0.442724
      2          6           0        0.728078    0.004360    0.249819
      3          6           0        2.203194    0.190812    0.401013
      4          1           0        2.513674   -0.035053    1.425337
      5          1           0        2.487251    1.211419    0.140448
      6          7           0        0.001608    0.987597   -0.087931
      7          8           0       -1.262261    1.025001   -0.240676
      8         17           0       -2.268979   -0.600316    0.037361
      9          1           0        0.266073   -0.968606    0.419526
 ---------------------------------------------------------------------

 SCF Done:  E(RHF) =  -765.721409618     A.U. after    2 cycles

 The electronic state is 1-A.
 Alpha  occ. eigenvalues -- -103.70730 -26.13003 -20.74029 -15.75840 -11.36040
 Alpha  occ. eigenvalues --  -11.33088 -10.73452  -8.39151  -8.38810  -8.38782
 Alpha  occ. eigenvalues --   -1.66088  -1.48526  -1.19350  -1.12631  -1.00713
 Alpha  occ. eigenvalues --   -0.84722  -0.78670  -0.76948  -0.75174  -0.73350
 Alpha  occ. eigenvalues --   -0.71127  -0.66505  -0.58532  -0.57100  -0.49524
 Alpha  occ. eigenvalues --   -0.49372  -0.44640  -0.44096
 Alpha virt. eigenvalues --   -0.01023   0.03427   0.04637   0.05894   0.07510
 Alpha virt. eigenvalues --    0.09725   0.10992   0.11383   0.13433   0.13598
 Alpha virt. eigenvalues --    0.14790   0.15501   0.16325   0.17304   0.17348

 Mulliken charges:
               1
     1  F   -0.399208
     2  C    0.691991
     3  C    0.528861
     4  H   -0.016392
     5  H   -0.077938
     6  N   -0.127501
     7  O   -0.451523
     8  Cl   0.061332
     9  H   -0.209621
 Sum of Mulliken charges =  -0.00000

 Dipole moment (field-independent basis, Debye):
    X=              1.2699    Y=              0.0089    Z=              1.9760  Tot=              2.3489

 Test job not archived.
 1\1\GINC-SE454\SP\RHF\Aug-CC-pVDZ\C2H3Cl1F1N1O1\OHZDE\08-Apr-2025\0\\#
 t hf aug-cc-pvdz iop(5/13=1,5/36=2,99/5=2) pseudo=read geom=check gues
 s=(read,tcheck) scf=(maxcycle=1)\\title\\0,1\F,0,2.867204,-0.698513,-0
 .442724\C,0,0.728078,0.00436,0.249819\C,0,2.203194,0.190812,0.401013\H
 ,0,2.513674,-0.035053,1.425337\H,0,2.487251,1.211419,0.140448\N,0,0.00
 1608,0.987597,-0.087931\O,0,-1.262261,1.025001,-0.240676\Cl,0,-2.26897
 9,-0.600316,0.037361\H,0,0.266073,-0.968606,0.419526\\Version=ES64L-G1
 6RevC.01\State=1-A\HF=-765.7214096\RMSD=5.153e-03\Dipole=0.4996046,0.0

 Normal termination of Gaussian 16 at Tue Apr  8 23:17:57 2025.
