 Gaussian 16, Revision C.01,

 ----------------------------------------------------------------------
 #t hf aug-cc-pvdz symm=none int=(grid=ultrafine) guess=(read,tcheck) s
 table=(opt,rrhf)
 ----------------------------------------------------------------------
 -----
 title
 -----
 Symbolic Z-matrix:
 Charge =  0 Multiplicity = 1

 SCF Done:  E(RHF) =  -1262.74366436     A.U. after   16 cycles
 Normal termination of Gaussian 16 at Wed Apr  9 00:49:53 2025.
 Gaussian 16:  ES64L-G16RevC.01  3-Jul-2019

 ----------------------------------------------------------------------
 #t hf aug-cc-pvdz iop(5/13=1,5/36=2,99/5=2) pseudo=read geom=check gue
 ss=(read,tcheck) scf=(maxcycle=1)
 ----------------------------------------------------------------------
 -----
 title
 -----
 Structure from the checkpoint file:  "BDE49_nonexpt_885_mol1.chk"
 Charge =  0 Multiplicity = 1

                         Standard orientation:
 ---------------------------------------------------------------------
 Center     Atomic      Atomic             Coordinates (Angstroms)
 Number     Number       Type             X           Y           Z
 ---------------------------------------------------------------------
      1          6           0       -0.087315   -0.360781    0.037172
      2          6           0        0.747391    0.763216   -0.140714
      3          6           0        2.141213    0.643669   -0.104700
      4          1           0        2.760366    1.519878   -0.250792
      5          6           0        2.699608   -0.599939    0.107448
      6          6           0        1.915696   -1.734741    0.276700
      7          1           0        2.392170   -2.694706    0.433058
      8          6           0        0.531529   -1.607288    0.234635
      9          1           0       -0.077166   -2.495230    0.363912
     10          5           0       -1.657036   -0.300886    0.054916
     11         16           0       -2.607649    0.287092    1.483260
     12         16           0       -2.529627   -0.937726   -1.397619
     13          6           0        0.171095    2.108803   -0.405841
     14          1           0       -0.935153    2.141324   -0.477796
     15          8           0        0.827092    3.114032   -0.545770
     16          9           0        4.041294   -0.725927    0.145311
     17          1           0       -1.565997    0.591162    2.277307
     18          1           0       -3.796309   -0.804405   -0.960354
 ---------------------------------------------------------------------

 SCF Done:  E(RHF) =  -1262.92202249     A.U. after    2 cycles

 The electronic state is 1-A.
 Alpha  occ. eigenvalues --  -93.56066 -93.55914 -26.15017 -20.58500 -11.36043
 Alpha  occ. eigenvalues --  -11.36017 -11.28492 -11.28316 -11.28148 -11.27596
 Alpha  occ. eigenvalues --  -11.27247  -8.86017  -8.85843  -7.69607  -6.20202
 Alpha  occ. eigenvalues --   -6.20038  -6.19961  -6.19780  -6.19737  -6.19567
 Alpha  occ. eigenvalues --   -1.68928  -1.37170  -1.18242  -1.06601  -1.05457
 Alpha  occ. eigenvalues --   -1.00929  -0.96567  -0.92183  -0.88648  -0.83494
 Alpha  occ. eigenvalues --   -0.78456  -0.76490  -0.75122  -0.72773  -0.68965
 Alpha  occ. eigenvalues --   -0.66400  -0.64027  -0.63026  -0.62922  -0.59945
 Alpha  occ. eigenvalues --   -0.58061  -0.55428  -0.54286  -0.51898  -0.48010
 Alpha  occ. eigenvalues --   -0.47043  -0.46190  -0.43703  -0.38778  -0.37410
 Alpha  occ. eigenvalues --   -0.36322
 Alpha virt. eigenvalues --    0.02646   0.03724   0.03938   0.04547   0.04907
 Alpha virt. eigenvalues --    0.05805   0.06034   0.06492   0.07488   0.07714
 Alpha virt. eigenvalues --    0.08539   0.08948   0.09472   0.10233   0.10822

 Mulliken charges:
               1
     1  C    0.189613
     2  C    0.123977
     3  C    0.573858
     4  H   -0.533091
     5  C    0.259279
     6  C    0.512916
     7  H   -0.415355
     8  C    0.292278
     9  H   -0.600758
    10  B    0.358207
    11  S   -0.234550
    12  S   -0.259757
    13  C    0.862812
    14  H   -0.373772
    15  O   -0.519235
    16  F   -0.319782
    17  H    0.056872
    18  H    0.026488
 Sum of Mulliken charges =  -0.00000

 Dipole moment (field-independent basis, Debye):
    X=             -2.3564    Y=             -3.1544    Z=              1.2177  Tot=              4.1214

 Test job not archived.
 1\1\GINC-SE059\SP\RHF\Aug-CC-pVDZ\C7H6B1F1O1S2\OHZDE\09-Apr-2025\0\\#t
  hf aug-cc-pvdz iop(5/13=1,5/36=2,99/5=2) pseudo=read geom=check guess
 =(read,tcheck) scf=(maxcycle=1)\\title\\0,1\C,0,-0.087315,-0.360781,0.
 037172\C,0,0.747391,0.763216,-0.140714\C,0,2.141213,0.643669,-0.1047\H
 ,0,2.760366,1.519878,-0.250792\C,0,2.699608,-0.599939,0.107448\C,0,1.9
 15696,-1.734741,0.2767\H,0,2.39217,-2.694706,0.433058\C,0,0.531529,-1.
 607288,0.234635\H,0,-0.077166,-2.49523,0.363912\B,0,-1.657036,-0.30088
 6,0.054916\S,0,-2.607649,0.287092,1.48326\S,0,-2.529627,-0.937726,-1.3

 Normal termination of Gaussian 16 at Wed Apr  9 00:50:07 2025.
