 Gaussian 16, Revision C.01,

 ----------------------------------------------------------------------
 #t hf aug-cc-pvdz symm=none int=(grid=ultrafine) guess=(read,tcheck) s
 table=(opt,rrhf)
 ----------------------------------------------------------------------
 -----
 title
 -----
 Symbolic Z-matrix:
 Charge =  0 Multiplicity = 1

 SCF Done:  E(RHF) =  -271.984395487     A.U. after   15 cycles
 Normal termination of Gaussian 16 at Wed Apr  9 00:24:28 2025.
 Gaussian 16:  ES64L-G16RevC.01  3-Jul-2019

 ----------------------------------------------------------------------
 #t hf aug-cc-pvdz iop(5/13=1,5/36=2,99/5=2) pseudo=read geom=check gue
 ss=(read,tcheck) scf=(maxcycle=1)
 ----------------------------------------------------------------------
 -----
 title
 -----
 Structure from the checkpoint file:  "BDE49_nonexpt_281_mol1.chk"
 Charge =  0 Multiplicity = 1

                         Standard orientation:
 ---------------------------------------------------------------------
 Center     Atomic      Atomic             Coordinates (Angstroms)
 Number     Number       Type             X           Y           Z
 ---------------------------------------------------------------------
      1          6           0        1.210097    0.275359    0.000000
      2          6           0        1.186991   -1.111800    0.000000
      3          6           0       -0.054149   -1.750374    0.000000
      4          7           0       -1.226897   -1.106331   -0.000000
      5          6           0       -1.181927    0.225948   -0.000000
      6          6           0       -0.000000    0.996464   -0.000000
      7          1           0        2.099990   -1.695538    0.000000
      8          1           0       -0.109780   -2.835969    0.000000
      9          1           0        2.153745    0.811069    0.000000
     10          5           0       -0.048539    2.531392   -0.000000
     11          1           0       -2.144880    0.730544   -0.000000
     12          1           0       -1.096768    3.099375   -0.000000
     13          1           0        0.962591    3.164302   -0.000000
 ---------------------------------------------------------------------

 SCF Done:  E(RHF) =  -272.062952522     A.U. after    2 cycles

 The electronic state is 1-A'.
 Alpha  occ. eigenvalues --  -15.63603 -11.30299 -11.29850 -11.28092 -11.25673
 Alpha  occ. eigenvalues --  -11.23286  -7.61472  -1.23847  -1.08203  -1.03328
 Alpha  occ. eigenvalues --   -0.86584  -0.86172  -0.73757  -0.68790  -0.67406
 Alpha  occ. eigenvalues --   -0.63035  -0.58134  -0.56399  -0.54819  -0.50220
 Alpha  occ. eigenvalues --   -0.48445  -0.41580  -0.39251  -0.35976
 Alpha virt. eigenvalues --    0.03035   0.03498   0.03891   0.04450   0.05592
 Alpha virt. eigenvalues --    0.06255   0.06347   0.07994   0.08486   0.08623
 Alpha virt. eigenvalues --    0.10609   0.11060   0.12499   0.13127   0.13409

 Mulliken charges:
               1
     1  C    0.077550
     2  C    0.769566
     3  C    0.531311
     4  N   -0.431401
     5  C    0.665777
     6  C    0.280886
     7  H   -0.388621
     8  H   -0.336458
     9  H   -0.484159
    10  B   -0.960284
    11  H   -0.404340
    12  H    0.341760
    13  H    0.338414
 Sum of Mulliken charges =  -0.00000

 Dipole moment (field-independent basis, Debye):
    X=              1.9341    Y=             -0.2184    Z=             -0.0000  Tot=              1.9464

 Test job not archived.
 1\1\GINC-SE332\SP\RHF\Aug-CC-pVDZ\C5H6B1N1\OHZDE\09-Apr-2025\0\\#t hf
 aug-cc-pvdz iop(5/13=1,5/36=2,99/5=2) pseudo=read geom=check guess=(re
 ad,tcheck) scf=(maxcycle=1)\\title\\0,1\C,0,1.210097,0.275359,0.\C,0,1
 .186991,-1.1118,0.\C,0,-0.054149,-1.750374,0.\N,0,-1.226897,-1.106331,
 0.\C,0,-1.181927,0.225948,0.\C,0,0.,0.996464,0.\H,0,2.09999,-1.695538,
 0.\H,0,-0.10978,-2.835969,0.\H,0,2.153745,0.811069,0.\B,0,-0.048539,2.
 531392,0.\H,0,-2.14488,0.730544,0.\H,0,-1.096768,3.099375,0.\H,0,0.962
 591,3.164302,0.\\Version=ES64L-G16RevC.01\State=1-A'\HF=-272.0629525\R

 Normal termination of Gaussian 16 at Wed Apr  9 00:24:31 2025.
