 Gaussian 16, Revision C.01,

 ----------------------------------------------------------------------
 #t hf aug-cc-pvdz symm=none int=(grid=ultrafine) guess=(read,tcheck) s
 table=opt
 ----------------------------------------------------------------------
 -----
 title
 -----
 Symbolic Z-matrix:
 Charge =  0 Multiplicity = 2

 SCF Done:  E(UHF) =  -133.652739681     A.U. after   16 cycles
 Normal termination of Gaussian 16 at Tue Apr  8 22:36:24 2025.
 Gaussian 16:  ES64L-G16RevC.01  3-Jul-2019

 ----------------------------------------------------------------------
 #t hf aug-cc-pvdz iop(5/13=1,5/36=2,99/5=2) pseudo=read geom=check gue
 ss=(read,tcheck) scf=(maxcycle=1)
 ----------------------------------------------------------------------
 -----
 title
 -----
 Structure from the checkpoint file:  "BDE49_expt_1195_mol2.chk"
 Charge =  0 Multiplicity = 2

                         Standard orientation:
 ---------------------------------------------------------------------
 Center     Atomic      Atomic             Coordinates (Angstroms)
 Number     Number       Type             X           Y           Z
 ---------------------------------------------------------------------
      1          6           0       -0.059674    0.520529   -0.124468
      2          6           0        1.252101   -0.176069    0.017426
      3          1           0        1.307130   -1.064953   -0.625075
      4          1           0        1.444807   -0.520095    1.048095
      5          1           0        2.074375    0.483702   -0.268190
      6          7           0       -1.221674   -0.231992    0.107929
      7          1           0       -0.136490    1.563498    0.165633
      8          1           0       -1.210285   -1.153327   -0.314136
      9          1           0       -2.082377    0.248360   -0.119573
 ---------------------------------------------------------------------

 SCF Done:  E(UHF) =  -133.696069489     A.U. after    2 cycles

 The electronic state is 2-A.
 Alpha  occ. eigenvalues --  -15.62101 -11.25428 -11.22549  -1.16921  -0.98495
 Alpha  occ. eigenvalues --   -0.81726  -0.68338  -0.61678  -0.58711  -0.53052
 Alpha  occ. eigenvalues --   -0.51434  -0.48534  -0.28540
 Alpha virt. eigenvalues --    0.03652   0.04552   0.04616   0.06204   0.07597
 Alpha virt. eigenvalues --    0.07911   0.11958   0.13136   0.14753   0.15097
 Alpha virt. eigenvalues --    0.16623   0.17373   0.17803   0.19686   0.19889

  Beta  occ. eigenvalues --  -15.61681 -11.23042 -11.22809  -1.14601  -0.96788
  Beta  occ. eigenvalues --   -0.77565  -0.67717  -0.60187  -0.55099  -0.52588
  Beta  occ. eigenvalues --   -0.50417  -0.41716
  Beta virt. eigenvalues --    0.03674   0.04587   0.04629   0.06260   0.07623
  Beta virt. eigenvalues --    0.07919   0.10764   0.13187   0.14686   0.15082
  Beta virt. eigenvalues --    0.15633   0.17427   0.17659   0.18441   0.19807

 Mulliken charges and spin densities:
               1          2
     1  C    0.561491   1.154980
     2  C    0.243824  -0.195241
     3  H   -0.085439   0.008667
     4  H    0.008664   0.052321
     5  H   -0.072109   0.000432
     6  N   -0.325767   0.075306
     7  H   -0.323694  -0.083512
     8  H   -0.010960  -0.003279
     9  H    0.003990  -0.009675
 Sum of Mulliken charges =  -0.00000   1.00000

 Dipole moment (field-independent basis, Debye):
    X=             -0.4012    Y=             -0.1709    Z=             -0.6514  Tot=              0.7839
                          Isotropic Fermi Contact Couplings
        Atom                 a.u.       MegaHertz       Gauss      10(-4) cm-1
     1  C(13)              0.24980     280.81935     100.20333      93.67125
     2  C(13)             -0.04444     -49.96160     -17.82754     -16.66540
     3  H(1)               0.00886      39.59846      14.12972      13.20862
     4  H(1)               0.02256     100.83959      35.98207      33.63647
     5  H(1)               0.00302      13.50001       4.81714       4.50312
     6  N(14)              0.02463       7.95882       2.83990       2.65478
     7  H(1)              -0.01758     -78.59204     -28.04359     -26.21548
     8  H(1)               0.00211       9.43528       3.36674       3.14727

 Normal termination of Gaussian 16 at Tue Apr  8 22:36:26 2025.
