 Gaussian 16, Revision C.01,

 ----------------------------------------------------------------------
 #t hf aug-cc-pvdz symm=none int=(grid=ultrafine) guess=(read,tcheck) s
 table=(opt,rrhf)
 ----------------------------------------------------------------------
 -----
 title
 -----
 Symbolic Z-matrix:
 Charge =  0 Multiplicity = 1

 SCF Done:  E(RHF) =  -1212.98978630     A.U. after   15 cycles
 Normal termination of Gaussian 16 at Wed Apr  9 00:13:58 2025.
 Gaussian 16:  ES64L-G16RevC.01  3-Jul-2019

 ----------------------------------------------------------------------
 #t hf aug-cc-pvdz iop(5/13=1,5/36=2,99/5=2) pseudo=read geom=check gue
 ss=(read,tcheck) scf=(maxcycle=1)
 ----------------------------------------------------------------------
 -----
 title
 -----
 Structure from the checkpoint file:  "BDE49_nonexpt_244_mol1.chk"
 Charge =  0 Multiplicity = 1

                         Standard orientation:
 ---------------------------------------------------------------------
 Center     Atomic      Atomic             Coordinates (Angstroms)
 Number     Number       Type             X           Y           Z
 ---------------------------------------------------------------------
      1         17           0        2.753131   -1.109053   -0.000001
      2         17           0        2.008517    1.807216   -0.000004
      3          5           0        1.471785    0.116792    0.000004
      4          6           0       -0.021638   -0.265447    0.000003
      5          6           0       -1.025004    0.725146    0.000001
      6          6           0       -2.381394    0.408408    0.000000
      7          6           0       -2.741959   -0.945454    0.000000
      8          6           0       -0.426059   -1.613334    0.000002
      9          1           0        0.320316   -2.398031    0.000003
     10          6           0       -1.775108   -1.946829    0.000001
     11          1           0       -2.076222   -2.988324    0.000000
     12          6           0       -3.439632    1.485319    0.000002
     13          1           0       -3.793442   -1.216441   -0.000002
     14          1           0       -4.083750    1.406618   -0.881044
     15          1           0       -2.992621    2.480858   -0.000032
     16          1           0       -4.083704    1.406659    0.881085
     17          1           0       -0.732763    1.769071    0.000001
 ---------------------------------------------------------------------

 SCF Done:  E(RHF) =  -1213.10939736     A.U. after    2 cycles

 The electronic state is 1-A.
 Alpha  occ. eigenvalues -- -103.66310-103.66286 -11.26422 -11.26266 -11.26245
 Alpha  occ. eigenvalues --  -11.26051 -11.25543 -11.24491 -11.24440 -10.69796
 Alpha  occ. eigenvalues --  -10.69755  -8.35481  -8.35455  -8.35263  -8.35241
 Alpha  occ. eigenvalues --   -8.35238  -8.35215  -7.72530  -1.17908  -1.15527
 Alpha  occ. eigenvalues --   -1.13823  -1.05200  -1.02271  -0.94377  -0.84799
 Alpha  occ. eigenvalues --   -0.81875  -0.72053  -0.68511  -0.65980  -0.63046
 Alpha  occ. eigenvalues --   -0.59980  -0.58935  -0.58695  -0.56978  -0.55000
 Alpha  occ. eigenvalues --   -0.53128  -0.51330  -0.50326  -0.49801  -0.47523
 Alpha  occ. eigenvalues --   -0.47017  -0.46030  -0.35750  -0.34330
 Alpha virt. eigenvalues --    0.03009   0.03746   0.04084   0.04431   0.05082
 Alpha virt. eigenvalues --    0.05784   0.05905   0.06643   0.07048   0.07941
 Alpha virt. eigenvalues --    0.08605   0.10105   0.10369   0.11931   0.13018

 Mulliken charges:
               1
     1  Cl  -0.355755
     2  Cl  -0.345668
     3  B    0.502831
     4  C    0.167689
     5  C    0.302865
     6  C   -0.029822
     7  C    1.045978
     8  C    0.233267
     9  H   -0.652074
    10  C    0.321662
    11  H   -0.462205
    12  C    0.604062
    13  H   -0.585595
    14  H    0.062967
    15  H   -0.211951
    16  H    0.062981
    17  H   -0.661233
 Sum of Mulliken charges =  -0.00000

 Dipole moment (field-independent basis, Debye):
    X=             -3.2514    Y=             -0.4474    Z=              0.0000  Tot=              3.2821

 Test job not archived.
 1\1\GINC-SE058\SP\RHF\Aug-CC-pVDZ\C7H7B1Cl2\OHZDE\09-Apr-2025\0\\#t hf
  aug-cc-pvdz iop(5/13=1,5/36=2,99/5=2) pseudo=read geom=check guess=(r
 ead,tcheck) scf=(maxcycle=1)\\title\\0,1\Cl,0,2.753131,-1.109053,-0.00
 0001\Cl,0,2.008517,1.807216,-0.000004\B,0,1.471785,0.116792,0.000004\C
 ,0,-0.021638,-0.265447,0.000003\C,0,-1.025004,0.725146,0.000001\C,0,-2
 .381394,0.408408,0.\C,0,-2.741959,-0.945454,0.\C,0,-0.426059,-1.613334
 ,0.000002\H,0,0.320316,-2.398031,0.000003\C,0,-1.775108,-1.946829,0.00
 0001\H,0,-2.076222,-2.988324,0.\C,0,-3.439632,1.485319,0.000002\H,0,-3

 Normal termination of Gaussian 16 at Wed Apr  9 00:14:08 2025.
