 Gaussian 16, Revision C.01,

 ----------------------------------------------------------------------
 #t hf aug-cc-pvdz symm=none int=(grid=ultrafine) guess=(read,tcheck) s
 table=(opt,rrhf)
 ----------------------------------------------------------------------
 -----
 title
 -----
 Symbolic Z-matrix:
 Charge =  0 Multiplicity = 1

 SCF Done:  E(RHF) =  -934.138580824     A.U. after   13 cycles
 Normal termination of Gaussian 16 at Tue Apr  8 23:41:36 2025.
 Gaussian 16:  ES64L-G16RevC.01  3-Jul-2019

 ----------------------------------------------------------------------
 #t hf aug-cc-pvdz iop(5/13=1,5/36=2,99/5=2) pseudo=read geom=check gue
 ss=(read,tcheck) scf=(maxcycle=1)
 ----------------------------------------------------------------------
 -----
 title
 -----
 Structure from the checkpoint file:  "BDE49_nonexpt_1685_mol1.chk"
 Charge =  0 Multiplicity = 1

                         Standard orientation:
 ---------------------------------------------------------------------
 Center     Atomic      Atomic             Coordinates (Angstroms)
 Number     Number       Type             X           Y           Z
 ---------------------------------------------------------------------
      1         15           0       -0.990612   -0.097950   -0.130461
      2          8           0       -0.994796   -1.147500   -1.164455
      3          8           0       -1.683733    1.311733   -0.468784
      4         14           0        1.070102    0.533217    0.509532
      5          6           0        2.416080    0.304116   -0.748807
      6          6           0        2.369194   -0.787258    0.341958
      7          1           0        3.264220    0.981508   -0.727010
      8          1           0        2.137374   -0.003381   -1.751082
      9          1           0        2.069920   -1.778148    0.016934
     10          1           0        3.188317   -0.798843    1.054495
     11          1           0       -2.632099    1.247573   -0.647430
     12          8           0       -1.839081   -0.517443    1.192638
     13          1           0       -1.877237   -1.478182    1.281116
     14          1           0        1.156502    1.558214    1.562337
 ---------------------------------------------------------------------

 SCF Done:  E(RHF) =  -934.321896026     A.U. after    2 cycles

 The electronic state is 1-A.
 Alpha  occ. eigenvalues --  -81.41216 -69.07901 -20.61905 -20.61669 -20.52692
 Alpha  occ. eigenvalues --  -11.24063 -11.23997  -7.89656  -6.83434  -5.04273
 Alpha  occ. eigenvalues --   -5.04154  -5.03766  -3.94313  -3.94170  -3.94111
 Alpha  occ. eigenvalues --   -1.37965  -1.34479  -1.25776  -1.04089  -0.85311
 Alpha  occ. eigenvalues --   -0.81923  -0.76684  -0.70167  -0.67834  -0.65068
 Alpha  occ. eigenvalues --   -0.63848  -0.61492  -0.59055  -0.57890  -0.56857
 Alpha  occ. eigenvalues --   -0.52245  -0.51898  -0.48802  -0.45212  -0.42155
 Alpha  occ. eigenvalues --   -0.35913
 Alpha virt. eigenvalues --    0.03016   0.04137   0.04194   0.05426   0.05821
 Alpha virt. eigenvalues --    0.06744   0.07536   0.08381   0.08486   0.10333
 Alpha virt. eigenvalues --    0.11065   0.11637   0.12236   0.13064   0.14465

 Mulliken charges:
               1
     1  P    1.872785
     2  O   -0.960530
     3  O   -0.667049
     4  Si   0.298315
     5  C    0.622201
     6  C    0.638147
     7  H   -0.339931
     8  H   -0.368039
     9  H   -0.368076
    10  H   -0.341427
    11  H    0.143797
    12  O   -0.712411
    13  H    0.149934
    14  H    0.032283
 Sum of Mulliken charges =  -0.00000

 Dipole moment (field-independent basis, Debye):
    X=             -0.0053    Y=              0.9352    Z=              2.2127  Tot=              2.4022

 Test job not archived.
 1\1\GINC-SE364\SP\RHF\Aug-CC-pVDZ\C2H7O3P1Si1\OHZDE\08-Apr-2025\0\\#t
 hf aug-cc-pvdz iop(5/13=1,5/36=2,99/5=2) pseudo=read geom=check guess=
 (read,tcheck) scf=(maxcycle=1)\\title\\0,1\P,0,0.990612,-0.09795,0.130
 461\O,0,0.994796,-1.1475,1.164455\O,0,1.683733,1.311733,0.468784\Si,0,
 -1.070102,0.533217,-0.509532\C,0,-2.41608,0.304116,0.748807\C,0,-2.369
 194,-0.787258,-0.341958\H,0,-3.26422,0.981508,0.72701\H,0,-2.137374,-0
 .003381,1.751082\H,0,-2.06992,-1.778148,-0.016934\H,0,-3.188317,-0.798
 843,-1.054495\H,0,2.632099,1.247573,0.64743\O,0,1.839081,-0.517443,-1.

 Normal termination of Gaussian 16 at Tue Apr  8 23:41:41 2025.
