 Gaussian 16, Revision C.01,

 ----------------------------------------------------------------------
 #t hf aug-cc-pvdz symm=none int=(grid=ultrafine) guess=(read,tcheck) s
 table=(opt,rrhf)
 ----------------------------------------------------------------------
 -----
 title
 -----
 Symbolic Z-matrix:
 Charge =  0 Multiplicity = 1

 SCF Done:  E(RHF) =  -226.770871632     A.U. after   12 cycles
 Normal termination of Gaussian 16 at Tue Apr  8 23:33:04 2025.
 Gaussian 16:  ES64L-G16RevC.01  3-Jul-2019

 ----------------------------------------------------------------------
 #t hf aug-cc-pvdz iop(5/13=1,5/36=2,99/5=2) pseudo=read geom=check gue
 ss=(read,tcheck) scf=(maxcycle=1)
 ----------------------------------------------------------------------
 -----
 title
 -----
 Structure from the checkpoint file:  "BDE49_nonexpt_146_mol1.chk"
 Charge =  0 Multiplicity = 1

                         Standard orientation:
 ---------------------------------------------------------------------
 Center     Atomic      Atomic             Coordinates (Angstroms)
 Number     Number       Type             X           Y           Z
 ---------------------------------------------------------------------
      1          5           0        2.392497   -0.000077   -0.359750
      2          5           0        1.107826   -0.000343    0.626312
      3          5           0       -0.508688   -0.000023    0.105373
      4          8           0       -1.121065    1.210024   -0.089600
      5          8           0       -1.121539   -1.209825   -0.089626
      6          1           0       -2.042916    1.170719   -0.368348
      7          1           0       -2.043374   -1.170153   -0.368374
      8          1           0        1.287038   -0.000010    1.813887
      9          1           0        2.891148    1.015661   -0.750985
     10          1           0        2.890760   -1.015592   -0.752050
 ---------------------------------------------------------------------

 SCF Done:  E(RHF) =  -226.849152005     A.U. after    2 cycles

 The electronic state is 1-A.
 Alpha  occ. eigenvalues --  -20.58961 -20.58959  -7.65267  -7.59251  -7.57738
 Alpha  occ. eigenvalues --   -1.34981  -1.31261  -0.80147  -0.75792  -0.71604
 Alpha  occ. eigenvalues --   -0.65967  -0.60388  -0.58960  -0.55783  -0.53109
 Alpha  occ. eigenvalues --   -0.48296  -0.45220  -0.41501
 Alpha virt. eigenvalues --    0.02477   0.04490   0.04815   0.05292   0.05501
 Alpha virt. eigenvalues --    0.06462   0.06687   0.07107   0.07943   0.09620
 Alpha virt. eigenvalues --    0.09897   0.09925   0.10513   0.11834   0.12764

 Mulliken charges:
               1
     1  B   -0.396575
     2  B   -0.059587
     3  B    0.687131
     4  O   -0.534462
     5  O   -0.534480
     6  H    0.139549
     7  H    0.139545
     8  H    0.119569
     9  H    0.219678
    10  H    0.219633
 Sum of Mulliken charges =  -0.00000

 Dipole moment (field-independent basis, Debye):
    X=             -2.7132    Y=              0.0001    Z=             -0.6572  Tot=              2.7916

 Test job not archived.
 1\1\GINC-SE173\SP\RHF\Aug-CC-pVDZ\B3H5O2\OHZDE\08-Apr-2025\0\\#t hf au
 g-cc-pvdz iop(5/13=1,5/36=2,99/5=2) pseudo=read geom=check guess=(read
 ,tcheck) scf=(maxcycle=1)\\title\\0,1\B,0,2.392497,-0.000077,-0.35975\
 B,0,1.107826,-0.000343,0.626312\B,0,-0.508688,-0.000023,0.105373\O,0,-
 1.121065,1.210024,-0.0896\O,0,-1.121539,-1.209825,-0.089626\H,0,-2.042
 916,1.170719,-0.368348\H,0,-2.043374,-1.170153,-0.368374\H,0,1.287038,
 -0.00001,1.813887\H,0,2.891148,1.015661,-0.750985\H,0,2.89076,-1.01559
 2,-0.75205\\Version=ES64L-G16RevC.01\State=1-A\HF=-226.849152\RMSD=3.7

 Normal termination of Gaussian 16 at Tue Apr  8 23:33:06 2025.
