 Gaussian 16, Revision C.01,

 ----------------------------------------------------------------------
 #t hf aug-cc-pvdz symm=none int=(grid=ultrafine) guess=(read,tcheck) s
 table=(opt,rrhf)
 ----------------------------------------------------------------------
 -----
 title
 -----
 Symbolic Z-matrix:
 Charge =  0 Multiplicity = 1

 SCF Done:  E(RHF) =  -966.674784403     A.U. after   18 cycles
 Normal termination of Gaussian 16 at Tue Apr  8 23:00:34 2025.
 Gaussian 16:  ES64L-G16RevC.01  3-Jul-2019

 ----------------------------------------------------------------------
 #t hf aug-cc-pvdz iop(5/13=1,5/36=2,99/5=2) pseudo=read geom=check gue
 ss=(read,tcheck) scf=(maxcycle=1)
 ----------------------------------------------------------------------
 -----
 title
 -----
 Structure from the checkpoint file:  "BDE49_expt_1831_mol1.chk"
 Charge =  0 Multiplicity = 1

                         Standard orientation:
 ---------------------------------------------------------------------
 Center     Atomic      Atomic             Coordinates (Angstroms)
 Number     Number       Type             X           Y           Z
 ---------------------------------------------------------------------
      1          6           0       -2.275126   -1.386008   -0.000069
      2          6           0       -3.590694   -1.839986   -0.000039
      3          6           0       -4.641135   -0.925228    0.000033
      4          6           0       -4.371874    0.446174    0.000075
      5          6           0       -3.062167    0.905833    0.000045
      6          6           0       -2.005929   -0.015280   -0.000027
      7          1           0       -1.436656   -2.071877   -0.000125
      8          1           0       -5.190411    1.157336    0.000130
      9          1           0       -2.838093    1.964502    0.000076
     10          1           0       -3.794832   -2.904557   -0.000072
     11          1           0       -5.667095   -1.275563    0.000057
     12          7           0       -0.623799    0.333748   -0.000065
     13          7           0       -0.391650    1.553340   -0.000026
     14         16           0        1.266774    2.060017   -0.000031
     15          6           0        2.250040    0.570009   -0.000000
     16          6           0        2.635575   -0.012549   -1.210822
     17          6           0        2.635570   -0.012505    1.210845
     18          6           0        3.415365   -1.165655    1.207885
     19          6           0        3.415371   -1.165699   -1.207816
     20          6           0        3.806124   -1.741374    0.000046
     21          1           0        3.717118   -1.614374    2.147471
     22          1           0        4.415577   -2.638064    0.000063
     23          1           0        2.325147    0.440419    2.144462
     24          1           0        2.325156    0.440341   -2.144457
     25          1           0        3.717128   -1.614453   -2.147385
 ---------------------------------------------------------------------

 SCF Done:  E(RHF) =  -966.859915131     A.U. after    2 cycles

 The electronic state is 1-A.
 Alpha  occ. eigenvalues --  -93.56932 -15.72029 -15.69736 -11.28199 -11.27890
 Alpha  occ. eigenvalues --  -11.26076 -11.26070 -11.26030 -11.25473 -11.25464
 Alpha  occ. eigenvalues --  -11.25414 -11.25276 -11.25243 -11.25132 -11.25127
 Alpha  occ. eigenvalues --   -8.86427  -6.20657  -6.20354  -6.20013  -1.33203
 Alpha  occ. eigenvalues --   -1.16308  -1.15075  -1.06989  -1.03118  -1.02313
 Alpha  occ. eigenvalues --   -1.01826  -0.96592  -0.87911  -0.84200  -0.83882
 Alpha  occ. eigenvalues --   -0.82041  -0.76947  -0.72338  -0.69998  -0.66719
 Alpha  occ. eigenvalues --   -0.65939  -0.64694  -0.63261  -0.62081  -0.60484
 Alpha  occ. eigenvalues --   -0.60186  -0.58820  -0.57650  -0.55083  -0.52756
 Alpha  occ. eigenvalues --   -0.51589  -0.51320  -0.50222  -0.50008  -0.46302
 Alpha  occ. eigenvalues --   -0.38798  -0.38345  -0.35104  -0.35101  -0.34805
 Alpha  occ. eigenvalues --   -0.31839
 Alpha virt. eigenvalues --    0.03093   0.03513   0.04102   0.04231   0.04863
 Alpha virt. eigenvalues --    0.05507   0.06027   0.06123   0.06399   0.07154
 Alpha virt. eigenvalues --    0.07550   0.08190   0.09527   0.09871   0.10406

 Mulliken charges:
               1
     1  C    0.011385
     2  C    0.696633
     3  C    0.600164
     4  C    0.693177
     5  C    0.263631
     6  C    0.598153
     7  H   -0.548352
     8  H   -0.437357
     9  H   -0.559645
    10  H   -0.415709
    11  H   -0.455770
    12  N   -0.344435
    13  N   -0.696708
    14  S    0.688994
    15  C    0.434576
    16  C    0.359879
    17  C    0.359815
    18  C    0.305406
    19  C    0.305381
    20  C    0.513939
    21  H   -0.442551
    22  H   -0.440587
    23  H   -0.523731
    24  H   -0.523737
    25  H   -0.442552
 Sum of Mulliken charges =  -0.00000

 Dipole moment (field-independent basis, Debye):
    X=             -0.0394    Y=             -2.2478    Z=              0.0001  Tot=              2.2481

 Test job not archived.
 1\1\GINC-SE088\SP\RHF\Aug-CC-pVDZ\C12H10N2S1\OHZDE\08-Apr-2025\0\\#t h
 f aug-cc-pvdz iop(5/13=1,5/36=2,99/5=2) pseudo=read geom=check guess=(
 read,tcheck) scf=(maxcycle=1)\\title\\0,1\C,0,-2.275126,-1.386008,-0.0
 00069\C,0,-3.590694,-1.839986,-0.000039\C,0,-4.641135,-0.925228,0.0000
 33\C,0,-4.371874,0.446174,0.000075\C,0,-3.062167,0.905833,0.000045\C,0
 ,-2.005929,-0.01528,-0.000027\H,0,-1.436656,-2.071877,-0.000125\H,0,-5
 .190411,1.157336,0.00013\H,0,-2.838093,1.964502,0.000076\H,0,-3.794832
 ,-2.904557,-0.000072\H,0,-5.667095,-1.275563,0.000057\N,0,-0.623799,0.

 Normal termination of Gaussian 16 at Tue Apr  8 23:00:59 2025.
