 Gaussian 16, Revision C.01,

 ----------------------------------------------------------------------
 #t hf aug-cc-pvdz symm=none int=(grid=ultrafine) guess=(read,tcheck) s
 table=opt
 ----------------------------------------------------------------------
 -----
 title
 -----
 Symbolic Z-matrix:
 Charge =  0 Multiplicity = 2

 SCF Done:  E(UHF) =  -265.587108012     A.U. after   17 cycles
 Normal termination of Gaussian 16 at Tue Apr  8 23:02:17 2025.
 Gaussian 16:  ES64L-G16RevC.01  3-Jul-2019

 ----------------------------------------------------------------------
 #t hf aug-cc-pvdz iop(5/13=1,5/36=2,99/5=2) pseudo=read geom=check gue
 ss=(read,tcheck) scf=(maxcycle=1)
 ----------------------------------------------------------------------
 -----
 title
 -----
 Structure from the checkpoint file:  "BDE49_expt_347_mol2.chk"
 Charge =  0 Multiplicity = 2

                         Standard orientation:
 ---------------------------------------------------------------------
 Center     Atomic      Atomic             Coordinates (Angstroms)
 Number     Number       Type             X           Y           Z
 ---------------------------------------------------------------------
      1          7           0       -0.922905   -1.104434   -0.235586
      2          6           0        0.438432   -1.295508    0.272577
      3          6           0        1.412016   -0.197499   -0.174064
      4          1           0        0.808948   -2.273105   -0.048348
      5          1           0        0.387447   -1.306478    1.367222
      6          7           0        0.855836    1.114722    0.164832
      7          1           0        1.580604   -0.291339   -1.260422
      8          1           0        2.377819   -0.312507    0.327336
      9          6           0       -0.484780    1.343488   -0.156730
     10          6           0       -1.433433    0.223188    0.154182
     11          1           0       -0.816192    2.371862   -0.052590
     12          1           0       -2.396350    0.391397   -0.335067
     13          1           0       -1.640537    0.172004    1.238316
     14          1           0       -0.896696   -1.148786   -1.252078
     15          1           0        1.471036    1.882920   -0.064883
 ---------------------------------------------------------------------

 SCF Done:  E(UHF) =  -265.666611742     A.U. after    2 cycles

 The electronic state is 2-A.
 Alpha  occ. eigenvalues --  -15.62444 -15.60546 -11.26398 -11.25700 -11.25493
 Alpha  occ. eigenvalues --  -11.25243  -1.21791  -1.14573  -1.01996  -0.90082
 Alpha  occ. eigenvalues --   -0.86114  -0.76974  -0.70673  -0.63122  -0.62385
 Alpha  occ. eigenvalues --   -0.59724  -0.58537  -0.55429  -0.54751  -0.49545
 Alpha  occ. eigenvalues --   -0.48599  -0.45293  -0.36427  -0.28008
 Alpha virt. eigenvalues --    0.03317   0.03990   0.04273   0.04697   0.06509
 Alpha virt. eigenvalues --    0.07133   0.07288   0.08134   0.08744   0.12272
 Alpha virt. eigenvalues --    0.12589   0.13006   0.14118   0.14826   0.15147

  Beta  occ. eigenvalues --  -15.61930 -15.60502 -11.26400 -11.25725 -11.25698
  Beta  occ. eigenvalues --  -11.22986  -1.20468  -1.13786  -1.00392  -0.89144
  Beta  occ. eigenvalues --   -0.84570  -0.74759  -0.70081  -0.62493  -0.61638
  Beta  occ. eigenvalues --   -0.58962  -0.56037  -0.54671  -0.53668  -0.49195
  Beta  occ. eigenvalues --   -0.48308  -0.39001  -0.35847
  Beta virt. eigenvalues --    0.03265   0.04023   0.04278   0.04701   0.06511
  Beta virt. eigenvalues --    0.07091   0.07292   0.08007   0.08765   0.11243
  Beta virt. eigenvalues --    0.12629   0.13004   0.13938   0.14166   0.15006

 Mulliken charges and spin densities:
               1          2
     1  N   -0.655141   0.003434
     2  C    0.507532   0.017625
     3  C    0.756118  -0.037321
     4  H   -0.147370   0.000270
     5  H   -0.118677   0.001332
     6  N   -0.531791   0.081260
     7  H   -0.159328  -0.002354
     8  H   -0.169888   0.003577
     9  C    0.665069   1.206021
    10  C    0.514121  -0.222329
    11  H   -0.361663  -0.078745
    12  H   -0.148509  -0.002899
    13  H   -0.100403   0.041592
    14  H    0.028224   0.003599
    15  H   -0.078294  -0.015062
 Sum of Mulliken charges =  -0.00000   1.00000

 Dipole moment (field-independent basis, Debye):
    X=              1.3841    Y=              0.8646    Z=             -0.7731  Tot=              1.8058
                          Isotropic Fermi Contact Couplings
        Atom                 a.u.       MegaHertz       Gauss      10(-4) cm-1
     1  N(14)              0.01240       4.00579       1.42937       1.33619
     2  C(13)              0.00132       1.47879       0.52767       0.49327
     3  C(13)              0.00489       5.49179       1.95961       1.83187
     4  H(1)              -0.00013      -0.57877      -0.20652      -0.19306
     5  H(1)              -0.00014      -0.60407      -0.21555      -0.20150
     6  N(14)              0.03276      10.58515       3.77705       3.53083
     7  H(1)               0.00185       8.28991       2.95804       2.76522
     8  H(1)              -0.00063      -2.82610      -1.00842      -0.94269

 Normal termination of Gaussian 16 at Tue Apr  8 23:02:22 2025.
