 Gaussian 16, Revision C.01,

 ----------------------------------------------------------------------
 #t hf aug-cc-pvdz symm=none int=(grid=ultrafine) guess=(read,tcheck) s
 table=(opt,rrhf)
 ----------------------------------------------------------------------
 -----
 title
 -----
 Symbolic Z-matrix:
 Charge =  0 Multiplicity = 1

 SCF Done:  E(RHF) =  -1753.31192453     A.U. after   16 cycles
 Normal termination of Gaussian 16 at Tue Apr  8 23:06:07 2025.
 Gaussian 16:  ES64L-G16RevC.01  3-Jul-2019

 ----------------------------------------------------------------------
 #t hf aug-cc-pvdz iop(5/13=1,5/36=2,99/5=2) pseudo=read geom=check gue
 ss=(read,tcheck) scf=(maxcycle=1)
 ----------------------------------------------------------------------
 -----
 title
 -----
 Structure from the checkpoint file:  "BDE49_expt_1888_mol1.chk"
 Charge =  0 Multiplicity = 1

                         Standard orientation:
 ---------------------------------------------------------------------
 Center     Atomic      Atomic             Coordinates (Angstroms)
 Number     Number       Type             X           Y           Z
 ---------------------------------------------------------------------
      1          6           0        3.387405    0.587553    0.849852
      2          6           0        4.761286    0.793966    0.862500
      3          6           0        5.568821    0.047284    0.008268
      4          6           0        5.028498   -0.899425   -0.859125
      5          6           0        3.655086   -1.098909   -0.866536
      6          6           0        2.827057   -0.360878   -0.013859
      7          1           0        2.753076    1.166667    1.507057
      8          1           0        5.204589    1.525791    1.524670
      9          6           0        1.368506   -0.637429   -0.086680
     10          8           0        0.822938   -1.406975   -0.820320
     11          8           0        0.699712    0.139143    0.851004
     12          8           0       -0.699709   -0.139090    0.851012
     13          6           0       -1.368516    0.637495   -0.086653
     14          8           0       -0.822956    1.407030   -0.820310
     15          6           0       -2.827061    0.360909   -0.013846
     16          6           0       -3.387396   -0.587535    0.849859
     17          6           0       -3.655100    1.098920   -0.866531
     18          6           0       -5.028508    0.899404   -0.859133
     19          6           0       -4.761272   -0.793980    0.862496
     20          6           0       -5.568816   -0.047316    0.008256
     21          1           0       -2.753059   -1.166635    1.507070
     22          1           0       -5.204565   -1.525815    1.524662
     23          1           0        5.675717   -1.466291   -1.515180
     24          1           0       -5.675734    1.466256   -1.515193
     25          1           0        3.206576   -1.825991   -1.531527
     26          1           0       -3.206600    1.826012   -1.531518
     27         17           0        7.300043    0.305336    0.023709
     28         17           0       -7.300033   -0.305407    0.023682
 ---------------------------------------------------------------------

 SCF Done:  E(RHF) =  -1753.59753712     A.U. after    2 cycles

 The electronic state is 1-A.
 Alpha  occ. eigenvalues -- -103.68293-103.68293 -20.70157 -20.70126 -20.58831
 Alpha  occ. eigenvalues --  -20.58831 -11.42533 -11.42532 -11.34008 -11.34006
 Alpha  occ. eigenvalues --  -11.28742 -11.28742 -11.28583 -11.28582 -11.28377
 Alpha  occ. eigenvalues --  -11.28377 -11.27736 -11.27735 -11.27667 -11.27665
 Alpha  occ. eigenvalues --  -10.71566 -10.71565  -8.37302  -8.37302  -8.36990
 Alpha  occ. eigenvalues --   -8.36990  -8.36977  -8.36977  -1.51613  -1.40752
 Alpha  occ. eigenvalues --   -1.37785  -1.27789  -1.21907  -1.21797  -1.16090
 Alpha  occ. eigenvalues --   -1.15626  -1.05111  -1.04991  -1.04909  -1.03629
 Alpha  occ. eigenvalues --   -0.92478  -0.88020  -0.87511  -0.86835  -0.83492
 Alpha  occ. eigenvalues --   -0.80406  -0.77818  -0.77524  -0.73176  -0.70883
 Alpha  occ. eigenvalues --   -0.69576  -0.68057  -0.67443  -0.67414  -0.66854
 Alpha  occ. eigenvalues --   -0.64197  -0.64195  -0.63590  -0.63159  -0.62863
 Alpha  occ. eigenvalues --   -0.60401  -0.56816  -0.56669  -0.55751  -0.55748
 Alpha  occ. eigenvalues --   -0.54233  -0.54145  -0.53417  -0.53372  -0.49731
 Alpha  occ. eigenvalues --   -0.49460  -0.49415  -0.49296  -0.48309  -0.48284
 Alpha  occ. eigenvalues --   -0.37495  -0.37494  -0.36659  -0.36643
 Alpha virt. eigenvalues --    0.03209   0.03698   0.03982   0.03999   0.04714
 Alpha virt. eigenvalues --    0.04864   0.04905   0.06323   0.06354   0.06555
 Alpha virt. eigenvalues --    0.08281   0.08391   0.08648   0.09180   0.09441

 Mulliken charges:
               1
     1  C    0.375456
     2  C    0.815161
     3  C   -0.528539
     4  C    0.973321
     5  C    0.340381
     6  C    1.496045
     7  H   -0.641580
     8  H   -0.435842
     9  C   -0.200536
    10  O   -0.369674
    11  O   -0.409758
    12  O   -0.409744
    13  C   -0.200539
    14  O   -0.369672
    15  C    1.496060
    16  C    0.375450
    17  C    0.340364
    18  C    0.973318
    19  C    0.815154
    20  C   -0.528529
    21  H   -0.641580
    22  H   -0.435841
    23  H   -0.424273
    24  H   -0.424273
    25  H   -0.650345
    26  H   -0.650344
    27  Cl  -0.339821
    28  Cl  -0.339821
 Sum of Mulliken charges =   0.00000

 Dipole moment (field-independent basis, Debye):
    X=              0.0000    Y=              0.0000    Z=              1.4904  Tot=              1.4904

 Test job not archived.
 1\1\GINC-SE095\SP\RHF\Aug-CC-pVDZ\C14H8Cl2O4\OHZDE\08-Apr-2025\0\\#t h
 f aug-cc-pvdz iop(5/13=1,5/36=2,99/5=2) pseudo=read geom=check guess=(
 read,tcheck) scf=(maxcycle=1)\\title\\0,1\C,0,-3.387405,-0.587553,0.84
 9852\C,0,-4.761286,-0.793966,0.8625\C,0,-5.568821,-0.047284,0.008268\C
 ,0,-5.028498,0.899425,-0.859125\C,0,-3.655086,1.098909,-0.866536\C,0,-
 2.827057,0.360878,-0.013859\H,0,-2.753076,-1.166667,1.507057\H,0,-5.20
 4589,-1.525791,1.52467\C,0,-1.368506,0.637429,-0.08668\O,0,-0.822938,1
 .406975,-0.82032\O,0,-0.699712,-0.139143,0.851004\O,0,0.699709,0.13909

 Normal termination of Gaussian 16 at Tue Apr  8 23:06:46 2025.
