 Gaussian 16, Revision C.01,

 ----------------------------------------------------------------------
 #t hf aug-cc-pvdz symm=none int=(grid=ultrafine) guess=(read,tcheck) s
 table=(opt,rrhf)
 ----------------------------------------------------------------------
 -----
 title
 -----
 Symbolic Z-matrix:
 Charge =  0 Multiplicity = 1

 SCF Done:  E(RHF) =  -798.238567121     A.U. after   13 cycles
 Normal termination of Gaussian 16 at Tue Apr  8 23:39:28 2025.
 Gaussian 16:  ES64L-G16RevC.01  3-Jul-2019

 ----------------------------------------------------------------------
 #t hf aug-cc-pvdz iop(5/13=1,5/36=2,99/5=2) pseudo=read geom=check gue
 ss=(read,tcheck) scf=(maxcycle=1)
 ----------------------------------------------------------------------
 -----
 title
 -----
 Structure from the checkpoint file:  "BDE49_nonexpt_1612_mol1.chk"
 Charge =  0 Multiplicity = 1

                         Standard orientation:
 ---------------------------------------------------------------------
 Center     Atomic      Atomic             Coordinates (Angstroms)
 Number     Number       Type             X           Y           Z
 ---------------------------------------------------------------------
      1          8           0        0.134440    0.143589    0.600204
      2         15           0       -1.252845   -0.222927   -0.070500
      3          8           0       -1.282672   -1.151312   -1.196582
      4          6           0        1.272948    0.610615   -0.207236
      5          6           0        1.440090    2.102855    0.032832
      6          1           0        0.530543    2.638997   -0.241448
      7          1           0        2.267837    2.490405   -0.567227
      8          1           0        1.656196    2.297568    1.086511
      9          6           0        2.486884   -0.221240    0.191872
     10          6           0        2.342132   -1.716076   -0.100438
     11          1           0        2.679449   -0.058549    1.258339
     12          1           0        3.349954    0.184248   -0.348324
     13          1           0        1.515445   -2.149231    0.464835
     14          1           0        3.254914   -2.252517    0.170309
     15          1           0        2.146013   -1.896083   -1.160941
     16          1           0        1.031667    0.417451   -1.257474
     17          8           0       -2.076915   -0.725453    1.196507
     18          1           0       -1.927129   -0.189329    1.984350
     19          8           0       -1.838975    1.236160   -0.432382
     20          1           0       -2.451575    1.180152   -1.175593
 ---------------------------------------------------------------------

 SCF Done:  E(RHF) =  -798.461656043     A.U. after    2 cycles

 The electronic state is 1-A.
 Alpha  occ. eigenvalues --  -81.44353 -20.61638 -20.61610 -20.60455 -20.52496
 Alpha  occ. eigenvalues --  -11.31764 -11.24191 -11.23853 -11.22397  -7.92274
 Alpha  occ. eigenvalues --   -5.06992  -5.06881  -5.06847  -1.39589  -1.35004
 Alpha  occ. eigenvalues --   -1.34523  -1.26145  -1.07605  -0.99447  -0.88763
 Alpha  occ. eigenvalues --   -0.84496  -0.80675  -0.78556  -0.74194  -0.67148
 Alpha  occ. eigenvalues --   -0.66467  -0.64821  -0.62160  -0.61655  -0.59215
 Alpha  occ. eigenvalues --   -0.58766  -0.57650  -0.56216  -0.55676  -0.53293
 Alpha  occ. eigenvalues --   -0.52431  -0.49755  -0.49494  -0.49232  -0.48163
 Alpha  occ. eigenvalues --   -0.47109
 Alpha virt. eigenvalues --    0.02961   0.04093   0.04268   0.04691   0.05674
 Alpha virt. eigenvalues --    0.06372   0.06878   0.07101   0.07694   0.09136
 Alpha virt. eigenvalues --    0.09676   0.10452   0.12136   0.13020   0.13578

 Mulliken charges:
               1
     1  O   -1.081656
     2  P    2.521869
     3  O   -0.840141
     4  C   -0.280550
     5  C    0.523837
     6  H   -0.058159
     7  H    0.011500
     8  H   -0.007739
     9  C    0.362224
    10  C    0.497407
    11  H   -0.092651
    12  H   -0.048293
    13  H   -0.043296
    14  H   -0.087406
    15  H   -0.055547
    16  H   -0.263968
    17  O   -0.637762
    18  H    0.144195
    19  O   -0.743354
    20  H    0.179490
 Sum of Mulliken charges =  -0.00000

 Dipole moment (field-independent basis, Debye):
    X=              1.4659    Y=              3.3742    Z=              1.3629  Tot=              3.9232

 Test job not archived.
 1\1\GINC-SE339\SP\RHF\Aug-CC-pVDZ\C4H11O4P1\OHZDE\08-Apr-2025\0\\#t hf
  aug-cc-pvdz iop(5/13=1,5/36=2,99/5=2) pseudo=read geom=check guess=(r
 ead,tcheck) scf=(maxcycle=1)\\title\\0,1\O,0,0.13444,0.143589,0.600204
 \P,0,-1.252845,-0.222927,-0.0705\O,0,-1.282672,-1.151312,-1.196582\C,0
 ,1.272948,0.610615,-0.207236\C,0,1.44009,2.102855,0.032832\H,0,0.53054
 3,2.638997,-0.241448\H,0,2.267837,2.490405,-0.567227\H,0,1.656196,2.29
 7568,1.086511\C,0,2.486884,-0.22124,0.191872\C,0,2.342132,-1.716076,-0
 .100438\H,0,2.679449,-0.058549,1.258339\H,0,3.349954,0.184248,-0.34832

 Normal termination of Gaussian 16 at Tue Apr  8 23:39:38 2025.
