 Gaussian 16, Revision C.01,

 ----------------------------------------------------------------------
 #t hf aug-cc-pvdz symm=none int=(grid=ultrafine) guess=(read,tcheck) s
 table=(opt,rrhf)
 ----------------------------------------------------------------------
 -----
 title
 -----
 Symbolic Z-matrix:
 Charge =  0 Multiplicity = 1

 SCF Done:  E(RHF) =  -918.340249508     A.U. after   15 cycles
 Normal termination of Gaussian 16 at Wed Apr  9 00:14:48 2025.
 Gaussian 16:  ES64L-G16RevC.01  3-Jul-2019

 ----------------------------------------------------------------------
 #t hf aug-cc-pvdz iop(5/13=1,5/36=2,99/5=2) pseudo=read geom=check gue
 ss=(read,tcheck) scf=(maxcycle=1)
 ----------------------------------------------------------------------
 -----
 title
 -----
 Structure from the checkpoint file:  "BDE49_nonexpt_2509_mol1.chk"
 Charge =  0 Multiplicity = 1

                         Standard orientation:
 ---------------------------------------------------------------------
 Center     Atomic      Atomic             Coordinates (Angstroms)
 Number     Number       Type             X           Y           Z
 ---------------------------------------------------------------------
      1          6           0        2.939386    0.976486    0.000001
      2         16           0        2.209782   -0.715836    0.000001
      3          1           0        2.649580    1.525318   -0.894565
      4          1           0        2.649579    1.525318    0.894566
      5         14           0        0.135842   -0.249640    0.000000
      6          6           0       -0.560991    1.372955   -0.000001
      7          6           0       -1.959764    1.439494   -0.000001
      8          6           0       -1.137214   -1.473593    0.000000
      9          6           0       -2.449206   -0.993536   -0.000001
     10          6           0       -2.839387    0.352448   -0.000001
     11          1           0       -3.902142    0.566430   -0.000002
     12          1           0       -2.410969    2.430070   -0.000002
     13          1           0        0.001384    2.299005   -0.000001
     14          1           0       -0.971977   -2.544542    0.000001
     15          1           0       -3.249876   -1.730885    0.000000
     16          1           0        4.019171    0.832108    0.000001
 ---------------------------------------------------------------------

 SCF Done:  E(RHF) =  -918.450249723     A.U. after    2 cycles

 The electronic state is 1-A.
 Alpha  occ. eigenvalues --  -93.54562 -69.08110 -11.28829 -11.26057 -11.26006
 Alpha  occ. eigenvalues --  -11.22734 -11.22576 -11.22319  -8.84414  -6.83694
 Alpha  occ. eigenvalues --   -6.18531  -6.18345  -6.18055  -3.94428  -3.94363
 Alpha  occ. eigenvalues --   -3.94349  -1.09723  -1.03691  -1.00423  -0.92360
 Alpha  occ. eigenvalues --   -0.86897  -0.80009  -0.72847  -0.67944  -0.62059
 Alpha  occ. eigenvalues --   -0.61048  -0.59686  -0.58480  -0.57615  -0.52843
 Alpha  occ. eigenvalues --   -0.50267  -0.47605  -0.44971  -0.43423  -0.38967
 Alpha  occ. eigenvalues --   -0.35321  -0.27453
 Alpha virt. eigenvalues --    0.03013   0.03884   0.04297   0.05364   0.05586
 Alpha virt. eigenvalues --    0.05844   0.06948   0.07830   0.07926   0.08380
 Alpha virt. eigenvalues --    0.08941   0.09621   0.10038   0.10171   0.12147

 Mulliken charges:
               1
     1  C    0.232125
     2  S   -0.191006
     3  H   -0.148007
     4  H   -0.148009
     5  Si   1.255930
     6  C    0.412248
     7  C    0.234194
     8  C    0.496418
     9  C    0.162071
    10  C    0.315119
    11  H   -0.480746
    12  H   -0.455157
    13  H   -0.550710
    14  H   -0.571126
    15  H   -0.442607
    16  H   -0.120736
 Sum of Mulliken charges =  -0.00000

 Dipole moment (field-independent basis, Debye):
    X=              1.4709    Y=              1.3376    Z=              0.0000  Tot=              1.9881

 Test job not archived.
 1\1\GINC-SE132\SP\RHF\Aug-CC-pVDZ\C6H8S1Si1\OHZDE\09-Apr-2025\0\\#t hf
  aug-cc-pvdz iop(5/13=1,5/36=2,99/5=2) pseudo=read geom=check guess=(r
 ead,tcheck) scf=(maxcycle=1)\\title\\0,1\C,0,2.939386,0.976486,0.00000
 1\S,0,2.209782,-0.715836,0.000001\H,0,2.64958,1.525318,-0.894565\H,0,2
 .649579,1.525318,0.894566\Si,0,0.135842,-0.24964,0.\C,0,-0.560991,1.37
 2955,-0.000001\C,0,-1.959764,1.439494,-0.000001\C,0,-1.137214,-1.47359
 3,0.\C,0,-2.449206,-0.993536,-0.000001\C,0,-2.839387,0.352448,-0.00000
 1\H,0,-3.902142,0.56643,-0.000002\H,0,-2.410969,2.43007,-0.000002\H,0,

 Normal termination of Gaussian 16 at Wed Apr  9 00:14:56 2025.
