 Gaussian 16, Revision C.01,

 ----------------------------------------------------------------------
 #t hf aug-cc-pvdz symm=none int=(grid=ultrafine) guess=(read,tcheck) s
 table=(opt,rrhf)
 ----------------------------------------------------------------------
 -----
 title
 -----
 Symbolic Z-matrix:
 Charge =  0 Multiplicity = 1

 SCF Done:  E(RHF) =  -1204.13908671     A.U. after   20 cycles
 Normal termination of Gaussian 16 at Tue Apr  8 22:57:07 2025.
 Gaussian 16:  ES64L-G16RevC.01  3-Jul-2019

 ----------------------------------------------------------------------
 #t hf aug-cc-pvdz iop(5/13=1,5/36=2,99/5=2) pseudo=read geom=check gue
 ss=(read,tcheck) scf=(maxcycle=1)
 ----------------------------------------------------------------------
 -----
 title
 -----
 Structure from the checkpoint file:  "BDE49_expt_1756_mol1.chk"
 Charge =  0 Multiplicity = 1

                         Standard orientation:
 ---------------------------------------------------------------------
 Center     Atomic      Atomic             Coordinates (Angstroms)
 Number     Number       Type             X           Y           Z
 ---------------------------------------------------------------------
      1          6           0       -2.486610    1.531554    0.222505
      2          6           0       -1.392377    2.358138   -0.019715
      3          6           0       -0.167540    1.812170   -0.392804
      4          6           0       -2.333121    0.157091    0.084456
      5          6           0       -1.126691   -0.423336   -0.284907
      6          6           0       -0.050452    0.426297   -0.513522
      7          1           0       -1.496591    3.431555    0.077252
      8          1           0        0.688797    2.442722   -0.592502
      9          1           0       -1.045013   -1.494314   -0.403286
     10         16           0        1.516951   -0.276042   -1.006447
     11          8           0        1.300294   -1.637923   -1.413090
     12          8           0        2.204861    0.690388   -1.809152
     13          7           0        2.380988   -0.401176    0.479328
     14          7           0        2.808039    0.792483    0.988508
     15          8           0        3.349356    0.695733    2.062987
     16          6           0        2.512753   -1.648956    1.237995
     17          1           0        2.147631   -2.462258    0.618638
     18          1           0        1.946036   -1.582135    2.169361
     19          1           0        3.565321   -1.801824    1.478220
     20          7           0       -3.499209   -0.726588    0.334907
     21          8           0       -4.553478   -0.189980    0.639733
     22          8           0       -3.325001   -1.930328    0.222364
     23          1           0       -3.450156    1.929016    0.509482
 ---------------------------------------------------------------------

 SCF Done:  E(RHF) =  -1204.45974268     A.U. after    2 cycles

 The electronic state is 1-A.
 Alpha  occ. eigenvalues --  -93.85054 -20.65052 -20.63969 -20.63957 -20.60371
 Alpha  occ. eigenvalues --  -20.60032 -15.94302 -15.83585 -15.73526 -11.35046
 Alpha  occ. eigenvalues --  -11.32955 -11.32457 -11.31981 -11.31938 -11.30755
 Alpha  occ. eigenvalues --  -11.30378  -9.11260  -6.45948  -6.45809  -6.45655
 Alpha  occ. eigenvalues --   -1.57301  -1.51281  -1.47566  -1.38944  -1.35874
 Alpha  occ. eigenvalues --   -1.26416  -1.22602  -1.12039  -1.09084  -1.02906
 Alpha  occ. eigenvalues --   -0.98562  -0.97377  -0.90183  -0.86985  -0.83185
 Alpha  occ. eigenvalues --   -0.80500  -0.77730  -0.76263  -0.75137  -0.74954
 Alpha  occ. eigenvalues --   -0.73764  -0.72969  -0.70960  -0.69059  -0.68163
 Alpha  occ. eigenvalues --   -0.67189  -0.66604  -0.60836  -0.60596  -0.60225
 Alpha  occ. eigenvalues --   -0.59017  -0.57744  -0.56633  -0.56187  -0.54015
 Alpha  occ. eigenvalues --   -0.53766  -0.53447  -0.51422  -0.49547  -0.46429
 Alpha  occ. eigenvalues --   -0.45728  -0.41206  -0.40607
 Alpha virt. eigenvalues --    0.00735   0.02311   0.03167   0.04327   0.04444
 Alpha virt. eigenvalues --    0.05072   0.05283   0.06070   0.07561   0.07821
 Alpha virt. eigenvalues --    0.09074   0.09546   0.10185   0.10476   0.11059

 Mulliken charges:
               1
     1  C    0.448115
     2  C    0.804221
     3  C   -0.091841
     4  C    1.363977
     5  C   -0.328528
     6  C    0.589932
     7  H   -0.431135
     8  H   -0.583907
     9  H   -0.542331
    10  S    2.787067
    11  O   -0.961664
    12  O   -1.016621
    13  N   -0.536713
    14  N   -0.049730
    15  O   -0.454995
    16  C    0.886672
    17  H   -0.199905
    18  H   -0.062617
    19  H   -0.128204
    20  N    0.064784
    21  O   -0.561506
    22  O   -0.539139
    23  H   -0.455932
 Sum of Mulliken charges =   0.00000

 Dipole moment (field-independent basis, Debye):
    X=             -0.2373    Y=              2.3787    Z=              1.4267  Tot=              2.7839

 Test job not archived.
 1\1\GINC-SE403\SP\RHF\Aug-CC-pVDZ\C7H7N3O5S1\OHZDE\08-Apr-2025\0\\#t h
 f aug-cc-pvdz iop(5/13=1,5/36=2,99/5=2) pseudo=read geom=check guess=(
 read,tcheck) scf=(maxcycle=1)\\title\\0,1\C,0,-2.48661,1.531554,0.2225
 05\C,0,-1.392377,2.358138,-0.019715\C,0,-0.16754,1.81217,-0.392804\C,0
 ,-2.333121,0.157091,0.084456\C,0,-1.126691,-0.423336,-0.284907\C,0,-0.
 050452,0.426297,-0.513522\H,0,-1.496591,3.431555,0.077252\H,0,0.688797
 ,2.442722,-0.592502\H,0,-1.045013,-1.494314,-0.403286\S,0,1.516951,-0.
 276042,-1.006447\O,0,1.300294,-1.637923,-1.41309\O,0,2.204861,0.690388

 Normal termination of Gaussian 16 at Tue Apr  8 22:57:32 2025.
