 Gaussian 16, Revision C.01,

 ----------------------------------------------------------------------
 #t hf aug-cc-pvdz symm=none int=(grid=ultrafine) guess=(read,tcheck) s
 table=(opt,rrhf)
 ----------------------------------------------------------------------
 -----
 title
 -----
 Symbolic Z-matrix:
 Charge =  0 Multiplicity = 1

 SCF Done:  E(RHF) =  -371.319714241     A.U. after   12 cycles
 Normal termination of Gaussian 16 at Wed Apr  9 00:33:37 2025.
 Gaussian 16:  ES64L-G16RevC.01  3-Jul-2019

 ----------------------------------------------------------------------
 #t hf aug-cc-pvdz iop(5/13=1,5/36=2,99/5=2) pseudo=read geom=check gue
 ss=(read,tcheck) scf=(maxcycle=1)
 ----------------------------------------------------------------------
 -----
 title
 -----
 Structure from the checkpoint file:  "BDE49_nonexpt_446_mol1.chk"
 Charge =  0 Multiplicity = 1

                         Standard orientation:
 ---------------------------------------------------------------------
 Center     Atomic      Atomic             Coordinates (Angstroms)
 Number     Number       Type             X           Y           Z
 ---------------------------------------------------------------------
      1          9           0       -2.373881    0.012930   -0.109345
      2          8           0       -0.421925   -1.224084    0.014723
      3          7           0       -0.316676    1.203623    0.084107
      4          6           0        1.705261   -0.069317   -0.389028
      5          6           0        1.141550    1.246570    0.154205
      6          6           0        0.992435   -1.269310    0.231193
      7          5           0       -1.032618   -0.003831   -0.001020
      8          1           0        1.350404   -2.202889   -0.207337
      9          1           0        1.181708   -1.310619    1.310971
     10          1           0        2.778006   -0.134230   -0.183986
     11          1           0        1.572485   -0.100467   -1.475447
     12          1           0       -0.803718    2.084715    0.111598
     13          1           0        1.522083    2.084506   -0.438454
     14          1           0        1.483703    1.401427    1.187110
 ---------------------------------------------------------------------

 SCF Done:  E(RHF) =  -371.448849513     A.U. after    2 cycles

 The electronic state is 1-A.
 Alpha  occ. eigenvalues --  -26.09581 -20.57095 -15.61464 -11.29978 -11.28142
 Alpha  occ. eigenvalues --  -11.24777  -7.68257  -1.63456  -1.33288  -1.16709
 Alpha  occ. eigenvalues --   -1.03833  -0.92142  -0.84614  -0.78315  -0.73228
 Alpha  occ. eigenvalues --   -0.72797  -0.71270  -0.67528  -0.63097  -0.61633
 Alpha  occ. eigenvalues --   -0.61018  -0.59394  -0.54843  -0.52563  -0.47384
 Alpha  occ. eigenvalues --   -0.47100  -0.39521
 Alpha virt. eigenvalues --    0.02933   0.04054   0.04275   0.04773   0.06621
 Alpha virt. eigenvalues --    0.06715   0.07003   0.07560   0.07738   0.09480
 Alpha virt. eigenvalues --    0.11597   0.13063   0.13804   0.14435   0.14628

 Mulliken charges:
               1
     1  F   -0.475750
     2  O   -0.547380
     3  N   -0.322811
     4  C   -0.066905
     5  C    0.752581
     6  C    0.867663
     7  B    0.681539
     8  H   -0.184212
     9  H   -0.152751
    10  H   -0.049347
    11  H   -0.101852
    12  H   -0.120983
    13  H   -0.152396
    14  H   -0.127395
 Sum of Mulliken charges =  -0.00000

 Dipole moment (field-independent basis, Debye):
    X=              3.7316    Y=              1.7816    Z=              0.3469  Tot=              4.1496

 Test job not archived.
 1\1\GINC-SE090\SP\RHF\Aug-CC-pVDZ\C3H7B1F1N1O1\OHZDE\09-Apr-2025\0\\#t
  hf aug-cc-pvdz iop(5/13=1,5/36=2,99/5=2) pseudo=read geom=check guess
 =(read,tcheck) scf=(maxcycle=1)\\title\\0,1\F,0,-2.373881,0.01293,-0.1
 09345\O,0,-0.421925,-1.224084,0.014723\N,0,-0.316676,1.203623,0.084107
 \C,0,1.705261,-0.069317,-0.389028\C,0,1.14155,1.24657,0.154205\C,0,0.9
 92435,-1.26931,0.231193\B,0,-1.032618,-0.003831,-0.00102\H,0,1.350404,
 -2.202889,-0.207337\H,0,1.181708,-1.310619,1.310971\H,0,2.778006,-0.13
 423,-0.183986\H,0,1.572485,-0.100467,-1.475447\H,0,-0.803718,2.084715,

 Normal termination of Gaussian 16 at Wed Apr  9 00:33:42 2025.
