 Gaussian 16, Revision C.01,

 ----------------------------------------------------------------------
 #t hf aug-cc-pvdz symm=none int=(grid=ultrafine) guess=(read,tcheck) s
 table=(opt,rrhf)
 ----------------------------------------------------------------------
 -----
 title
 -----
 Symbolic Z-matrix:
 Charge =  0 Multiplicity = 1

 SCF Done:  E(RHF) =  -559.786663731     A.U. after   16 cycles
 Normal termination of Gaussian 16 at Wed Apr  9 00:40:17 2025.
 Gaussian 16:  ES64L-G16RevC.01  3-Jul-2019

 ----------------------------------------------------------------------
 #t hf aug-cc-pvdz iop(5/13=1,5/36=2,99/5=2) pseudo=read geom=check gue
 ss=(read,tcheck) scf=(maxcycle=1)
 ----------------------------------------------------------------------
 -----
 title
 -----
 Structure from the checkpoint file:  "BDE49_nonexpt_665_mol1.chk"
 Charge =  0 Multiplicity = 1

                         Standard orientation:
 ---------------------------------------------------------------------
 Center     Atomic      Atomic             Coordinates (Angstroms)
 Number     Number       Type             X           Y           Z
 ---------------------------------------------------------------------
      1          9           0       -2.180357    1.843746   -0.029829
      2          7           0       -3.314270   -0.619298   -0.061105
      3          1           0       -3.705571   -1.473721    0.303315
      4          1           0       -3.833047    0.208294    0.190399
      5          5           0        2.436944    0.084202    0.003617
      6          8           0        2.906253    1.366881    0.072527
      7          1           0        3.868459    1.393384    0.054989
      8          6           0       -1.339548    0.769544   -0.019677
      9          8           0        3.371190   -0.921317   -0.063177
     10          1           0        2.995508   -1.800897   -0.142866
     11          6           0       -1.937242   -0.499237   -0.000096
     12          6           0       -1.071297   -1.601635    0.026059
     13          1           0       -1.492756   -2.601467    0.040408
     14          6           0        0.306343   -1.419418    0.027637
     15          1           0        0.928721   -2.310136    0.055431
     16          6           0        0.894098   -0.145974    0.003492
     17          6           0        0.021897    0.958605   -0.016126
     18          1           0        0.412014    1.969089   -0.026104
 ---------------------------------------------------------------------

 SCF Done:  E(RHF) =  -559.965409695     A.U. after    2 cycles

 The electronic state is 1-A.
 Alpha  occ. eigenvalues --  -26.13351 -20.58341 -20.57451 -15.64567 -11.32867
 Alpha  occ. eigenvalues --  -11.31072 -11.26202 -11.25732 -11.25033 -11.22531
 Alpha  occ. eigenvalues --   -7.65665  -1.66848  -1.34321  -1.30463  -1.21534
 Alpha  occ. eigenvalues --   -1.13144  -1.02622  -0.99833  -0.87019  -0.85513
 Alpha  occ. eigenvalues --   -0.79126  -0.76867  -0.75349  -0.74792  -0.72911
 Alpha  occ. eigenvalues --   -0.71085  -0.67735  -0.65464  -0.61585  -0.60497
 Alpha  occ. eigenvalues --   -0.59176  -0.58710  -0.57860  -0.54533  -0.52322
 Alpha  occ. eigenvalues --   -0.52079  -0.49331  -0.46043  -0.35350  -0.30988
 Alpha virt. eigenvalues --    0.02687   0.03437   0.04345   0.05417   0.05899
 Alpha virt. eigenvalues --    0.06069   0.07658   0.07897   0.08148   0.09258
 Alpha virt. eigenvalues --    0.10187   0.10398   0.10870   0.12592   0.12862

 Mulliken charges:
               1
     1  F   -0.342541
     2  N   -0.339723
     3  H   -0.036013
     4  H   -0.015863
     5  B    0.674836
     6  O   -0.533449
     7  H    0.201220
     8  C    0.500927
     9  O   -0.544241
    10  H    0.212807
    11  C    0.312809
    12  C    1.021006
    13  H   -0.574022
    14  C    0.319600
    15  H   -0.668530
    16  C   -0.142569
    17  C    0.586995
    18  H   -0.633250
 Sum of Mulliken charges =  -0.00000

 Dipole moment (field-independent basis, Debye):
    X=             -0.8893    Y=             -3.1192    Z=              0.7780  Tot=              3.3355

 Test job not archived.
 1\1\GINC-SE338\SP\RHF\Aug-CC-pVDZ\C6H7B1F1N1O2\OHZDE\09-Apr-2025\0\\#t
  hf aug-cc-pvdz iop(5/13=1,5/36=2,99/5=2) pseudo=read geom=check guess
 =(read,tcheck) scf=(maxcycle=1)\\title\\0,1\F,0,-2.180357,1.843746,-0.
 029829\N,0,-3.31427,-0.619298,-0.061105\H,0,-3.705571,-1.473721,0.3033
 15\H,0,-3.833047,0.208294,0.190399\B,0,2.436944,0.084202,0.003617\O,0,
 2.906253,1.366881,0.072527\H,0,3.868459,1.393384,0.054989\C,0,-1.33954
 8,0.769544,-0.019677\O,0,3.37119,-0.921317,-0.063177\H,0,2.995508,-1.8
 00897,-0.142866\C,0,-1.937242,-0.499237,-0.000096\C,0,-1.071297,-1.601

 Normal termination of Gaussian 16 at Wed Apr  9 00:40:25 2025.
