 Gaussian 16, Revision C.01,

 ----------------------------------------------------------------------
 #t hf aug-cc-pvdz symm=none int=(grid=ultrafine) guess=(read,tcheck) s
 table=(opt,rrhf)
 ----------------------------------------------------------------------
 -----
 title
 -----
 Symbolic Z-matrix:
 Charge =  0 Multiplicity = 1

 SCF Done:  E(RHF) =  -156.125911390     A.U. after   11 cycles
 Normal termination of Gaussian 16 at Tue Apr  8 23:03:43 2025.
 Gaussian 16:  ES64L-G16RevC.01  3-Jul-2019

 ----------------------------------------------------------------------
 #t hf aug-cc-pvdz iop(5/13=1,5/36=2,99/5=2) pseudo=read geom=check gue
 ss=(read,tcheck) scf=(maxcycle=1)
 ----------------------------------------------------------------------
 -----
 title
 -----
 Structure from the checkpoint file:  "BDE49_expt_39_mol1.chk"
 Charge =  0 Multiplicity = 1

                         Standard orientation:
 ---------------------------------------------------------------------
 Center     Atomic      Atomic             Coordinates (Angstroms)
 Number     Number       Type             X           Y           Z
 ---------------------------------------------------------------------
      1          6           0       -0.000000    0.663468    0.667202
      2          6           0       -0.000000    0.663468   -0.667202
      3          6           0        0.000000   -0.521741    1.589833
      4          1           0       -0.000000    1.631382    1.165003
      5          1           0       -0.878133   -0.503254    2.245325
      6          1           0        0.878135   -0.503256    2.245323
      7          1           0       -0.000002   -1.475235    1.059771
      8          6           0        0.000000   -0.521741   -1.589833
      9          1           0       -0.878133   -0.503254   -2.245325
     10          1           0       -0.000002   -1.475235   -1.059771
     11          1           0        0.878135   -0.503256   -2.245323
     12          1           0       -0.000000    1.631382   -1.165003
 ---------------------------------------------------------------------

 SCF Done:  E(RHF) =  -156.177624010     A.U. after    2 cycles

 The electronic state is 1-A'.
 Alpha  occ. eigenvalues --  -11.23419 -11.23258 -11.22920 -11.22918  -1.06754
 Alpha  occ. eigenvalues --   -0.97297  -0.89265  -0.72151  -0.65499  -0.57397
 Alpha  occ. eigenvalues --   -0.57363  -0.55442  -0.53756  -0.51528  -0.47374
 Alpha  occ. eigenvalues --   -0.34525
 Alpha virt. eigenvalues --    0.03594   0.04630   0.04888   0.05759   0.06501
 Alpha virt. eigenvalues --    0.06906   0.07215   0.09604   0.11941   0.13595
 Alpha virt. eigenvalues --    0.13917   0.14942   0.14962   0.15749   0.16618

 Mulliken charges:
               1
     1  C    0.180735
     2  C    0.180735
     3  C    0.215861
     4  H   -0.405775
     5  H    0.073176
     6  H    0.073177
     7  H   -0.137174
     8  C    0.215861
     9  H    0.073176
    10  H   -0.137174
    11  H    0.073177
    12  H   -0.405775
 Sum of Mulliken charges =  -0.00000

 Dipole moment (field-independent basis, Debye):
    X=             -0.0000    Y=             -0.2600    Z=              0.0000  Tot=              0.2600

 Test job not archived.
 1\1\GINC-SE460\SP\RHF\Aug-CC-pVDZ\C4H8\OHZDE\08-Apr-2025\0\\#t hf aug-
 cc-pvdz iop(5/13=1,5/36=2,99/5=2) pseudo=read geom=check guess=(read,t
 check) scf=(maxcycle=1)\\title\\0,1\C,0,0.,0.663468,0.667202\C,0,0.,0.
 663468,-0.667202\C,0,0.,-0.521741,1.589833\H,0,0.,1.631382,1.165003\H,
 0,-0.878133,-0.503254,2.245325\H,0,0.878135,-0.503256,2.245323\H,0,-0.
 000002,-1.475235,1.059771\C,0,0.,-0.521741,-1.589833\H,0,-0.878133,-0.
 503254,-2.245325\H,0,-0.000002,-1.475235,-1.059771\H,0,0.878135,-0.503
 256,-2.245323\H,0,0.,1.631382,-1.165003\\Version=ES64L-G16RevC.01\Stat

 Normal termination of Gaussian 16 at Tue Apr  8 23:03:45 2025.
