 Gaussian 16, Revision C.01,

 ----------------------------------------------------------------------
 #t hf aug-cc-pvdz symm=none int=(grid=ultrafine) guess=(read,tcheck) s
 table=(opt,rrhf)
 ----------------------------------------------------------------------
 -----
 title
 -----
 Symbolic Z-matrix:
 Charge =  0 Multiplicity = 1

 SCF Done:  E(RHF) =  -930.887250982     A.U. after   15 cycles
 Normal termination of Gaussian 16 at Tue Apr  8 23:24:09 2025.
 Gaussian 16:  ES64L-G16RevC.01  3-Jul-2019

 ----------------------------------------------------------------------
 #t hf aug-cc-pvdz iop(5/13=1,5/36=2,99/5=2) pseudo=read geom=check gue
 ss=(read,tcheck) scf=(maxcycle=1)
 ----------------------------------------------------------------------
 -----
 title
 -----
 Structure from the checkpoint file:  "BDE49_nonexpt_1191_mol1.chk"
 Charge =  0 Multiplicity = 1

                         Standard orientation:
 ---------------------------------------------------------------------
 Center     Atomic      Atomic             Coordinates (Angstroms)
 Number     Number       Type             X           Y           Z
 ---------------------------------------------------------------------
      1          8           0        0.863617    1.050315   -0.600611
      2         16           0       -0.633008    1.537622    0.016749
      3          6           0       -1.563448    0.007680   -0.226909
      4          6           0        1.681088    0.275421    0.210304
      5          8           0        1.411446   -0.033447    1.335000
      6          8           0       -1.051306   -0.992500   -0.655732
      7          6           0        2.909762   -0.079159   -0.536068
      8          6           0        4.191935   -0.220792    0.270221
      9          6           0        3.515749   -1.443966   -0.248333
     10          1           0        4.113071   -0.015341    1.330098
     11          1           0        5.103123    0.118454   -0.206264
     12          1           0        3.948229   -1.966988   -1.091842
     13          1           0        2.979128   -2.061524    0.460196
     14          1           0        2.972761    0.307099   -1.543427
     15          6           0       -2.983727    0.159200    0.173793
     16          6           0       -4.014743   -0.663859   -0.583366
     17          6           0       -3.655313   -1.048291    0.811816
     18          1           0       -3.279819    1.142200    0.524250
     19          1           0       -4.358181   -0.847913    1.610585
     20          1           0       -3.026842   -1.919263    0.947406
     21          1           0       -3.628939   -1.277188   -1.387814
     22          1           0       -4.972275   -0.193827   -0.769187
 ---------------------------------------------------------------------

 SCF Done:  E(RHF) =  -931.076301573     A.U. after    2 cycles

 The electronic state is 1-A.
 Alpha  occ. eigenvalues --  -93.61001 -20.64072 -20.57768 -20.56516 -11.40219
 Alpha  occ. eigenvalues --  -11.38361 -11.27319 -11.26338 -11.26272 -11.26116
 Alpha  occ. eigenvalues --  -11.25426 -11.25329  -8.90166  -6.24409  -6.24011
 Alpha  occ. eigenvalues --   -6.23672  -1.41920  -1.37628  -1.33190  -1.16058
 Alpha  occ. eigenvalues --   -1.15139  -1.02457  -0.93374  -0.86803  -0.84376
 Alpha  occ. eigenvalues --   -0.83535  -0.77979  -0.74978  -0.73100  -0.71185
 Alpha  occ. eigenvalues --   -0.68742  -0.66724  -0.66401  -0.65752  -0.61288
 Alpha  occ. eigenvalues --   -0.58876  -0.58745  -0.57557  -0.55536  -0.53655
 Alpha  occ. eigenvalues --   -0.53399  -0.51273  -0.47814  -0.46880  -0.44587
 Alpha  occ. eigenvalues --   -0.44284  -0.43353  -0.41693  -0.38710
 Alpha virt. eigenvalues --    0.03254   0.03709   0.04796   0.04879   0.05246
 Alpha virt. eigenvalues --    0.05381   0.05682   0.06989   0.07409   0.08355
 Alpha virt. eigenvalues --    0.09131   0.10127   0.10179   0.10559   0.11520

 Mulliken charges:
               1
     1  O   -0.808027
     2  S    0.850328
     3  C   -0.592041
     4  C    0.038561
     5  O   -0.425349
     6  O   -0.506863
     7  C    1.015589
     8  C    0.791567
     9  C    0.659063
    10  H   -0.334570
    11  H   -0.336718
    12  H   -0.323173
    13  H   -0.312981
    14  H   -0.507455
    15  C    1.088748
    16  C    0.694536
    17  C    0.681439
    18  H   -0.385483
    19  H   -0.331361
    20  H   -0.308784
    21  H   -0.326640
    22  H   -0.320387
 Sum of Mulliken charges =  -0.00000

 Dipole moment (field-independent basis, Debye):
    X=             -1.2346    Y=              0.8677    Z=             -0.6678  Tot=              1.6502

 Test job not archived.
 1\1\GINC-SE106\SP\RHF\Aug-CC-pVDZ\C8H10O3S1\OHZDE\08-Apr-2025\0\\#t hf
  aug-cc-pvdz iop(5/13=1,5/36=2,99/5=2) pseudo=read geom=check guess=(r
 ead,tcheck) scf=(maxcycle=1)\\title\\0,1\O,0,0.863617,1.050315,-0.6006
 11\S,0,-0.633008,1.537622,0.016749\C,0,-1.563448,0.00768,-0.226909\C,0
 ,1.681088,0.275421,0.210304\O,0,1.411446,-0.033447,1.335\O,0,-1.051306
 ,-0.9925,-0.655732\C,0,2.909762,-0.079159,-0.536068\C,0,4.191935,-0.22
 0792,0.270221\C,0,3.515749,-1.443966,-0.248333\H,0,4.113071,-0.015341,
 1.330098\H,0,5.103123,0.118454,-0.206264\H,0,3.948229,-1.966988,-1.091

 Normal termination of Gaussian 16 at Tue Apr  8 23:24:26 2025.
