 Gaussian 16, Revision C.01,

 ----------------------------------------------------------------------
 #t hf aug-cc-pvdz symm=none int=(grid=ultrafine) guess=(read,tcheck) s
 table=opt
 ----------------------------------------------------------------------
 -----
 title
 -----
 Symbolic Z-matrix:
 Charge =  0 Multiplicity = 2

 SCF Done:  E(UHF) =  -718.814294290     A.U. after   18 cycles
 Normal termination of Gaussian 16 at Wed Apr  9 00:18:41 2025.
 Gaussian 16:  ES64L-G16RevC.01  3-Jul-2019

 ----------------------------------------------------------------------
 #t hf aug-cc-pvdz iop(5/13=1,5/36=2,99/5=2) pseudo=read geom=check gue
 ss=(read,tcheck) scf=(maxcycle=1)
 ----------------------------------------------------------------------
 -----
 title
 -----
 Structure from the checkpoint file:  "BDE49_nonexpt_2595_mol2.chk"
 Charge =  0 Multiplicity = 2

                         Standard orientation:
 ---------------------------------------------------------------------
 Center     Atomic      Atomic             Coordinates (Angstroms)
 Number     Number       Type             X           Y           Z
 ---------------------------------------------------------------------
      1         16           0       -2.483640    0.127322    0.000040
      2          8           0       -0.889314    0.568761   -0.000007
      3          6           0        0.109582   -0.442514   -0.000044
      4          8           0       -0.145179   -1.614584   -0.000014
      5          7           0        1.335024    0.137055   -0.000019
      6          6           0        1.592642    1.573637   -0.000010
      7          1           0        2.172039    1.847914   -0.887871
      8          1           0        2.172020    1.847907    0.887865
      9          1           0        0.659298    2.125016   -0.000018
     10          6           0        2.506362   -0.731106   -0.000000
     11          1           0        3.116940   -0.541716    0.888921
     12          1           0        3.116968   -0.541715   -0.888902
     13          1           0        2.180242   -1.767454   -0.000006
 ---------------------------------------------------------------------

 SCF Done:  E(UHF) =  -718.940622213     A.U. after    2 cycles

 The electronic state is 2-A.
 Alpha  occ. eigenvalues --  -93.61095 -20.65073 -20.55521 -15.67021 -11.43174
 Alpha  occ. eigenvalues --  -11.28535 -11.27961  -8.90159  -6.25370  -6.23979
 Alpha  occ. eigenvalues --   -6.23265  -1.42957  -1.34084  -1.23408  -1.00058
 Alpha  occ. eigenvalues --   -0.97923  -0.91470  -0.76821  -0.73742  -0.70227
 Alpha  occ. eigenvalues --   -0.69236  -0.64346  -0.62482  -0.59330  -0.57777
 Alpha  occ. eigenvalues --   -0.57261  -0.54922  -0.54748  -0.48505  -0.43513
 Alpha  occ. eigenvalues --   -0.39226  -0.38577
 Alpha virt. eigenvalues --    0.02991   0.04385   0.04717   0.05878   0.07065
 Alpha virt. eigenvalues --    0.07581   0.07991   0.08831   0.10412   0.12662
 Alpha virt. eigenvalues --    0.12787   0.13639   0.13912   0.14301   0.15159

  Beta  occ. eigenvalues --  -93.60220 -20.64502 -20.55554 -15.66980 -11.43194
  Beta  occ. eigenvalues --  -11.28539 -11.27967  -8.89186  -6.23587  -6.22740
  Beta  occ. eigenvalues --   -6.21415  -1.42133  -1.33285  -1.23271  -0.98639
  Beta  occ. eigenvalues --   -0.97276  -0.87562  -0.74840  -0.73646  -0.68522
  Beta  occ. eigenvalues --   -0.68168  -0.62353  -0.61826  -0.58101  -0.57360
  Beta  occ. eigenvalues --   -0.57217  -0.54645  -0.52674  -0.48432  -0.39313
  Beta  occ. eigenvalues --   -0.36490
  Beta virt. eigenvalues --    0.01415   0.02993   0.04389   0.04748   0.05965
  Beta virt. eigenvalues --    0.07431   0.07587   0.08010   0.08965   0.11201
  Beta virt. eigenvalues --    0.12767   0.13033   0.14058   0.14460   0.15180

 Mulliken charges and spin densities:
               1          2
     1  S    0.445713   0.987355
     2  O   -0.821290   0.014827
     3  C    0.355121   0.002776
     4  O   -0.369782  -0.006234
     5  N   -0.383540   0.005341
     6  C    0.824502   0.000002
     7  H   -0.097595   0.000193
     8  H   -0.097595   0.000193
     9  H   -0.237037  -0.002817
    10  C    0.756309  -0.002773
    11  H   -0.073026   0.000657
    12  H   -0.073019   0.000657
    13  H   -0.228761  -0.000178
 Sum of Mulliken charges =  -0.00000   1.00000

 Dipole moment (field-independent basis, Debye):
    X=              2.6282    Y=              2.4399    Z=             -0.0000  Tot=              3.5861
                          Isotropic Fermi Contact Couplings
        Atom                 a.u.       MegaHertz       Gauss      10(-4) cm-1
     1  S(33)              0.20312      69.76486      24.89384      23.27105
     2  O(17)              0.06086     -36.89459     -13.16491     -12.30671
     3  C(13)             -0.00396      -4.45595      -1.58999      -1.48634
     4  O(17)             -0.00393       2.38430       0.85078       0.79532
     5  N(14)              0.00362       1.16963       0.41735       0.39015
     6  C(13)             -0.00069      -0.77257      -0.27567      -0.25770
     7  H(1)               0.00009       0.40981       0.14623       0.13670
     8  H(1)               0.00009       0.40982       0.14623       0.13670

 Normal termination of Gaussian 16 at Wed Apr  9 00:18:46 2025.
