 Gaussian 16, Revision C.01,

 ----------------------------------------------------------------------
 #t hf aug-cc-pvdz symm=none int=(grid=ultrafine) guess=(read,tcheck) s
 table=(opt,rrhf)
 ----------------------------------------------------------------------
 -----
 title
 -----
 Symbolic Z-matrix:
 Charge =  0 Multiplicity = 1

 SCF Done:  E(RHF) =  -368.711723035     A.U. after   17 cycles
 Normal termination of Gaussian 16 at Wed Apr  9 00:25:56 2025.
 Gaussian 16:  ES64L-G16RevC.01  3-Jul-2019

 ----------------------------------------------------------------------
 #t hf aug-cc-pvdz iop(5/13=1,5/36=2,99/5=2) pseudo=read geom=check gue
 ss=(read,tcheck) scf=(maxcycle=1)
 ----------------------------------------------------------------------
 -----
 title
 -----
 Structure from the checkpoint file:  "BDE49_nonexpt_296_mol1.chk"
 Charge =  0 Multiplicity = 1

                         Standard orientation:
 ---------------------------------------------------------------------
 Center     Atomic      Atomic             Coordinates (Angstroms)
 Number     Number       Type             X           Y           Z
 ---------------------------------------------------------------------
      1          6           0       -1.859650    1.252814   -0.000053
      2          6           0       -0.468909    1.236113   -0.000093
      3          6           0        0.215454    0.015444   -0.000078
      4          6           0        1.677143    0.006075   -0.000158
      5          8           0        2.385619   -1.014510    0.000227
      6          5           0        2.941164    0.879637    0.000016
      7          6           0       -2.565662    0.050381    0.000017
      8          6           0       -1.886788   -1.171232    0.000042
      9          6           0       -0.499605   -1.190979   -0.000003
     10          1           0        0.052517   -2.123572    0.000008
     11          1           0       -2.393230    2.195993   -0.000073
     12          1           0        0.094439    2.162978   -0.000146
     13          1           0       -3.649903    0.063212    0.000053
     14          1           0       -2.444592   -2.100494    0.000094
     15          1           0        3.439208    1.163633    1.041179
     16          1           0        3.438905    1.164447   -1.041061
 ---------------------------------------------------------------------

 SCF Done:  E(RHF) =  -368.821816801     A.U. after    2 cycles

 The electronic state is 1-A.
 Alpha  occ. eigenvalues --  -20.58565 -11.33528 -11.27720 -11.27548 -11.27149
 Alpha  occ. eigenvalues --  -11.26740 -11.26545 -11.26435  -7.62267  -1.36596
 Alpha  occ. eigenvalues --   -1.16937  -1.05010  -1.03548  -0.89402  -0.85559
 Alpha  occ. eigenvalues --   -0.80687  -0.75432  -0.70424  -0.66815  -0.64464
 Alpha  occ. eigenvalues --   -0.62873  -0.61661  -0.59390  -0.56292  -0.53984
 Alpha  occ. eigenvalues --   -0.52430  -0.51849  -0.47355  -0.42113  -0.36710
 Alpha  occ. eigenvalues --   -0.36239
 Alpha virt. eigenvalues --    0.02636   0.03528   0.04160   0.04445   0.05361
 Alpha virt. eigenvalues --    0.05414   0.05611   0.06715   0.07632   0.08751
 Alpha virt. eigenvalues --    0.09081   0.09875   0.10973   0.11862   0.13059

 Mulliken charges:
               1
     1  C    0.217988
     2  C    0.559299
     3  C    0.570657
     4  C    0.468414
     5  O   -0.671444
     6  B   -0.964434
     7  C    0.531358
     8  C    0.374482
     9  C    0.570615
    10  H   -0.547271
    11  H   -0.437940
    12  H   -0.578889
    13  H   -0.423854
    14  H   -0.436055
    15  H    0.383535
    16  H    0.383539
 Sum of Mulliken charges =   0.00000

 Dipole moment (field-independent basis, Debye):
    X=             -3.8745    Y=              1.7638    Z=             -0.0006  Tot=              4.2571

 Test job not archived.
 1\1\GINC-SE229\SP\RHF\Aug-CC-pVDZ\C7H7B1O1\OHZDE\09-Apr-2025\0\\#t hf
 aug-cc-pvdz iop(5/13=1,5/36=2,99/5=2) pseudo=read geom=check guess=(re
 ad,tcheck) scf=(maxcycle=1)\\title\\0,1\C,0,-1.85965,1.252814,-0.00005
 3\C,0,-0.468909,1.236113,-0.000093\C,0,0.215454,0.015444,-0.000078\C,0
 ,1.677143,0.006075,-0.000158\O,0,2.385619,-1.01451,0.000227\B,0,2.9411
 64,0.879637,0.000016\C,0,-2.565662,0.050381,0.000017\C,0,-1.886788,-1.
 171232,0.000042\C,0,-0.499605,-1.190979,-0.000003\H,0,0.052517,-2.1235
 72,0.000008\H,0,-2.39323,2.195993,-0.000073\H,0,0.094439,2.162978,-0.0

 Normal termination of Gaussian 16 at Wed Apr  9 00:26:03 2025.
