 Gaussian 16, Revision C.01,

 ----------------------------------------------------------------------
 #t hf aug-cc-pvdz symm=none int=(grid=ultrafine) guess=(read,tcheck) s
 table=(opt,rrhf)
 ----------------------------------------------------------------------
 -----
 title
 -----
 Symbolic Z-matrix:
 Charge =  0 Multiplicity = 1

 SCF Done:  E(RHF) =  -391.427601976     A.U. after   11 cycles
 Normal termination of Gaussian 16 at Wed Apr  9 00:45:22 2025.
 Gaussian 16:  ES64L-G16RevC.01  3-Jul-2019

 ----------------------------------------------------------------------
 #t hf aug-cc-pvdz iop(5/13=1,5/36=2,99/5=2) pseudo=read geom=check gue
 ss=(read,tcheck) scf=(maxcycle=1)
 ----------------------------------------------------------------------
 -----
 title
 -----
 Structure from the checkpoint file:  "BDE49_nonexpt_840_mol1.chk"
 Charge =  0 Multiplicity = 1

                         Standard orientation:
 ---------------------------------------------------------------------
 Center     Atomic      Atomic             Coordinates (Angstroms)
 Number     Number       Type             X           Y           Z
 ---------------------------------------------------------------------
      1         14           0        1.171548   -0.064745   -0.000000
      2          5           0       -0.763372    0.554755    0.000004
      3          8           0       -1.746536   -0.374801   -0.000001
      4          1           0       -1.050026    1.721477   -0.000000
      5          1           0       -2.635026   -0.001126   -0.000003
      6          1           0        1.322118   -1.540775   -0.000004
      7          1           0        1.875204    0.475739    1.193773
      8          1           0        1.875201    0.475745   -1.193772
 ---------------------------------------------------------------------

 SCF Done:  E(RHF) =  -391.485472562     A.U. after    2 cycles

 The electronic state is 1-A.
 Alpha  occ. eigenvalues --  -69.04271 -20.60440  -7.64721  -6.79805  -3.90581
 Alpha  occ. eigenvalues --   -3.90572  -3.90520  -1.34465  -0.79324  -0.69656
 Alpha  occ. eigenvalues --   -0.66499  -0.57104  -0.55319  -0.47022  -0.46923
 Alpha  occ. eigenvalues --   -0.40253
 Alpha virt. eigenvalues --    0.03093   0.04590   0.05151   0.05806   0.07163
 Alpha virt. eigenvalues --    0.07565   0.07768   0.09221   0.09273   0.10271
 Alpha virt. eigenvalues --    0.11284   0.11511   0.13211   0.17172   0.18253

 Mulliken charges:
               1
     1  Si  -0.173027
     2  B    0.268711
     3  O   -0.400198
     4  H    0.143537
     5  H    0.183585
     6  H   -0.004337
     7  H   -0.009136
     8  H   -0.009136
 Sum of Mulliken charges =  -0.00000

 Dipole moment (field-independent basis, Debye):
    X=             -1.8420    Y=              1.0552    Z=              0.0000  Tot=              2.1228

 Test job not archived.
 1\1\GINC-SE105\SP\RHF\Aug-CC-pVDZ\B1H5O1Si1\OHZDE\09-Apr-2025\0\\#t hf
  aug-cc-pvdz iop(5/13=1,5/36=2,99/5=2) pseudo=read geom=check guess=(r
 ead,tcheck) scf=(maxcycle=1)\\title\\0,1\Si,0,1.171548,-0.064745,0.\B,
 0,-0.763372,0.554755,0.000004\O,0,-1.746536,-0.374801,-0.000001\H,0,-1
 .050026,1.721477,0.\H,0,-2.635026,-0.001125,-0.000003\H,0,1.322117,-1.
 540775,-0.000004\H,0,1.875204,0.475739,1.193773\H,0,1.875201,0.475745,
 -1.193772\\Version=ES64L-G16RevC.01\State=1-A\HF=-391.4854726\RMSD=5.2
 32e-03\Dipole=-0.7246892,0.4151337,0.0000015\Quadrupole=2.4471199,-2.0

 Normal termination of Gaussian 16 at Wed Apr  9 00:45:24 2025.
