 Gaussian 16, Revision C.01,

 ----------------------------------------------------------------------
 #t hf aug-cc-pvdz symm=none int=(grid=ultrafine) guess=(read,tcheck) s
 table=opt
 ----------------------------------------------------------------------
 -----
 title
 -----
 Symbolic Z-matrix:
 Charge =  0 Multiplicity = 2

 SCF Done:  E(UHF) =  -51.0223503064     A.U. after   14 cycles
 Normal termination of Gaussian 16 at Tue Apr  8 23:30:57 2025.
 Gaussian 16:  ES64L-G16RevC.01  3-Jul-2019

 ----------------------------------------------------------------------
 #t hf aug-cc-pvdz iop(5/13=1,5/36=2,99/5=2) pseudo=read geom=check gue
 ss=(read,tcheck) scf=(maxcycle=1)
 ----------------------------------------------------------------------
 -----
 title
 -----
 Structure from the checkpoint file:  "BDE49_nonexpt_142_mol2.chk"
 Charge =  0 Multiplicity = 2

                         Standard orientation:
 ---------------------------------------------------------------------
 Center     Atomic      Atomic             Coordinates (Angstroms)
 Number     Number       Type             X           Y           Z
 ---------------------------------------------------------------------
      1          5           0        0.844449   -0.000001    0.000002
      2          5           0       -0.717137   -0.000000   -0.000003
      3          1           0       -1.328764    1.026897    0.000002
      4          1           0       -1.328773   -1.026892   -0.000003
      5          1           0        2.020977    0.000000    0.000006
 ---------------------------------------------------------------------

 SCF Done:  E(UHF) =  -51.0380350011     A.U. after    2 cycles

 The electronic state is 2-A.
 Alpha  occ. eigenvalues --   -7.65516  -7.58890  -0.75083  -0.62969  -0.48852
 Alpha  occ. eigenvalues --   -0.48556  -0.32679
 Alpha virt. eigenvalues --    0.03636   0.03797   0.04872   0.05969   0.06669
 Alpha virt. eigenvalues --    0.06852   0.07428   0.09849   0.10773   0.12864
 Alpha virt. eigenvalues --    0.14243   0.14475   0.15215   0.23875   0.23917

  Beta  occ. eigenvalues --   -7.64522  -7.58657  -0.70158  -0.61516  -0.48474
  Beta  occ. eigenvalues --   -0.47560
  Beta virt. eigenvalues --    0.02440   0.03859   0.04191   0.04983   0.06093
  Beta virt. eigenvalues --    0.07321   0.07492   0.10077   0.10692   0.10991
  Beta virt. eigenvalues --    0.13436   0.14271   0.15410   0.19623   0.24352

 Mulliken charges and spin densities:
               1          2
     1  B   -0.471315   0.777071
     2  B   -0.205741   0.345899
     3  H    0.181610  -0.052782
     4  H    0.181610  -0.052781
     5  H    0.313836  -0.017407
 Sum of Mulliken charges =   0.00000   1.00000

 Dipole moment (field-independent basis, Debye):
    X=              1.4195    Y=             -0.0000    Z=              0.0000  Tot=              1.4195
                          Isotropic Fermi Contact Couplings
        Atom                 a.u.       MegaHertz       Gauss      10(-4) cm-1
     1  B(11)              0.05419      77.73448      27.73760      25.92943
     2  B(11)              0.00054       0.77428       0.27628       0.25827
     3  H(1)              -0.00711     -31.78596     -11.34202     -10.60265
     4  H(1)              -0.00711     -31.78594     -11.34201     -10.60265
     5  H(1)              -0.01588     -70.97785     -25.32666     -23.67566
 --------------------------------------------------------
       Center         ----  Spin Dipole Couplings  ----
                      3XX-RR        3YY-RR        3ZZ-RR

 Normal termination of Gaussian 16 at Tue Apr  8 23:30:59 2025.
