 Gaussian 16, Revision C.01,

 ----------------------------------------------------------------------
 #t hf aug-cc-pvdz symm=none int=(grid=ultrafine) guess=(read,tcheck) s
 table=opt
 ----------------------------------------------------------------------
 -----
 title
 -----
 Symbolic Z-matrix:
 Charge =  0 Multiplicity = 2

 SCF Done:  E(UHF) =  -1851.35995577     A.U. after   20 cycles
 Normal termination of Gaussian 16 at Wed Apr  9 00:47:04 2025.
 Gaussian 16:  ES64L-G16RevC.01  3-Jul-2019

 ----------------------------------------------------------------------
 #t hf aug-cc-pvdz iop(5/13=1,5/36=2,99/5=2) pseudo=read geom=check gue
 ss=(read,tcheck) scf=(maxcycle=1)
 ----------------------------------------------------------------------
 -----
 title
 -----
 Structure from the checkpoint file:  "BDE49_nonexpt_874_mol2.chk"
 Charge =  0 Multiplicity = 2

                         Standard orientation:
 ---------------------------------------------------------------------
 Center     Atomic      Atomic             Coordinates (Angstroms)
 Number     Number       Type             X           Y           Z
 ---------------------------------------------------------------------
      1         16           0        2.286605    0.000000   -0.537289
      2         16           0        1.052751   -0.000003    0.991192
      3          6           0       -0.705018   -0.000000    0.304860
      4          9           0       -1.476658   -0.000001    1.414011
      5         17           0       -1.056168   -1.464937   -0.641699
      6         17           0       -1.056165    1.464939   -0.641695
 ---------------------------------------------------------------------

 SCF Done:  E(UHF) =  -1851.48541920     A.U. after    2 cycles

 The electronic state is 2-A.
 Alpha  occ. eigenvalues -- -103.70209-103.70208 -93.62423 -93.59864 -26.18973
 Alpha  occ. eigenvalues --  -11.51089 -10.73552 -10.73532  -8.91990  -8.89592
 Alpha  occ. eigenvalues --   -8.39276  -8.39270  -8.38915  -8.38913  -8.38910
 Alpha  occ. eigenvalues --   -8.38909  -6.25972  -6.25856  -6.25674  -6.24624
 Alpha  occ. eigenvalues --   -6.23299  -6.22780  -1.73495  -1.24830  -1.17486
 Alpha  occ. eigenvalues --   -1.10178  -0.97211  -0.87815  -0.81410  -0.79779
 Alpha  occ. eigenvalues --   -0.74258  -0.61811  -0.60861  -0.54139  -0.53676
 Alpha  occ. eigenvalues --   -0.52649  -0.49855  -0.48727  -0.48422  -0.40683
 Alpha  occ. eigenvalues --   -0.38980
 Alpha virt. eigenvalues --    0.05479   0.06237   0.08106   0.08117   0.08682
 Alpha virt. eigenvalues --    0.11397   0.11691   0.12065   0.12746   0.13115
 Alpha virt. eigenvalues --    0.14278   0.14879   0.15588   0.16702   0.17742

  Beta  occ. eigenvalues -- -103.70202-103.70201 -93.62206 -93.59037 -26.18985
  Beta  occ. eigenvalues --  -11.51164 -10.73545 -10.73525  -8.91744  -8.88673
  Beta  occ. eigenvalues --   -8.39246  -8.39240  -8.38911  -8.38911  -8.38905
  Beta  occ. eigenvalues --   -8.38903  -6.25865  -6.25606  -6.24864  -6.22843
  Beta  occ. eigenvalues --   -6.22257  -6.21015  -1.73530  -1.24763  -1.17425
  Beta  occ. eigenvalues --   -1.07515  -0.95784  -0.84742  -0.81372  -0.78422
  Beta  occ. eigenvalues --   -0.73000  -0.61320  -0.60448  -0.53177  -0.51505
  Beta  occ. eigenvalues --   -0.51169  -0.48540  -0.48315  -0.42779  -0.38897
  Beta virt. eigenvalues --   -0.01161   0.05654   0.06593   0.08144   0.08172
  Beta virt. eigenvalues --    0.08793   0.11476   0.12086   0.12108   0.12998
  Beta virt. eigenvalues --    0.13830   0.14583   0.15253   0.16478   0.17081

 Mulliken charges and spin densities:
               1          2
     1  S    0.031390   0.906841
     2  S    0.346949   0.130521
     3  C   -0.156139  -0.040777
     4  F   -0.281741  -0.001117
     5  Cl   0.029770   0.002266
     6  Cl   0.029770   0.002266
 Sum of Mulliken charges =  -0.00000   1.00000

 Dipole moment (field-independent basis, Debye):
    X=              0.8872    Y=             -0.0000    Z=             -0.4806  Tot=              1.0090
                          Isotropic Fermi Contact Couplings
        Atom                 a.u.       MegaHertz       Gauss      10(-4) cm-1
     1  S(33)              0.20186      69.33360      24.73995      23.12720
     2  S(33)              0.09430      32.38790      11.55681      10.80344
     3  C(13)             -0.01607     -18.06712      -6.44680      -6.02654
     4  F(19)             -0.00245     -10.30156      -3.67585      -3.43623
     5  Cl(35)            -0.00037      -0.16081      -0.05738      -0.05364
     6  Cl(35)            -0.00037      -0.16082      -0.05738      -0.05364
 --------------------------------------------------------
       Center         ----  Spin Dipole Couplings  ----

 Normal termination of Gaussian 16 at Wed Apr  9 00:47:07 2025.
