 Gaussian 16, Revision C.01,

 ----------------------------------------------------------------------
 #t hf aug-cc-pvdz symm=none int=(grid=ultrafine) guess=(read,tcheck) s
 table=(opt,rrhf)
 ----------------------------------------------------------------------
 -----
 title
 -----
 Symbolic Z-matrix:
 Charge =  0 Multiplicity = 1

 SCF Done:  E(RHF) =  -217.283775466     A.U. after   13 cycles
 Normal termination of Gaussian 16 at Wed Apr  9 00:24:16 2025.
 Gaussian 16:  ES64L-G16RevC.01  3-Jul-2019

 ----------------------------------------------------------------------
 #t hf aug-cc-pvdz iop(5/13=1,5/36=2,99/5=2) pseudo=read geom=check gue
 ss=(read,tcheck) scf=(maxcycle=1)
 ----------------------------------------------------------------------
 -----
 title
 -----
 Structure from the checkpoint file:  "BDE49_nonexpt_280_mol1.chk"
 Charge =  0 Multiplicity = 1

                         Standard orientation:
 ---------------------------------------------------------------------
 Center     Atomic      Atomic             Coordinates (Angstroms)
 Number     Number       Type             X           Y           Z
 ---------------------------------------------------------------------
      1          6           0        0.036972    0.388525    0.643239
      2          5           0       -1.235296    0.371717   -0.284206
      3          8           0       -2.220892   -0.524640   -0.030231
      4          6           0        1.320495    0.411401   -0.143939
      5          6           0        2.231661   -0.558103   -0.163244
      6          1           0        0.020460   -0.452561    1.343236
      7          1           0       -0.025941    1.310022    1.244961
      8          1           0        1.484378    1.294312   -0.759945
      9          1           0        2.115979   -1.460820    0.429248
     10          1           0        3.127492   -0.481820   -0.769164
     11          1           0       -2.961444   -0.459255   -0.640583
     12          1           0       -1.352077    1.137720   -1.201217
 ---------------------------------------------------------------------

 SCF Done:  E(RHF) =  -217.357006397     A.U. after    2 cycles

 The electronic state is 1-A.
 Alpha  occ. eigenvalues --  -20.59181 -11.24556 -11.22553 -11.21276  -7.63575
 Alpha  occ. eigenvalues --   -1.33397  -1.05463  -0.92992  -0.78044  -0.74393
 Alpha  occ. eigenvalues --   -0.66450  -0.63702  -0.58816  -0.56730  -0.56085
 Alpha  occ. eigenvalues --   -0.52755  -0.48726  -0.46450  -0.35425
 Alpha virt. eigenvalues --    0.03021   0.04510   0.04758   0.04893   0.06474
 Alpha virt. eigenvalues --    0.06728   0.07647   0.08262   0.09568   0.10406
 Alpha virt. eigenvalues --    0.11304   0.11896   0.13796   0.14061   0.15789

 Mulliken charges:
               1
     1  C    0.337440
     2  B    0.452802
     3  O   -0.475518
     4  C    0.384715
     5  C    0.427630
     6  H   -0.335646
     7  H   -0.066287
     8  H   -0.455142
     9  H   -0.298905
    10  H   -0.297623
    11  H    0.205016
    12  H    0.121519
 Sum of Mulliken charges =  -0.00000

 Dipole moment (field-independent basis, Debye):
    X=             -1.0829    Y=              0.7252    Z=             -0.8326  Tot=              1.5465

 Test job not archived.
 1\1\GINC-SE253\SP\RHF\Aug-CC-pVDZ\C3H7B1O1\OHZDE\09-Apr-2025\0\\#t hf
 aug-cc-pvdz iop(5/13=1,5/36=2,99/5=2) pseudo=read geom=check guess=(re
 ad,tcheck) scf=(maxcycle=1)\\title\\0,1\C,0,0.036972,0.388525,0.643239
 \B,0,-1.235296,0.371717,-0.284206\O,0,-2.220892,-0.52464,-0.030231\C,0
 ,1.320495,0.411401,-0.143939\C,0,2.231661,-0.558103,-0.163244\H,0,0.02
 046,-0.452561,1.343236\H,0,-0.025941,1.310022,1.244961\H,0,1.484378,1.
 294312,-0.759945\H,0,2.115979,-1.46082,0.429248\H,0,3.127492,-0.48182,
 -0.769164\H,0,-2.961444,-0.459255,-0.640583\H,0,-1.352077,1.13772,-1.2

 Normal termination of Gaussian 16 at Wed Apr  9 00:24:20 2025.
