 Gaussian 16, Revision C.01,

 ----------------------------------------------------------------------
 #t hf aug-cc-pvdz symm=none int=(grid=ultrafine) guess=(read,tcheck) s
 table=opt
 ----------------------------------------------------------------------
 -----
 title
 -----
 Symbolic Z-matrix:
 Charge =  0 Multiplicity = 2

 SCF Done:  E(UHF) =  -647.069618819     a.u. after   13 cycles

 1\1\GINC-SE455\Stability\UHF\Aug-CC-pVDZ\C1Cl1O2\OHZDE\08-Apr-2025\0\\
 #t hf aug-cc-pvdz symm=none int=(grid=ultrafine) guess=(read,tcheck) s
 table=opt\\title\\0,2\O,0,1.123052,-1.076803,-0.000047\C,0,0.523404,0.
 ,0.000191\O,0,1.123051,1.076804,-0.000047\Cl,0,-1.24172,0.,-0.000024\\
 Version=ES64L-G16RevC.01\HF=-647.0696188\S2=0.762308\S2-1=0.\S2A=0.750
 123\RMSD=1.802e-09\Dipole=-0.4836363,-0.7461246,0.0002196\Quadrupole=0
 .3512233,-1.4388053,1.087582,-1.7739868,0.0005331,-0.0001007\PG=Unknow
 n\\@

 Normal termination of Gaussian 16 at Tue Apr  8 23:18:55 2025.
 Gaussian 16:  ES64L-G16RevC.01  3-Jul-2019

 ----------------------------------------------------------------------
 #t hf aug-cc-pvdz iop(5/13=1,5/36=2,99/5=2) pseudo=read geom=check gue
 ss=(read,tcheck) scf=(maxcycle=1)
 ----------------------------------------------------------------------
 -----
 title
 -----
 Structure from the checkpoint file:  "BDE49_nonexpt_1133_mol2.chk"
 Charge =  0 Multiplicity = 2

                         Standard orientation:
 ---------------------------------------------------------------------
 Center     Atomic      Atomic             Coordinates (Angstroms)
 Number     Number       Type             X           Y           Z
 ---------------------------------------------------------------------
      1          8           0        1.123052   -1.076803   -0.000047
      2          6           0        0.523404   -0.000000    0.000191
      3          8           0        1.123051    1.076804   -0.000047
      4         17           0       -1.241720   -0.000000   -0.000024
 ---------------------------------------------------------------------

 SCF Done:  E(UHF) =  -647.150805542     A.U. after    2 cycles

 The electronic state is 2-A.
 Alpha  occ. eigenvalues -- -103.72577 -20.76698 -20.61120 -11.49514 -10.75843
 Alpha  occ. eigenvalues --   -8.41687  -8.41223  -8.41198  -1.57345  -1.38147
 Alpha  occ. eigenvalues --   -1.21767  -0.89334  -0.84999  -0.76740  -0.75228
 Alpha  occ. eigenvalues --   -0.64759  -0.57025  -0.55643  -0.51443  -0.50897
 Alpha virt. eigenvalues --    0.05893   0.08169   0.09560   0.09833   0.11137
 Alpha virt. eigenvalues --    0.11754   0.14969   0.15358   0.18918   0.21103
 Alpha virt. eigenvalues --    0.21585   0.24303   0.26790   0.28812   0.29788

  Beta  occ. eigenvalues -- -103.72493 -20.72548 -20.60686 -11.49881 -10.75761
  Beta  occ. eigenvalues --   -8.41406  -8.41160  -8.41074  -1.47403  -1.33731
  Beta  occ. eigenvalues --   -1.20661  -0.84527  -0.74635  -0.73489  -0.69154
  Beta  occ. eigenvalues --   -0.55245  -0.53542  -0.51234  -0.49874
  Beta virt. eigenvalues --   -0.03566   0.06172   0.08392   0.09615   0.09992
  Beta virt. eigenvalues --    0.11283   0.11778   0.15019   0.15312   0.19535
  Beta virt. eigenvalues --    0.21702   0.21751   0.25510   0.26848   0.29436

 Mulliken charges and spin densities:
               1          2
     1  O   -0.037348   1.041126
     2  C    0.392942  -0.174827
     3  O   -0.372173   0.072420
     4  Cl   0.016578   0.061281
 Sum of Mulliken charges =   0.00000   1.00000

 Dipole moment (field-independent basis, Debye):
    X=             -1.3441    Y=             -1.9663    Z=              0.0006  Tot=              2.3818
                          Isotropic Fermi Contact Couplings
        Atom                 a.u.       MegaHertz       Gauss      10(-4) cm-1
     1  O(17)              0.27515    -166.79271     -59.51579     -55.63606
     2  C(13)             -0.06560     -73.75073     -26.31609     -24.60060
     3  O(17)              0.03094     -18.75495      -6.69223      -6.25598
     4  Cl(35)            -0.01069      -4.68676      -1.67235      -1.56333
 --------------------------------------------------------
       Center         ----  Spin Dipole Couplings  ----
                      3XX-RR        3YY-RR        3ZZ-RR
 --------------------------------------------------------

 Normal termination of Gaussian 16 at Tue Apr  8 23:18:57 2025.
