 Gaussian 16, Revision C.01,

 ----------------------------------------------------------------------
 #t hf aug-cc-pvdz symm=none int=(grid=ultrafine) guess=(read,tcheck) s
 table=(opt,rrhf)
 ----------------------------------------------------------------------
 -----
 title
 -----
 Symbolic Z-matrix:
 Charge =  0 Multiplicity = 1

 SCF Done:  E(RHF) =  -594.146814450     A.U. after   16 cycles
 Normal termination of Gaussian 16 at Tue Apr  8 23:18:56 2025.
 Gaussian 16:  ES64L-G16RevC.01  3-Jul-2019

 ----------------------------------------------------------------------
 #t hf aug-cc-pvdz iop(5/13=1,5/36=2,99/5=2) pseudo=read geom=check gue
 ss=(read,tcheck) scf=(maxcycle=1)
 ----------------------------------------------------------------------
 -----
 title
 -----
 Structure from the checkpoint file:  "BDE49_nonexpt_1115_mol1.chk"
 Charge =  0 Multiplicity = 1

                         Standard orientation:
 ---------------------------------------------------------------------
 Center     Atomic      Atomic             Coordinates (Angstroms)
 Number     Number       Type             X           Y           Z
 ---------------------------------------------------------------------
      1          9           0       -1.536467   -1.221721   -0.000000
      2          8           0        0.119322   -1.306867   -0.000000
      3         15           0        0.765689    0.121245    0.000000
      4          6           0        0.119322    1.032143    1.448717
      5          6           0        0.119322    1.032143   -1.448717
      6          1           0        0.423136    0.513265    2.358547
      7          1           0       -0.970428    1.063766    1.395936
      8          1           0        0.525506    2.045989    1.462167
      9          1           0        0.423136    0.513265   -2.358547
     10          1           0        0.525506    2.045989   -1.462167
     11          1           0       -0.970428    1.063766   -1.395936
 ---------------------------------------------------------------------

 SCF Done:  E(RHF) =  -594.265248571     A.U. after    2 cycles

 The electronic state is 1-A'.
 Alpha  occ. eigenvalues --  -81.32418 -26.09743 -20.71084 -11.26066 -11.26064
 Alpha  occ. eigenvalues --   -7.82494  -4.96895  -4.96363  -4.96149  -1.56885
 Alpha  occ. eigenvalues --   -1.33237  -1.00918  -0.96638  -0.77515  -0.69953
 Alpha  occ. eigenvalues --   -0.68178  -0.65013  -0.62372  -0.62005  -0.60606
 Alpha  occ. eigenvalues --   -0.58377  -0.58159  -0.57308  -0.48475  -0.36253
 Alpha virt. eigenvalues --   -0.00347   0.03373   0.04361   0.05411   0.05892
 Alpha virt. eigenvalues --    0.06987   0.07780   0.08010   0.10710   0.11794
 Alpha virt. eigenvalues --    0.13020   0.15123   0.15560   0.16006   0.16478

 Mulliken charges:
               1
     1  F   -0.499345
     2  O   -0.392433
     3  P    1.309777
     4  C    0.105089
     5  C    0.105089
     6  H   -0.141254
     7  H   -0.075214
     8  H   -0.097621
     9  H   -0.141254
    10  H   -0.097621
    11  H   -0.075214
 Sum of Mulliken charges =  -0.00000

 Dipole moment (field-independent basis, Debye):
    X=              2.5757    Y=              4.3593    Z=             -0.0000  Tot=              5.0634

 Test job not archived.
 1\1\GINC-SE220\SP\RHF\Aug-CC-pVDZ\C2H6F1O1P1\OHZDE\08-Apr-2025\0\\#t h
 f aug-cc-pvdz iop(5/13=1,5/36=2,99/5=2) pseudo=read geom=check guess=(
 read,tcheck) scf=(maxcycle=1)\\title\\0,1\F,0,-1.536467,-1.221721,0.\O
 ,0,0.119322,-1.306867,0.\P,0,0.765689,0.121245,0.\C,0,0.119322,1.03214
 3,1.448717\C,0,0.119322,1.032143,-1.448717\H,0,0.423136,0.513265,2.358
 547\H,0,-0.970428,1.063766,1.395936\H,0,0.525506,2.045989,1.462167\H,0
 ,0.423136,0.513265,-2.358547\H,0,0.525506,2.045989,-1.462167\H,0,-0.97
 0428,1.063766,-1.395936\\Version=ES64L-G16RevC.01\State=1-A'\HF=-594.2

 Normal termination of Gaussian 16 at Tue Apr  8 23:19:00 2025.
