 Gaussian 16, Revision C.01,

 ----------------------------------------------------------------------
 #t hf aug-cc-pvdz symm=none int=(grid=ultrafine) guess=(read,tcheck) s
 table=(opt,rrhf)
 ----------------------------------------------------------------------
 -----
 title
 -----
 Symbolic Z-matrix:
 Charge =  0 Multiplicity = 1

 SCF Done:  E(RHF) =  -934.103575443     A.U. after   14 cycles
 Normal termination of Gaussian 16 at Wed Apr  9 00:18:35 2025.
 Gaussian 16:  ES64L-G16RevC.01  3-Jul-2019

 ----------------------------------------------------------------------
 #t hf aug-cc-pvdz iop(5/13=1,5/36=2,99/5=2) pseudo=read geom=check gue
 ss=(read,tcheck) scf=(maxcycle=1)
 ----------------------------------------------------------------------
 -----
 title
 -----
 Structure from the checkpoint file:  "BDE49_nonexpt_2617_mol1.chk"
 Charge =  0 Multiplicity = 1

                         Standard orientation:
 ---------------------------------------------------------------------
 Center     Atomic      Atomic             Coordinates (Angstroms)
 Number     Number       Type             X           Y           Z
 ---------------------------------------------------------------------
      1          9           0        1.772098    0.788944   -0.446415
      2         16           0       -0.844316   -0.560801   -0.413445
      3         16           0        0.942394   -0.369703    0.474772
      4          6           0       -1.875860    0.782089    0.296695
      5          1           0       -2.877392    0.648035   -0.117963
      6          1           0       -1.478229    1.748476   -0.007026
      7          1           0       -1.907359    0.698522    1.381306
 ---------------------------------------------------------------------

 SCF Done:  E(RHF) =  -934.198452203     A.U. after    2 cycles

 The electronic state is 1-A.
 Alpha  occ. eigenvalues --  -93.64439 -93.58721 -26.12042 -11.28943  -8.93168
 Alpha  occ. eigenvalues --   -8.88381  -6.27267  -6.26931  -6.26489  -6.22479
 Alpha  occ. eigenvalues --   -6.22180  -6.21908  -1.62695  -1.08773  -0.97622
 Alpha  occ. eigenvalues --   -0.84009  -0.72279  -0.71877  -0.68124  -0.61624
 Alpha  occ. eigenvalues --   -0.61098  -0.53628  -0.47556  -0.40432  -0.38518
 Alpha virt. eigenvalues --    0.03306   0.05088   0.05673   0.06779   0.07525
 Alpha virt. eigenvalues --    0.07730   0.12218   0.13208   0.13330   0.13855
 Alpha virt. eigenvalues --    0.15478   0.15603   0.16591   0.17248   0.17501

 Mulliken charges:
               1
     1  F   -0.596288
     2  S    0.132953
     3  S    0.525977
     4  C    0.042801
     5  H   -0.052358
     6  H   -0.019405
     7  H   -0.033680
 Sum of Mulliken charges =  -0.00000

 Dipole moment (field-independent basis, Debye):
    X=             -3.0921    Y=             -0.0362    Z=              1.2950  Tot=              3.3526

 Test job not archived.
 1\1\GINC-SE457\SP\RHF\Aug-CC-pVDZ\C1H3F1S2\OHZDE\09-Apr-2025\0\\#t hf
 aug-cc-pvdz iop(5/13=1,5/36=2,99/5=2) pseudo=read geom=check guess=(re
 ad,tcheck) scf=(maxcycle=1)\\title\\0,1\F,0,1.772098,0.788944,-0.44641
 5\S,0,-0.844316,-0.560801,-0.413445\S,0,0.942394,-0.369703,0.474772\C,
 0,-1.87586,0.782089,0.296695\H,0,-2.877392,0.648035,-0.117963\H,0,-1.4
 78229,1.748476,-0.007026\H,0,-1.907359,0.698522,1.381306\\Version=ES64
 L-G16RevC.01\State=1-A\HF=-934.1984522\RMSD=4.830e-03\Dipole=-1.216543
 3,-0.0142585,0.5094855\Quadrupole=1.0374444,-0.6261004,-0.4113441,-2.7

 Normal termination of Gaussian 16 at Wed Apr  9 00:18:37 2025.
