 Gaussian 16, Revision C.01,

 ----------------------------------------------------------------------
 #t hf aug-cc-pvdz symm=none int=(grid=ultrafine) guess=(read,tcheck) s
 table=opt
 ----------------------------------------------------------------------
 -----
 title
 -----
 Symbolic Z-matrix:
 Charge =  0 Multiplicity = 2

 SCF Done:  E(UHF) =  -1540.49290650     A.U. after   17 cycles
 Normal termination of Gaussian 16 at Wed Apr  9 00:29:48 2025.
 Gaussian 16:  ES64L-G16RevC.01  3-Jul-2019

 ----------------------------------------------------------------------
 #t hf aug-cc-pvdz iop(5/13=1,5/36=2,99/5=2) pseudo=read geom=check gue
 ss=(read,tcheck) scf=(maxcycle=1)
 ----------------------------------------------------------------------
 -----
 title
 -----
 Structure from the checkpoint file:  "BDE49_nonexpt_365_mol2.chk"
 Charge =  0 Multiplicity = 2

                         Standard orientation:
 ---------------------------------------------------------------------
 Center     Atomic      Atomic             Coordinates (Angstroms)
 Number     Number       Type             X           Y           Z
 ---------------------------------------------------------------------
      1          9           0        2.246119   -0.028878    1.105291
      2          5           0        0.980841    0.233711    1.247242
      3          6           0       -0.093089   -0.007610    0.102426
      4         17           0       -1.675917   -0.469967    0.788727
      5         17           0        0.419739   -1.219621   -1.124418
      6         17           0       -0.188572    1.638824   -0.652449
 ---------------------------------------------------------------------

 SCF Done:  E(UHF) =  -1540.60866648     A.U. after    2 cycles

 The electronic state is 2-A.
 Alpha  occ. eigenvalues -- -103.70478-103.70143-103.69821 -26.17866 -11.44551
 Alpha  occ. eigenvalues --  -10.73731 -10.73422 -10.73087  -8.39435  -8.39125
 Alpha  occ. eigenvalues --   -8.39106  -8.39105  -8.38871  -8.38801  -8.38798
 Alpha  occ. eigenvalues --   -8.38454  -8.38453  -7.75526  -1.72493  -1.26752
 Alpha  occ. eigenvalues --   -1.16919  -1.16637  -0.92539  -0.87211  -0.80487
 Alpha  occ. eigenvalues --   -0.78003  -0.69182  -0.64437  -0.64216  -0.52777
 Alpha  occ. eigenvalues --   -0.52604  -0.49065  -0.48954  -0.48259  -0.47485
 Alpha  occ. eigenvalues --   -0.40186
 Alpha virt. eigenvalues --    0.03759   0.04796   0.05754   0.06023   0.07030
 Alpha virt. eigenvalues --    0.08293   0.09122   0.10041   0.12523   0.13714
 Alpha virt. eigenvalues --    0.14142   0.16472   0.17346   0.17650   0.18550

  Beta  occ. eigenvalues -- -103.70485-103.70149-103.69775 -26.17567 -11.44259
  Beta  occ. eigenvalues --  -10.73739 -10.73427 -10.73039  -8.39453  -8.39160
  Beta  occ. eigenvalues --   -8.39127  -8.39103  -8.38804  -8.38795  -8.38694
  Beta  occ. eigenvalues --   -8.38428  -8.38411  -7.73401  -1.71602  -1.26474
  Beta  occ. eigenvalues --   -1.16936  -1.16371  -0.91000  -0.86136  -0.78160
  Beta  occ. eigenvalues --   -0.77920  -0.67333  -0.64255  -0.63694  -0.52730
  Beta  occ. eigenvalues --   -0.52311  -0.48989  -0.48741  -0.47443  -0.47190
  Beta virt. eigenvalues --    0.02798   0.04898   0.05609   0.05881   0.06590
  Beta virt. eigenvalues --    0.08001   0.08906   0.11103   0.11200   0.12965
  Beta virt. eigenvalues --    0.14301   0.14607   0.16947   0.17642   0.17886

 Mulliken charges and spin densities:
               1          2
     1  F   -0.303262  -0.040560
     2  B    0.728336   1.029136
     3  C   -0.414836  -0.019778
     4  Cl   0.000640  -0.002164
     5  Cl  -0.001147   0.032891
     6  Cl  -0.009731   0.000476
 Sum of Mulliken charges =  -0.00000   1.00000

 Dipole moment (field-independent basis, Debye):
    X=             -0.1995    Y=              0.1179    Z=              0.5869  Tot=              0.6310
                          Isotropic Fermi Contact Couplings
        Atom                 a.u.       MegaHertz       Gauss      10(-4) cm-1
     1  F(19)              0.07014     295.12003     105.30616      98.44145
     2  B(11)              0.42391     608.04271     216.96476     202.82122
     3  C(13)              0.09411     105.80321      37.75322      35.29215
     4  Cl(35)             0.00456       2.00146       0.71417       0.66762
     5  Cl(35)             0.00970       4.25446       1.51810       1.41913
     6  Cl(35)            -0.00329      -1.44472      -0.51551      -0.48191
 --------------------------------------------------------
       Center         ----  Spin Dipole Couplings  ----

 Normal termination of Gaussian 16 at Wed Apr  9 00:29:52 2025.
