 Gaussian 16, Revision C.01,

 ----------------------------------------------------------------------
 #t hf aug-cc-pvdz symm=none int=(grid=ultrafine) guess=(read,tcheck) s
 table=(opt,rrhf)
 ----------------------------------------------------------------------
 -----
 title
 -----
 Symbolic Z-matrix:
 Charge =  0 Multiplicity = 1

 SCF Done:  E(RHF) =  -536.967829548     A.U. after   13 cycles

 1\1\GINC-SE090\Stability\RHF\Aug-CC-pVDZ\C2H3Cl1\OHZDE\08-Apr-2025\0\\
 #t hf aug-cc-pvdz symm=none int=(grid=ultrafine) guess=(read,tcheck) s
 table=(opt,rrhf)\\title\\0,1\C,0,-0.577735,0.503288,0.000008\C,0,-1.63
 9866,-0.284724,0.000013\H,0,-2.629441,0.157,0.000041\Cl,0,1.065432,-0.
 099299,-0.000011\H,0,-0.615935,1.583968,0.00003\H,0,-1.561363,-1.36427
 5,0.\\Version=ES64L-G16RevC.01\HF=-536.9678295\RMSD=1.947e-09\Dipole=-
 0.6741628,0.1817277,0.0000161\Quadrupole=0.9839503,1.1716875,-2.155637
 7,-0.0867618,-0.0000605,0.0000486\PG=Unknown\\@

 Normal termination of Gaussian 16 at Tue Apr  8 22:41:24 2025.
 Gaussian 16:  ES64L-G16RevC.01  3-Jul-2019

 ----------------------------------------------------------------------
 #t hf aug-cc-pvdz iop(5/13=1,5/36=2,99/5=2) pseudo=read geom=check gue
 ss=(read,tcheck) scf=(maxcycle=1)
 ----------------------------------------------------------------------
 -----
 title
 -----
 Structure from the checkpoint file:  "BDE49_expt_142_mol1.chk"
 Charge =  0 Multiplicity = 1

                         Standard orientation:
 ---------------------------------------------------------------------
 Center     Atomic      Atomic             Coordinates (Angstroms)
 Number     Number       Type             X           Y           Z
 ---------------------------------------------------------------------
      1          6           0       -0.577735    0.503288    0.000008
      2          6           0       -1.639866   -0.284724    0.000013
      3          1           0       -2.629441    0.157000    0.000041
      4         17           0        1.065432   -0.099299   -0.000011
      5          1           0       -0.615935    1.583968    0.000030
      6          1           0       -1.561363   -1.364275   -0.000000
 ---------------------------------------------------------------------

 SCF Done:  E(RHF) =  -537.012929853     A.U. after    2 cycles

 The electronic state is 1-A.
 Alpha  occ. eigenvalues -- -103.66709 -11.31584 -11.26132 -10.70000  -8.35730
 Alpha  occ. eigenvalues --   -8.35421  -8.35415  -1.18357  -1.02799  -0.80014
 Alpha  occ. eigenvalues --   -0.66955  -0.62499  -0.53595  -0.51955  -0.46758
 Alpha  occ. eigenvalues --   -0.38225
 Alpha virt. eigenvalues --    0.03582   0.04809   0.05618   0.09114   0.09230
 Alpha virt. eigenvalues --    0.12281   0.12387   0.14778   0.15976   0.16501
 Alpha virt. eigenvalues --    0.17030   0.18523   0.18765   0.19124   0.21532

 Mulliken charges:
               1
     1  C    0.156205
     2  C    0.763877
     3  H   -0.214431
     4  Cl  -0.247700
     5  H   -0.256077
     6  H   -0.201873
 Sum of Mulliken charges =  -0.00000

 Dipole moment (field-independent basis, Debye):
    X=             -1.7874    Y=              0.4669    Z=              0.0000  Tot=              1.8473

 Test job not archived.
 1\1\GINC-SE090\SP\RHF\Aug-CC-pVDZ\C2H3Cl1\OHZDE\08-Apr-2025\0\\#t hf a
 ug-cc-pvdz iop(5/13=1,5/36=2,99/5=2) pseudo=read geom=check guess=(rea
 d,tcheck) scf=(maxcycle=1)\\title\\0,1\C,0,-0.577735,0.503288,0.000008
 \C,0,-1.639866,-0.284724,0.000013\H,0,-2.629441,0.157,0.000041\Cl,0,1.
 065432,-0.099299,-0.000011\H,0,-0.615935,1.583968,0.00003\H,0,-1.56136
 3,-1.364275,0.\\Version=ES64L-G16RevC.01\State=1-A\HF=-537.0129299\RMS
 D=5.121e-03\Dipole=-0.7032048,0.1836996,0.0000164\Quadrupole=1.0246393
 ,1.1586812,-2.1833206,-0.0923651,-0.0000609,0.0000488\PG=C01 [X(C2H3Cl

 Normal termination of Gaussian 16 at Tue Apr  8 22:41:26 2025.
