 Gaussian 16, Revision C.01,

 ----------------------------------------------------------------------
 #t hf aug-cc-pvdz symm=none int=(grid=ultrafine) guess=(read,tcheck) s
 table=(opt,rrhf)
 ----------------------------------------------------------------------
 -----
 title
 -----
 Symbolic Z-matrix:
 Charge =  0 Multiplicity = 1

 SCF Done:  E(RHF) =  -831.762840635     A.U. after   16 cycles
 Normal termination of Gaussian 16 at Tue Apr  8 23:13:47 2025.
 Gaussian 16:  ES64L-G16RevC.01  3-Jul-2019

 ----------------------------------------------------------------------
 #t hf aug-cc-pvdz iop(5/13=1,5/36=2,99/5=2) pseudo=read geom=check gue
 ss=(read,tcheck) scf=(maxcycle=1)
 ----------------------------------------------------------------------
 -----
 title
 -----
 Structure from the checkpoint file:  "BDE49_expt_859_mol1.chk"
 Charge =  0 Multiplicity = 1

                         Standard orientation:
 ---------------------------------------------------------------------
 Center     Atomic      Atomic             Coordinates (Angstroms)
 Number     Number       Type             X           Y           Z
 ---------------------------------------------------------------------
      1          6           0       -1.118775    0.000389    0.000093
      2          6           0       -0.439441    1.213926    0.000076
      3          6           0        0.947628    1.212676    0.000036
      4          6           0       -0.439072   -1.213765    0.000064
      5          6           0        0.947070   -1.210404    0.000024
      6          6           0        1.652878    0.001634    0.000009
      7          1           0       -1.000882   -2.137296    0.000076
      8          1           0        1.484310   -2.151394    0.000004
      9         16           0        3.424181   -0.081536   -0.000043
     10          1           0        3.648733    1.241907   -0.000043
     11          1           0       -1.001884    2.137170    0.000097
     12          1           0        1.479574    2.156177    0.000025
     13          7           0       -2.592055    0.001136    0.000139
     14          8           0       -3.159183    1.086690   -0.000136
     15          8           0       -3.160077   -1.083773   -0.000146
 ---------------------------------------------------------------------

 SCF Done:  E(RHF) =  -831.910934705     A.U. after    2 cycles

 The electronic state is 1-A.
 Alpha  occ. eigenvalues --  -93.57646 -20.61983 -20.61966 -15.92341 -11.32709
 Alpha  occ. eigenvalues --  -11.32162 -11.29439 -11.29373 -11.28318 -11.28142
 Alpha  occ. eigenvalues --   -8.87428  -6.21635  -6.21427  -6.21009  -1.55170
 Alpha  occ. eigenvalues --   -1.36726  -1.20115  -1.11013  -1.05711  -1.01316
 Alpha  occ. eigenvalues --   -0.92212  -0.88020  -0.82768  -0.79322  -0.74315
 Alpha  occ. eigenvalues --   -0.72934  -0.69139  -0.67734  -0.66050  -0.63819
 Alpha  occ. eigenvalues --   -0.57478  -0.55923  -0.54384  -0.51880  -0.51618
 Alpha  occ. eigenvalues --   -0.49904  -0.47759  -0.45008  -0.38309  -0.34440
 Alpha virt. eigenvalues --    0.02635   0.02684   0.03596   0.04507   0.05940
 Alpha virt. eigenvalues --    0.06566   0.07670   0.09216   0.09521   0.09578
 Alpha virt. eigenvalues --    0.11380   0.11984   0.12108   0.12950   0.13043

 Mulliken charges:
               1
     1  C    1.027422
     2  C    0.496891
     3  C    0.583705
     4  C    0.364223
     5  C   -0.092642
     6  C    0.323174
     7  H   -0.469528
     8  H   -0.486359
     9  S    0.300267
    10  H    0.015847
    11  H   -0.462234
    12  H   -0.593609
    13  N    0.133666
    14  O   -0.570757
    15  O   -0.570066
 Sum of Mulliken charges =   0.00000

 Dipole moment (field-independent basis, Debye):
    X=              4.8963    Y=              0.7982    Z=              0.0008  Tot=              4.9609

 Test job not archived.
 1\1\GINC-SE334\SP\RHF\Aug-CC-pVDZ\C6H5N1O2S1\OHZDE\08-Apr-2025\0\\#t h
 f aug-cc-pvdz iop(5/13=1,5/36=2,99/5=2) pseudo=read geom=check guess=(
 read,tcheck) scf=(maxcycle=1)\\title\\0,1\C,0,-1.118775,0.000389,0.000
 093\C,0,-0.439441,1.213926,0.000076\C,0,0.947628,1.212676,0.000036\C,0
 ,-0.439072,-1.213765,0.000064\C,0,0.94707,-1.210404,0.000024\C,0,1.652
 878,0.001634,0.000009\H,0,-1.000882,-2.137296,0.000076\H,0,1.48431,-2.
 151394,0.000004\S,0,3.424181,-0.081536,-0.000043\H,0,3.648733,1.241907
 ,-0.000043\H,0,-1.001884,2.13717,0.000097\H,0,1.479574,2.156177,0.0000

 Normal termination of Gaussian 16 at Tue Apr  8 23:13:55 2025.
