 Gaussian 16, Revision C.01,

 ----------------------------------------------------------------------
 #t hf aug-cc-pvdz symm=none int=(grid=ultrafine) guess=(read,tcheck) s
 table=(opt,rrhf)
 ----------------------------------------------------------------------
 -----
 title
 -----
 Symbolic Z-matrix:
 Charge =  0 Multiplicity = 1

 SCF Done:  E(RHF) =  -1392.53983877     A.U. after   12 cycles

 1\1\GINC-SE102\Stability\RHF\Aug-CC-pVDZ\C2Cl2F4\OHZDE\08-Apr-2025\0\\
 #t hf aug-cc-pvdz symm=none int=(grid=ultrafine) guess=(read,tcheck) s
 table=(opt,rrhf)\\title\\0,1\C,0,0.237835,0.742865,0.\C,0,-0.237835,-0
 .742865,0.\Cl,0,2.01745,0.833195,0.\F,0,-0.237835,1.360782,1.088619\F,
 0,-0.237835,1.360782,-1.088619\Cl,0,-2.01745,-0.833195,0.\F,0,0.237835
 ,-1.360782,1.088619\F,0,0.237835,-1.360782,-1.088619\\Version=ES64L-G1
 6RevC.01\HF=-1392.5398388\RMSD=1.659e-09\Dipole=0.,0.,0.\Quadrupole=2.
 4029464,-1.0114885,-1.3914579,0.8890165,0.,0.\PG=Unknown\\@

 Normal termination of Gaussian 16 at Tue Apr  8 22:27:26 2025.
 Gaussian 16:  ES64L-G16RevC.01  3-Jul-2019

 ----------------------------------------------------------------------
 #t hf aug-cc-pvdz iop(5/13=1,5/36=2,99/5=2) pseudo=read geom=check gue
 ss=(read,tcheck) scf=(maxcycle=1)
 ----------------------------------------------------------------------
 -----
 title
 -----
 Structure from the checkpoint file:  "BDE49_expt_1004_mol1.chk"
 Charge =  0 Multiplicity = 1

                         Standard orientation:
 ---------------------------------------------------------------------
 Center     Atomic      Atomic             Coordinates (Angstroms)
 Number     Number       Type             X           Y           Z
 ---------------------------------------------------------------------
      1          6           0        0.237835    0.742865    0.000000
      2          6           0       -0.237835   -0.742865    0.000000
      3         17           0        2.017450    0.833195    0.000000
      4          9           0       -0.237835    1.360782    1.088619
      5          9           0       -0.237835    1.360782   -1.088619
      6         17           0       -2.017450   -0.833195    0.000000
      7          9           0        0.237835   -1.360782    1.088619
      8          9           0        0.237835   -1.360782   -1.088619
 ---------------------------------------------------------------------

 SCF Done:  E(RHF) =  -1392.74697842     A.U. after    2 cycles

 The electronic state is 1-AG.
 Alpha  occ. eigenvalues -- -103.71075-103.71075 -26.19996 -26.19995 -26.19985
 Alpha  occ. eigenvalues --  -26.19984 -11.54479 -11.54431 -10.74420 -10.74419
 Alpha  occ. eigenvalues --   -8.40143  -8.40141  -8.39801  -8.39799  -8.39791
 Alpha  occ. eigenvalues --   -8.39791  -1.77949  -1.76891  -1.72861  -1.72120
 Alpha  occ. eigenvalues --   -1.23726  -1.22004  -1.07483  -0.99247  -0.91612
 Alpha  occ. eigenvalues --   -0.90522  -0.86934  -0.85879  -0.84584  -0.81183
 Alpha  occ. eigenvalues --   -0.79165  -0.78953  -0.76167  -0.75061  -0.70414
 Alpha  occ. eigenvalues --   -0.65384  -0.58121  -0.53157  -0.52323  -0.51969
 Alpha  occ. eigenvalues --   -0.50660
 Alpha virt. eigenvalues --    0.06552   0.06723   0.08236   0.09869   0.10070
 Alpha virt. eigenvalues --    0.10385   0.12216   0.12436   0.13705   0.14192
 Alpha virt. eigenvalues --    0.15970   0.16000   0.18007   0.19927   0.20670

 Mulliken charges:
               1
     1  C    0.645397
     2  C    0.645397
     3  Cl  -0.081166
     4  F   -0.282116
     5  F   -0.282116
     6  Cl  -0.081166
     7  F   -0.282116
     8  F   -0.282116
 Sum of Mulliken charges =  -0.00000

 Dipole moment (field-independent basis, Debye):
    X=             -0.0000    Y=             -0.0000    Z=             -0.0000  Tot=              0.0000

 Test job not archived.
 1\1\GINC-SE102\SP\RHF\Aug-CC-pVDZ\C2Cl2F4\OHZDE\08-Apr-2025\0\\#t hf a
 ug-cc-pvdz iop(5/13=1,5/36=2,99/5=2) pseudo=read geom=check guess=(rea
 d,tcheck) scf=(maxcycle=1)\\title\\0,1\C,0,0.237835,0.742865,0.\C,0,-0
 .237835,-0.742865,0.\Cl,0,2.01745,0.833195,0.\F,0,-0.237835,1.360782,1
 .088619\F,0,-0.237835,1.360782,-1.088619\Cl,0,-2.01745,-0.833195,0.\F,
 0,0.237835,-1.360782,1.088619\F,0,0.237835,-1.360782,-1.088619\\Versio
 n=ES64L-G16RevC.01\State=1-AG\HF=-1392.7469784\RMSD=5.598e-03\Dipole=0
 .,0.,0.\Quadrupole=2.9634647,-1.3109194,-1.6525453,1.1678483,0.,0.\PG=

 Normal termination of Gaussian 16 at Tue Apr  8 22:27:29 2025.
