 Gaussian 16, Revision C.01,

 ----------------------------------------------------------------------
 #t hf aug-cc-pvdz symm=none int=(grid=ultrafine) guess=(read,tcheck) s
 table=(opt,rrhf)
 ----------------------------------------------------------------------
 -----
 title
 -----
 Symbolic Z-matrix:
 Charge =  0 Multiplicity = 1

 SCF Done:  E(RHF) =  -327.062771240     A.U. after   15 cycles
 Normal termination of Gaussian 16 at Wed Apr  9 00:36:21 2025.
 Gaussian 16:  ES64L-G16RevC.01  3-Jul-2019

 ----------------------------------------------------------------------
 #t hf aug-cc-pvdz iop(5/13=1,5/36=2,99/5=2) pseudo=read geom=check gue
 ss=(read,tcheck) scf=(maxcycle=1)
 ----------------------------------------------------------------------
 -----
 title
 -----
 Structure from the checkpoint file:  "BDE49_nonexpt_561_mol1.chk"
 Charge =  0 Multiplicity = 1

                         Standard orientation:
 ---------------------------------------------------------------------
 Center     Atomic      Atomic             Coordinates (Angstroms)
 Number     Number       Type             X           Y           Z
 ---------------------------------------------------------------------
      1          6           0        0.001345    1.114285   -0.000008
      2          6           0        1.379910    1.279657   -0.000002
      3          6           0        2.202577    0.154731    0.000006
      4          7           0        1.722499   -1.091206    0.000009
      5          6           0        0.400540   -1.243648    0.000004
      6          6           0       -0.515839   -0.183457   -0.000004
      7          1           0        1.813410    2.272865   -0.000004
      8          1           0        3.283530    0.255874    0.000011
      9          1           0       -0.660532    1.970217   -0.000015
     10          5           0       -3.004527    0.390237   -0.000003
     11          1           0        0.032990   -2.269285    0.000006
     12          7           0       -1.898477   -0.467501   -0.000011
     13          1           0       -2.857978    1.569887    0.000040
     14          1           0       -4.085995   -0.106268    0.000026
     15          1           0       -2.082143   -1.462934   -0.000017
 ---------------------------------------------------------------------

 SCF Done:  E(RHF) =  -327.160356244     A.U. after    2 cycles

 The electronic state is 1-A.
 Alpha  occ. eigenvalues --  -15.65105 -15.63746 -11.30230 -11.28538 -11.28023
 Alpha  occ. eigenvalues --  -11.26541 -11.25743  -7.61815  -1.24329  -1.19127
 Alpha  occ. eigenvalues --   -1.06987  -1.01236  -0.87248  -0.85549  -0.73756
 Alpha  occ. eigenvalues --   -0.72939  -0.69644  -0.65202  -0.61475  -0.59043
 Alpha  occ. eigenvalues --   -0.56838  -0.56426  -0.53991  -0.48789  -0.48275
 Alpha  occ. eigenvalues --   -0.41797  -0.38132  -0.32126
 Alpha virt. eigenvalues --    0.03044   0.03249   0.04178   0.04442   0.05355
 Alpha virt. eigenvalues --    0.06055   0.07426   0.07985   0.08789   0.09888
 Alpha virt. eigenvalues --    0.10695   0.11051   0.11794   0.12604   0.12743

 Mulliken charges:
               1
     1  C    0.422625
     2  C    0.653696
     3  C    0.484001
     4  N   -0.466792
     5  C    0.835793
     6  C    0.434093
     7  H   -0.403408
     8  H   -0.349174
     9  H   -0.654861
    10  B   -0.734441
    11  H   -0.433786
    12  N   -0.425582
    13  H    0.264236
    14  H    0.426302
    15  H   -0.052703
 Sum of Mulliken charges =  -0.00000

 Dipole moment (field-independent basis, Debye):
    X=             -0.9574    Y=              0.8356    Z=             -0.0001  Tot=              1.2708

 Test job not archived.
 1\1\GINC-SE462\SP\RHF\Aug-CC-pVDZ\C5H7B1N2\OHZDE\09-Apr-2025\0\\#t hf
 aug-cc-pvdz iop(5/13=1,5/36=2,99/5=2) pseudo=read geom=check guess=(re
 ad,tcheck) scf=(maxcycle=1)\\title\\0,1\C,0,-0.001345,1.114285,0.00000
 8\C,0,-1.37991,1.279657,0.000002\C,0,-2.202577,0.154731,-0.000006\N,0,
 -1.722499,-1.091206,-0.000009\C,0,-0.40054,-1.243648,-0.000004\C,0,0.5
 15839,-0.183457,0.000004\H,0,-1.81341,2.272865,0.000004\H,0,-3.28353,0
 .255874,-0.000011\H,0,0.660532,1.970217,0.000015\B,0,3.004527,0.390237
 ,0.000003\H,0,-0.03299,-2.269285,-0.000006\N,0,1.898477,-0.467501,0.00

 Normal termination of Gaussian 16 at Wed Apr  9 00:36:26 2025.
