 Gaussian 16, Revision C.01,

 ----------------------------------------------------------------------
 #t hf aug-cc-pvdz symm=none int=(grid=ultrafine) guess=(read,tcheck) s
 table=(opt,rrhf)
 ----------------------------------------------------------------------
 -----
 title
 -----
 Symbolic Z-matrix:
 Charge =  0 Multiplicity = 1

 SCF Done:  E(RHF) =  -1724.68808976     A.U. after   14 cycles
 Normal termination of Gaussian 16 at Wed Apr  9 00:08:48 2025.
 Gaussian 16:  ES64L-G16RevC.01  3-Jul-2019

 ----------------------------------------------------------------------
 #t hf aug-cc-pvdz iop(5/13=1,5/36=2,99/5=2) pseudo=read geom=check gue
 ss=(read,tcheck) scf=(maxcycle=1)
 ----------------------------------------------------------------------
 -----
 title
 -----
 Structure from the checkpoint file:  "BDE49_nonexpt_2350_mol1.chk"
 Charge =  0 Multiplicity = 1

                         Standard orientation:
 ---------------------------------------------------------------------
 Center     Atomic      Atomic             Coordinates (Angstroms)
 Number     Number       Type             X           Y           Z
 ---------------------------------------------------------------------
      1         14           0        0.805115   -0.865012    1.175694
      2         14           0       -0.805117    0.864974    1.175721
      3          6           0        1.881248   -0.729158   -0.412101
      4          8           0        1.995393   -1.476119   -1.311922
      5          1           0        0.193222   -2.207257    1.192795
      6          1           0        1.720438   -0.663309    2.317471
      7         17           0        2.827317    0.896963   -0.411894
      8          6           0       -1.881243    0.729174   -0.412083
      9          1           0       -0.193226    2.207220    1.192867
     10          1           0       -1.720445    0.663234    2.317486
     11          8           0       -1.995379    1.476154   -1.311889
     12         17           0       -2.827323   -0.896947   -0.411920
 ---------------------------------------------------------------------

 SCF Done:  E(RHF) =  -1724.83435564     A.U. after    2 cycles

 The electronic state is 1-A.
 Alpha  occ. eigenvalues -- -103.67078-103.67078 -69.12514 -69.12513 -20.64431
 Alpha  occ. eigenvalues --  -20.64430 -11.42897 -11.42897 -10.70391 -10.70391
 Alpha  occ. eigenvalues --   -8.36071  -8.36070  -8.35808  -8.35808  -8.35802
 Alpha  occ. eigenvalues --   -8.35802  -6.87849  -6.87842  -3.98657  -3.98642
 Alpha  occ. eigenvalues --   -3.98579  -3.98559  -3.98552  -3.98502  -1.44416
 Alpha  occ. eigenvalues --   -1.44399  -1.15534  -1.15470  -0.86891  -0.84858
 Alpha  occ. eigenvalues --   -0.76773  -0.73971  -0.68923  -0.68863  -0.65726
 Alpha  occ. eigenvalues --   -0.63433  -0.63411  -0.62165  -0.54359  -0.52897
 Alpha  occ. eigenvalues --   -0.48793  -0.48430  -0.48139  -0.47960  -0.46673
 Alpha  occ. eigenvalues --   -0.44639  -0.43668
 Alpha virt. eigenvalues --    0.02651   0.03232   0.04118   0.05232   0.05529
 Alpha virt. eigenvalues --    0.05568   0.06371   0.06512   0.06954   0.08051
 Alpha virt. eigenvalues --    0.08711   0.08847   0.09109   0.09999   0.11743

 Mulliken charges:
               1
     1  Si   0.256148
     2  Si   0.256149
     3  C    0.152833
     4  O   -0.373396
     5  H    0.088959
     6  H    0.113661
     7  Cl  -0.238204
     8  C    0.152831
     9  H    0.088958
    10  H    0.113662
    11  O   -0.373393
    12  Cl  -0.238208
 Sum of Mulliken charges =  -0.00000

 Dipole moment (field-independent basis, Debye):
    X=              0.0000    Y=             -0.0000    Z=              5.0855  Tot=              5.0855

 Test job not archived.
 1\1\GINC-SE460\SP\RHF\Aug-CC-pVDZ\C2H4Cl2O2Si2\OHZDE\09-Apr-2025\0\\#t
  hf aug-cc-pvdz iop(5/13=1,5/36=2,99/5=2) pseudo=read geom=check guess
 =(read,tcheck) scf=(maxcycle=1)\\title\\0,1\Si,0,-0.805115,0.865012,1.
 175694\Si,0,0.805117,-0.864974,1.175721\C,0,-1.881248,0.729158,-0.4121
 01\O,0,-1.995393,1.476119,-1.311922\H,0,-0.193222,2.207257,1.192795\H,
 0,-1.720438,0.663309,2.317471\Cl,0,-2.827317,-0.896963,-0.411894\C,0,1
 .881243,-0.729174,-0.412083\H,0,0.193226,-2.20722,1.192867\H,0,1.72044
 5,-0.663234,2.317486\O,0,1.995379,-1.476154,-1.311889\Cl,0,2.827323,0.

 Normal termination of Gaussian 16 at Wed Apr  9 00:08:54 2025.
