 Gaussian 16, Revision C.01,

 ----------------------------------------------------------------------
 #t hf aug-cc-pvdz symm=none int=(grid=ultrafine) guess=(read,tcheck) s
 table=(opt,rrhf)
 ----------------------------------------------------------------------
 -----
 title
 -----
 Symbolic Z-matrix:
 Charge =  0 Multiplicity = 1

 SCF Done:  E(RHF) =  -708.545470445     A.U. after   15 cycles
 Normal termination of Gaussian 16 at Tue Apr  8 23:45:19 2025.
 Gaussian 16:  ES64L-G16RevC.01  3-Jul-2019

 ----------------------------------------------------------------------
 #t hf aug-cc-pvdz iop(5/13=1,5/36=2,99/5=2) pseudo=read geom=check gue
 ss=(read,tcheck) scf=(maxcycle=1)
 ----------------------------------------------------------------------
 -----
 title
 -----
 Structure from the checkpoint file:  "BDE49_nonexpt_156_mol1.chk"
 Charge =  0 Multiplicity = 1

                         Standard orientation:
 ---------------------------------------------------------------------
 Center     Atomic      Atomic             Coordinates (Angstroms)
 Number     Number       Type             X           Y           Z
 ---------------------------------------------------------------------
      1          5           0        0.755234    1.412163   -0.345197
      2          5           0       -0.755244    1.412270    0.344742
      3          6           0       -1.987867    0.552364   -0.042490
      4          6           0       -3.227133    0.753517    0.599050
      5          6           0       -1.917655   -0.450439   -1.032846
      6          6           0       -3.028463   -1.216655   -1.368870
      7          6           0       -4.246574   -1.002925   -0.724552
      8          6           0       -4.321263   -0.017928    0.250440
      9          1           0       -0.976651   -0.629604   -1.541071
     10          1           0       -2.955939   -1.982678   -2.132282
     11          1           0       -5.129588   -1.582772   -0.964431
     12          6           0        1.987869    0.552407    0.042327
     13          6           0        3.227102    0.753280   -0.599364
     14          6           0        1.917700   -0.449980    1.033107
     15          6           0        3.028520   -1.216064    1.369394
     16          6           0        4.246599   -1.002614    0.724921
     17          6           0        4.321243   -0.018027   -0.250488
     18          1           0        0.976722   -0.628925    1.541457
     19          1           0        2.956031   -1.981766    2.133131
     20          1           0        5.129621   -1.582367    0.964996
     21          9           0       -5.502445    0.188357    0.876128
     22          9           0        5.502394    0.187986   -0.876326
     23          1           0       -3.336996    1.509949    1.366851
     24          1           0        3.336930    1.509390   -1.367487
     25          1           0       -0.934485    2.219231    1.220075
     26          1           0        0.934399    2.218676   -1.220959
 ---------------------------------------------------------------------

 SCF Done:  E(RHF) =  -708.762568888     A.U. after    2 cycles

 The electronic state is 1-A.
 Alpha  occ. eigenvalues --  -26.13807 -26.13807 -11.34415 -11.34415 -11.27051
 Alpha  occ. eigenvalues --  -11.27051 -11.26472 -11.26472 -11.26459 -11.26459
 Alpha  occ. eigenvalues --  -11.26279 -11.26279 -11.24302 -11.24301  -7.59743
 Alpha  occ. eigenvalues --   -7.59658  -1.67620  -1.67620  -1.16247  -1.16110
 Alpha  occ. eigenvalues --   -1.03333  -1.03296  -1.03113  -1.02826  -0.87221
 Alpha  occ. eigenvalues --   -0.86889  -0.86841  -0.86657  -0.78291  -0.77423
 Alpha  occ. eigenvalues --   -0.75305  -0.75305  -0.74727  -0.74343  -0.70837
 Alpha  occ. eigenvalues --   -0.70230  -0.69175  -0.63960  -0.63425  -0.63149
 Alpha  occ. eigenvalues --   -0.61933  -0.61045  -0.57250  -0.54989  -0.53463
 Alpha  occ. eigenvalues --   -0.53429  -0.52099  -0.52032  -0.48231  -0.47860
 Alpha  occ. eigenvalues --   -0.42467  -0.36329  -0.36299  -0.35438  -0.35225
 Alpha virt. eigenvalues --    0.02735   0.03480   0.03870   0.04049   0.04115
 Alpha virt. eigenvalues --    0.04241   0.04912   0.05444   0.05906   0.06276
 Alpha virt. eigenvalues --    0.06940   0.07271   0.07706   0.08058   0.09824

 Mulliken charges:
               1
     1  B   -0.595158
     2  B   -0.595084
     3  C   -0.326415
     4  C    0.499419
     5  C    1.006054
     6  C    0.470203
     7  C    0.904016
     8  C    0.238985
     9  H   -0.641623
    10  H   -0.474913
    11  H   -0.438491
    12  C   -0.326356
    13  C    0.499389
    14  C    1.006124
    15  C    0.470144
    16  C    0.903998
    17  C    0.238998
    18  H   -0.641636
    19  H   -0.474914
    20  H   -0.438489
    21  F   -0.333728
    22  F   -0.333729
    23  H   -0.597032
    24  H   -0.597020
    25  H    0.288627
    26  H    0.288631
 Sum of Mulliken charges =  -0.00000

 Dipole moment (field-independent basis, Debye):
    X=              0.0001    Y=             -1.8750    Z=              0.0005  Tot=              1.8750

 Test job not archived.
 1\1\GINC-SE222\SP\RHF\Aug-CC-pVDZ\C12H10B2F2\OHZDE\08-Apr-2025\0\\#t h
 f aug-cc-pvdz iop(5/13=1,5/36=2,99/5=2) pseudo=read geom=check guess=(
 read,tcheck) scf=(maxcycle=1)\\title\\0,1\B,0,-0.755234,1.412163,0.345
 197\B,0,0.755244,1.41227,-0.344742\C,0,1.987867,0.552364,0.04249\C,0,3
 .227133,0.753517,-0.59905\C,0,1.917655,-0.450439,1.032846\C,0,3.028463
 ,-1.216655,1.36887\C,0,4.246574,-1.002925,0.724552\C,0,4.321263,-0.017
 928,-0.25044\H,0,0.976651,-0.629604,1.541071\H,0,2.955939,-1.982678,2.
 132282\H,0,5.129588,-1.582772,0.964431\C,0,-1.987869,0.552407,-0.04232

 Normal termination of Gaussian 16 at Tue Apr  8 23:45:48 2025.
