 Gaussian 16, Revision C.01,

 ----------------------------------------------------------------------
 #t hf aug-cc-pvdz symm=none int=(grid=ultrafine) guess=(read,tcheck) s
 table=(opt,rrhf)
 ----------------------------------------------------------------------
 -----
 title
 -----
 Symbolic Z-matrix:
 Charge =  0 Multiplicity = 1

 SCF Done:  E(RHF) =  -802.393938241     A.U. after   16 cycles
 Normal termination of Gaussian 16 at Tue Apr  8 23:00:29 2025.
 Gaussian 16:  ES64L-G16RevC.01  3-Jul-2019

 ----------------------------------------------------------------------
 #t hf aug-cc-pvdz iop(5/13=1,5/36=2,99/5=2) pseudo=read geom=check gue
 ss=(read,tcheck) scf=(maxcycle=1)
 ----------------------------------------------------------------------
 -----
 title
 -----
 Structure from the checkpoint file:  "BDE49_expt_205_mol1.chk"
 Charge =  0 Multiplicity = 1

                         Standard orientation:
 ---------------------------------------------------------------------
 Center     Atomic      Atomic             Coordinates (Angstroms)
 Number     Number       Type             X           Y           Z
 ---------------------------------------------------------------------
      1          6           0        2.413623   -1.047711    0.000843
      2          8           0        3.544754   -0.624014   -0.000872
      3          6           0        1.197295   -0.196145    0.000450
      4          1           0        2.212326   -2.140416   -0.000886
      5          6           0        1.310579    1.198750    0.000275
      6          6           0        0.164548    1.981675   -0.000023
      7          6           0       -1.098456    1.386552   -0.000158
      8          6           0       -1.198134   -0.001526    0.000011
      9          6           0       -0.061984   -0.801253    0.000303
     10          1           0       -0.154088   -1.881239    0.000433
     11          1           0       -1.996697    1.990593   -0.000389
     12          1           0        2.300033    1.639050    0.000400
     13          1           0        0.241360    3.062640   -0.000149
     14         17           0       -2.783870   -0.752975   -0.000155
 ---------------------------------------------------------------------

 SCF Done:  E(RHF) =  -802.514180748     A.U. after    2 cycles

 The electronic state is 1-A.
 Alpha  occ. eigenvalues -- -103.67985 -20.58273 -11.35906 -11.33096 -11.28658
 Alpha  occ. eigenvalues --  -11.28415 -11.27786 -11.27577 -11.27452 -10.71249
 Alpha  occ. eigenvalues --   -8.36987  -8.36679  -8.36660  -1.36991  -1.21551
 Alpha  occ. eigenvalues --   -1.15419  -1.06056  -1.02440  -0.91174  -0.86092
 Alpha  occ. eigenvalues --   -0.79694  -0.73618  -0.70509  -0.67562  -0.64670
 Alpha  occ. eigenvalues --   -0.63816  -0.61496  -0.58346  -0.55781  -0.55117
 Alpha  occ. eigenvalues --   -0.53331  -0.48909  -0.48431  -0.45279  -0.37572
 Alpha  occ. eigenvalues --   -0.35941
 Alpha virt. eigenvalues --    0.03085   0.03721   0.04268   0.04646   0.06119
 Alpha virt. eigenvalues --    0.06280   0.07551   0.09141   0.09503   0.10292
 Alpha virt. eigenvalues --    0.11402   0.11783   0.12693   0.13118   0.13442

 Mulliken charges:
               1
     1  C    0.650475
     2  O   -0.495314
     3  C    0.959942
     4  H   -0.268687
     5  C    0.165256
     6  C    0.709941
     7  C    0.390049
     8  C   -0.508061
     9  C    0.650188
    10  H   -0.490639
    11  H   -0.415010
    12  H   -0.553493
    13  H   -0.420656
    14  Cl  -0.373990
 Sum of Mulliken charges =   0.00000

 Dipole moment (field-independent basis, Debye):
    X=             -1.9635    Y=              0.7795    Z=              0.0027  Tot=              2.1126

 Test job not archived.
 1\1\GINC-SE083\SP\RHF\Aug-CC-pVDZ\C7H5Cl1O1\OHZDE\08-Apr-2025\0\\#t hf
  aug-cc-pvdz iop(5/13=1,5/36=2,99/5=2) pseudo=read geom=check guess=(r
 ead,tcheck) scf=(maxcycle=1)\\title\\0,1\C,0,-2.413623,-1.047711,-0.00
 0843\O,0,-3.544754,-0.624014,0.000872\C,0,-1.197295,-0.196145,-0.00045
 \H,0,-2.212326,-2.140416,0.000886\C,0,-1.310579,1.19875,-0.000275\C,0,
 -0.164548,1.981675,0.000023\C,0,1.098456,1.386552,0.000158\C,0,1.19813
 4,-0.001526,-0.000011\C,0,0.061984,-0.801253,-0.000303\H,0,0.154088,-1
 .881239,-0.000433\H,0,1.996697,1.990593,0.000389\H,0,-2.300033,1.63905

 Normal termination of Gaussian 16 at Tue Apr  8 23:00:37 2025.
