 Gaussian 16, Revision C.01,

 ----------------------------------------------------------------------
 #t hf aug-cc-pvdz symm=none int=(grid=ultrafine) guess=(read,tcheck) s
 table=opt
 ----------------------------------------------------------------------
 -----
 title
 -----
 Symbolic Z-matrix:
 Charge =  0 Multiplicity = 2

 SCF Done:  E(UHF) =  -511.975601195     A.U. after   19 cycles
 Normal termination of Gaussian 16 at Tue Apr  8 22:42:26 2025.
 Gaussian 16:  ES64L-G16RevC.01  3-Jul-2019

 ----------------------------------------------------------------------
 #t hf aug-cc-pvdz iop(5/13=1,5/36=2,99/5=2) pseudo=read geom=check gue
 ss=(read,tcheck) scf=(maxcycle=1)
 ----------------------------------------------------------------------
 -----
 title
 -----
 Structure from the checkpoint file:  "BDE49_expt_1495_mol2.chk"
 Charge =  0 Multiplicity = 2

                         Standard orientation:
 ---------------------------------------------------------------------
 Center     Atomic      Atomic             Coordinates (Angstroms)
 Number     Number       Type             X           Y           Z
 ---------------------------------------------------------------------
      1          6           0        1.407755    0.301949   -0.000000
      2         16           0       -0.227443   -0.503392   -0.000009
      3          1           0        1.505162    0.919839    0.893923
      4          1           0        1.505154    0.919876   -0.893899
      5          1           0        2.165055   -0.485584   -0.000019
      6          8           0       -1.247852    0.611055    0.000018
 ---------------------------------------------------------------------

 SCF Done:  E(UHF) =  -512.048637149     A.U. after    2 cycles

 The electronic state is 2-A.
 Alpha  occ. eigenvalues --  -93.62867 -20.62276 -11.28003  -8.91907  -6.26273
 Alpha  occ. eigenvalues --   -6.26002  -6.25570  -1.38085  -1.03131  -0.85574
 Alpha  occ. eigenvalues --   -0.68270  -0.64215  -0.63837  -0.60522  -0.57456
 Alpha  occ. eigenvalues --   -0.44881  -0.38697
 Alpha virt. eigenvalues --    0.03332   0.05365   0.05747   0.07474   0.10379
 Alpha virt. eigenvalues --    0.11958   0.13037   0.14715   0.14835   0.16483
 Alpha virt. eigenvalues --    0.20642   0.22529   0.24030   0.24466   0.24555

  Beta  occ. eigenvalues --  -93.62473 -20.59134 -11.28121  -8.91470  -6.25907
  Beta  occ. eigenvalues --   -6.25384  -6.24402  -1.30041  -1.01204  -0.80995
  Beta  occ. eigenvalues --   -0.62860  -0.61408  -0.60980  -0.55438  -0.44324
  Beta  occ. eigenvalues --   -0.42735
  Beta virt. eigenvalues --    0.03351   0.04671   0.05372   0.05809   0.07561
  Beta virt. eigenvalues --    0.10577   0.12030   0.13768   0.14948   0.15416
  Beta virt. eigenvalues --    0.16604   0.20964   0.22857   0.24632   0.25467

 Mulliken charges and spin densities:
               1          2
     1  C   -0.024669  -0.082261
     2  S    0.868905   0.433357
     3  H   -0.036395   0.010857
     4  H   -0.036393   0.010857
     5  H   -0.023764  -0.003939
     6  O   -0.747685   0.631129
 Sum of Mulliken charges =  -0.00000   1.00000

 Dipole moment (field-independent basis, Debye):
    X=              3.1642    Y=             -0.7569    Z=             -0.0000  Tot=              3.2535
                          Isotropic Fermi Contact Couplings
        Atom                 a.u.       MegaHertz       Gauss      10(-4) cm-1
     1  C(13)             -0.02083     -23.41914      -8.35653      -7.81178
     2  S(33)              0.12269      42.13999      15.03660      14.05639
     3  H(1)               0.00627      28.04134      10.00585       9.35358
     4  H(1)               0.00627      28.04135      10.00585       9.35359
     5  H(1)              -0.00035      -1.57386      -0.56159      -0.52498
     6  O(17)              0.24147    -146.37685     -52.23090     -48.82606
 --------------------------------------------------------
       Center         ----  Spin Dipole Couplings  ----

 Normal termination of Gaussian 16 at Tue Apr  8 22:42:27 2025.
