 Gaussian 16, Revision C.01,

 ----------------------------------------------------------------------
 #t hf aug-cc-pvdz symm=none int=(grid=ultrafine) guess=(read,tcheck) s
 table=opt
 ----------------------------------------------------------------------
 -----
 title
 -----
 Symbolic Z-matrix:
 Charge =  0 Multiplicity = 2

 SCF Done:  E(UHF) =  -1606.17308585     A.U. after   31 cycles
 Normal termination of Gaussian 16 at Wed Apr  9 00:15:00 2025.
 Gaussian 16:  ES64L-G16RevC.01  3-Jul-2019

 ----------------------------------------------------------------------
 #t hf aug-cc-pvdz iop(5/13=1,5/36=2,99/5=2) pseudo=read geom=check gue
 ss=(read,tcheck) scf=(maxcycle=1)
 ----------------------------------------------------------------------
 -----
 title
 -----
 Structure from the checkpoint file:  "BDE49_nonexpt_2532_mol2.chk"
 Charge =  0 Multiplicity = 2

                         Standard orientation:
 ---------------------------------------------------------------------
 Center     Atomic      Atomic             Coordinates (Angstroms)
 Number     Number       Type             X           Y           Z
 ---------------------------------------------------------------------
      1         16           0        0.965329    1.746006   -0.177498
      2         14           0       -0.032947    0.007382    0.524358
      3         17           0       -1.963724   -0.066418   -0.198253
      4         17           0        1.089533   -1.576249   -0.183112
      5          1           0       -0.122772   -0.114095    1.982151
 ---------------------------------------------------------------------

 SCF Done:  E(UHF) =  -1606.25296631     A.U. after    2 cycles

 The electronic state is 2-A.
 Alpha  occ. eigenvalues -- -103.67846-103.67662 -93.58197 -69.19617 -10.71307
 Alpha  occ. eigenvalues --  -10.71133  -8.88064  -8.37023  -8.36825  -8.36777
 Alpha  occ. eigenvalues --   -8.36742  -8.36595  -8.36573  -6.93741  -6.23395
 Alpha  occ. eigenvalues --   -6.21648  -6.21309  -4.04617  -4.04539  -4.04391
 Alpha  occ. eigenvalues --   -1.17462  -1.15273  -0.98595  -0.71178  -0.58746
 Alpha  occ. eigenvalues --   -0.57974  -0.54869  -0.51325  -0.49976  -0.49057
 Alpha  occ. eigenvalues --   -0.46983  -0.46667  -0.41978
 Alpha virt. eigenvalues --    0.05007   0.05402   0.05647   0.05823   0.08761
 Alpha virt. eigenvalues --    0.11132   0.11529   0.12404   0.12819   0.12871
 Alpha virt. eigenvalues --    0.13848   0.14604   0.17234   0.17351   0.18745

  Beta  occ. eigenvalues -- -103.67806-103.67652 -93.57323 -69.19650 -10.71264
  Beta  occ. eigenvalues --  -10.71123  -8.87095  -8.36937  -8.36811  -8.36718
  Beta  occ. eigenvalues --   -8.36686  -8.36571  -8.36562  -6.93791  -6.21139
  Beta  occ. eigenvalues --   -6.20769  -6.19530  -4.04648  -4.04613  -4.04440
  Beta  occ. eigenvalues --   -1.17234  -1.15076  -0.89448  -0.70280  -0.57907
  Beta  occ. eigenvalues --   -0.57770  -0.54050  -0.50273  -0.49550  -0.48760
  Beta  occ. eigenvalues --   -0.45716  -0.39710
  Beta virt. eigenvalues --   -0.03142   0.05092   0.05500   0.05834   0.06148
  Beta virt. eigenvalues --    0.08849   0.11346   0.12215   0.12643   0.12860
  Beta virt. eigenvalues --    0.13290   0.14044   0.15674   0.17505   0.18043

 Mulliken charges and spin densities:
               1          2
     1  S   -0.306316   1.075174
     2  Si   1.254811  -0.092363
     3  Cl  -0.453087   0.003968
     4  Cl  -0.453338   0.019091
     5  H   -0.042070  -0.005870
 Sum of Mulliken charges =  -0.00000   1.00000

 Dipole moment (field-independent basis, Debye):
    X=              0.1849    Y=              0.5892    Z=              1.0494  Tot=              1.2176
                          Isotropic Fermi Contact Couplings
        Atom                 a.u.       MegaHertz       Gauss      10(-4) cm-1
     1  S(33)              0.15501      53.24101      18.99772      17.75929
     2  Si(29)            -0.04045      35.94810      12.82717      11.99099
     3  Cl(35)             0.00363       1.59334       0.56854       0.53148
     4  Cl(35)             0.02165       9.49367       3.38758       3.16675
     5  H(1)              -0.00065      -2.92520      -1.04378      -0.97574
 --------------------------------------------------------
       Center         ----  Spin Dipole Couplings  ----
                      3XX-RR        3YY-RR        3ZZ-RR

 Normal termination of Gaussian 16 at Wed Apr  9 00:15:02 2025.
