 Gaussian 16, Revision C.01,

 ----------------------------------------------------------------------
 #t hf aug-cc-pvdz symm=none int=(grid=ultrafine) guess=(read,tcheck) s
 table=opt
 ----------------------------------------------------------------------
 -----
 title
 -----
 Symbolic Z-matrix:
 Charge =  0 Multiplicity = 2

 SCF Done:  E(UHF) =  -445.507573563     A.U. after   18 cycles
 Normal termination of Gaussian 16 at Wed Apr  9 00:33:40 2025.
 Gaussian 16:  ES64L-G16RevC.01  3-Jul-2019

 ----------------------------------------------------------------------
 #t hf aug-cc-pvdz iop(5/13=1,5/36=2,99/5=2) pseudo=read geom=check gue
 ss=(read,tcheck) scf=(maxcycle=1)
 ----------------------------------------------------------------------
 -----
 title
 -----
 Structure from the checkpoint file:  "BDE49_nonexpt_426_mol2.chk"
 Charge =  0 Multiplicity = 2

                         Standard orientation:
 ---------------------------------------------------------------------
 Center     Atomic      Atomic             Coordinates (Angstroms)
 Number     Number       Type             X           Y           Z
 ---------------------------------------------------------------------
      1          9           0        2.902132   -0.214969    0.350978
      2          5           0        2.185319    0.779682   -0.125771
      3          8           0        0.843467    0.789508   -0.286419
      4          6           0       -0.011757   -0.324981   -0.156283
      5          8           0        0.392859   -1.455748   -0.222227
      6          7           0       -1.296450    0.072217    0.011513
      7          6           0       -1.745708    1.455971    0.101256
      8          1           0       -2.178830    1.650725    1.088592
      9          1           0       -2.514867    1.644963   -0.654639
     10          1           0       -0.915098    2.133443   -0.062628
     11          6           0       -2.324640   -0.952799    0.146140
     12          1           0       -3.083248   -0.830325   -0.633543
     13          1           0       -2.813313   -0.875391    1.123026
     14          1           0       -1.863256   -1.931848    0.051130
 ---------------------------------------------------------------------

 SCF Done:  E(UHF) =  -445.666349953     A.U. after    2 cycles

 The electronic state is 2-A.
 Alpha  occ. eigenvalues --  -26.13832 -20.62999 -20.55655 -15.67335 -11.44041
 Alpha  occ. eigenvalues --  -11.28849 -11.28165  -7.74291  -1.68426  -1.42944
 Alpha  occ. eigenvalues --   -1.33964  -1.23664  -0.98755  -0.97229  -0.86032
 Alpha  occ. eigenvalues --   -0.83556  -0.77457  -0.74828  -0.73623  -0.70989
 Alpha  occ. eigenvalues --   -0.68946  -0.63021  -0.62499  -0.61352  -0.58131
 Alpha  occ. eigenvalues --   -0.57482  -0.55011  -0.53531  -0.49581  -0.39607
 Alpha  occ. eigenvalues --   -0.38535
 Alpha virt. eigenvalues --    0.02815   0.04151   0.04323   0.05645   0.05967
 Alpha virt. eigenvalues --    0.06564   0.07105   0.07489   0.08349   0.09209
 Alpha virt. eigenvalues --    0.11985   0.12349   0.13075   0.13257   0.14132

  Beta  occ. eigenvalues --  -26.13453 -20.62821 -20.55637 -15.67324 -11.43920
  Beta  occ. eigenvalues --  -11.28850 -11.28160  -7.72068  -1.67239  -1.42628
  Beta  occ. eigenvalues --   -1.33599  -1.23577  -0.98669  -0.96825  -0.84587
  Beta  occ. eigenvalues --   -0.82293  -0.75015  -0.74663  -0.73357  -0.70763
  Beta  occ. eigenvalues --   -0.68957  -0.63000  -0.62303  -0.61193  -0.58088
  Beta  occ. eigenvalues --   -0.57485  -0.54984  -0.53563  -0.48702  -0.39650
  Beta virt. eigenvalues --    0.02681   0.03572   0.04369   0.04648   0.06323
  Beta virt. eigenvalues --    0.06590   0.07203   0.07505   0.07762   0.08988
  Beta virt. eigenvalues --    0.10687   0.12238   0.13009   0.13742   0.14630

 Mulliken charges and spin densities:
               1          2
     1  F   -0.389757  -0.017571
     2  B    0.327283   1.090204
     3  O   -0.384664  -0.126894
     4  C    0.445918   0.073587
     5  O   -0.387338  -0.001729
     6  N   -0.372482  -0.016286
     7  C    0.830842  -0.000881
     8  H   -0.088546   0.000077
     9  H   -0.106156   0.000250
    10  H   -0.242896  -0.004952
    11  C    0.760582   0.003310
    12  H   -0.086345  -0.000057
    13  H   -0.072150  -0.000024
    14  H   -0.234290   0.000964
 Sum of Mulliken charges =  -0.00000   1.00000

 Dipole moment (field-independent basis, Debye):
    X=             -3.9151    Y=              2.7427    Z=              0.3050  Tot=              4.7899
                          Isotropic Fermi Contact Couplings
        Atom                 a.u.       MegaHertz       Gauss      10(-4) cm-1
     1  F(19)              0.10109     425.33939     151.77167     141.87795
     2  B(11)              0.48778     699.65971     249.65598     233.38136
     3  O(17)              0.17003    -103.07296     -36.77900     -34.38144
     4  C(13)              0.02449      27.53299       9.82445       9.18402
     5  O(17)              0.00286      -1.73565      -0.61932      -0.57895
     6  N(14)              0.00471       1.52197       0.54308       0.50768
     7  C(13)             -0.00033      -0.37092      -0.13235      -0.12372
     8  H(1)              -0.00002      -0.07221      -0.02577      -0.02409

 Normal termination of Gaussian 16 at Wed Apr  9 00:33:46 2025.
