 Gaussian 16, Revision C.01,

 ----------------------------------------------------------------------
 #t hf aug-cc-pvdz symm=none int=(grid=ultrafine) guess=(read,tcheck) s
 table=opt
 ----------------------------------------------------------------------
 -----
 title
 -----
 Symbolic Z-matrix:
 Charge =  0 Multiplicity = 2

 SCF Done:  E(UHF) =  -1100.68732540     A.U. after   19 cycles
 Normal termination of Gaussian 16 at Wed Apr  9 00:50:10 2025.
 Gaussian 16:  ES64L-G16RevC.01  3-Jul-2019

 ----------------------------------------------------------------------
 #t hf aug-cc-pvdz iop(5/13=1,5/36=2,99/5=2) pseudo=read geom=check gue
 ss=(read,tcheck) scf=(maxcycle=1)
 ----------------------------------------------------------------------
 -----
 title
 -----
 Structure from the checkpoint file:  "BDE49_nonexpt_937_mol2.chk"
 Charge =  0 Multiplicity = 2

                         Standard orientation:
 ---------------------------------------------------------------------
 Center     Atomic      Atomic             Coordinates (Angstroms)
 Number     Number       Type             X           Y           Z
 ---------------------------------------------------------------------
      1         17           0       -2.113776    0.089720   -0.000001
      2         16           0        0.681218   -0.203527    0.000001
      3          8           0        0.686320   -0.910764   -1.256056
      4          7           0       -0.647838    0.923663   -0.000002
      5          6           0        1.981237    1.021490   -0.000000
      6          1           0        2.914415    0.457761    0.000001
      7          1           0        1.893317    1.625519   -0.900920
      8          8           0        0.686318   -0.910761    1.256060
      9          1           0        1.893316    1.625522    0.900918
 ---------------------------------------------------------------------

 SCF Done:  E(UHF) =  -1100.86076403     A.U. after    2 cycles

 The electronic state is 2-A.
 Alpha  occ. eigenvalues -- -103.73169 -93.82660 -20.59088 -20.59087 -15.78097
 Alpha  occ. eigenvalues --  -11.30994 -10.76227  -9.09197  -8.41823  -8.41785
 Alpha  occ. eigenvalues --   -8.41541  -6.43817  -6.43623  -6.43478  -1.46280
 Alpha  occ. eigenvalues --   -1.34074  -1.31032  -1.10665  -1.03146  -0.83829
 Alpha  occ. eigenvalues --   -0.73338  -0.71522  -0.71384  -0.65550  -0.63879
 Alpha  occ. eigenvalues --   -0.63186  -0.60187  -0.56709  -0.54226  -0.52672
 Alpha  occ. eigenvalues --   -0.51366  -0.47730  -0.46568
 Alpha virt. eigenvalues --    0.02821   0.05150   0.05287   0.06402   0.08743
 Alpha virt. eigenvalues --    0.10639   0.11617   0.11874   0.13781   0.14514
 Alpha virt. eigenvalues --    0.15302   0.15727   0.16385   0.16463   0.18167

  Beta  occ. eigenvalues -- -103.73117 -93.82726 -20.58986 -20.58985 -15.74643
  Beta  occ. eigenvalues --  -11.31019 -10.76170  -9.09281  -8.42125  -8.41509
  Beta  occ. eigenvalues --   -8.41268  -6.43886  -6.43800  -6.43561  -1.45797
  Beta  occ. eigenvalues --   -1.33784  -1.26291  -1.08506  -0.99485  -0.81932
  Beta  occ. eigenvalues --   -0.71987  -0.71292  -0.69325  -0.63389  -0.63291
  Beta  occ. eigenvalues --   -0.58072  -0.56202  -0.55664  -0.52648  -0.51222
  Beta  occ. eigenvalues --   -0.50950  -0.44631
  Beta virt. eigenvalues --    0.02431   0.02862   0.05296   0.05315   0.06926
  Beta virt. eigenvalues --    0.09068   0.10815   0.11990   0.12090   0.13812
  Beta virt. eigenvalues --    0.14545   0.15410   0.15970   0.16602   0.16687

 Mulliken charges and spin densities:
               1          2
     1  Cl   0.327929  -0.021309
     2  S    2.579087  -0.075365
     3  O   -0.998019   0.012628
     4  N   -0.979500   1.082758
     5  C   -0.014021  -0.011307
     6  H    0.054505  -0.001796
     7  H    0.014019   0.000881
     8  O   -0.998020   0.012628
     9  H    0.014020   0.000881
 Sum of Mulliken charges =  -0.00000   1.00000

 Dipole moment (field-independent basis, Debye):
    X=              1.5354    Y=              3.6582    Z=             -0.0000  Tot=              3.9674
                          Isotropic Fermi Contact Couplings
        Atom                 a.u.       MegaHertz       Gauss      10(-4) cm-1
     1  Cl(35)             0.05662      24.82397       8.85781       8.28039
     2  S(33)             -0.07048     -24.20668      -8.63755      -8.07448
     3  O(17)              0.00660      -4.00103      -1.42767      -1.33460
     4  N(14)              0.28559      92.27702      32.92673      30.78030
     5  C(13)             -0.00516      -5.79748      -2.06869      -1.93383
     6  H(1)              -0.00058      -2.59002      -0.92418      -0.86394
     7  H(1)               0.00034       1.49767       0.53441       0.49957
     8  O(17)              0.00660      -4.00099      -1.42765      -1.33459

 Normal termination of Gaussian 16 at Wed Apr  9 00:50:14 2025.
