 Gaussian 16, Revision C.01,

 ----------------------------------------------------------------------
 #t hf aug-cc-pvdz symm=none int=(grid=ultrafine) guess=(read,tcheck) s
 table=opt
 ----------------------------------------------------------------------
 -----
 title
 -----
 Symbolic Z-matrix:
 Charge =  0 Multiplicity = 2

 SCF Done:  E(UHF) =  -951.725265819     A.U. after   17 cycles
 Normal termination of Gaussian 16 at Tue Apr  8 23:57:42 2025.
 Gaussian 16:  ES64L-G16RevC.01  3-Jul-2019

 ----------------------------------------------------------------------
 #t hf aug-cc-pvdz iop(5/13=1,5/36=2,99/5=2) pseudo=read geom=check gue
 ss=(read,tcheck) scf=(maxcycle=1)
 ----------------------------------------------------------------------
 -----
 title
 -----
 Structure from the checkpoint file:  "BDE49_nonexpt_2058_mol2.chk"
 Charge =  0 Multiplicity = 2

                         Standard orientation:
 ---------------------------------------------------------------------
 Center     Atomic      Atomic             Coordinates (Angstroms)
 Number     Number       Type             X           Y           Z
 ---------------------------------------------------------------------
      1         14           0       -1.762835   -0.873987    0.055987
      2         16           0       -0.038926    0.543548    0.066993
      3          8           0        0.441541    0.712794    1.421123
      4          8           0        1.109765   -0.263611   -0.788330
      5          6           0        2.077816   -1.067026   -0.074365
      6          1           0        2.863156   -1.271693   -0.799851
      7          1           0        1.631109   -2.006942    0.259218
      8          1           0        2.477968   -0.517891    0.776229
      9          8           0       -0.381949    1.670487   -0.760900
     10          1           0       -1.330323   -2.120801    0.731719
     11          1           0       -2.161164   -1.098821   -1.351967
 ---------------------------------------------------------------------

 SCF Done:  E(UHF) =  -951.907650344     A.U. after    2 cycles

 The electronic state is 2-A.
 Alpha  occ. eigenvalues --  -93.81109 -69.13914 -20.63249 -20.57517 -20.57058
 Alpha  occ. eigenvalues --  -11.31597  -9.07440  -6.89158  -6.42074  -6.41957
 Alpha  occ. eigenvalues --   -6.41676  -4.00438  -3.99607  -3.99497  -1.45860
 Alpha  occ. eigenvalues --   -1.34756  -1.32284  -0.98898  -0.87525  -0.77649
 Alpha  occ. eigenvalues --   -0.72805  -0.69357  -0.68814  -0.64475  -0.63805
 Alpha  occ. eigenvalues --   -0.57561  -0.55220  -0.53862  -0.52297  -0.51569
 Alpha  occ. eigenvalues --   -0.50487  -0.45827  -0.38458
 Alpha virt. eigenvalues --    0.02601   0.03758   0.05341   0.05523   0.05955
 Alpha virt. eigenvalues --    0.06764   0.07114   0.08630   0.09838   0.11066
 Alpha virt. eigenvalues --    0.12368   0.13661   0.13862   0.14853   0.15303

  Beta  occ. eigenvalues --  -93.81092 -69.13299 -20.63074 -20.57545 -20.57077
  Beta  occ. eigenvalues --  -11.31603  -9.07414  -6.88213  -6.42057  -6.41958
  Beta  occ. eigenvalues --   -6.41626  -3.99174  -3.99073  -3.98180  -1.45748
  Beta  occ. eigenvalues --   -1.34435  -1.32360  -0.98715  -0.86648  -0.76295
  Beta  occ. eigenvalues --   -0.72428  -0.69290  -0.66729  -0.63928  -0.63593
  Beta  occ. eigenvalues --   -0.57460  -0.54748  -0.53430  -0.52013  -0.51288
  Beta  occ. eigenvalues --   -0.50294  -0.44935
  Beta virt. eigenvalues --   -0.00580   0.02795   0.04041   0.05427   0.06068
  Beta virt. eigenvalues --    0.06433   0.06909   0.07791   0.08920   0.10375
  Beta virt. eigenvalues --    0.12312   0.13356   0.14008   0.14279   0.15477

 Mulliken charges and spin densities:
               1          2
     1  Si   0.362082   0.957573
     2  S    2.266698  -0.013348
     3  O   -1.035916   0.000624
     4  O   -0.990515   0.006825
     5  C    0.710009  -0.009025
     6  H   -0.188902  -0.000823
     7  H   -0.111233  -0.001622
     8  H   -0.055439   0.000183
     9  O   -0.974075   0.003757
    10  H   -0.008547   0.026111
    11  H    0.025836   0.029745
 Sum of Mulliken charges =  -0.00000   1.00000

 Dipole moment (field-independent basis, Debye):
    X=             -0.9477    Y=             -5.1670    Z=              0.0956  Tot=              5.2540
                          Isotropic Fermi Contact Couplings
        Atom                 a.u.       MegaHertz       Gauss      10(-4) cm-1
     1  Si(29)             0.65563    -582.67925    -207.91445    -194.36088
     2  S(33)              0.04215      14.47574       5.16531       4.82859
     3  O(17)             -0.00358       2.17082       0.77460       0.72411
     4  O(17)              0.02995     -18.15436      -6.47793      -6.05564
     5  C(13)             -0.00108      -1.20929      -0.43151      -0.40338
     6  H(1)               0.00019       0.86960       0.31030       0.29007
     7  H(1)              -0.00009      -0.38132      -0.13607      -0.12720
     8  H(1)              -0.00004      -0.19984      -0.07131      -0.06666

 1\1\GINC-SE102\SP\UHF\Aug-CC-pVDZ\C1H5O3S1Si1(2)\OHZDE\08-Apr-2025\0\\
 #t hf aug-cc-pvdz iop(5/13=1,5/36=2,99/5=2) pseudo=read geom=check gue
 ss=(read,tcheck) scf=(maxcycle=1)\\title\\0,2\Si,0,-1.762835,-0.873987
 ,0.055987\S,0,-0.038926,0.543548,0.066993\O,0,0.441541,0.712794,1.4211
 23\O,0,1.109765,-0.263611,-0.78833\C,0,2.077816,-1.067026,-0.074365\H,
 0,2.863156,-1.271693,-0.799851\H,0,1.631109,-2.006942,0.259218\H,0,2.4
 77968,-0.517891,0.776229\O,0,-0.381949,1.670487,-0.7609\H,0,-1.330324,
 -2.120801,0.731719\H,0,-2.161164,-1.098821,-1.351967\\Version=ES64L-G1

 Normal termination of Gaussian 16 at Tue Apr  8 23:57:47 2025.
