 Gaussian 16, Revision C.01,

 ----------------------------------------------------------------------
 #t hf aug-cc-pvdz symm=none int=(grid=ultrafine) guess=(read,tcheck) s
 table=(opt,rrhf)
 ----------------------------------------------------------------------
 -----
 title
 -----
 Symbolic Z-matrix:
 Charge =  0 Multiplicity = 1

 SCF Done:  E(RHF) =  -866.165367489     A.U. after   12 cycles
 Normal termination of Gaussian 16 at Tue Apr  8 23:44:18 2025.
 Gaussian 16:  ES64L-G16RevC.01  3-Jul-2019

 ----------------------------------------------------------------------
 #t hf aug-cc-pvdz iop(5/13=1,5/36=2,99/5=2) pseudo=read geom=check gue
 ss=(read,tcheck) scf=(maxcycle=1)
 ----------------------------------------------------------------------
 -----
 title
 -----
 Structure from the checkpoint file:  "BDE49_nonexpt_1752_mol1.chk"
 Charge =  0 Multiplicity = 1

                         Standard orientation:
 ---------------------------------------------------------------------
 Center     Atomic      Atomic             Coordinates (Angstroms)
 Number     Number       Type             X           Y           Z
 ---------------------------------------------------------------------
      1         14           0       -0.388268   -0.695189    0.534183
      2          6           0        1.257979   -0.015737   -0.018051
      3          6           0        2.114747   -0.849772   -0.618628
      4         17           0       -1.955311    0.348739   -0.381554
      5          6           0        1.592828    1.433063    0.247856
      6          1           0        1.870201   -1.888095   -0.818886
      7          1           0        3.102268   -0.521619   -0.937235
      8          1           0        0.880167    2.097175   -0.251303
      9          1           0        2.596965    1.681404   -0.105609
     10          1           0        1.540928    1.662818    1.317634
     11          1           0       -0.594717   -0.519046    1.986612
     12          1           0       -0.513085   -2.113874    0.149589
 ---------------------------------------------------------------------

 SCF Done:  E(RHF) =  -866.245004432     A.U. after    2 cycles

 The electronic state is 1-A.
 Alpha  occ. eigenvalues -- -103.64527 -69.11106 -11.25753 -11.25108 -11.24422
 Alpha  occ. eigenvalues --  -10.67958  -8.33649  -8.33430  -8.33425  -6.85984
 Alpha  occ. eigenvalues --   -3.96828  -3.96705  -3.96677  -1.12858  -1.07061
 Alpha  occ. eigenvalues --   -0.94423  -0.77720  -0.69610  -0.62639  -0.60404
 Alpha  occ. eigenvalues --   -0.58300  -0.53347  -0.52552  -0.52147  -0.49002
 Alpha  occ. eigenvalues --   -0.45244  -0.43957  -0.38220
 Alpha virt. eigenvalues --    0.03270   0.04454   0.04698   0.05568   0.06423
 Alpha virt. eigenvalues --    0.06655   0.07366   0.08113   0.09134   0.09454
 Alpha virt. eigenvalues --    0.10336   0.12007   0.14257   0.14438   0.15053

 Mulliken charges:
               1
     1  Si   0.754756
     2  C   -0.255703
     3  C    0.782156
     4  Cl  -0.570233
     5  C    0.173505
     6  H   -0.386098
     7  H   -0.299862
     8  H    0.001386
     9  H   -0.163770
    10  H   -0.020722
    11  H    0.031408
    12  H   -0.046822
 Sum of Mulliken charges =  -0.00000

 Dipole moment (field-independent basis, Debye):
    X=              2.2343    Y=             -0.4372    Z=              0.5104  Tot=              2.3332

 Test job not archived.
 1\1\GINC-SE044\SP\RHF\Aug-CC-pVDZ\C3H7Cl1Si1\OHZDE\08-Apr-2025\0\\#t h
 f aug-cc-pvdz iop(5/13=1,5/36=2,99/5=2) pseudo=read geom=check guess=(
 read,tcheck) scf=(maxcycle=1)\\title\\0,1\Si,0,-0.388268,-0.695189,0.5
 34183\C,0,1.257979,-0.015737,-0.018051\C,0,2.114747,-0.849772,-0.61862
 8\Cl,0,-1.955311,0.348739,-0.381554\C,0,1.592828,1.433063,0.247856\H,0
 ,1.870201,-1.888095,-0.818886\H,0,3.102268,-0.521619,-0.937235\H,0,0.8
 80167,2.097175,-0.251303\H,0,2.596965,1.681404,-0.105609\H,0,1.540928,
 1.662818,1.317634\H,0,-0.594717,-0.519046,1.986612\H,0,-0.513085,-2.11

 Normal termination of Gaussian 16 at Tue Apr  8 23:44:22 2025.
