 Gaussian 16, Revision C.01,

 ----------------------------------------------------------------------
 #t hf aug-cc-pvdz symm=none int=(grid=ultrafine) guess=(read,tcheck) s
 table=(opt,rrhf)
 ----------------------------------------------------------------------
 -----
 title
 -----
 Symbolic Z-matrix:
 Charge =  0 Multiplicity = 1

 SCF Done:  E(RHF) =  -588.331421876     A.U. after   15 cycles
 Normal termination of Gaussian 16 at Tue Apr  8 23:37:25 2025.
 Gaussian 16:  ES64L-G16RevC.01  3-Jul-2019

 ----------------------------------------------------------------------
 #t hf aug-cc-pvdz iop(5/13=1,5/36=2,99/5=2) pseudo=read geom=check gue
 ss=(read,tcheck) scf=(maxcycle=1)
 ----------------------------------------------------------------------
 -----
 title
 -----
 Structure from the checkpoint file:  "BDE49_nonexpt_1576_mol1.chk"
 Charge =  0 Multiplicity = 1

                         Standard orientation:
 ---------------------------------------------------------------------
 Center     Atomic      Atomic             Coordinates (Angstroms)
 Number     Number       Type             X           Y           Z
 ---------------------------------------------------------------------
      1          7           0       -1.703410   -0.310200   -0.236387
      2          6           0       -2.061114    0.847482    0.586386
      3          1           0       -1.515178    1.753761    0.308180
      4          1           0       -1.849112    0.620728    1.634774
      5          1           0       -3.134346    1.034120    0.499444
      6          6           0        1.084769    0.279627   -0.145902
      7          6           0        2.423535   -0.052086    0.490730
      8          1           0        2.351044    0.101183    1.572574
      9          1           0        3.191565    0.613057    0.093418
     10          1           0        2.704243   -1.095685    0.323099
     11          8           0        0.858098    1.352406   -0.660313
     12         15           0       -0.208047   -1.093592   -0.207299
     13          1           0       -0.113965   -1.404470    1.175452
     14          1           0       -2.137598   -0.316802   -1.147527
 ---------------------------------------------------------------------

 SCF Done:  E(RHF) =  -588.437092204     A.U. after    2 cycles

 The electronic state is 1-A.
 Alpha  occ. eigenvalues --  -81.28521 -20.56984 -15.62481 -11.34422 -11.26490
 Alpha  occ. eigenvalues --  -11.25092  -7.78592  -4.92746  -4.92502  -4.92268
 Alpha  occ. eigenvalues --   -1.35712  -1.15611  -1.01028  -0.91647  -0.82782
 Alpha  occ. eigenvalues --   -0.73194  -0.66467  -0.64133  -0.62168  -0.61153
 Alpha  occ. eigenvalues --   -0.60001  -0.57064  -0.55102  -0.52357  -0.51451
 Alpha  occ. eigenvalues --   -0.44087  -0.38085  -0.34722
 Alpha virt. eigenvalues --    0.03286   0.04063   0.04865   0.05471   0.06233
 Alpha virt. eigenvalues --    0.07052   0.07447   0.08456   0.09345   0.10357
 Alpha virt. eigenvalues --    0.11640   0.12293   0.12561   0.13918   0.14452

 Mulliken charges:
               1
     1  N   -0.640563
     2  C    0.750425
     3  H   -0.060733
     4  H   -0.176849
     5  H   -0.202872
     6  C   -0.057082
     7  C    0.242938
     8  H    0.037417
     9  H   -0.039586
    10  H   -0.015030
    11  O   -0.544273
    12  P    0.688379
    13  H    0.074125
    14  H   -0.056297
 Sum of Mulliken charges =  -0.00000

 Dipole moment (field-independent basis, Debye):
    X=             -0.0880    Y=             -1.2410    Z=              1.5326  Tot=              1.9740

 Test job not archived.
 1\1\GINC-SE367\SP\RHF\Aug-CC-pVDZ\C3H8N1O1P1\OHZDE\08-Apr-2025\0\\#t h
 f aug-cc-pvdz iop(5/13=1,5/36=2,99/5=2) pseudo=read geom=check guess=(
 read,tcheck) scf=(maxcycle=1)\\title\\0,1\N,0,-1.70341,-0.3102,-0.2363
 87\C,0,-2.061114,0.847482,0.586386\H,0,-1.515178,1.753761,0.30818\H,0,
 -1.849112,0.620728,1.634774\H,0,-3.134346,1.03412,0.499444\C,0,1.08476
 9,0.279627,-0.145902\C,0,2.423535,-0.052085,0.49073\H,0,2.351044,0.101
 184,1.572574\H,0,3.191565,0.613058,0.093418\H,0,2.704243,-1.095684,0.3
 23099\O,0,0.858098,1.352406,-0.660313\P,0,-0.208047,-1.093592,-0.20729

 Normal termination of Gaussian 16 at Tue Apr  8 23:37:29 2025.
