 Gaussian 16, Revision C.01,

 ----------------------------------------------------------------------
 #t hf aug-cc-pvdz symm=none int=(grid=ultrafine) guess=(read,tcheck) s
 table=(opt,rrhf)
 ----------------------------------------------------------------------
 -----
 title
 -----
 Symbolic Z-matrix:
 Charge =  0 Multiplicity = 1

 SCF Done:  E(RHF) =  -383.992538658     A.U. after   13 cycles

 1\1\GINC-SE363\Stability\RHF\Aug-CC-pVDZ\C6H12O2\OHZDE\08-Apr-2025\0\\
 #t hf aug-cc-pvdz symm=none int=(grid=ultrafine) guess=(read,tcheck) s
 table=(opt,rrhf)\\title\\0,1\O,0,-0.86245,-0.082083,-0.789166\C,0,-1.8
 13314,0.050089,0.164864\C,0,0.080227,-1.173618,-0.629725\O,0,-1.917517
 ,-0.678734,1.118871\C,0,-2.707439,1.227971,-0.135502\C,0,1.286767,-0.7
 63592,0.20576\H,0,-3.084108,1.165765,-1.158032\H,0,-2.133463,2.1544,-0
 .053637\H,0,-3.532786,1.24551,0.573066\C,0,2.104169,0.385053,-0.395808
 \H,0,1.923252,-1.65041,0.319151\H,0,0.943749,-0.500972,1.211922\C,0,3.

 Normal termination of Gaussian 16 at Tue Apr  8 22:42:27 2025.
 Gaussian 16:  ES64L-G16RevC.01  3-Jul-2019

 ----------------------------------------------------------------------
 #t hf aug-cc-pvdz iop(5/13=1,5/36=2,99/5=2) pseudo=read geom=check gue
 ss=(read,tcheck) scf=(maxcycle=1)
 ----------------------------------------------------------------------
 -----
 title
 -----
 Structure from the checkpoint file:  "BDE49_expt_1453_mol1.chk"
 Charge =  0 Multiplicity = 1

                         Standard orientation:
 ---------------------------------------------------------------------
 Center     Atomic      Atomic             Coordinates (Angstroms)
 Number     Number       Type             X           Y           Z
 ---------------------------------------------------------------------
      1          8           0       -0.862450   -0.082083   -0.789166
      2          6           0       -1.813314    0.050089    0.164864
      3          6           0        0.080227   -1.173618   -0.629725
      4          8           0       -1.917517   -0.678734    1.118871
      5          6           0       -2.707439    1.227971   -0.135502
      6          6           0        1.286767   -0.763592    0.205760
      7          1           0       -3.084108    1.165765   -1.158032
      8          1           0       -2.133463    2.154400   -0.053637
      9          1           0       -3.532786    1.245510    0.573066
     10          6           0        2.104169    0.385053   -0.395808
     11          1           0        1.923252   -1.650410    0.319151
     12          1           0        0.943749   -0.500972    1.211922
     13          6           0        3.294674    0.790204    0.477340
     14          1           0        1.449458    1.248177   -0.551170
     15          1           0        2.461801    0.090421   -1.390127
     16          1           0        2.964366    1.120225    1.467100
     17          1           0        3.858934    1.610163    0.025202
     18          1           0        3.984491   -0.047185    0.622472
     19          1           0        0.372354   -1.428345   -1.650105
     20          1           0       -0.438822   -2.017846   -0.175064
 ---------------------------------------------------------------------

 SCF Done:  E(RHF) =  -384.116441765     A.U. after    2 cycles

 The electronic state is 1-A.
 Alpha  occ. eigenvalues --  -20.61047 -20.55787 -11.39319 -11.29537 -11.25055
 Alpha  occ. eigenvalues --  -11.23375 -11.23124 -11.22525  -1.41306  -1.32106
 Alpha  occ. eigenvalues --   -1.07283  -1.02256  -0.97341  -0.88266  -0.81713
 Alpha  occ. eigenvalues --   -0.75948  -0.70435  -0.69408  -0.66826  -0.63279
 Alpha  occ. eigenvalues --   -0.60099  -0.59657  -0.57702  -0.56769  -0.54538
 Alpha  occ. eigenvalues --   -0.52946  -0.52296  -0.50022  -0.47574  -0.47073
 Alpha  occ. eigenvalues --   -0.46436  -0.45596
 Alpha virt. eigenvalues --    0.03361   0.04188   0.04268   0.04835   0.05927
 Alpha virt. eigenvalues --    0.06221   0.06557   0.06719   0.07648   0.08646
 Alpha virt. eigenvalues --    0.09155   0.09669   0.11017   0.12634   0.13147

 Mulliken charges:
               1
     1  O   -0.603327
     2  C    0.309338
     3  C    0.879997
     4  O   -0.466234
     5  C    0.281763
     6  C    0.061246
     7  H    0.017527
     8  H    0.024646
     9  H   -0.021315
    10  C    0.127851
    11  H   -0.108941
    12  H   -0.159856
    13  C    0.426057
    14  H   -0.129383
    15  H   -0.126063
    16  H   -0.075837
    17  H   -0.067754
    18  H   -0.073797
    19  H   -0.272794
    20  H   -0.023124
 Sum of Mulliken charges =  -0.00000

 Dipole moment (field-independent basis, Debye):
    X=              0.7802    Y=              1.0462    Z=             -1.7011  Tot=              2.1440

 Test job not archived.
 1\1\GINC-SE363\SP\RHF\Aug-CC-pVDZ\C6H12O2\OHZDE\08-Apr-2025\0\\#t hf a
 ug-cc-pvdz iop(5/13=1,5/36=2,99/5=2) pseudo=read geom=check guess=(rea
 d,tcheck) scf=(maxcycle=1)\\title\\0,1\O,0,-0.86245,-0.082083,-0.78916
 6\C,0,-1.813314,0.050089,0.164864\C,0,0.080227,-1.173618,-0.629725\O,0
 ,-1.917517,-0.678734,1.118871\C,0,-2.707439,1.227971,-0.135502\C,0,1.2
 86767,-0.763592,0.20576\H,0,-3.084108,1.165765,-1.158032\H,0,-2.133463
 ,2.1544,-0.053637\H,0,-3.532786,1.24551,0.573066\C,0,2.104169,0.385053
 ,-0.395808\H,0,1.923252,-1.65041,0.319151\H,0,0.943749,-0.500972,1.211

 Normal termination of Gaussian 16 at Tue Apr  8 22:42:36 2025.
