 Gaussian 16, Revision C.01,

 ----------------------------------------------------------------------
 #t hf aug-cc-pvdz symm=none int=(grid=ultrafine) guess=(read,tcheck) s
 table=(opt,rrhf)
 ----------------------------------------------------------------------
 -----
 title
 -----
 Symbolic Z-matrix:
 Charge =  0 Multiplicity = 1

 SCF Done:  E(RHF) =  -1287.84380194     A.U. after   16 cycles
 Normal termination of Gaussian 16 at Wed Apr  9 00:13:04 2025.
 Gaussian 16:  ES64L-G16RevC.01  3-Jul-2019

 ----------------------------------------------------------------------
 #t hf aug-cc-pvdz iop(5/13=1,5/36=2,99/5=2) pseudo=read geom=check gue
 ss=(read,tcheck) scf=(maxcycle=1)
 ----------------------------------------------------------------------
 -----
 title
 -----
 Structure from the checkpoint file:  "BDE49_nonexpt_241_mol1.chk"
 Charge =  0 Multiplicity = 1

                         Standard orientation:
 ---------------------------------------------------------------------
 Center     Atomic      Atomic             Coordinates (Angstroms)
 Number     Number       Type             X           Y           Z
 ---------------------------------------------------------------------
      1         17           0       -1.895351   -1.988658   -0.000014
      2         17           0       -3.192801    0.726184   -0.000012
      3          5           0       -1.697551   -0.224617    0.000027
      4          6           0       -0.305265    0.438355    0.000017
      5          6           0        0.863961   -0.353313    0.000012
      6          6           0        2.124105    0.239579    0.000003
      7          6           0        2.231528    1.637812   -0.000000
      8          6           0       -0.173171    1.836944    0.000013
      9          1           0       -1.056907    2.461746    0.000017
     10          6           0        1.089526    2.424954    0.000005
     11          1           0        1.185203    3.504703    0.000002
     12          1           0        3.222375    2.076205   -0.000007
     13          1           0        0.766291   -1.429517    0.000015
     14          8           0        3.303456   -0.439742   -0.000002
     15          6           0        3.268465   -1.861983   -0.000000
     16          1           0        2.769135   -2.250664   -0.894094
     17          1           0        2.769146   -2.250662    0.894101
     18          1           0        4.308540   -2.182815   -0.000006
 ---------------------------------------------------------------------

 SCF Done:  E(RHF) =  -1287.98873803     A.U. after    2 cycles

 The electronic state is 1-A.
 Alpha  occ. eigenvalues -- -103.66598-103.66487 -20.60863 -11.32248 -11.30456
 Alpha  occ. eigenvalues --  -11.26182 -11.26067 -11.26011 -11.25901 -11.25004
 Alpha  occ. eigenvalues --  -10.70075 -10.69960  -8.35765  -8.35656  -8.35548
 Alpha  occ. eigenvalues --   -8.35528  -8.35437  -8.35413  -7.72826  -1.37905
 Alpha  occ. eigenvalues --   -1.18102  -1.15029  -1.14058  -1.03362  -1.02581
 Alpha  occ. eigenvalues --   -0.95277  -0.85632  -0.82593  -0.74861  -0.69302
 Alpha  occ. eigenvalues --   -0.68718  -0.67598  -0.67465  -0.63038  -0.60345
 Alpha  occ. eigenvalues --   -0.60060  -0.56774  -0.54669  -0.54403  -0.52861
 Alpha  occ. eigenvalues --   -0.52566  -0.50887  -0.48501  -0.47745  -0.47336
 Alpha  occ. eigenvalues --   -0.46249  -0.36173  -0.33208
 Alpha virt. eigenvalues --    0.03106   0.03762   0.03954   0.04514   0.05241
 Alpha virt. eigenvalues --    0.05581   0.05646   0.06715   0.06885   0.08243
 Alpha virt. eigenvalues --    0.08557   0.10308   0.10902   0.11352   0.12466

 Mulliken charges:
               1
     1  Cl  -0.337011
     2  Cl  -0.359633
     3  B    0.489198
     4  C    0.315400
     5  C    0.449465
     6  C    0.292917
     7  C    0.913847
     8  C    0.387738
     9  H   -0.655433
    10  C    0.646398
    11  H   -0.444486
    12  H   -0.567028
    13  H   -0.809296
    14  O   -0.688311
    15  C    0.869234
    16  H   -0.088216
    17  H   -0.088217
    18  H   -0.326566
 Sum of Mulliken charges =  -0.00000

 Dipole moment (field-independent basis, Debye):
    X=              2.1811    Y=             -0.0432    Z=              0.0001  Tot=              2.1815

 Test job not archived.
 1\1\GINC-SE398\SP\RHF\Aug-CC-pVDZ\C7H7B1Cl2O1\OHZDE\09-Apr-2025\0\\#t
 hf aug-cc-pvdz iop(5/13=1,5/36=2,99/5=2) pseudo=read geom=check guess=
 (read,tcheck) scf=(maxcycle=1)\\title\\0,1\Cl,0,1.895351,-1.988658,0.0
 00014\Cl,0,3.192801,0.726184,0.000012\B,0,1.697551,-0.224617,-0.000027
 \C,0,0.305265,0.438355,-0.000017\C,0,-0.863961,-0.353313,-0.000012\C,0
 ,-2.124105,0.239579,-0.000003\C,0,-2.231528,1.637812,0.\C,0,0.173171,1
 .836944,-0.000013\H,0,1.056907,2.461746,-0.000017\C,0,-1.089526,2.4249
 54,-0.000005\H,0,-1.185203,3.504703,-0.000002\H,0,-3.222375,2.076205,0

 Normal termination of Gaussian 16 at Wed Apr  9 00:13:14 2025.
