 Gaussian 16, Revision C.01,

 ----------------------------------------------------------------------
 #t hf aug-cc-pvdz symm=none int=(grid=ultrafine) guess=(read,tcheck) s
 table=opt
 ----------------------------------------------------------------------
 -----
 title
 -----
 Symbolic Z-matrix:
 Charge =  0 Multiplicity = 2

 SCF Done:  E(UHF) =  -680.646574080     A.U. after   21 cycles
 Normal termination of Gaussian 16 at Tue Apr  8 23:23:15 2025.
 Gaussian 16:  ES64L-G16RevC.01  3-Jul-2019

 ----------------------------------------------------------------------
 #t hf aug-cc-pvdz iop(5/13=1,5/36=2,99/5=2) pseudo=read geom=check gue
 ss=(read,tcheck) scf=(maxcycle=1)
 ----------------------------------------------------------------------
 -----
 title
 -----
 Structure from the checkpoint file:  "BDE49_nonexpt_1238_mol2.chk"
 Charge =  0 Multiplicity = 2

                         Standard orientation:
 ---------------------------------------------------------------------
 Center     Atomic      Atomic             Coordinates (Angstroms)
 Number     Number       Type             X           Y           Z
 ---------------------------------------------------------------------
      1          8           0       -2.800482   -0.825813   -0.178736
      2         15           0        2.101222   -1.080740   -0.240656
      3          7           0       -0.610198   -1.009654    0.524230
      4          7           0        0.244117    0.963763   -0.233793
      5          6           0        0.604831   -0.222912    0.552587
      6          6           0       -1.692840   -0.369119   -0.014669
      7          6           0       -1.211244    1.045104   -0.324198
      8          6           0        0.921488    2.188651    0.151740
      9          1           0       -0.655741   -1.977421    0.803230
     10          1           0       -1.551184    1.359945   -1.313323
     11          1           0       -1.653106    1.726915    0.423357
     12          1           0        0.705223    2.970826   -0.578888
     13          1           0        0.615103    2.550927    1.149343
     14          1           0        2.002248    2.032160    0.156115
     15          1           0        1.374858   -1.412750   -1.416153
     16          1           0        0.877284    0.037895    1.590241
 ---------------------------------------------------------------------

 SCF Done:  E(UHF) =  -680.766623546     A.U. after    2 cycles

 The electronic state is 2-A.
 Alpha  occ. eigenvalues --  -81.27401 -20.54443 -15.66301 -15.64328 -11.37281
 Alpha  occ. eigenvalues --  -11.33580 -11.28723 -11.27901  -7.77861  -4.92641
 Alpha  occ. eigenvalues --   -4.91516  -4.91231  -1.35913  -1.27279  -1.16666
 Alpha  occ. eigenvalues --   -1.01368  -0.96225  -0.84472  -0.81567  -0.78257
 Alpha  occ. eigenvalues --   -0.71287  -0.67958  -0.64030  -0.63823  -0.61302
 Alpha  occ. eigenvalues --   -0.59627  -0.58130  -0.55823  -0.53939  -0.51127
 Alpha  occ. eigenvalues --   -0.44623  -0.43360  -0.40949  -0.36044  -0.35145
 Alpha virt. eigenvalues --    0.02898   0.03714   0.04065   0.04719   0.06545
 Alpha virt. eigenvalues --    0.06628   0.07567   0.07758   0.08910   0.09805
 Alpha virt. eigenvalues --    0.10724   0.12097   0.12505   0.12934   0.13767

  Beta  occ. eigenvalues --  -81.26702 -20.54435 -15.66233 -15.64192 -11.37279
  Beta  occ. eigenvalues --  -11.33748 -11.28715 -11.27896  -7.77025  -4.91014
  Beta  occ. eigenvalues --   -4.90854  -4.89463  -1.35882  -1.27132  -1.16479
  Beta  occ. eigenvalues --   -1.01176  -0.95982  -0.83695  -0.81440  -0.74132
  Beta  occ. eigenvalues --   -0.71178  -0.66981  -0.63818  -0.63591  -0.61249
  Beta  occ. eigenvalues --   -0.59402  -0.57971  -0.55628  -0.53813  -0.50828
  Beta  occ. eigenvalues --   -0.44112  -0.41966  -0.39826  -0.34682
  Beta virt. eigenvalues --    0.02219   0.02936   0.04063   0.04341   0.05247
  Beta virt. eigenvalues --    0.06637   0.06728   0.07636   0.07919   0.09046
  Beta virt. eigenvalues --    0.10213   0.10954   0.12284   0.12913   0.13452

 Mulliken charges and spin densities:
               1          2
     1  O   -0.500033   0.002038
     2  P    0.214727   1.297720
     3  N   -0.495695   0.011158
     4  N   -0.823053  -0.051629
     5  C    1.006887  -0.081591
     6  C    0.297391  -0.008074
     7  C    0.619450  -0.011775
     8  C    0.673178   0.021253
     9  H   -0.131932  -0.008806
    10  H   -0.142618   0.000493
    11  H   -0.029058  -0.000142
    12  H   -0.187703   0.000444
    13  H   -0.062790   0.001387
    14  H   -0.205143   0.001826
    15  H    0.054508  -0.172137
    16  H   -0.288116  -0.002163
 Sum of Mulliken charges =  -0.00000   1.00000

 Dipole moment (field-independent basis, Debye):
    X=              3.0827    Y=              1.8510    Z=              1.2502  Tot=              3.8069
                          Isotropic Fermi Contact Couplings
        Atom                 a.u.       MegaHertz       Gauss      10(-4) cm-1
     1  O(17)              0.00083      -0.50143      -0.17892      -0.16726
     2  P(31)              0.22273     403.38512     143.93784     134.55479
     3  N(14)              0.01947       6.29048       2.24460       2.09828
     4  N(14)              0.04752      15.35376       5.47860       5.12146
     5  C(13)             -0.03110     -34.96159     -12.47516     -11.66193
     6  C(13)             -0.00053      -0.60034      -0.21422      -0.20025
     7  C(13)              0.00157       1.76214       0.62877       0.58779
     8  C(13)             -0.00039      -0.44310      -0.15811      -0.14780

 Normal termination of Gaussian 16 at Tue Apr  8 23:23:23 2025.
