 Gaussian 16, Revision C.01,

 ----------------------------------------------------------------------
 #t hf aug-cc-pvdz symm=none int=(grid=ultrafine) guess=(read,tcheck) s
 table=(opt,rrhf)
 ----------------------------------------------------------------------
 -----
 title
 -----
 Symbolic Z-matrix:
 Charge =  0 Multiplicity = 1

 SCF Done:  E(RHF) =  -1412.53044654     A.U. after   15 cycles
 Normal termination of Gaussian 16 at Tue Apr  8 23:37:36 2025.
 Gaussian 16:  ES64L-G16RevC.01  3-Jul-2019

 ----------------------------------------------------------------------
 #t hf aug-cc-pvdz iop(5/13=1,5/36=2,99/5=2) pseudo=read geom=check gue
 ss=(read,tcheck) scf=(maxcycle=1)
 ----------------------------------------------------------------------
 -----
 title
 -----
 Structure from the checkpoint file:  "BDE49_nonexpt_1588_mol1.chk"
 Charge =  0 Multiplicity = 1

                         Standard orientation:
 ---------------------------------------------------------------------
 Center     Atomic      Atomic             Coordinates (Angstroms)
 Number     Number       Type             X           Y           Z
 ---------------------------------------------------------------------
      1          8           0       -0.607339    0.629884   -0.706674
      2         15           0       -1.942319   -0.011175    0.022118
      3          8           0       -2.967956    1.018249   -0.078824
      4          8           0       -2.212181   -1.410163   -0.661933
      5          8           0        0.524406   -0.323362   -0.670716
      6          6           0        1.554905    0.320750   -0.035170
      7         17           0        2.881870   -0.854739   -0.014998
      8          9           0        1.227088    0.670356    1.229744
      9          9           0        1.924924    1.437095   -0.662704
     10          1           0       -2.823694   -1.340421   -1.405060
     11          8           0       -1.451029   -0.538389    1.427169
     12          1           0       -1.018049    0.137301    1.963747
 ---------------------------------------------------------------------

 SCF Done:  E(RHF) =  -1412.83126297     A.U. after    2 cycles

 The electronic state is 1-A.
 Alpha  occ. eigenvalues -- -103.71463 -81.48025 -26.20169 -26.19718 -20.73064
 Alpha  occ. eigenvalues --  -20.70900 -20.64909 -20.64875 -20.55649 -11.58468
 Alpha  occ. eigenvalues --  -10.74814  -8.40542  -8.40190  -8.40183  -7.95968
 Alpha  occ. eigenvalues --   -5.10668  -5.10541  -5.10519  -1.77802  -1.72397
 Alpha  occ. eigenvalues --   -1.50755  -1.42013  -1.38437  -1.32019  -1.28612
 Alpha  occ. eigenvalues --   -1.20763  -1.00870  -0.90559  -0.89491  -0.87857
 Alpha  occ. eigenvalues --   -0.86013  -0.80648  -0.78793  -0.77535  -0.75817
 Alpha  occ. eigenvalues --   -0.75166  -0.71882  -0.70293  -0.67739  -0.64495
 Alpha  occ. eigenvalues --   -0.63174  -0.62052  -0.59793  -0.59132  -0.57589
 Alpha  occ. eigenvalues --   -0.52984  -0.52355  -0.51892  -0.51502
 Alpha virt. eigenvalues --    0.03176   0.04430   0.06255   0.08016   0.08956
 Alpha virt. eigenvalues --    0.09761   0.09881   0.10644   0.11336   0.12454
 Alpha virt. eigenvalues --    0.13430   0.14466   0.14901   0.16680   0.17803

 Mulliken charges:
               1
     1  O   -0.664671
     2  P    2.384922
     3  O   -0.764554
     4  O   -0.634452
     5  O   -0.363320
     6  C    0.976060
     7  Cl  -0.118584
     8  F   -0.275758
     9  F   -0.245282
    10  H    0.168137
    11  O   -0.631019
    12  H    0.168521
 Sum of Mulliken charges =  -0.00000

 Dipole moment (field-independent basis, Debye):
    X=              1.2609    Y=             -2.0227    Z=              0.0863  Tot=              2.3851

 Test job not archived.
 1\1\GINC-SE072\SP\RHF\Aug-CC-pVDZ\C1H2Cl1F2O5P1\OHZDE\08-Apr-2025\0\\#
 t hf aug-cc-pvdz iop(5/13=1,5/36=2,99/5=2) pseudo=read geom=check gues
 s=(read,tcheck) scf=(maxcycle=1)\\title\\0,1\O,0,-0.607339,0.629884,-0
 .706674\P,0,-1.942319,-0.011175,0.022118\O,0,-2.967956,1.018249,-0.078
 824\O,0,-2.212181,-1.410163,-0.661933\O,0,0.524406,-0.323362,-0.670716
 \C,0,1.554905,0.32075,-0.03517\Cl,0,2.88187,-0.854739,-0.014998\F,0,1.
 227088,0.670356,1.229744\F,0,1.924924,1.437095,-0.662704\H,0,-2.823694
 ,-1.340421,-1.40506\O,0,-1.451029,-0.538389,1.427169\H,0,-1.018049,0.1

 Normal termination of Gaussian 16 at Tue Apr  8 23:37:44 2025.
