 Gaussian 16, Revision C.01,

 ----------------------------------------------------------------------
 #t hf aug-cc-pvdz symm=none int=(grid=ultrafine) guess=(read,tcheck) s
 table=(opt,rrhf)
 ----------------------------------------------------------------------
 -----
 title
 -----
 Symbolic Z-matrix:
 Charge =  0 Multiplicity = 1

 SCF Done:  E(RHF) =  -508.950321531     A.U. after   15 cycles
 Normal termination of Gaussian 16 at Wed Apr  9 00:37:39 2025.
 Gaussian 16:  ES64L-G16RevC.01  3-Jul-2019

 ----------------------------------------------------------------------
 #t hf aug-cc-pvdz iop(5/13=1,5/36=2,99/5=2) pseudo=read geom=check gue
 ss=(read,tcheck) scf=(maxcycle=1)
 ----------------------------------------------------------------------
 -----
 title
 -----
 Structure from the checkpoint file:  "BDE49_nonexpt_589_mol1.chk"
 Charge =  0 Multiplicity = 1

                         Standard orientation:
 ---------------------------------------------------------------------
 Center     Atomic      Atomic             Coordinates (Angstroms)
 Number     Number       Type             X           Y           Z
 ---------------------------------------------------------------------
      1          6           0       -0.307712   -0.341863    0.000002
      2          5           0        2.238875   -0.001052    0.000010
      3          9           0        2.281407    1.331447   -0.000003
      4          9           0        3.405682   -0.651193   -0.000017
      5          6           0       -1.298272   -1.331768    0.000010
      6          6           0       -0.694121    1.004359   -0.000006
      7          6           0       -2.645267   -0.987303    0.000011
      8          6           0       -3.029233    0.351217    0.000004
      9          6           0       -2.045261    1.337204   -0.000004
     10          1           0       -2.327580    2.384092   -0.000010
     11          1           0        0.054543    1.783499   -0.000012
     12          1           0       -3.394755   -1.770659    0.000018
     13          1           0       -4.078325    0.621738    0.000005
     14          1           0       -1.008155   -2.378179    0.000016
     15          7           0        1.046530   -0.743185    0.000001
     16          1           0        1.169575   -1.746306   -0.000004
 ---------------------------------------------------------------------

 SCF Done:  E(RHF) =  -509.125898023     A.U. after    2 cycles

 The electronic state is 1-A.
 Alpha  occ. eigenvalues --  -26.13705 -26.13307 -15.65429 -11.30653 -11.25594
 Alpha  occ. eigenvalues --  -11.25425 -11.25047 -11.24540 -11.24359  -7.74769
 Alpha  occ. eigenvalues --   -1.68725  -1.66533  -1.21818  -1.13176  -1.01993
 Alpha  occ. eigenvalues --   -1.00139  -0.87520  -0.85139  -0.84264  -0.81375
 Alpha  occ. eigenvalues --   -0.77551  -0.76883  -0.72934  -0.72227  -0.70683
 Alpha  occ. eigenvalues --   -0.69078  -0.66493  -0.61517  -0.61105  -0.59820
 Alpha  occ. eigenvalues --   -0.55406  -0.52431  -0.50465  -0.46960  -0.35069
 Alpha  occ. eigenvalues --   -0.31821
 Alpha virt. eigenvalues --    0.03050   0.03680   0.04093   0.05445   0.05539
 Alpha virt. eigenvalues --    0.05629   0.07244   0.07767   0.09778   0.09813
 Alpha virt. eigenvalues --    0.10420   0.10789   0.12624   0.13093   0.13418

 Mulliken charges:
               1
     1  C    0.549420
     2  B    0.880094
     3  F   -0.517220
     4  F   -0.545242
     5  C    0.350890
     6  C    0.585617
     7  C    0.518202
     8  C    0.526811
     9  C    0.526349
    10  H   -0.448365
    11  H   -0.618769
    12  H   -0.425608
    13  H   -0.450445
    14  H   -0.618596
    15  N   -0.258531
    16  H   -0.054608
 Sum of Mulliken charges =  -0.00000

 Dipole moment (field-independent basis, Debye):
    X=             -1.8756    Y=             -1.4102    Z=              0.0001  Tot=              2.3466

 Test job not archived.
 1\1\GINC-SE362\SP\RHF\Aug-CC-pVDZ\C6H6B1F2N1\OHZDE\09-Apr-2025\0\\#t h
 f aug-cc-pvdz iop(5/13=1,5/36=2,99/5=2) pseudo=read geom=check guess=(
 read,tcheck) scf=(maxcycle=1)\\title\\0,1\C,0,0.307712,-0.341863,-0.00
 0002\B,0,-2.238875,-0.001052,-0.00001\F,0,-2.281407,1.331447,0.000003\
 F,0,-3.405682,-0.651193,0.000017\C,0,1.298272,-1.331768,-0.00001\C,0,0
 .694121,1.004359,0.000006\C,0,2.645267,-0.987303,-0.000011\C,0,3.02923
 3,0.351217,-0.000004\C,0,2.045261,1.337204,0.000004\H,0,2.32758,2.3840
 92,0.00001\H,0,-0.054543,1.783499,0.000012\H,0,3.394755,-1.770659,-0.0

 Normal termination of Gaussian 16 at Wed Apr  9 00:37:46 2025.
