 Gaussian 16, Revision C.01,

 ----------------------------------------------------------------------
 #t hf aug-cc-pvdz symm=none int=(grid=ultrafine) guess=(read,tcheck) s
 table=opt
 ----------------------------------------------------------------------
 -----
 title
 -----
 Symbolic Z-matrix:
 Charge =  0 Multiplicity = 2

 SCF Done:  E(UHF) =  -99.3810917930     A.U. after    9 cycles
 Normal termination of Gaussian 16 at Tue Apr  8 22:42:24 2025.
 Gaussian 16:  ES64L-G16RevC.01  3-Jul-2019

 ----------------------------------------------------------------------
 #t hf aug-cc-pvdz iop(5/13=1,5/36=2,99/5=2) pseudo=read geom=check gue
 ss=(read,tcheck) scf=(maxcycle=1)
 ----------------------------------------------------------------------
 -----
 title
 -----
 Structure from the checkpoint file:  "BDE49_expt_1496_mol3.chk"
 Charge =  0 Multiplicity = 2

                         Standard orientation:
 ---------------------------------------------------------------------
 Center     Atomic      Atomic             Coordinates (Angstroms)
 Number     Number       Type             X           Y           Z
 ---------------------------------------------------------------------
      1          9           0        0.000000    0.000000    0.000000
 ---------------------------------------------------------------------

 SCF Done:  E(UHF) =  -99.4160231674     A.U. after    2 cycles

 Unable to determine electronic state:  an orbital has unidentified symmetry.
 Alpha  occ. eigenvalues --  -26.23759  -1.74383  -0.91337  -0.79945  -0.79945
 Alpha virt. eigenvalues --    0.21894   0.23232   0.23232   0.23449   1.28195
 Alpha virt. eigenvalues --    1.29359   1.29359   1.32824   1.32824   1.46316
 Alpha virt. eigenvalues --    1.52733   1.52733   2.11524   4.67849   4.70151

  Beta  occ. eigenvalues --  -26.18647  -1.54364  -0.74468  -0.74468
  Beta virt. eigenvalues --   -0.00731   0.23518   0.23518   0.24322   0.27698
  Beta virt. eigenvalues --    1.32908   1.32908   1.33996   1.33996   1.34454
  Beta virt. eigenvalues --    1.54941   1.54941   1.64673   2.16135   4.79352

 Mulliken charges and spin densities:
               1          2
     1  F   -0.000000   1.000000
 Sum of Mulliken charges =  -0.00000   1.00000

 Dipole moment (field-independent basis, Debye):
    X=              0.0000    Y=              0.0000    Z=              0.0000  Tot=              0.0000
                          Isotropic Fermi Contact Couplings
        Atom                 a.u.       MegaHertz       Gauss      10(-4) cm-1
     1  F(19)              0.21841     918.94700     327.90314     306.52773
 --------------------------------------------------------
       Center         ----  Spin Dipole Couplings  ----
                      3XX-RR        3YY-RR        3ZZ-RR
 --------------------------------------------------------
     1   Atom       -2.858031     -2.996887      5.854919
 --------------------------------------------------------
                        XY            XZ            YZ

 Normal termination of Gaussian 16 at Tue Apr  8 22:42:25 2025.
