 Gaussian 16, Revision C.01,

 ----------------------------------------------------------------------
 #t hf aug-cc-pvdz symm=none int=(grid=ultrafine) guess=(read,tcheck) s
 table=(opt,rrhf)
 ----------------------------------------------------------------------
 -----
 title
 -----
 Symbolic Z-matrix:
 Charge =  0 Multiplicity = 1

 SCF Done:  E(RHF) =  -796.230114255     A.U. after   12 cycles
 Normal termination of Gaussian 16 at Tue Apr  8 22:57:34 2025.
 Gaussian 16:  ES64L-G16RevC.01  3-Jul-2019

 ----------------------------------------------------------------------
 #t hf aug-cc-pvdz iop(5/13=1,5/36=2,99/5=2) pseudo=read geom=check gue
 ss=(read,tcheck) scf=(maxcycle=1)
 ----------------------------------------------------------------------
 -----
 title
 -----
 Structure from the checkpoint file:  "BDE49_expt_1951_mol1.chk"
 Charge =  0 Multiplicity = 1

                         Standard orientation:
 ---------------------------------------------------------------------
 Center     Atomic      Atomic             Coordinates (Angstroms)
 Number     Number       Type             X           Y           Z
 ---------------------------------------------------------------------
      1         16           0        0.000000    1.048144   -0.055145
      2         16           0       -0.000000   -1.048144   -0.055145
      3          1           0       -0.949508    1.239945    0.882315
      4          1           0        0.949508   -1.239945    0.882315
 ---------------------------------------------------------------------

 SCF Done:  E(RHF) =  -796.272086116     A.U. after    2 cycles

 The electronic state is 1-A.
 Alpha  occ. eigenvalues --  -93.57497 -93.57495  -8.87083  -8.87068  -6.21177
 Alpha  occ. eigenvalues --   -6.21174  -6.20964  -6.20927  -6.20580  -6.20578
 Alpha  occ. eigenvalues --   -1.03816  -0.87804  -0.59427  -0.54787  -0.47375
 Alpha  occ. eigenvalues --   -0.38582  -0.38419
 Alpha virt. eigenvalues --    0.03705   0.04531   0.07317   0.11295   0.11836
 Alpha virt. eigenvalues --    0.11946   0.13784   0.14103   0.16104   0.17880
 Alpha virt. eigenvalues --    0.19726   0.24132   0.25089   0.26338   0.30271

 Mulliken charges:
               1
     1  S   -0.138762
     2  S   -0.138762
     3  H    0.138762
     4  H    0.138762
 Sum of Mulliken charges =  -0.00000

 Dipole moment (field-independent basis, Debye):
    X=             -0.0000    Y=             -0.0000    Z=              1.2482  Tot=              1.2482

 Test job not archived.
 1\1\GINC-SE087\SP\RHF\Aug-CC-pVDZ\H2S2\OHZDE\08-Apr-2025\0\\#t hf aug-
 cc-pvdz iop(5/13=1,5/36=2,99/5=2) pseudo=read geom=check guess=(read,t
 check) scf=(maxcycle=1)\\title\\0,1\S,0,0.,1.048144,-0.055145\S,0,0.,-
 1.048144,-0.055145\H,0,-0.949508,1.239945,0.882315\H,0,0.949508,-1.239
 945,0.882315\\Version=ES64L-G16RevC.01\State=1-A\HF=-796.2720861\RMSD=
 8.339e-03\Dipole=0.,0.,0.4910683\Quadrupole=-0.2023202,0.5920672,-0.38
 9747,-1.7055306,0.,0.\PG=C02 [X(H2S2)]\\@

 Normal termination of Gaussian 16 at Tue Apr  8 22:57:36 2025.
