 Gaussian 16, Revision C.01,

 ----------------------------------------------------------------------
 #t hf aug-cc-pvdz symm=none int=(grid=ultrafine) guess=(read,tcheck) s
 table=opt
 ----------------------------------------------------------------------
 -----
 title
 -----
 Symbolic Z-matrix:
 Charge =  0 Multiplicity = 2

 SCF Done:  E(UHF) =  -1125.72474982     A.U. after   18 cycles
 Normal termination of Gaussian 16 at Tue Apr  8 23:51:32 2025.
 Gaussian 16:  ES64L-G16RevC.01  3-Jul-2019

 ----------------------------------------------------------------------
 #t hf aug-cc-pvdz iop(5/13=1,5/36=2,99/5=2) pseudo=read geom=check gue
 ss=(read,tcheck) scf=(maxcycle=1)
 ----------------------------------------------------------------------
 -----
 title
 -----
 Structure from the checkpoint file:  "BDE49_nonexpt_191_mol2.chk"
 Charge =  0 Multiplicity = 2

                         Standard orientation:
 ---------------------------------------------------------------------
 Center     Atomic      Atomic             Coordinates (Angstroms)
 Number     Number       Type             X           Y           Z
 ---------------------------------------------------------------------
      1         17           0        3.053682    0.066380    0.000079
      2          5           0        1.401377   -0.515072   -0.048414
      3         15           0       -1.230198   -0.045278   -0.113925
      4          8           0       -1.666957   -0.855097   -1.237738
      5          8           0       -1.450431   -0.679094    1.335273
      6          1           0       -1.985248   -1.481386    1.296594
      7          8           0       -1.861127    1.403703   -0.054003
      8          1           0       -1.476722    1.988561    0.610447
      9          8           0        0.352947    0.332851   -0.038212
 ---------------------------------------------------------------------

 SCF Done:  E(UHF) =  -1125.92748845     A.U. after    2 cycles

 The electronic state is 2-A.
 Alpha  occ. eigenvalues -- -103.67934 -81.47942 -20.64781 -20.64319 -20.64152
 Alpha  occ. eigenvalues --  -20.55190 -10.71411  -8.37237  -8.36844  -8.36818
 Alpha  occ. eigenvalues --   -7.95788  -7.75406  -5.10496  -5.10370  -5.10335
 Alpha  occ. eigenvalues --   -1.43007  -1.38467  -1.37881  -1.29083  -1.17566
 Alpha  occ. eigenvalues --   -0.90526  -0.82104  -0.81028  -0.72380  -0.69165
 Alpha  occ. eigenvalues --   -0.65981  -0.65190  -0.64658  -0.62013  -0.60098
 Alpha  occ. eigenvalues --   -0.58147  -0.52680  -0.52044  -0.50978  -0.50230
 Alpha  occ. eigenvalues --   -0.38234
 Alpha virt. eigenvalues --    0.02638   0.04088   0.05384   0.05604   0.06739
 Alpha virt. eigenvalues --    0.08986   0.09164   0.09620   0.11020   0.11639
 Alpha virt. eigenvalues --    0.13646   0.14860   0.16975   0.17634   0.18062

  Beta  occ. eigenvalues -- -103.67813 -81.47937 -20.64536 -20.64323 -20.64154
  Beta  occ. eigenvalues --  -20.55199 -10.71271  -8.36906  -8.36794  -8.36623
  Beta  occ. eigenvalues --   -7.95780  -7.73217  -5.10492  -5.10364  -5.10325
  Beta  occ. eigenvalues --   -1.42676  -1.37954  -1.37817  -1.29098  -1.16454
  Beta  occ. eigenvalues --   -0.90147  -0.81832  -0.80691  -0.71024  -0.68738
  Beta  occ. eigenvalues --   -0.65735  -0.64024  -0.63582  -0.60361  -0.59978
  Beta  occ. eigenvalues --   -0.57890  -0.52365  -0.51947  -0.50325  -0.49659
  Beta virt. eigenvalues --    0.02133   0.04038   0.04535   0.06030   0.06725
  Beta virt. eigenvalues --    0.07191   0.09477   0.10252   0.11351   0.12809
  Beta virt. eigenvalues --    0.13294   0.13748   0.15023   0.17108   0.17881

 Mulliken charges and spin densities:
               1          2
     1  Cl  -0.291000   0.039712
     2  B    0.244046   1.008941
     3  P    2.499172   0.005984
     4  O   -0.792617  -0.000366
     5  O   -0.673300  -0.003738
     6  H    0.170971   0.000563
     7  O   -0.617351  -0.004669
     8  H    0.161867   0.000428
     9  O   -0.701788  -0.046856
 Sum of Mulliken charges =   0.00000   1.00000

 Dipole moment (field-independent basis, Debye):
    X=             -0.3382    Y=              0.8501    Z=              3.3948  Tot=              3.5159
                          Isotropic Fermi Contact Couplings
        Atom                 a.u.       MegaHertz       Gauss      10(-4) cm-1
     1  Cl(35)             0.12055      52.85780      18.86098      17.63147
     2  B(11)              0.44741     641.75337     228.99356     214.06588
     3  P(31)              0.00891      16.13364       5.75688       5.38160
     4  O(17)             -0.00031       0.19001       0.06780       0.06338
     5  O(17)             -0.00101       0.61259       0.21859       0.20434
     6  H(1)              -0.00001      -0.04481      -0.01599      -0.01495
     7  O(17)              0.00036      -0.21970      -0.07839      -0.07328
     8  H(1)              -0.00001      -0.03463      -0.01236      -0.01155

 1\1\GINC-SE396\SP\UHF\Aug-CC-pVDZ\B1Cl1H2O4P1(2)\OHZDE\08-Apr-2025\0\\
 #t hf aug-cc-pvdz iop(5/13=1,5/36=2,99/5=2) pseudo=read geom=check gue
 ss=(read,tcheck) scf=(maxcycle=1)\\title\\0,2\Cl,0,3.053682,0.06638,0.
 000079\B,0,1.401377,-0.515072,-0.048414\P,0,-1.230198,-0.045278,-0.113
 925\O,0,-1.666957,-0.855097,-1.237738\O,0,-1.450431,-0.679094,1.335273
 \H,0,-1.985248,-1.481386,1.296594\O,0,-1.861127,1.403703,-0.054003\H,0
 ,-1.476722,1.988561,0.610447\O,0,0.352947,0.332851,-0.038212\\Version=
 ES64L-G16RevC.01\State=2-A\HF=-1125.9274885\S2=0.75382\S2-1=0.\S2A=0.7

 Normal termination of Gaussian 16 at Tue Apr  8 23:51:36 2025.
