 Gaussian 16, Revision C.01,

 ----------------------------------------------------------------------
 #t hf aug-cc-pvdz symm=none int=(grid=ultrafine) guess=(read,tcheck) s
 table=(opt,rrhf)
 ----------------------------------------------------------------------
 -----
 title
 -----
 Symbolic Z-matrix:
 Charge =  0 Multiplicity = 1

 SCF Done:  E(RHF) =  -698.749679542     A.U. after   17 cycles
 Normal termination of Gaussian 16 at Tue Apr  8 23:34:23 2025.
 Gaussian 16:  ES64L-G16RevC.01  3-Jul-2019

 ----------------------------------------------------------------------
 #t hf aug-cc-pvdz iop(5/13=1,5/36=2,99/5=2) pseudo=read geom=check gue
 ss=(read,tcheck) scf=(maxcycle=1)
 ----------------------------------------------------------------------
 -----
 title
 -----
 Structure from the checkpoint file:  "BDE49_nonexpt_1491_mol1.chk"
 Charge =  0 Multiplicity = 1

                         Standard orientation:
 ---------------------------------------------------------------------
 Center     Atomic      Atomic             Coordinates (Angstroms)
 Number     Number       Type             X           Y           Z
 ---------------------------------------------------------------------
      1          6           0        1.212744    1.302203   -0.031985
      2          6           0       -0.027621    1.835825   -0.071592
      3          6           0        1.487326   -0.127996    0.059103
      4         15           0        0.050992   -1.285719   -0.341118
      5          6           0       -1.425212   -0.215970    0.056930
      6          7           0       -1.232671    1.163058   -0.060287
      7          1           0       -2.082571    1.704847    0.040270
      8          8           0       -2.518812   -0.672797    0.295201
      9          8           0        2.581152   -0.601944    0.286062
     10          1           0        2.068944    1.964988   -0.001008
     11          1           0       -0.144186    2.912892   -0.097087
     12          1           0        0.039499   -2.004783    0.871757
 ---------------------------------------------------------------------

 SCF Done:  E(RHF) =  -698.878008528     A.U. after    2 cycles

 The electronic state is 1-A.
 Alpha  occ. eigenvalues --  -81.29381 -20.58371 -20.57922 -15.70572 -11.40541
 Alpha  occ. eigenvalues --  -11.36827 -11.35430 -11.26521  -7.79914  -4.93906
 Alpha  occ. eigenvalues --   -4.93850  -4.93525  -1.39246  -1.36755  -1.26272
 Alpha  occ. eigenvalues --   -1.07696  -0.95865  -0.86763  -0.83645  -0.76345
 Alpha  occ. eigenvalues --   -0.71763  -0.70239  -0.66788  -0.63984  -0.62972
 Alpha  occ. eigenvalues --   -0.60213  -0.58480  -0.56777  -0.51967  -0.47797
 Alpha  occ. eigenvalues --   -0.42797  -0.38033  -0.37125
 Alpha virt. eigenvalues --    0.01944   0.04154   0.04167   0.04822   0.06585
 Alpha virt. eigenvalues --    0.07754   0.08209   0.08529   0.09800   0.11644
 Alpha virt. eigenvalues --    0.11859   0.12220   0.12960   0.13419   0.14030

 Mulliken charges:
               1
     1  C    0.916897
     2  C    0.677441
     3  C   -0.239826
     4  P    0.340003
     5  C    0.349910
     6  N   -0.411696
     7  H   -0.059447
     8  O   -0.481606
     9  O   -0.501491
    10  H   -0.432576
    11  H   -0.372308
    12  H    0.214699
 Sum of Mulliken charges =  -0.00000

 Dipole moment (field-independent basis, Debye):
    X=             -1.3344    Y=              4.3499    Z=             -0.4790  Tot=              4.5751

 Test job not archived.
 1\1\GINC-SE106\SP\RHF\Aug-CC-pVDZ\C4H4N1O2P1\OHZDE\08-Apr-2025\0\\#t h
 f aug-cc-pvdz iop(5/13=1,5/36=2,99/5=2) pseudo=read geom=check guess=(
 read,tcheck) scf=(maxcycle=1)\\title\\0,1\C,0,1.212744,1.302203,-0.031
 985\C,0,-0.027621,1.835825,-0.071592\C,0,1.487326,-0.127996,0.059103\P
 ,0,0.050992,-1.285719,-0.341118\C,0,-1.425212,-0.21597,0.05693\N,0,-1.
 232671,1.163058,-0.060287\H,0,-2.082571,1.704847,0.04027\O,0,-2.518812
 ,-0.672797,0.295201\O,0,2.581152,-0.601944,0.286062\H,0,2.068944,1.964
 988,-0.001008\H,0,-0.144186,2.912892,-0.097087\H,0,0.039499,-2.004783,

 Normal termination of Gaussian 16 at Tue Apr  8 23:34:29 2025.
