 Gaussian 16, Revision C.01,

 ----------------------------------------------------------------------
 #t hf aug-cc-pvdz symm=none int=(grid=ultrafine) guess=(read,tcheck) s
 table=(opt,rrhf)
 ----------------------------------------------------------------------
 -----
 title
 -----
 Symbolic Z-matrix:
 Charge =  0 Multiplicity = 1

 SCF Done:  E(RHF) =  -1644.44365811     A.U. after   15 cycles
 Normal termination of Gaussian 16 at Tue Apr  8 22:39:46 2025.
 Gaussian 16:  ES64L-G16RevC.01  3-Jul-2019

 ----------------------------------------------------------------------
 #t hf aug-cc-pvdz iop(5/13=1,5/36=2,99/5=2) pseudo=read geom=check gue
 ss=(read,tcheck) scf=(maxcycle=1)
 ----------------------------------------------------------------------
 -----
 title
 -----
 Structure from the checkpoint file:  "BDE49_expt_1344_mol1.chk"
 Charge =  0 Multiplicity = 1

                         Standard orientation:
 ---------------------------------------------------------------------
 Center     Atomic      Atomic             Coordinates (Angstroms)
 Number     Number       Type             X           Y           Z
 ---------------------------------------------------------------------
      1          6           0       -0.706378    0.745612    0.104714
      2          6           0       -0.716920   -0.746462    0.095445
      3          6           0        0.539007    1.184873    0.295745
      4          6           0        1.442289   -0.023122    0.430698
      5          6           0        0.520762   -1.206771    0.286551
      6          8           0        2.186543   -0.113961    1.584087
      7          1           0        2.710921    0.690011    1.684267
      8          1           0        0.860523   -2.227860    0.347335
      9          1           0        0.887433    2.205154    0.338287
     10         17           0        2.600964    0.007291   -1.059046
     11         17           0       -2.148580   -1.674559   -0.135407
     12         17           0       -2.124371    1.697832   -0.118577
 ---------------------------------------------------------------------

 SCF Done:  E(RHF) =  -1644.57679807     A.U. after    2 cycles

 The electronic state is 1-A.
 Alpha  occ. eigenvalues -- -103.69458-103.69275-103.66076 -20.63111 -11.40956
 Alpha  occ. eigenvalues --  -11.34845 -11.34577 -11.28580 -11.28374 -10.72727
 Alpha  occ. eigenvalues --  -10.72547 -10.69312  -8.38475  -8.38295  -8.38137
 Alpha  occ. eigenvalues --   -8.38132  -8.37958  -8.37952  -8.35009  -8.34737
 Alpha  occ. eigenvalues --   -8.34730  -1.39966  -1.24815  -1.19709  -1.17108
 Alpha  occ. eigenvalues --   -1.12030  -1.01173  -0.93927  -0.82456  -0.78502
 Alpha  occ. eigenvalues --   -0.73975  -0.70103  -0.65383  -0.65027  -0.61995
 Alpha  occ. eigenvalues --   -0.60188  -0.57833  -0.55871  -0.52628  -0.50522
 Alpha  occ. eigenvalues --   -0.49154  -0.48788  -0.47387  -0.46537  -0.43194
 Alpha  occ. eigenvalues --   -0.35363
 Alpha virt. eigenvalues --    0.02862   0.04137   0.04530   0.05516   0.07193
 Alpha virt. eigenvalues --    0.08866   0.09314   0.11005   0.11403   0.11746
 Alpha virt. eigenvalues --    0.12587   0.13389   0.13616   0.14279   0.15040

 Mulliken charges:
               1
     1  C   -0.213111
     2  C   -0.239520
     3  C    1.047009
     4  C    0.110317
     5  C    0.804136
     6  O   -0.601336
     7  H    0.177425
     8  H   -0.176569
     9  H   -0.234039
    10  Cl  -0.203426
    11  Cl  -0.231972
    12  Cl  -0.238916
 Sum of Mulliken charges =  -0.00000

 Dipole moment (field-independent basis, Debye):
    X=              0.7203    Y=              1.2417    Z=              1.2492  Tot=              1.9029

 Test job not archived.
 1\1\GINC-SE423\SP\RHF\Aug-CC-pVDZ\C5H3Cl3O1\OHZDE\08-Apr-2025\0\\#t hf
  aug-cc-pvdz iop(5/13=1,5/36=2,99/5=2) pseudo=read geom=check guess=(r
 ead,tcheck) scf=(maxcycle=1)\\title\\0,1\C,0,-0.706378,0.745612,0.1047
 14\C,0,-0.71692,-0.746462,0.095445\C,0,0.539007,1.184873,0.295745\C,0,
 1.442289,-0.023122,0.430698\C,0,0.520762,-1.206771,0.286551\O,0,2.1865
 43,-0.113961,1.584087\H,0,2.710921,0.690012,1.684267\H,0,0.860523,-2.2
 2786,0.347335\H,0,0.887433,2.205154,0.338287\Cl,0,2.600964,0.007292,-1
 .059046\Cl,0,-2.14858,-1.674559,-0.135407\Cl,0,-2.124371,1.697832,-0.1

 Normal termination of Gaussian 16 at Tue Apr  8 22:39:53 2025.
