 Gaussian 16, Revision C.01,

 ----------------------------------------------------------------------
 #t hf aug-cc-pvdz symm=none int=(grid=ultrafine) guess=(read,tcheck) s
 table=(opt,rrhf)
 ----------------------------------------------------------------------
 -----
 title
 -----
 Symbolic Z-matrix:
 Charge =  0 Multiplicity = 1

 SCF Done:  E(RHF) =  -383.394027030     A.U. after   13 cycles
 Normal termination of Gaussian 16 at Tue Apr  8 22:31:55 2025.
 Gaussian 16:  ES64L-G16RevC.01  3-Jul-2019

 ----------------------------------------------------------------------
 #t hf aug-cc-pvdz iop(5/13=1,5/36=2,99/5=2) pseudo=read geom=check gue
 ss=(read,tcheck) scf=(maxcycle=1)
 ----------------------------------------------------------------------
 -----
 title
 -----
 Structure from the checkpoint file:  "BDE49_expt_106_mol1.chk"
 Charge =  0 Multiplicity = 1

                         Standard orientation:
 ---------------------------------------------------------------------
 Center     Atomic      Atomic             Coordinates (Angstroms)
 Number     Number       Type             X           Y           Z
 ---------------------------------------------------------------------
      1          6           0        0.000000    1.243675    1.400396
      2          6           0        0.000000    2.429330    0.707675
      3          6           0        0.000000    2.429330   -0.707675
      4          6           0        0.000000    1.243675   -1.400396
      5          6           0        0.000000    0.000000   -0.715236
      6          6           0       -0.000000    0.000000    0.715236
      7          6           0       -0.000000   -1.243675    1.400396
      8          6           0       -0.000000   -2.429330    0.707675
      9          6           0       -0.000000   -2.429330   -0.707675
     10          6           0       -0.000000   -1.243675   -1.400396
     11          1           0        0.000000   -1.241383   -2.485579
     12          1           0        0.000000   -3.372433   -1.242578
     13          1           0       -0.000000   -1.241383    2.485579
     14          1           0       -0.000000   -3.372433    1.242578
     15          1           0        0.000000    1.241383    2.485579
     16          1           0        0.000000    3.372433    1.242578
     17          1           0        0.000000    3.372433   -1.242578
     18          1           0        0.000000    1.241383   -2.485579
 ---------------------------------------------------------------------

 SCF Done:  E(RHF) =  -383.504560432     A.U. after    2 cycles

 The electronic state is 1-AG.
 Alpha  occ. eigenvalues --  -11.25428 -11.25337 -11.24810 -11.24805 -11.24783
 Alpha  occ. eigenvalues --  -11.24772 -11.24682 -11.24676 -11.24620 -11.24620
 Alpha  occ. eigenvalues --   -1.16684  -1.10308  -1.04487  -1.00455  -0.97928
 Alpha  occ. eigenvalues --   -0.85639  -0.83990  -0.81528  -0.71063  -0.70545
 Alpha  occ. eigenvalues --   -0.68423  -0.62795  -0.61794  -0.59153  -0.58918
 Alpha  occ. eigenvalues --   -0.56983  -0.53725  -0.52932  -0.49441  -0.48150
 Alpha  occ. eigenvalues --   -0.45267  -0.39004  -0.32359  -0.29372
 Alpha virt. eigenvalues --    0.03461   0.03665   0.03812   0.05119   0.05326
 Alpha virt. eigenvalues --    0.06763   0.07360   0.07383   0.09292   0.09721
 Alpha virt. eigenvalues --    0.09856   0.11065   0.11800   0.12433   0.13202

 Mulliken charges:
               1
     1  C    0.503158
     2  C    0.474688
     3  C    0.474688
     4  C    0.503158
     5  C    0.088573
     6  C    0.088573
     7  C    0.503158
     8  C    0.474688
     9  C    0.474688
    10  C    0.503158
    11  H   -0.573397
    12  H   -0.448736
    13  H   -0.573397
    14  H   -0.448736
    15  H   -0.573397
    16  H   -0.448736
    17  H   -0.448736
    18  H   -0.573397
 Sum of Mulliken charges =  -0.00000

 Dipole moment (field-independent basis, Debye):
    X=             -0.0000    Y=             -0.0000    Z=              0.0000  Tot=              0.0000

 Test job not archived.
 1\1\GINC-SE159\SP\RHF\Aug-CC-pVDZ\C10H8\OHZDE\08-Apr-2025\0\\#t hf aug
 -cc-pvdz iop(5/13=1,5/36=2,99/5=2) pseudo=read geom=check guess=(read,
 tcheck) scf=(maxcycle=1)\\title\\0,1\C,0,0.,1.243675,1.400396\C,0,0.,2
 .42933,0.707675\C,0,0.,2.42933,-0.707675\C,0,0.,1.243675,-1.400396\C,0
 ,0.,0.,-0.715236\C,0,0.,0.,0.715236\C,0,0.,-1.243675,1.400396\C,0,0.,-
 2.42933,0.707675\C,0,0.,-2.42933,-0.707675\C,0,0.,-1.243675,-1.400396\
 H,0,0.,-1.241383,-2.485579\H,0,0.,-3.372433,-1.242578\H,0,0.,-1.241383
 ,2.485579\H,0,0.,-3.372433,1.242578\H,0,0.,1.241383,2.485579\H,0,0.,3.

 Normal termination of Gaussian 16 at Tue Apr  8 22:32:05 2025.
