 Gaussian 16, Revision C.01,

 ----------------------------------------------------------------------
 #t hf aug-cc-pvdz symm=none int=(grid=ultrafine) guess=(read,tcheck) s
 table=(opt,rrhf)
 ----------------------------------------------------------------------
 -----
 title
 -----
 Symbolic Z-matrix:
 Charge =  0 Multiplicity = 1

 SCF Done:  E(RHF) =  -705.591344782     A.U. after   14 cycles
 Normal termination of Gaussian 16 at Tue Apr  8 23:49:56 2025.
 Gaussian 16:  ES64L-G16RevC.01  3-Jul-2019

 ----------------------------------------------------------------------
 #t hf aug-cc-pvdz iop(5/13=1,5/36=2,99/5=2) pseudo=read geom=check gue
 ss=(read,tcheck) scf=(maxcycle=1)
 ----------------------------------------------------------------------
 -----
 title
 -----
 Structure from the checkpoint file:  "BDE49_nonexpt_1888_mol1.chk"
 Charge =  0 Multiplicity = 1

                         Standard orientation:
 ---------------------------------------------------------------------
 Center     Atomic      Atomic             Coordinates (Angstroms)
 Number     Number       Type             X           Y           Z
 ---------------------------------------------------------------------
      1          6           0        0.496089    0.920762   -0.470282
      2         14           0       -0.142960   -0.829299   -0.048841
      3          8           0        1.932596    1.164968   -0.304590
      4          6           0        2.632843    0.167212    0.194164
      5          8           0        2.177452   -0.915505    0.497973
      6          1           0        3.688571    0.436619    0.300648
      7          8           0       -1.796913   -0.698541   -0.568071
      8          1           0       -0.240895   -1.163229    1.376754
      9          1           0        0.279641   -1.904440   -0.951692
     10          6           0       -2.683342    0.128007   -0.014302
     11          8           0       -2.433981    0.972659    0.808296
     12          1           0       -3.693149   -0.054317   -0.411764
     13          1           0       -0.015414    1.651743    0.156223
     14          1           0        0.275915    1.159277   -1.512732
 ---------------------------------------------------------------------

 SCF Done:  E(RHF) =  -705.755246787     A.U. after    2 cycles

 The electronic state is 1-A.
 Alpha  occ. eigenvalues --  -69.10982 -20.65132 -20.60391 -20.59750 -20.56855
 Alpha  occ. eigenvalues --  -11.42952 -11.39963 -11.30113  -6.85502  -3.96391
 Alpha  occ. eigenvalues --   -3.96219  -3.96188  -1.45756  -1.40697  -1.35997
 Alpha  occ. eigenvalues --   -1.31450  -1.00449  -0.88117  -0.83648  -0.78135
 Alpha  occ. eigenvalues --   -0.74295  -0.73362  -0.70635  -0.70176  -0.64981
 Alpha  occ. eigenvalues --   -0.61854  -0.60916  -0.59242  -0.55921  -0.52408
 Alpha  occ. eigenvalues --   -0.51126  -0.50559  -0.47768  -0.46776  -0.46376
 Alpha virt. eigenvalues --    0.03002   0.03984   0.05033   0.05437   0.05904
 Alpha virt. eigenvalues --    0.07593   0.07955   0.08483   0.08763   0.09909
 Alpha virt. eigenvalues --    0.10858   0.11139   0.12604   0.14338   0.14688

 Mulliken charges:
               1
     1  C    0.544177
     2  Si   0.389436
     3  O   -0.453452
     4  C    0.687157
     5  O   -0.282495
     6  H   -0.228330
     7  O   -0.717030
     8  H    0.182378
     9  H    0.185873
    10  C    0.693438
    11  O   -0.399544
    12  H   -0.224589
    13  H   -0.198911
    14  H   -0.178109
 Sum of Mulliken charges =  -0.00000

 Dipole moment (field-independent basis, Debye):
    X=              1.7632    Y=              0.4127    Z=             -1.7108  Tot=              2.4912

 Test job not archived.
 1\1\GINC-SE072\SP\RHF\Aug-CC-pVDZ\C3H6O4Si1\OHZDE\08-Apr-2025\0\\#t hf
  aug-cc-pvdz iop(5/13=1,5/36=2,99/5=2) pseudo=read geom=check guess=(r
 ead,tcheck) scf=(maxcycle=1)\\title\\0,1\C,0,0.496089,0.920762,-0.4702
 82\Si,0,-0.14296,-0.829299,-0.048841\O,0,1.932596,1.164968,-0.30459\C,
 0,2.632843,0.167212,0.194164\O,0,2.177452,-0.915505,0.497973\H,0,3.688
 571,0.436619,0.300648\O,0,-1.796913,-0.698541,-0.568071\H,0,-0.240895,
 -1.163229,1.376754\H,0,0.279641,-1.90444,-0.951692\C,0,-2.683342,0.128
 007,-0.014302\O,0,-2.433981,0.972659,0.808296\H,0,-3.693149,-0.054317,

 Normal termination of Gaussian 16 at Tue Apr  8 23:50:01 2025.
