 Gaussian 16, Revision C.01,

 ----------------------------------------------------------------------
 #t hf aug-cc-pvdz symm=none int=(grid=ultrafine) guess=(read,tcheck) s
 table=(opt,rrhf)
 ----------------------------------------------------------------------
 -----
 title
 -----
 Symbolic Z-matrix:
 Charge =  0 Multiplicity = 1

 SCF Done:  E(RHF) =  -630.593775133     A.U. after   13 cycles
 Normal termination of Gaussian 16 at Tue Apr  8 23:36:28 2025.
 Gaussian 16:  ES64L-G16RevC.01  3-Jul-2019

 ----------------------------------------------------------------------
 #t hf aug-cc-pvdz iop(5/13=1,5/36=2,99/5=2) pseudo=read geom=check gue
 ss=(read,tcheck) scf=(maxcycle=1)
 ----------------------------------------------------------------------
 -----
 title
 -----
 Structure from the checkpoint file:  "BDE49_nonexpt_1530_mol1.chk"
 Charge =  0 Multiplicity = 1

                         Standard orientation:
 ---------------------------------------------------------------------
 Center     Atomic      Atomic             Coordinates (Angstroms)
 Number     Number       Type             X           Y           Z
 ---------------------------------------------------------------------
      1          6           0       -0.260673   -0.155812    0.244015
      2          6           0        0.667871   -1.341099   -0.078553
      3          6           0        2.110264   -1.072773    0.381086
      4          6           0        2.657376    0.239080   -0.198887
      5          6           0        1.731891    1.421843    0.119181
      6          6           0        0.293197    1.152474   -0.347059
      7          7           0       -2.881608    0.721040    0.428970
      8          1           0        0.662764   -1.518213   -1.162340
      9          1           0        0.292299   -2.257837    0.388703
     10          1           0        2.753808   -1.911557    0.095832
     11          1           0        2.133536   -1.020613    1.477258
     12          1           0        2.751581    0.139352   -1.288051
     13          1           0        3.665088    0.430045    0.184383
     14          1           0        2.110654    2.336444   -0.348933
     15          1           0        1.733944    1.602539    1.202028
     16          1           0        0.275393    1.082597   -1.443006
     17          1           0       -0.362216    1.984753   -0.076330
     18         15           0       -1.985771   -0.489973   -0.393676
     19          1           0       -0.316550   -0.046286    1.336045
     20          1           0       -2.202847   -1.644824    0.418067
     21          1           0       -3.004663    0.661248    1.431308
     22          1           0       -3.734528    1.002401   -0.031315
 ---------------------------------------------------------------------

 SCF Done:  E(RHF) =  -630.707568256     A.U. after    2 cycles

 The electronic state is 1-A.
 Alpha  occ. eigenvalues --  -81.26299 -15.61197 -11.23250 -11.22895 -11.22599
 Alpha  occ. eigenvalues --  -11.22374 -11.22324 -11.22241  -7.76278  -4.90419
 Alpha  occ. eigenvalues --   -4.90246  -4.89940  -1.11631  -1.09907  -0.99644
 Alpha  occ. eigenvalues --   -0.99361  -0.83610  -0.83004  -0.75875  -0.73094
 Alpha  occ. eigenvalues --   -0.66241  -0.63755  -0.60360  -0.60162  -0.59502
 Alpha  occ. eigenvalues --   -0.57042  -0.52626  -0.51297  -0.50485  -0.48847
 Alpha  occ. eigenvalues --   -0.48359  -0.45360  -0.43119  -0.42748  -0.38541
 Alpha  occ. eigenvalues --   -0.33140
 Alpha virt. eigenvalues --    0.03375   0.03962   0.04370   0.04681   0.05724
 Alpha virt. eigenvalues --    0.06169   0.06309   0.06987   0.07095   0.08514
 Alpha virt. eigenvalues --    0.08846   0.08962   0.09352   0.09715   0.11102

 Mulliken charges:
               1
     1  C   -0.355454
     2  C    0.333295
     3  C    0.356552
     4  C    0.246335
     5  C    0.343504
     6  C    0.228790
     7  N   -0.454208
     8  H   -0.098560
     9  H   -0.193534
    10  H   -0.106994
    11  H   -0.096522
    12  H   -0.096846
    13  H   -0.115302
    14  H   -0.103116
    15  H   -0.088303
    16  H   -0.101472
    17  H   -0.161411
    18  P    0.734437
    19  H   -0.256237
    20  H    0.056424
    21  H   -0.044816
    22  H   -0.026563
 Sum of Mulliken charges =  -0.00000

 Dipole moment (field-independent basis, Debye):
    X=             -0.2193    Y=              0.1590    Z=              1.4181  Tot=              1.4437

 Test job not archived.
 1\1\GINC-SE435\SP\RHF\Aug-CC-pVDZ\C6H14N1P1\OHZDE\08-Apr-2025\0\\#t hf
  aug-cc-pvdz iop(5/13=1,5/36=2,99/5=2) pseudo=read geom=check guess=(r
 ead,tcheck) scf=(maxcycle=1)\\title\\0,1\C,0,-0.260673,-0.155812,0.244
 015\C,0,0.667871,-1.341099,-0.078553\C,0,2.110264,-1.072773,0.381086\C
 ,0,2.657376,0.23908,-0.198887\C,0,1.731891,1.421843,0.119181\C,0,0.293
 197,1.152474,-0.347059\N,0,-2.881608,0.72104,0.42897\H,0,0.662764,-1.5
 18213,-1.16234\H,0,0.292299,-2.257837,0.388703\H,0,2.753808,-1.911557,
 0.095832\H,0,2.133536,-1.020613,1.477258\H,0,2.751581,0.139352,-1.2880

 Normal termination of Gaussian 16 at Tue Apr  8 23:36:40 2025.
