 Gaussian 16, Revision C.01,

 ----------------------------------------------------------------------
 #t hf aug-cc-pvdz symm=none int=(grid=ultrafine) guess=(read,tcheck) s
 table=(opt,rrhf)
 ----------------------------------------------------------------------
 -----
 title
 -----
 Symbolic Z-matrix:
 Charge =  0 Multiplicity = 1

 SCF Done:  E(RHF) =  -495.406519228     A.U. after   16 cycles
 Normal termination of Gaussian 16 at Tue Apr  8 23:20:23 2025.
 Gaussian 16:  ES64L-G16RevC.01  3-Jul-2019

 ----------------------------------------------------------------------
 #t hf aug-cc-pvdz iop(5/13=1,5/36=2,99/5=2) pseudo=read geom=check gue
 ss=(read,tcheck) scf=(maxcycle=1)
 ----------------------------------------------------------------------
 -----
 title
 -----
 Structure from the checkpoint file:  "BDE49_nonexpt_1173_mol1.chk"
 Charge =  0 Multiplicity = 1

                         Standard orientation:
 ---------------------------------------------------------------------
 Center     Atomic      Atomic             Coordinates (Angstroms)
 Number     Number       Type             X           Y           Z
 ---------------------------------------------------------------------
      1          9           0        2.612804    0.108070    0.818028
      2          8           0        2.080762    0.127074   -0.550911
      3          8           0        0.816956    0.624257   -0.451055
      4          6           0       -0.129863   -0.434900   -0.173189
      5          8           0        0.183093   -1.587478   -0.184138
      6          7           0       -1.337867    0.121298    0.059756
      7          6           0       -1.620223    1.555203    0.060551
      8          1           0       -0.701103    2.127543    0.132191
      9          1           0       -2.250391    1.790965    0.922180
     10          1           0       -2.152934    1.847499   -0.850893
     11          6           0       -2.480456   -0.771507    0.227634
     12          1           0       -2.970428   -0.573565    1.185417
     13          1           0       -2.132406   -1.800729    0.206992
     14          1           0       -3.206135   -0.617035   -0.577575
 ---------------------------------------------------------------------

 SCF Done:  E(RHF) =  -495.570530978     A.U. after    2 cycles

 The electronic state is 1-A.
 Alpha  occ. eigenvalues --  -26.17211 -20.78263 -20.70958 -20.57167 -15.68534
 Alpha  occ. eigenvalues --  -11.44708 -11.29799 -11.29100  -1.67609  -1.50655
 Alpha  occ. eigenvalues --   -1.38946  -1.26298  -1.19289  -0.99480  -0.96721
 Alpha  occ. eigenvalues --   -0.84682  -0.79457  -0.78439  -0.74968  -0.74006
 Alpha  occ. eigenvalues --   -0.70239  -0.68776  -0.66235  -0.63874  -0.61306
 Alpha  occ. eigenvalues --   -0.59772  -0.58460  -0.57069  -0.55888  -0.54579
 Alpha  occ. eigenvalues --   -0.49725  -0.40773
 Alpha virt. eigenvalues --    0.02594   0.04003   0.04271   0.06049   0.07160
 Alpha virt. eigenvalues --    0.07734   0.07862   0.08818   0.10950   0.11887
 Alpha virt. eigenvalues --    0.13087   0.13715   0.15116   0.15514   0.16112

 Mulliken charges:
               1
     1  F   -0.298377
     2  O    0.115287
     3  O   -0.395273
     4  C    0.542651
     5  O   -0.349399
     6  N   -0.399648
     7  C    0.799290
     8  H   -0.205953
     9  H   -0.114182
    10  H   -0.082056
    11  C    0.754006
    12  H   -0.097984
    13  H   -0.226593
    14  H   -0.041768
 Sum of Mulliken charges =  -0.00000

 Dipole moment (field-independent basis, Debye):
    X=             -4.8622    Y=              2.6006    Z=             -0.2956  Tot=              5.5219

 Test job not archived.
 1\1\GINC-SE461\SP\RHF\Aug-CC-pVDZ\C3H6F1N1O3\OHZDE\08-Apr-2025\0\\#t h
 f aug-cc-pvdz iop(5/13=1,5/36=2,99/5=2) pseudo=read geom=check guess=(
 read,tcheck) scf=(maxcycle=1)\\title\\0,1\F,0,2.612804,0.10807,0.81802
 8\O,0,2.080762,0.127074,-0.550911\O,0,0.816956,0.624257,-0.451055\C,0,
 -0.129863,-0.4349,-0.173189\O,0,0.183093,-1.587478,-0.184138\N,0,-1.33
 7867,0.121298,0.059756\C,0,-1.620223,1.555203,0.060551\H,0,-0.701103,2
 .127543,0.132191\H,0,-2.250391,1.790965,0.92218\H,0,-2.152934,1.847499
 ,-0.850893\C,0,-2.480456,-0.771507,0.227634\H,0,-2.970428,-0.573565,1.

 Normal termination of Gaussian 16 at Tue Apr  8 23:20:27 2025.
