 Gaussian 16, Revision C.01,

 ----------------------------------------------------------------------
 #t hf aug-cc-pvdz symm=none int=(grid=ultrafine) guess=(read,tcheck) s
 table=(opt,rrhf)
 ----------------------------------------------------------------------
 -----
 title
 -----
 Symbolic Z-matrix:
 Charge =  0 Multiplicity = 1

 SCF Done:  E(RHF) =  -803.545239794     A.U. after   16 cycles
 Normal termination of Gaussian 16 at Tue Apr  8 22:41:21 2025.
 Gaussian 16:  ES64L-G16RevC.01  3-Jul-2019

 ----------------------------------------------------------------------
 #t hf aug-cc-pvdz iop(5/13=1,5/36=2,99/5=2) pseudo=read geom=check gue
 ss=(read,tcheck) scf=(maxcycle=1)
 ----------------------------------------------------------------------
 -----
 title
 -----
 Structure from the checkpoint file:  "BDE49_expt_1403_mol1.chk"
 Charge =  0 Multiplicity = 1

                         Standard orientation:
 ---------------------------------------------------------------------
 Center     Atomic      Atomic             Coordinates (Angstroms)
 Number     Number       Type             X           Y           Z
 ---------------------------------------------------------------------
      1          6           0       -1.113188   -0.859437    0.000000
      2          6           0        0.118190   -1.513851    0.000000
      3          6           0        1.287205   -0.769567    0.000000
      4          6           0       -1.176760    0.525770    0.000000
      5          6           0        0.000000    1.276263    0.000000
      6          6           0        1.239216    0.630627    0.000000
      7         17           0       -2.597488   -1.802156    0.000000
      8          1           0        0.156950   -2.595561    0.000000
      9          1           0        2.255967   -1.253628    0.000000
     10          1           0       -2.137592    1.024274    0.000000
     11          1           0       -0.068962    2.355420    0.000000
     12          8           0        2.444762    1.263713    0.000000
     13          6           0        2.464569    2.684256    0.000000
     14          1           0        3.515959    2.966589    0.000000
     15          1           0        1.980746    3.092749    0.894379
     16          1           0        1.980746    3.092749   -0.894379
 ---------------------------------------------------------------------

 SCF Done:  E(RHF) =  -803.669271287     A.U. after    2 cycles

 The electronic state is 1-A'.
 Alpha  occ. eigenvalues -- -103.66183 -20.60890 -11.32357 -11.30518 -11.30476
 Alpha  occ. eigenvalues --  -11.26568 -11.26455 -11.25611 -11.25219 -10.69445
 Alpha  occ. eigenvalues --   -8.35182  -8.34881  -8.34860  -1.37916  -1.19372
 Alpha  occ. eigenvalues --   -1.13012  -1.03327  -1.01335  -0.94486  -0.85646
 Alpha  occ. eigenvalues --   -0.81543  -0.73968  -0.69316  -0.67479  -0.66262
 Alpha  occ. eigenvalues --   -0.63675  -0.61283  -0.60210  -0.55393  -0.54631
 Alpha  occ. eigenvalues --   -0.53596  -0.51965  -0.50599  -0.46423  -0.45979
 Alpha  occ. eigenvalues --   -0.35983  -0.32270
 Alpha virt. eigenvalues --    0.03059   0.04027   0.04425   0.05501   0.05852
 Alpha virt. eigenvalues --    0.06084   0.08475   0.09192   0.09348   0.10139
 Alpha virt. eigenvalues --    0.10224   0.12489   0.12869   0.13695   0.14230

 Mulliken charges:
               1
     1  C   -0.331948
     2  C    0.682229
     3  C    0.957209
     4  C    0.501335
     5  C    0.830758
     6  C    0.212240
     7  Cl  -0.371067
     8  H   -0.421775
     9  H   -0.566117
    10  H   -0.430003
    11  H   -0.720933
    12  O   -0.675448
    13  C    0.805709
    14  H   -0.302454
    15  H   -0.084867
    16  H   -0.084867
 Sum of Mulliken charges =  -0.00000

 Dipole moment (field-independent basis, Debye):
    X=              1.4585    Y=              2.5825    Z=              0.0000  Tot=              2.9659

 Test job not archived.
 1\1\GINC-SE364\SP\RHF\Aug-CC-pVDZ\C7H7Cl1O1\OHZDE\08-Apr-2025\0\\#t hf
  aug-cc-pvdz iop(5/13=1,5/36=2,99/5=2) pseudo=read geom=check guess=(r
 ead,tcheck) scf=(maxcycle=1)\\title\\0,1\C,0,-1.113188,-0.859437,0.\C,
 0,0.11819,-1.513851,0.\C,0,1.287205,-0.769567,0.\C,0,-1.17676,0.52577,
 0.\C,0,0.,1.276263,0.\C,0,1.239216,0.630627,0.\Cl,0,-2.597488,-1.80215
 6,0.\H,0,0.15695,-2.595561,0.\H,0,2.255967,-1.253628,0.\H,0,-2.137592,
 1.024274,0.\H,0,-0.068962,2.35542,0.\O,0,2.444762,1.263713,0.\C,0,2.46
 4569,2.684256,0.\H,0,3.515959,2.966589,0.\H,0,1.980746,3.092749,0.8943

 Normal termination of Gaussian 16 at Tue Apr  8 22:41:27 2025.
