 Gaussian 16, Revision C.01,

 ----------------------------------------------------------------------
 #t hf aug-cc-pvdz symm=none int=(grid=ultrafine) guess=(read,tcheck) s
 table=opt
 ----------------------------------------------------------------------
 -----
 title
 -----
 Symbolic Z-matrix:
 Charge =  0 Multiplicity = 2

 SCF Done:  E(UHF) =  -241.825862861     A.U. after   16 cycles
 Normal termination of Gaussian 16 at Wed Apr  9 00:29:52 2025.
 Gaussian 16:  ES64L-G16RevC.01  3-Jul-2019

 ----------------------------------------------------------------------
 #t hf aug-cc-pvdz iop(5/13=1,5/36=2,99/5=2) pseudo=read geom=check gue
 ss=(read,tcheck) scf=(maxcycle=1)
 ----------------------------------------------------------------------
 -----
 title
 -----
 Structure from the checkpoint file:  "BDE49_nonexpt_369_mol2.chk"
 Charge =  0 Multiplicity = 2

                         Standard orientation:
 ---------------------------------------------------------------------
 Center     Atomic      Atomic             Coordinates (Angstroms)
 Number     Number       Type             X           Y           Z
 ---------------------------------------------------------------------
      1          9           0        2.070849   -0.219016    0.065285
      2          5           0        0.890852   -0.810529    0.059316
      3          6           0       -0.433790   -0.060181   -0.330559
      4          6           0       -1.714414   -0.774312    0.131345
      5          1           0       -1.729470   -1.817573   -0.192558
      6          1           0       -2.605117   -0.280154   -0.268343
      7          1           0       -1.794165   -0.767693    1.222532
      8          6           0       -0.408293    1.429761    0.073912
      9          1           0       -0.402171   -0.108940   -1.434627
     10          1           0       -0.436786    1.541012    1.162065
     11          1           0       -1.277460    1.955552   -0.332623
     12          1           0        0.492243    1.929978   -0.288787
 ---------------------------------------------------------------------

 SCF Done:  E(UHF) =  -241.913683621     A.U. after    2 cycles

 The electronic state is 2-A.
 Alpha  occ. eigenvalues --  -26.13641 -11.23569 -11.23415 -11.23250  -7.69109
 Alpha  occ. eigenvalues --   -1.67934  -1.05952  -0.93397  -0.85700  -0.81253
 Alpha  occ. eigenvalues --   -0.76172  -0.73849  -0.63631  -0.61282  -0.56641
 Alpha  occ. eigenvalues --   -0.54461  -0.50235  -0.49206  -0.48093  -0.34358
 Alpha virt. eigenvalues --    0.03314   0.04363   0.04839   0.05080   0.06735
 Alpha virt. eigenvalues --    0.06802   0.06991   0.07315   0.07628   0.09997
 Alpha virt. eigenvalues --    0.11056   0.12703   0.14505   0.15291   0.15656

  Beta  occ. eigenvalues --  -26.13305 -11.23379 -11.23272 -11.23218  -7.67273
  Beta  occ. eigenvalues --   -1.66947  -1.05356  -0.93269  -0.84414  -0.80200
  Beta  occ. eigenvalues --   -0.73979  -0.73438  -0.62758  -0.60777  -0.56267
  Beta  occ. eigenvalues --   -0.54391  -0.49181  -0.48868  -0.46378
  Beta virt. eigenvalues --    0.02931   0.04488   0.04621   0.04912   0.06829
  Beta virt. eigenvalues --    0.06926   0.07127   0.07334   0.07633   0.09144
  Beta virt. eigenvalues --    0.10176   0.12848   0.14296   0.15159   0.15624

 Mulliken charges and spin densities:
               1          2
     1  F   -0.403463  -0.030472
     2  B    0.430144   1.033459
     3  C   -0.333236   0.023737
     4  C    0.444128  -0.003746
     5  H   -0.117536  -0.004336
     6  H   -0.048940  -0.004061
     7  H   -0.076821  -0.001615
     8  C    0.445125  -0.001507
     9  H   -0.089251  -0.012684
    10  H   -0.070307  -0.001251
    11  H   -0.063306   0.003183
    12  H   -0.116538  -0.000707
 Sum of Mulliken charges =   0.00000   1.00000

 Dipole moment (field-independent basis, Debye):
    X=             -1.5616    Y=              0.3377    Z=             -0.3451  Tot=              1.6345
                          Isotropic Fermi Contact Couplings
        Atom                 a.u.       MegaHertz       Gauss      10(-4) cm-1
     1  F(19)              0.07697     323.86374     115.56263     108.02931
     2  B(11)              0.32460     465.59701     166.13659     155.30644
     3  C(13)              0.07076      79.54928      28.38516      26.53478
     4  C(13)              0.00310       3.48246       1.24263       1.16162
     5  H(1)              -0.00015      -0.68467      -0.24431      -0.22838
     6  H(1)              -0.00057      -2.53514      -0.90460      -0.84563
     7  H(1)              -0.00006      -0.26023      -0.09286      -0.08680
     8  C(13)              0.00815       9.16534       3.27042       3.05723

 Normal termination of Gaussian 16 at Wed Apr  9 00:29:56 2025.
