 Gaussian 16, Revision C.01,

 ----------------------------------------------------------------------
 #t hf aug-cc-pvdz symm=none int=(grid=ultrafine) guess=(read,tcheck) s
 table=(opt,rrhf)
 ----------------------------------------------------------------------
 -----
 title
 -----
 Symbolic Z-matrix:
 Charge =  0 Multiplicity = 1

 SCF Done:  E(RHF) =  -368.339084762     A.U. after   12 cycles
 Normal termination of Gaussian 16 at Wed Apr  9 00:39:32 2025.
 Gaussian 16:  ES64L-G16RevC.01  3-Jul-2019

 ----------------------------------------------------------------------
 #t hf aug-cc-pvdz iop(5/13=1,5/36=2,99/5=2) pseudo=read geom=check gue
 ss=(read,tcheck) scf=(maxcycle=1)
 ----------------------------------------------------------------------
 -----
 title
 -----
 Structure from the checkpoint file:  "BDE49_nonexpt_670_mol1.chk"
 Charge =  0 Multiplicity = 1

                         Standard orientation:
 ---------------------------------------------------------------------
 Center     Atomic      Atomic             Coordinates (Angstroms)
 Number     Number       Type             X           Y           Z
 ---------------------------------------------------------------------
      1          6           0       -0.777923   -0.826719   -0.347326
      2          8           0        0.176492    0.241109   -0.431206
      3          5           0        1.464466    0.080317   -0.010961
      4          8           0        2.347241    1.124302   -0.127023
      5          8           0        1.887155   -1.104823    0.527440
      6          6           0       -2.183041   -0.250912   -0.449013
      7          1           0       -0.644152   -1.366741    0.595675
      8          1           0       -0.593848   -1.531887   -1.164859
      9          6           0       -2.546045    0.681893    0.708806
     10          1           0       -2.886697   -1.090428   -0.490888
     11          1           0       -2.272415    0.282362   -1.401573
     12          1           0       -2.504983    0.154792    1.667405
     13          1           0       -3.556055    1.083018    0.591766
     14          1           0       -1.851842    1.523252    0.759387
     15          1           0        2.811308   -1.063517    0.788646
     16          1           0        1.931309    1.897286   -0.519246
 ---------------------------------------------------------------------

 SCF Done:  E(RHF) =  -368.466467995     A.U. after    2 cycles

 The electronic state is 1-A.
 Alpha  occ. eigenvalues --  -20.57856 -20.57700 -20.56899 -11.28841 -11.23189
 Alpha  occ. eigenvalues --  -11.22201  -7.68050  -1.35667  -1.31029  -1.30713
 Alpha  occ. eigenvalues --   -1.04524  -0.92563  -0.81011  -0.78268  -0.75418
 Alpha  occ. eigenvalues --   -0.70458  -0.66217  -0.61869  -0.59959  -0.58755
 Alpha  occ. eigenvalues --   -0.58082  -0.57083  -0.53871  -0.52387  -0.51158
 Alpha  occ. eigenvalues --   -0.49002  -0.47353  -0.45875
 Alpha virt. eigenvalues --    0.03353   0.04439   0.04735   0.04926   0.06059
 Alpha virt. eigenvalues --    0.06564   0.06866   0.07330   0.07587   0.09082
 Alpha virt. eigenvalues --    0.09540   0.10369   0.10678   0.14505   0.14876

 Mulliken charges:
               1
     1  C    0.761763
     2  O   -0.533441
     3  B    0.737931
     4  O   -0.511893
     5  O   -0.467035
     6  C    0.053513
     7  H   -0.225970
     8  H   -0.233432
     9  C    0.394707
    10  H   -0.024281
    11  H   -0.097038
    12  H   -0.076670
    13  H   -0.082789
    14  H   -0.055300
    15  H    0.181709
    16  H    0.178226
 Sum of Mulliken charges =  -0.00000

 Dipole moment (field-independent basis, Debye):
    X=             -0.5385    Y=              0.0521    Z=             -0.1600  Tot=              0.5641

 Test job not archived.
 1\1\GINC-SE141\SP\RHF\Aug-CC-pVDZ\C3H9B1O3\OHZDE\09-Apr-2025\0\\#t hf
 aug-cc-pvdz iop(5/13=1,5/36=2,99/5=2) pseudo=read geom=check guess=(re
 ad,tcheck) scf=(maxcycle=1)\\title\\0,1\C,0,-0.777923,0.826719,0.34732
 6\O,0,0.176492,-0.241109,0.431206\B,0,1.464466,-0.080317,0.010961\O,0,
 2.347241,-1.124302,0.127023\O,0,1.887155,1.104823,-0.52744\C,0,-2.1830
 41,0.250912,0.449013\H,0,-0.644152,1.366741,-0.595675\H,0,-0.593848,1.
 531887,1.164859\C,0,-2.546045,-0.681893,-0.708806\H,0,-2.886697,1.0904
 28,0.490888\H,0,-2.272415,-0.282362,1.401573\H,0,-2.504983,-0.154792,-

 Normal termination of Gaussian 16 at Wed Apr  9 00:39:38 2025.
