 Gaussian 16, Revision C.01,

 ----------------------------------------------------------------------
 #t hf aug-cc-pvdz symm=none int=(grid=ultrafine) guess=(read,tcheck) s
 table=(opt,rrhf)
 ----------------------------------------------------------------------
 -----
 title
 -----
 Symbolic Z-matrix:
 Charge =  0 Multiplicity = 1

 SCF Done:  E(RHF) =  -514.614760785     A.U. after   12 cycles
 Normal termination of Gaussian 16 at Tue Apr  8 23:36:24 2025.
 Gaussian 16:  ES64L-G16RevC.01  3-Jul-2019

 ----------------------------------------------------------------------
 #t hf aug-cc-pvdz iop(5/13=1,5/36=2,99/5=2) pseudo=read geom=check gue
 ss=(read,tcheck) scf=(maxcycle=1)
 ----------------------------------------------------------------------
 -----
 title
 -----
 Structure from the checkpoint file:  "BDE49_nonexpt_1541_mol1.chk"
 Charge =  0 Multiplicity = 1

                         Standard orientation:
 ---------------------------------------------------------------------
 Center     Atomic      Atomic             Coordinates (Angstroms)
 Number     Number       Type             X           Y           Z
 ---------------------------------------------------------------------
      1          7           0        0.687507    0.065901   -0.191286
      2          6           0        1.004993    1.431204    0.206789
      3          1           0        1.405314    1.487277    1.232560
      4          1           0        0.118954    2.064497    0.153626
      5          1           0        1.754808    1.854408   -0.470964
      6         15           0       -0.763294   -0.694953    0.321051
      7          6           0        1.870019   -0.785146   -0.297201
      8          1           0        2.551460   -0.381319   -1.054524
      9          1           0        1.577076   -1.790319   -0.603000
     10          1           0        2.428968   -0.863109    0.649473
     11          6           0       -2.074787    0.367748   -0.445482
     12          1           0       -1.952072    1.437021   -0.262088
     13          1           0       -3.038448    0.056283   -0.031132
     14          1           0       -2.092048    0.190230   -1.522525
     15          1           0       -0.918495   -0.174817    1.647167
 ---------------------------------------------------------------------

 SCF Done:  E(RHF) =  -514.700218981     A.U. after    2 cycles

 The electronic state is 1-A.
 Alpha  occ. eigenvalues --  -81.26555 -15.61352 -11.26167 -11.25893 -11.23063
 Alpha  occ. eigenvalues --   -7.76524  -4.90673  -4.90403  -4.90206  -1.17144
 Alpha  occ. eigenvalues --   -0.96167  -0.94889  -0.85935  -0.72248  -0.63291
 Alpha  occ. eigenvalues --   -0.61804  -0.61144  -0.57414  -0.55601  -0.54602
 Alpha  occ. eigenvalues --   -0.51622  -0.49920  -0.47372  -0.35291  -0.33469
 Alpha virt. eigenvalues --    0.03554   0.04309   0.04832   0.04966   0.06803
 Alpha virt. eigenvalues --    0.07228   0.07291   0.07894   0.08266   0.09466
 Alpha virt. eigenvalues --    0.11200   0.12132   0.12600   0.13570   0.14852

 Mulliken charges:
               1
     1  N   -0.769254
     2  C    0.717844
     3  H   -0.051721
     4  H   -0.346842
     5  H   -0.118990
     6  P    0.528416
     7  C    0.755534
     8  H   -0.175034
     9  H   -0.248072
    10  H   -0.057115
    11  C    0.158192
    12  H   -0.199564
    13  H   -0.167792
    14  H   -0.105168
    15  H    0.079566
 Sum of Mulliken charges =  -0.00000

 Dipole moment (field-independent basis, Debye):
    X=              0.4458    Y=              1.2166    Z=              0.0355  Tot=              1.2962

 Test job not archived.
 1\1\GINC-SE229\SP\RHF\Aug-CC-pVDZ\C3H10N1P1\OHZDE\08-Apr-2025\0\\#t hf
  aug-cc-pvdz iop(5/13=1,5/36=2,99/5=2) pseudo=read geom=check guess=(r
 ead,tcheck) scf=(maxcycle=1)\\title\\0,1\N,0,0.687507,0.065901,-0.1912
 86\C,0,1.004993,1.431204,0.206789\H,0,1.405314,1.487277,1.23256\H,0,0.
 118954,2.064497,0.153626\H,0,1.754808,1.854408,-0.470964\P,0,-0.763294
 ,-0.694953,0.321051\C,0,1.870019,-0.785146,-0.297201\H,0,2.55146,-0.38
 1319,-1.054524\H,0,1.577076,-1.790319,-0.603\H,0,2.428968,-0.863109,0.
 649473\C,0,-2.074787,0.367748,-0.445482\H,0,-1.952072,1.437021,-0.2620

 Normal termination of Gaussian 16 at Tue Apr  8 23:36:29 2025.
