 Gaussian 16, Revision C.01,

 ----------------------------------------------------------------------
 #t hf aug-cc-pvdz symm=none int=(grid=ultrafine) guess=(read,tcheck) s
 table=(opt,rrhf)
 ----------------------------------------------------------------------
 -----
 title
 -----
 Symbolic Z-matrix:
 Charge =  0 Multiplicity = 1

 SCF Done:  E(RHF) =  -562.808745638     A.U. after   12 cycles

 1\1\GINC-SE453\Stability\RHF\Aug-CC-pVDZ\F2O1Si1\OHZDE\08-Apr-2025\0\\
 #t hf aug-cc-pvdz symm=none int=(grid=ultrafine) guess=(read,tcheck) s
 table=(opt,rrhf)\\title\\0,1\Si,0,0.,0.,0.133438\O,0,0.,0.,1.637552\F,
 0,0.,1.244535,-0.831586\F,0,0.,-1.244535,-0.831586\\Version=ES64L-G16R
 evC.01\HF=-562.8087456\RMSD=9.960e-09\Dipole=0.,0.,-1.0412562\Quadrupo
 le=4.5411308,0.1537263,-4.6948571,0.,0.,0.\PG=Unknown\\@
 The archive entry for this job was punched.

 Normal termination of Gaussian 16 at Tue Apr  8 23:54:16 2025.
 Gaussian 16:  ES64L-G16RevC.01  3-Jul-2019

 ----------------------------------------------------------------------
 #t hf aug-cc-pvdz iop(5/13=1,5/36=2,99/5=2) pseudo=read geom=check gue
 ss=(read,tcheck) scf=(maxcycle=1)
 ----------------------------------------------------------------------
 -----
 title
 -----
 Structure from the checkpoint file:  "BDE49_nonexpt_1989_mol1.chk"
 Charge =  0 Multiplicity = 1

                         Standard orientation:
 ---------------------------------------------------------------------
 Center     Atomic      Atomic             Coordinates (Angstroms)
 Number     Number       Type             X           Y           Z
 ---------------------------------------------------------------------
      1         14           0        0.000000   -0.000000    0.133438
      2          8           0        0.000000   -0.000000    1.637552
      3          9           0        0.000000    1.244535   -0.831586
      4          9           0       -0.000000   -1.244535   -0.831586
 ---------------------------------------------------------------------

 SCF Done:  E(RHF) =  -562.960195279     A.U. after    2 cycles

 The electronic state is 1-A1.
 Alpha  occ. eigenvalues --  -69.23829 -26.18942 -26.18942 -20.56288  -6.97936
 Alpha  occ. eigenvalues --   -4.08906  -4.08813  -4.08808  -1.72528  -1.71109
 Alpha  occ. eigenvalues --   -1.25208  -0.89461  -0.83997  -0.81140  -0.80586
 Alpha  occ. eigenvalues --   -0.78140  -0.77064  -0.59220  -0.52267  -0.51595
 Alpha virt. eigenvalues --    0.01058   0.04161   0.05986   0.06462   0.11532
 Alpha virt. eigenvalues --    0.11768   0.19546   0.20320   0.21690   0.23805
 Alpha virt. eigenvalues --    0.24160   0.24720   0.27729   0.28689   0.28857

 Mulliken charges:
               1
     1  Si   2.255183
     2  O   -0.790585
     3  F   -0.732299
     4  F   -0.732299
 Sum of Mulliken charges =   0.00000

 Dipole moment (field-independent basis, Debye):
    X=              0.0000    Y=              0.0000    Z=             -2.6608  Tot=              2.6608

 Test job not archived.
 1\1\GINC-SE453\SP\RHF\Aug-CC-pVDZ\F2O1Si1\OHZDE\08-Apr-2025\0\\#t hf a
 ug-cc-pvdz iop(5/13=1,5/36=2,99/5=2) pseudo=read geom=check guess=(rea
 d,tcheck) scf=(maxcycle=1)\\title\\0,1\Si,0,0.,0.,0.133438\O,0,0.,0.,1
 .637552\F,0,0.,1.244535,-0.831586\F,0,0.,-1.244535,-0.831586\\Version=
 ES64L-G16RevC.01\State=1-A1\HF=-562.9601953\RMSD=5.839e-03\Dipole=0.,0
 .,-1.0468472\Quadrupole=4.9108328,0.0721878,-4.9830205,0.,0.,0.\PG=C02
 V [C2(Si1O1),SGV(F2)]\\@

 Normal termination of Gaussian 16 at Tue Apr  8 23:54:17 2025.
