 Gaussian 16, Revision C.01,

 ----------------------------------------------------------------------
 #t hf aug-cc-pvdz symm=none int=(grid=ultrafine) guess=(read,tcheck) s
 table=(opt,rrhf)
 ----------------------------------------------------------------------
 -----
 title
 -----
 Symbolic Z-matrix:
 Charge =  0 Multiplicity = 1

 SCF Done:  E(RHF) =  -418.855567490     A.U. after   14 cycles
 Normal termination of Gaussian 16 at Wed Apr  9 00:25:49 2025.
 Gaussian 16:  ES64L-G16RevC.01  3-Jul-2019

 ----------------------------------------------------------------------
 #t hf aug-cc-pvdz iop(5/13=1,5/36=2,99/5=2) pseudo=read geom=check gue
 ss=(read,tcheck) scf=(maxcycle=1)
 ----------------------------------------------------------------------
 -----
 title
 -----
 Structure from the checkpoint file:  "BDE49_nonexpt_305_mol1.chk"
 Charge =  0 Multiplicity = 1

                         Standard orientation:
 ---------------------------------------------------------------------
 Center     Atomic      Atomic             Coordinates (Angstroms)
 Number     Number       Type             X           Y           Z
 ---------------------------------------------------------------------
      1          6           0        0.085287   -0.795874    0.447878
      2          7           0        1.344496   -0.088783    0.031686
      3          5           0       -1.256393   -0.038256    0.011681
      4          1           0        0.128434   -0.827866    1.541381
      5          1           0        0.154450   -1.812185    0.068588
      6          8           0        2.238398   -0.744137   -0.462701
      7          8           0        1.398189    1.127360    0.232916
      8          8           0       -2.357351   -0.825512   -0.103808
      9          8           0       -1.319331    1.296117   -0.192940
     10          1           0       -0.455927    1.714368   -0.046694
     11          1           0       -3.147430   -0.316937   -0.318485
 ---------------------------------------------------------------------

 SCF Done:  E(RHF) =  -418.991767424     A.U. after    2 cycles

 The electronic state is 1-A.
 Alpha  occ. eigenvalues --  -20.64091 -20.62917 -20.60498 -20.59730 -15.93027
 Alpha  occ. eigenvalues --  -11.30860  -7.69275  -1.56496  -1.38247  -1.36579
 Alpha  occ. eigenvalues --   -1.33091  -1.09191  -0.87958  -0.81389  -0.77581
 Alpha  occ. eigenvalues --   -0.76171  -0.75716  -0.73726  -0.66902  -0.62983
 Alpha  occ. eigenvalues --   -0.60880  -0.59286  -0.54576  -0.54253  -0.52668
 Alpha  occ. eigenvalues --   -0.51520  -0.49151
 Alpha virt. eigenvalues --    0.02690   0.04065   0.04862   0.05571   0.06786
 Alpha virt. eigenvalues --    0.07617   0.07779   0.08268   0.09225   0.12679
 Alpha virt. eigenvalues --    0.14026   0.14893   0.15813   0.16949   0.17728

 Mulliken charges:
               1
     1  C    0.739816
     2  N    0.391900
     3  B    0.763198
     4  H   -0.088916
     5  H   -0.232869
     6  O   -0.520828
     7  O   -0.621975
     8  O   -0.479354
     9  O   -0.437512
    10  H    0.282327
    11  H    0.204215
 Sum of Mulliken charges =  -0.00000

 Dipole moment (field-independent basis, Debye):
    X=             -2.6634    Y=             -1.0101    Z=              1.2104  Tot=              3.0950

 Test job not archived.
 1\1\GINC-SE462\SP\RHF\Aug-CC-pVDZ\C1H4B1N1O4\OHZDE\09-Apr-2025\0\\#t h
 f aug-cc-pvdz iop(5/13=1,5/36=2,99/5=2) pseudo=read geom=check guess=(
 read,tcheck) scf=(maxcycle=1)\\title\\0,1\C,0,0.085287,-0.795874,0.447
 878\N,0,1.344496,-0.088783,0.031686\B,0,-1.256393,-0.038256,0.011681\H
 ,0,0.128434,-0.827866,1.541381\H,0,0.15445,-1.812185,0.068588\O,0,2.23
 8398,-0.744137,-0.462701\O,0,1.398189,1.12736,0.232916\O,0,-2.357351,-
 0.825512,-0.103808\O,0,-1.319331,1.296117,-0.19294\H,0,-0.455927,1.714
 368,-0.046694\H,0,-3.14743,-0.316937,-0.318485\\Version=ES64L-G16RevC.

 Normal termination of Gaussian 16 at Wed Apr  9 00:25:54 2025.
