 Gaussian 16, Revision C.01,

 ----------------------------------------------------------------------
 #t hf aug-cc-pvdz symm=none int=(grid=ultrafine) guess=(read,tcheck) s
 table=(opt,rrhf)
 ----------------------------------------------------------------------
 -----
 title
 -----
 Symbolic Z-matrix:
 Charge =  0 Multiplicity = 1

 SCF Done:  E(RHF) =  -751.983635306     A.U. after   15 cycles
 Normal termination of Gaussian 16 at Tue Apr  8 23:31:22 2025.
 Gaussian 16:  ES64L-G16RevC.01  3-Jul-2019

 ----------------------------------------------------------------------
 #t hf aug-cc-pvdz iop(5/13=1,5/36=2,99/5=2) pseudo=read geom=check gue
 ss=(read,tcheck) scf=(maxcycle=1)
 ----------------------------------------------------------------------
 -----
 title
 -----
 Structure from the checkpoint file:  "BDE49_nonexpt_1409_mol1.chk"
 Charge =  0 Multiplicity = 1

                         Standard orientation:
 ---------------------------------------------------------------------
 Center     Atomic      Atomic             Coordinates (Angstroms)
 Number     Number       Type             X           Y           Z
 ---------------------------------------------------------------------
      1          6           0       -1.071358    0.129335   -0.005106
      2          7           0       -1.270564    1.478957    0.028959
      3          6           0       -0.212917    2.265353    0.036659
      4          7           0        1.090805    1.894426    0.005719
      5          6           0        1.261761    0.592095   -0.046416
      6          6           0        0.215354   -0.358286   -0.054800
      7          7           0        0.779273   -1.635541   -0.148540
      8          6           0        2.223405   -1.507940    0.131508
      9          7           0        2.458076   -0.083133   -0.114118
     10          1           0        2.808606   -2.129446   -0.551805
     11          1           0        2.472448   -1.792964    1.169192
     12          1           0       -0.397192    3.334229    0.076004
     13         15           0       -2.612664   -0.872487   -0.102202
     14          1           0        0.303693   -2.390158    0.326079
     15          1           0        3.304752    0.363457    0.202413
     16          1           0       -3.127705   -0.502765    1.165821
     17          1           0       -2.075239   -2.101353    0.370130
 ---------------------------------------------------------------------

 SCF Done:  E(RHF) =  -752.120919883     A.U. after    2 cycles

 The electronic state is 1-A.
 Alpha  occ. eigenvalues --  -81.26776 -15.66043 -15.65370 -15.62727 -15.62136
 Alpha  occ. eigenvalues --  -11.34215 -11.33485 -11.31462 -11.29828 -11.28963
 Alpha  occ. eigenvalues --   -7.77138  -4.91202  -4.91096  -4.90772  -1.31423
 Alpha  occ. eigenvalues --   -1.24971  -1.18088  -1.12662  -1.04419  -0.92098
 Alpha  occ. eigenvalues --   -0.88767  -0.86201  -0.80218  -0.74294  -0.69902
 Alpha  occ. eigenvalues --   -0.68356  -0.66856  -0.63511  -0.61033  -0.59352
 Alpha  occ. eigenvalues --   -0.57714  -0.52480  -0.51910  -0.49076  -0.47074
 Alpha  occ. eigenvalues --   -0.45717  -0.40991  -0.39511  -0.35250  -0.29600
 Alpha virt. eigenvalues --    0.02298   0.03474   0.04102   0.04575   0.05716
 Alpha virt. eigenvalues --    0.06824   0.07529   0.08852   0.09651   0.09940
 Alpha virt. eigenvalues --    0.10348   0.10705   0.11269   0.12559   0.13145

 Mulliken charges:
               1
     1  C   -0.011477
     2  N   -0.544364
     3  C    0.709304
     4  N   -0.560961
     5  C    0.117589
     6  C    0.908558
     7  N   -0.796339
     8  C    1.377601
     9  N   -0.483249
    10  H   -0.202012
    11  H   -0.241744
    12  H   -0.335159
    13  P    0.025773
    14  H   -0.065613
    15  H   -0.096278
    16  H    0.153077
    17  H    0.045294
 Sum of Mulliken charges =   0.00000

 Dipole moment (field-independent basis, Debye):
    X=              2.7982    Y=             -3.4625    Z=              2.0138  Tot=              4.8862

 Test job not archived.
 1\1\GINC-SE424\SP\RHF\Aug-CC-pVDZ\C5H7N4P1\OHZDE\08-Apr-2025\0\\#t hf
 aug-cc-pvdz iop(5/13=1,5/36=2,99/5=2) pseudo=read geom=check guess=(re
 ad,tcheck) scf=(maxcycle=1)\\title\\0,1\C,0,-1.071358,0.129335,-0.0051
 06\N,0,-1.270564,1.478957,0.028959\C,0,-0.212917,2.265353,0.036659\N,0
 ,1.090805,1.894426,0.005719\C,0,1.261761,0.592095,-0.046416\C,0,0.2153
 54,-0.358286,-0.0548\N,0,0.779273,-1.635541,-0.14854\C,0,2.223405,-1.5
 0794,0.131508\N,0,2.458076,-0.083133,-0.114118\H,0,2.808606,-2.129446,
 -0.551805\H,0,2.472448,-1.792964,1.169192\H,0,-0.397192,3.334229,0.076

 Normal termination of Gaussian 16 at Tue Apr  8 23:31:31 2025.
