 Gaussian 16, Revision C.01,

 ----------------------------------------------------------------------
 #t hf aug-cc-pvdz symm=none int=(grid=ultrafine) guess=(read,tcheck) s
 table=opt
 ----------------------------------------------------------------------
 -----
 title
 -----
 Symbolic Z-matrix:
 Charge =  0 Multiplicity = 2

 SCF Done:  E(UHF) =  -696.369260501     A.U. after   22 cycles
 Normal termination of Gaussian 16 at Tue Apr  8 23:51:19 2025.
 Gaussian 16:  ES64L-G16RevC.01  3-Jul-2019

 ----------------------------------------------------------------------
 #t hf aug-cc-pvdz iop(5/13=1,5/36=2,99/5=2) pseudo=read geom=check gue
 ss=(read,tcheck) scf=(maxcycle=1)
 ----------------------------------------------------------------------
 -----
 title
 -----
 Structure from the checkpoint file:  "BDE49_nonexpt_192_mol2.chk"
 Charge =  0 Multiplicity = 2

                         Standard orientation:
 ---------------------------------------------------------------------
 Center     Atomic      Atomic             Coordinates (Angstroms)
 Number     Number       Type             X           Y           Z
 ---------------------------------------------------------------------
      1         17           0       -1.911285   -0.008808   -0.111544
      2          5           0       -0.381499   -0.008100    0.637018
      3          6           0        1.053095    0.132176    0.078230
      4          8           0        1.643912    1.146093   -0.109882
      5          9           0        1.658832   -1.085730   -0.097685
 ---------------------------------------------------------------------

 SCF Done:  E(UHF) =  -696.466581472     A.U. after    2 cycles

 The electronic state is 2-A.
 Alpha  occ. eigenvalues -- -103.71793 -26.16516 -20.62711 -11.44329 -10.75270
 Alpha  occ. eigenvalues --   -8.40981  -8.40760  -8.40670  -7.75048  -1.70337
 Alpha  occ. eigenvalues --   -1.42620  -1.21606  -0.94860  -0.83622  -0.77799
 Alpha  occ. eigenvalues --   -0.76750  -0.70673  -0.65497  -0.61682  -0.56686
 Alpha  occ. eigenvalues --   -0.54688  -0.53387  -0.39061
 Alpha virt. eigenvalues --    0.02286   0.04007   0.05086   0.05497   0.05981
 Alpha virt. eigenvalues --    0.10264   0.11621   0.12333   0.13227   0.14792
 Alpha virt. eigenvalues --    0.15981   0.16479   0.17615   0.21819   0.22971

  Beta  occ. eigenvalues -- -103.71733 -26.16566 -20.61917 -11.44545 -10.75201
  Beta  occ. eigenvalues --   -8.40938  -8.40717  -8.40465  -7.73028  -1.70478
  Beta  occ. eigenvalues --   -1.41009  -1.20903  -0.93945  -0.82632  -0.77998
  Beta  occ. eigenvalues --   -0.75991  -0.68902  -0.64506  -0.56841  -0.54798
  Beta  occ. eigenvalues --   -0.53756  -0.51586
  Beta virt. eigenvalues --    0.01905   0.04203   0.04652   0.05413   0.06204
  Beta virt. eigenvalues --    0.07188   0.11529   0.11866   0.13535   0.14638
  Beta virt. eigenvalues --    0.15424   0.16067   0.16716   0.17937   0.22639

 Mulliken charges and spin densities:
               1          2
     1  Cl  -0.125829   0.003042
     2  B    0.240970   0.949377
     3  C    0.636041  -0.134670
     4  O   -0.371937   0.182779
     5  F   -0.379244  -0.000528
 Sum of Mulliken charges =  -0.00000   1.00000

 Dipole moment (field-independent basis, Debye):
    X=             -2.4727    Y=             -0.6009    Z=              0.6309  Tot=              2.6217
                          Isotropic Fermi Contact Couplings
        Atom                 a.u.       MegaHertz       Gauss      10(-4) cm-1
     1  Cl(35)             0.05485      24.05123       8.58208       8.02263
     2  B(11)              0.32645     468.25268     167.08420     156.19228
     3  C(13)              0.00305       3.42593       1.22246       1.14277
     4  O(17)              0.06432     -38.98766     -13.91177     -13.00488
     5  F(19)             -0.01121     -47.15425     -16.82581     -15.72897
 --------------------------------------------------------
       Center         ----  Spin Dipole Couplings  ----
                      3XX-RR        3YY-RR        3ZZ-RR

 1\1\GINC-SE342\SP\UHF\Aug-CC-pVDZ\C1B1Cl1F1O1(2)\OHZDE\08-Apr-2025\0\\
 #t hf aug-cc-pvdz iop(5/13=1,5/36=2,99/5=2) pseudo=read geom=check gue
 ss=(read,tcheck) scf=(maxcycle=1)\\title\\0,2\Cl,0,-1.911285,-0.008807
 ,-0.111544\B,0,-0.381499,-0.0081,0.637018\C,0,1.053095,0.132176,0.0782
 3\O,0,1.643912,1.146093,-0.109882\F,0,1.658832,-1.08573,-0.097685\\Ver
 sion=ES64L-G16RevC.01\State=2-A\HF=-696.4665815\S2=0.776226\S2-1=0.\S2
 A=0.750233\RMSD=4.008e-03\Dipole=-0.9728164,-0.2364159,0.2482204\Quadr
 upole=-1.7431958,-0.2420384,1.9852342,-0.9353184,0.9111026,0.2424763\P

 Normal termination of Gaussian 16 at Tue Apr  8 23:51:21 2025.
