 Gaussian 16, Revision C.01,

 ----------------------------------------------------------------------
 #t hf aug-cc-pvdz symm=none int=(grid=ultrafine) guess=(read,tcheck) s
 table=(opt,rrhf)
 ----------------------------------------------------------------------
 -----
 title
 -----
 Symbolic Z-matrix:
 Charge =  0 Multiplicity = 1

 SCF Done:  E(RHF) =  -1755.28848612     A.U. after   17 cycles
 Normal termination of Gaussian 16 at Wed Apr  9 00:52:20 2025.
 Gaussian 16:  ES64L-G16RevC.01  3-Jul-2019

 ----------------------------------------------------------------------
 #t hf aug-cc-pvdz iop(5/13=1,5/36=2,99/5=2) pseudo=read geom=check gue
 ss=(read,tcheck) scf=(maxcycle=1)
 ----------------------------------------------------------------------
 -----
 title
 -----
 Structure from the checkpoint file:  "BDE49_nonexpt_936_mol1.chk"
 Charge =  0 Multiplicity = 1

                         Standard orientation:
 ---------------------------------------------------------------------
 Center     Atomic      Atomic             Coordinates (Angstroms)
 Number     Number       Type             X           Y           Z
 ---------------------------------------------------------------------
      1          6           0        0.520034    0.379345    0.057559
      2          6           0       -0.901161   -0.046203    0.098001
      3          6           0       -1.363628   -0.802431    1.180593
      4          1           0       -0.677676   -1.078401    1.971648
      5          6           0       -2.698221   -1.190746    1.234884
      6          1           0       -3.056120   -1.766885    2.080027
      7          6           0       -3.568416   -0.845653    0.203170
      8          1           0       -4.606625   -1.154701    0.243758
      9          6           0       -3.104462   -0.105889   -0.883987
     10          1           0       -3.778406    0.156444   -1.691008
     11          6           0       -1.776186    0.299863   -0.937386
     12          1           0       -1.414681    0.873520   -1.781317
     13          7           0        1.423425   -0.705200    0.316052
     14          7           0        1.049390    1.534638   -0.068741
     15         17           0        3.116206   -0.253105    0.461825
     16         17           0        1.253898   -1.995917   -0.907132
     17         17           0       -0.042102    2.898095   -0.041239
 ---------------------------------------------------------------------

 SCF Done:  E(RHF) =  -1755.45253738     A.U. after    2 cycles

 The electronic state is 1-A.
 Alpha  occ. eigenvalues -- -103.71683-103.71017-103.68833 -15.77958 -15.70509
 Alpha  occ. eigenvalues --  -11.38257 -11.28442 -11.27405 -11.27376 -11.27083
 Alpha  occ. eigenvalues --  -11.26547 -11.26529 -10.74589 -10.73948 -10.71829
 Alpha  occ. eigenvalues --   -8.40334  -8.39944  -8.39913  -8.39702  -8.39294
 Alpha  occ. eigenvalues --   -8.39267  -8.37579  -8.37198  -8.37192  -1.32917
 Alpha  occ. eigenvalues --   -1.25547  -1.17430  -1.16034  -1.12171  -1.04419
 Alpha  occ. eigenvalues --   -1.03625  -1.00841  -0.87822  -0.85480  -0.77849
 Alpha  occ. eigenvalues --   -0.73039  -0.69092  -0.68143  -0.66285  -0.64199
 Alpha  occ. eigenvalues --   -0.63325  -0.61655  -0.59690  -0.55737  -0.54280
 Alpha  occ. eigenvalues --   -0.53028  -0.52477  -0.52079  -0.50490  -0.49935
 Alpha  occ. eigenvalues --   -0.47727  -0.44895  -0.43061  -0.40192  -0.36248
 Alpha  occ. eigenvalues --   -0.36042
 Alpha virt. eigenvalues --    0.02740   0.03708   0.04142   0.04766   0.05778
 Alpha virt. eigenvalues --    0.06054   0.06648   0.07428   0.07935   0.09039
 Alpha virt. eigenvalues --    0.10343   0.11020   0.11069   0.11217   0.11975

 Mulliken charges:
               1
     1  C    0.122868
     2  C    1.518243
     3  C   -0.029880
     4  H   -0.586514
     5  C    0.541937
     6  H   -0.436054
     7  C    0.600629
     8  H   -0.447252
     9  C    0.664664
    10  H   -0.433691
    11  C   -0.052895
    12  H   -0.613619
    13  N   -0.903228
    14  N   -0.597865
    15  Cl   0.265364
    16  Cl   0.211269
    17  Cl   0.176025
 Sum of Mulliken charges =  -0.00000

 Dipole moment (field-independent basis, Debye):
    X=             -3.0229    Y=             -1.8227    Z=             -0.0117  Tot=              3.5299

 Test job not archived.
 1\1\GINC-SE041\SP\RHF\Aug-CC-pVDZ\C7H5Cl3N2\OHZDE\09-Apr-2025\0\\#t hf
  aug-cc-pvdz iop(5/13=1,5/36=2,99/5=2) pseudo=read geom=check guess=(r
 ead,tcheck) scf=(maxcycle=1)\\title\\0,1\C,0,0.520034,0.379345,0.05755
 9\C,0,-0.901161,-0.046203,0.098001\C,0,-1.363628,-0.802431,1.180593\H,
 0,-0.677676,-1.078401,1.971648\C,0,-2.698221,-1.190746,1.234884\H,0,-3
 .05612,-1.766885,2.080027\C,0,-3.568416,-0.845653,0.20317\H,0,-4.60662
 5,-1.154701,0.243758\C,0,-3.104462,-0.105889,-0.883987\H,0,-3.778406,0
 .156444,-1.691008\C,0,-1.776186,0.299863,-0.937386\H,0,-1.414681,0.873

 Normal termination of Gaussian 16 at Wed Apr  9 00:52:34 2025.
