 Gaussian 16, Revision C.01,

 ----------------------------------------------------------------------
 #t hf aug-cc-pvdz symm=none int=(grid=ultrafine) guess=(read,tcheck) s
 table=(opt,rrhf)
 ----------------------------------------------------------------------
 -----
 title
 -----
 Symbolic Z-matrix:
 Charge =  0 Multiplicity = 1

 SCF Done:  E(RHF) =  -1046.70361683     A.U. after   16 cycles
 Normal termination of Gaussian 16 at Tue Apr  8 23:19:56 2025.
 Gaussian 16:  ES64L-G16RevC.01  3-Jul-2019

 ----------------------------------------------------------------------
 #t hf aug-cc-pvdz iop(5/13=1,5/36=2,99/5=2) pseudo=read geom=check gue
 ss=(read,tcheck) scf=(maxcycle=1)
 ----------------------------------------------------------------------
 -----
 title
 -----
 Structure from the checkpoint file:  "BDE49_nonexpt_1149_mol1.chk"
 Charge =  0 Multiplicity = 1

                         Standard orientation:
 ---------------------------------------------------------------------
 Center     Atomic      Atomic             Coordinates (Angstroms)
 Number     Number       Type             X           Y           Z
 ---------------------------------------------------------------------
      1          9           0        2.211679   -0.973652    0.000161
      2          8           0        1.599863    0.427245    0.000059
      3          6           0        0.268416    0.355856   -0.000205
      4         16           0       -0.390693    1.857149    0.000083
      5         16           0       -0.447071   -1.228160   -0.000140
      6          6           0       -2.208189   -0.781433    0.000016
      7          1           0       -2.737965   -1.735052    0.000059
      8          1           0       -2.461663   -0.215198   -0.894354
      9          1           0       -2.461512   -0.215204    0.894432
 ---------------------------------------------------------------------

 SCF Done:  E(RHF) =  -1046.82631602     A.U. after    2 cycles

 The electronic state is 1-A.
 Alpha  occ. eigenvalues --  -93.60108 -93.53396 -26.19108 -20.77442 -11.44463
 Alpha  occ. eigenvalues --  -11.29867  -8.89861  -8.83343  -6.24003  -6.23738
 Alpha  occ. eigenvalues --   -6.23422  -6.17543  -6.17024  -6.16930  -1.67492
 Alpha  occ. eigenvalues --   -1.42628  -1.11313  -1.02098  -0.93693  -0.83921
 Alpha  occ. eigenvalues --   -0.78985  -0.75879  -0.72008  -0.67222  -0.65466
 Alpha  occ. eigenvalues --   -0.62517  -0.59802  -0.56391  -0.49611  -0.45279
 Alpha  occ. eigenvalues --   -0.37135  -0.36907
 Alpha virt. eigenvalues --    0.02030   0.03015   0.04314   0.05456   0.06050
 Alpha virt. eigenvalues --    0.07329   0.08696   0.09993   0.12237   0.12875
 Alpha virt. eigenvalues --    0.13008   0.13527   0.14871   0.15281   0.17020

 Mulliken charges:
               1
     1  F   -0.338632
     2  O   -0.078142
     3  C   -0.122269
     4  S    0.040810
     5  S    0.572541
     6  C    0.065311
     7  H   -0.110641
     8  H   -0.014492
     9  H   -0.014486
 Sum of Mulliken charges =  -0.00000

 Dipole moment (field-independent basis, Debye):
    X=             -3.5759    Y=             -1.3386    Z=             -0.0002  Tot=              3.8182

 Test job not archived.
 1\1\GINC-SE049\SP\RHF\Aug-CC-pVDZ\C2H3F1O1S2\OHZDE\08-Apr-2025\0\\#t h
 f aug-cc-pvdz iop(5/13=1,5/36=2,99/5=2) pseudo=read geom=check guess=(
 read,tcheck) scf=(maxcycle=1)\\title\\0,1\F,0,2.211679,-0.973654,0.000
 161\O,0,1.599863,0.427244,0.000059\C,0,0.268416,0.355856,-0.000205\S,0
 ,-0.390692,1.857149,0.000083\S,0,-0.447072,-1.22816,-0.00014\C,0,-2.20
 8189,-0.781432,0.000016\H,0,-2.737966,-1.735051,0.000059\H,0,-2.461663
 ,-0.215197,-0.894354\H,0,-2.461512,-0.215203,0.894432\\Version=ES64L-G
 16RevC.01\State=1-A\HF=-1046.826316\RMSD=5.245e-03\Dipole=-1.4068529,-

 Normal termination of Gaussian 16 at Tue Apr  8 23:19:59 2025.
