 Gaussian 16, Revision C.01,

 ----------------------------------------------------------------------
 #t hf aug-cc-pvdz symm=none int=(grid=ultrafine) guess=(read,tcheck) s
 table=opt
 ----------------------------------------------------------------------
 -----
 title
 -----
 Symbolic Z-matrix:
 Charge =  0 Multiplicity = 2

 SCF Done:  E(UHF) =  -1528.67035907     A.U. after   19 cycles
 Normal termination of Gaussian 16 at Tue Apr  8 23:42:22 2025.
 Gaussian 16:  ES64L-G16RevC.01  3-Jul-2019

 ----------------------------------------------------------------------
 #t hf aug-cc-pvdz iop(5/13=1,5/36=2,99/5=2) pseudo=read geom=check gue
 ss=(read,tcheck) scf=(maxcycle=1)
 ----------------------------------------------------------------------
 -----
 title
 -----
 Structure from the checkpoint file:  "BDE49_nonexpt_1702_mol2.chk"
 Charge =  0 Multiplicity = 2

                         Standard orientation:
 ---------------------------------------------------------------------
 Center     Atomic      Atomic             Coordinates (Angstroms)
 Number     Number       Type             X           Y           Z
 ---------------------------------------------------------------------
      1         16           0        2.070198   -0.598756    0.000000
      2          8           0        1.010656    0.680626   -0.000000
      3          6           0       -0.366977    0.462785   -0.000000
      4          9           0       -0.907129    1.682134   -0.000000
      5         17           0       -0.907129   -0.405319    1.472358
      6         17           0       -0.907129   -0.405319   -1.472358
 ---------------------------------------------------------------------

 SCF Done:  E(UHF) =  -1528.80222739     A.U. after    2 cycles

 The electronic state is 2-A".
 Alpha  occ. eigenvalues -- -103.70019-103.70018 -93.64134 -26.18793 -20.68306
 Alpha  occ. eigenvalues --  -11.54702 -10.73378 -10.73362  -8.93212  -8.39102
 Alpha  occ. eigenvalues --   -8.39096  -8.38747  -8.38747  -8.38742  -8.38740
 Alpha  occ. eigenvalues --   -6.28414  -6.27007  -6.26279  -1.74269  -1.43973
 Alpha  occ. eigenvalues --   -1.22839  -1.17484  -1.03130  -0.91846  -0.82243
 Alpha  occ. eigenvalues --   -0.81175  -0.80008  -0.70741  -0.67314  -0.62955
 Alpha  occ. eigenvalues --   -0.57614  -0.53206  -0.51777  -0.50252  -0.48348
 Alpha  occ. eigenvalues --   -0.45972  -0.41688
 Alpha virt. eigenvalues --    0.05226   0.06460   0.08032   0.08896   0.10413
 Alpha virt. eigenvalues --    0.10947   0.11990   0.12601   0.12710   0.14407
 Alpha virt. eigenvalues --    0.15953   0.16756   0.17805   0.18517   0.18589

  Beta  occ. eigenvalues -- -103.70014-103.70012 -93.63241 -26.18803 -20.67789
  Beta  occ. eigenvalues --  -11.54744 -10.73373 -10.73357  -8.92218  -8.39075
  Beta  occ. eigenvalues --   -8.39069  -8.38744  -8.38744  -8.38737  -8.38737
  Beta  occ. eigenvalues --   -6.26597  -6.25743  -6.24391  -1.74289  -1.42579
  Beta  occ. eigenvalues --   -1.22660  -1.17424  -1.00081  -0.89083  -0.82039
  Beta  occ. eigenvalues --   -0.80275  -0.78381  -0.67217  -0.66412  -0.61136
  Beta  occ. eigenvalues --   -0.55192  -0.53151  -0.51733  -0.49986  -0.48315
  Beta  occ. eigenvalues --   -0.39610
  Beta virt. eigenvalues --   -0.00893   0.05747   0.06676   0.08230   0.09064
  Beta virt. eigenvalues --    0.10460   0.11075   0.12552   0.12817   0.14218
  Beta virt. eigenvalues --    0.14626   0.16471   0.17080   0.17950   0.18619

 Mulliken charges and spin densities:
               1          2
     1  S    0.507250   0.978105
     2  O   -0.710908   0.023524
     3  C    0.386331  -0.012122
     4  F   -0.201807  -0.000053
     5  Cl   0.009567   0.005273
     6  Cl   0.009567   0.005273
 Sum of Mulliken charges =  -0.00000   1.00000

 Dipole moment (field-independent basis, Debye):
    X=              0.9162    Y=             -1.5320    Z=              0.0000  Tot=              1.7850
                          Isotropic Fermi Contact Couplings
        Atom                 a.u.       MegaHertz       Gauss      10(-4) cm-1
     1  S(33)              0.21503      73.85537      26.35343      24.63550
     2  O(17)              0.05545     -33.61589     -11.99499     -11.21306
     3  C(13)             -0.00833      -9.36853      -3.34292      -3.12501
     4  F(19)             -0.00181      -7.61838      -2.71843      -2.54122
     5  Cl(35)            -0.00375      -1.64361      -0.58648      -0.54825
     6  Cl(35)            -0.00375      -1.64361      -0.58648      -0.54825
 --------------------------------------------------------
       Center         ----  Spin Dipole Couplings  ----

 1\1\GINC-SE398\SP\UHF\Aug-CC-pVDZ\C1Cl2F1O1S1(2)\OHZDE\08-Apr-2025\0\\
 #t hf aug-cc-pvdz iop(5/13=1,5/36=2,99/5=2) pseudo=read geom=check gue
 ss=(read,tcheck) scf=(maxcycle=1)\\title\\0,2\S,0,2.150706,0.,-0.13672
 4\O,0,0.839481,0.,0.883147\C,0,-0.458403,0.,0.372436\F,0,-1.24955,0.,1
 .446058\Cl,0,-0.797964,-1.472358,-0.591963\Cl,0,-0.797964,1.472358,-0.
 591963\\Version=ES64L-G16RevC.01\State=2-A"\HF=-1528.8022274\S2=0.7634
 28\S2-1=0.\S2A=0.750054\RMSD=3.953e-03\Dipole=0.4823044,0.,-0.5104844\
 Quadrupole=1.0108396,1.1835933,-2.1944329,0.,-0.7156333,0.\PG=CS [SG(C

 Normal termination of Gaussian 16 at Tue Apr  8 23:42:25 2025.
