 Gaussian 16, Revision C.01,

 ----------------------------------------------------------------------
 #t hf aug-cc-pvdz symm=none int=(grid=ultrafine) guess=(read,tcheck) s
 table=(opt,rrhf)
 ----------------------------------------------------------------------
 -----
 title
 -----
 Symbolic Z-matrix:
 Charge =  0 Multiplicity = 1

 SCF Done:  E(RHF) =  -1076.91636628     A.U. after   17 cycles
 Normal termination of Gaussian 16 at Wed Apr  9 00:47:35 2025.
 Gaussian 16:  ES64L-G16RevC.01  3-Jul-2019

 ----------------------------------------------------------------------
 #t hf aug-cc-pvdz iop(5/13=1,5/36=2,99/5=2) pseudo=read geom=check gue
 ss=(read,tcheck) scf=(maxcycle=1)
 ----------------------------------------------------------------------
 -----
 title
 -----
 Structure from the checkpoint file:  "BDE49_nonexpt_854_mol1.chk"
 Charge =  0 Multiplicity = 1

                         Standard orientation:
 ---------------------------------------------------------------------
 Center     Atomic      Atomic             Coordinates (Angstroms)
 Number     Number       Type             X           Y           Z
 ---------------------------------------------------------------------
      1         14           0        0.013167   -0.082293    0.020817
      2          7           0       -0.966996   -0.977981   -1.262600
      3          5           0        2.017032   -0.438151    0.080467
      4          7           0       -0.913893   -0.303527    1.608447
      5          8           0       -0.820311   -1.489712    1.935780
      6          8           0        2.866333    0.600829    0.149539
      7          8           0       -0.380696   -0.772745   -2.334364
      8          8           0        2.384871   -1.730175    0.042958
      9          8           0       -1.979046   -1.621850   -1.105630
     10          8           0       -1.497776    0.572148    2.215477
     11          7           0       -0.297711    1.709434   -0.405450
     12          8           0        0.632350    2.434493   -0.012337
     13          8           0       -1.304450    2.100618   -0.953199
     14          1           0        3.341011   -1.868898    0.061738
     15          1           0        2.429487    1.467433    0.155914
 ---------------------------------------------------------------------

 SCF Done:  E(RHF) =  -1077.18967223     A.U. after    2 cycles

 The electronic state is 1-A.
 Alpha  occ. eigenvalues --  -69.25571 -20.68338 -20.67722 -20.67400 -20.66926
 Alpha  occ. eigenvalues --  -20.66799 -20.66661 -20.64729 -20.64482 -15.94293
 Alpha  occ. eigenvalues --  -15.94045 -15.93919  -7.75149  -7.00089  -4.10847
 Alpha  occ. eigenvalues --   -4.10834  -4.10581  -1.59390  -1.58613  -1.58409
 Alpha  occ. eigenvalues --   -1.41527  -1.41327  -1.41167  -1.40805  -1.37735
 Alpha  occ. eigenvalues --   -1.04219  -0.97199  -0.96952  -0.86391  -0.85416
 Alpha  occ. eigenvalues --   -0.82965  -0.82741  -0.81811  -0.78550  -0.78019
 Alpha  occ. eigenvalues --   -0.77900  -0.76131  -0.76073  -0.75433  -0.70824
 Alpha  occ. eigenvalues --   -0.65493  -0.65191  -0.60066  -0.58322  -0.57817
 Alpha  occ. eigenvalues --   -0.57662  -0.56865  -0.52640  -0.52326  -0.52027
 Alpha  occ. eigenvalues --   -0.51615  -0.51339  -0.51159
 Alpha virt. eigenvalues --   -0.00404   0.01061   0.01438   0.02109   0.04266
 Alpha virt. eigenvalues --    0.04581   0.05618   0.06526   0.06592   0.06931
 Alpha virt. eigenvalues --    0.08034   0.08354   0.09487   0.11102   0.13203

 Mulliken charges:
               1
     1  Si   1.989617
     2  N    0.270422
     3  B    0.814728
     4  N    0.260275
     5  O   -0.546187
     6  O   -0.499984
     7  O   -0.573158
     8  O   -0.418463
     9  O   -0.457454
    10  O   -0.498243
    11  N    0.199242
    12  O   -0.600590
    13  O   -0.452461
    14  H    0.219873
    15  H    0.292383
 Sum of Mulliken charges =  -0.00000

 Dipole moment (field-independent basis, Debye):
    X=              5.0030    Y=             -0.5559    Z=              0.3475  Tot=              5.0457

 Test job not archived.
 1\1\GINC-SE362\SP\RHF\Aug-CC-pVDZ\B1H2N3O8Si1\OHZDE\09-Apr-2025\0\\#t
 hf aug-cc-pvdz iop(5/13=1,5/36=2,99/5=2) pseudo=read geom=check guess=
 (read,tcheck) scf=(maxcycle=1)\\title\\0,1\Si,0,0.013167,-0.082293,0.0
 20817\N,0,-0.966996,-0.977981,-1.2626\B,0,2.017032,-0.438152,0.080467\
 N,0,-0.913893,-0.303527,1.608447\O,0,-0.820311,-1.489712,1.93578\O,0,2
 .866333,0.600828,0.149539\O,0,-0.380696,-0.772745,-2.334364\O,0,2.3848
 7,-1.730176,0.042958\O,0,-1.979046,-1.621849,-1.10563\O,0,-1.497776,0.
 572149,2.215477\N,0,-0.29771,1.709434,-0.40545\O,0,0.632351,2.434493,-

 Normal termination of Gaussian 16 at Wed Apr  9 00:47:44 2025.
