 Gaussian 16, Revision C.01,

 ----------------------------------------------------------------------
 #t hf aug-cc-pvdz symm=none int=(grid=ultrafine) guess=(read,tcheck) s
 table=(opt,rrhf)
 ----------------------------------------------------------------------
 -----
 title
 -----
 Symbolic Z-matrix:
 Charge =  0 Multiplicity = 1

 SCF Done:  E(RHF) =  -683.120264233     A.U. after   13 cycles
 Normal termination of Gaussian 16 at Tue Apr  8 23:26:23 2025.
 Gaussian 16:  ES64L-G16RevC.01  3-Jul-2019

 ----------------------------------------------------------------------
 #t hf aug-cc-pvdz iop(5/13=1,5/36=2,99/5=2) pseudo=read geom=check gue
 ss=(read,tcheck) scf=(maxcycle=1)
 ----------------------------------------------------------------------
 -----
 title
 -----
 Structure from the checkpoint file:  "BDE49_nonexpt_1310_mol1.chk"
 Charge =  0 Multiplicity = 1

                         Standard orientation:
 ---------------------------------------------------------------------
 Center     Atomic      Atomic             Coordinates (Angstroms)
 Number     Number       Type             X           Y           Z
 ---------------------------------------------------------------------
      1          6           0        0.810279   -0.507035    0.189956
      2         15           0       -0.847426    0.090464   -0.056000
      3          8           0       -0.971101    1.453723   -0.591553
      4          8           0       -1.617474   -0.105177    1.356166
      5          6           0        1.859105    0.262988   -0.108383
      6          1           0        0.929356   -1.506630    0.598840
      7          6           0        3.294408   -0.120094    0.069550
      8          1           0        1.661912    1.251387   -0.518380
      9          1           0        3.403498   -1.124169    0.483823
     10          1           0        3.801663    0.588545    0.733305
     11          1           0        3.822219   -0.079273   -0.889405
     12          1           0       -1.708203    0.740638    1.810888
     13          8           0       -1.483145   -1.109332   -0.908075
     14          1           0       -2.408042   -0.956340   -1.138109
 ---------------------------------------------------------------------

 SCF Done:  E(RHF) =  -683.295407148     A.U. after    2 cycles

 The electronic state is 1-A.
 Alpha  occ. eigenvalues --  -81.41061 -20.61043 -20.60713 -20.51836 -11.27919
 Alpha  occ. eigenvalues --  -11.25164 -11.24867  -7.89417  -5.04087  -5.03953
 Alpha  occ. eigenvalues --   -5.03719  -1.37320  -1.33846  -1.25267  -1.08657
 Alpha  occ. eigenvalues --   -0.96331  -0.85068  -0.77166  -0.75445  -0.68631
 Alpha  occ. eigenvalues --   -0.67091  -0.63544  -0.61764  -0.59613  -0.58812
 Alpha  occ. eigenvalues --   -0.57362  -0.56394  -0.53712  -0.50874  -0.48339
 Alpha  occ. eigenvalues --   -0.46877  -0.39368
 Alpha virt. eigenvalues --    0.03086   0.04100   0.05001   0.05163   0.05970
 Alpha virt. eigenvalues --    0.06734   0.07833   0.10096   0.10354   0.11198
 Alpha virt. eigenvalues --    0.12085   0.12689   0.14007   0.14217   0.14688

 Mulliken charges:
               1
     1  C    0.367587
     2  P    2.256792
     3  O   -0.938765
     4  O   -0.718000
     5  C    0.127618
     6  H   -0.478612
     7  C    0.209011
     8  H   -0.430317
     9  H   -0.112911
    10  H    0.068275
    11  H    0.073336
    12  H    0.144641
    13  O   -0.732827
    14  H    0.164173
 Sum of Mulliken charges =  -0.00000

 Dipole moment (field-independent basis, Debye):
    X=              1.4759    Y=             -1.2388    Z=              1.4196  Tot=              2.3934

 Test job not archived.
 1\1\GINC-SE159\SP\RHF\Aug-CC-pVDZ\C3H7O3P1\OHZDE\08-Apr-2025\0\\#t hf
 aug-cc-pvdz iop(5/13=1,5/36=2,99/5=2) pseudo=read geom=check guess=(re
 ad,tcheck) scf=(maxcycle=1)\\title\\0,1\C,0,0.810279,-0.507035,0.18995
 6\P,0,-0.847426,0.090464,-0.056\O,0,-0.971101,1.453723,-0.591553\O,0,-
 1.617474,-0.105177,1.356166\C,0,1.859105,0.262988,-0.108383\H,0,0.9293
 56,-1.50663,0.59884\C,0,3.294408,-0.120094,0.06955\H,0,1.661912,1.2513
 87,-0.51838\H,0,3.403498,-1.124169,0.483823\H,0,3.801663,0.588545,0.73
 3305\H,0,3.822219,-0.079273,-0.889405\H,0,-1.708203,0.740638,1.810888\

 Normal termination of Gaussian 16 at Tue Apr  8 23:26:28 2025.
