 Gaussian 16, Revision C.01,

 ----------------------------------------------------------------------
 #t hf aug-cc-pvdz symm=none int=(grid=ultrafine) guess=(read,tcheck) s
 table=opt
 ----------------------------------------------------------------------
 -----
 title
 -----
 Symbolic Z-matrix:
 Charge =  0 Multiplicity = 2

 SCF Done:  E(UHF) =  -989.624694159     A.U. after   19 cycles
 Normal termination of Gaussian 16 at Tue Apr  8 23:03:54 2025.
 Gaussian 16:  ES64L-G16RevC.01  3-Jul-2019

 ----------------------------------------------------------------------
 #t hf aug-cc-pvdz iop(5/13=1,5/36=2,99/5=2) pseudo=read geom=check gue
 ss=(read,tcheck) scf=(maxcycle=1)
 ----------------------------------------------------------------------
 -----
 title
 -----
 Structure from the checkpoint file:  "BDE49_expt_379_mol2.chk"
 Charge =  0 Multiplicity = 2

                         Standard orientation:
 ---------------------------------------------------------------------
 Center     Atomic      Atomic             Coordinates (Angstroms)
 Number     Number       Type             X           Y           Z
 ---------------------------------------------------------------------
      1         16           0        0.275285   -1.442329   -0.392413
      2          6           0        1.801099   -0.663731    0.288814
      3          6           0        1.744681    0.792359   -0.015253
      4          1           0        2.656632   -1.148489   -0.188070
      5          1           0        1.853412   -0.876761    1.363803
      6         16           0        0.192049    1.517050   -0.195469
      7          1           0        2.609941    1.379789   -0.288571
      8          6           0       -0.825297   -0.034040    0.072223
      9          6           0       -2.031549   -0.004964   -0.869864
     10          1           0       -1.718518    0.056161   -1.912210
     11          1           0       -2.670606    0.853078   -0.643019
     12          1           0       -2.632493   -0.908899   -0.735616
     13          6           0       -1.262659   -0.114055    1.539335
     14          1           0       -0.405833   -0.141730    2.213801
     15          1           0       -1.856608   -1.017864    1.700390
     16          1           0       -1.870928    0.755763    1.804065
 ---------------------------------------------------------------------

 SCF Done:  E(UHF) =  -989.723175707     A.U. after    2 cycles

 The electronic state is 2-A.
 Alpha  occ. eigenvalues --  -93.54155 -93.53349 -11.31798 -11.28217 -11.27126
 Alpha  occ. eigenvalues --  -11.24329 -11.24030  -8.83936  -8.83073  -6.18020
 Alpha  occ. eigenvalues --   -6.17839  -6.17769  -6.17259  -6.17033  -6.16667
 Alpha  occ. eigenvalues --   -1.13809  -1.05669  -0.97713  -0.94792  -0.90135
 Alpha  occ. eigenvalues --   -0.78807  -0.73253  -0.64976  -0.63047  -0.60941
 Alpha  occ. eigenvalues --   -0.60199  -0.58138  -0.55791  -0.51543  -0.50672
 Alpha  occ. eigenvalues --   -0.48805  -0.47370  -0.44136  -0.40997  -0.34665
 Alpha  occ. eigenvalues --   -0.29362
 Alpha virt. eigenvalues --    0.03592   0.04124   0.04956   0.05291   0.06155
 Alpha virt. eigenvalues --    0.06415   0.07082   0.07788   0.08833   0.09315
 Alpha virt. eigenvalues --    0.11067   0.11553   0.12664   0.13108   0.13848

  Beta  occ. eigenvalues --  -93.54084 -93.53307 -11.31812 -11.28573 -11.24603
  Beta  occ. eigenvalues --  -11.24328 -11.24021  -8.83857  -8.83026  -6.18112
  Beta  occ. eigenvalues --   -6.17869  -6.17258  -6.17124  -6.16966  -6.16643
  Beta  occ. eigenvalues --   -1.12676  -1.03796  -0.96457  -0.94758  -0.88976
  Beta  occ. eigenvalues --   -0.75792  -0.72437  -0.63985  -0.61859  -0.60661
  Beta  occ. eigenvalues --   -0.59448  -0.57485  -0.55658  -0.51349  -0.49122
  Beta  occ. eigenvalues --   -0.47231  -0.47072  -0.41758  -0.36603  -0.34303
  Beta virt. eigenvalues --    0.03619   0.04137   0.04974   0.05301   0.06183
  Beta virt. eigenvalues --    0.06402   0.07045   0.07789   0.08853   0.09144
  Beta virt. eigenvalues --    0.09324   0.11128   0.12141   0.12721   0.13666

 Mulliken charges and spin densities:
               1          2
     1  S    0.413080   0.042095
     2  C   -0.168502  -0.240204
     3  C    0.054802   1.292771
     4  H   -0.093693   0.010291
     5  H   -0.021991   0.030537
     6  S    0.464576   0.016752
     7  H   -0.366106  -0.101691
     8  C   -1.521654  -0.067605
     9  C    0.980672   0.000468
    10  H   -0.058489   0.001499
    11  H   -0.018788  -0.002626
    12  H   -0.022862   0.000356
    13  C    0.520209   0.019754
    14  H   -0.140507  -0.002463
    15  H   -0.018118  -0.000083
    16  H   -0.002626   0.000148
 Sum of Mulliken charges =   0.00000   1.00000

 Dipole moment (field-independent basis, Debye):
    X=              0.1814    Y=             -0.1606    Z=              0.8958  Tot=              0.9279
                          Isotropic Fermi Contact Couplings
        Atom                 a.u.       MegaHertz       Gauss      10(-4) cm-1
     1  S(33)              0.01277       4.38664       1.56526       1.46322
     2  C(13)             -0.06471     -72.74399     -25.95686     -24.26478
     3  C(13)              0.23604     265.35059      94.68369      88.51143
     4  H(1)               0.00705      31.53300      11.25176      10.51828
     5  H(1)               0.02096      93.68193      33.42804      31.24893
     6  S(33)              0.03594      12.34603       4.40537       4.11819
     7  H(1)              -0.02444    -109.23370     -38.97730     -36.43644
     8  C(13)             -0.00071      -0.79901      -0.28511      -0.26652

 Normal termination of Gaussian 16 at Tue Apr  8 23:04:01 2025.
