 Gaussian 16, Revision C.01,

 ----------------------------------------------------------------------
 #t hf aug-cc-pvdz symm=none int=(grid=ultrafine) guess=(read,tcheck) s
 table=(opt,rrhf)
 ----------------------------------------------------------------------
 -----
 title
 -----
 Symbolic Z-matrix:
 Charge =  0 Multiplicity = 1

 SCF Done:  E(RHF) =  -1234.45717760     A.U. after   17 cycles
 Normal termination of Gaussian 16 at Tue Apr  8 23:32:25 2025.
 Gaussian 16:  ES64L-G16RevC.01  3-Jul-2019

 ----------------------------------------------------------------------
 #t hf aug-cc-pvdz iop(5/13=1,5/36=2,99/5=2) pseudo=read geom=check gue
 ss=(read,tcheck) scf=(maxcycle=1)
 ----------------------------------------------------------------------
 -----
 title
 -----
 Structure from the checkpoint file:  "BDE49_nonexpt_1438_mol1.chk"
 Charge =  0 Multiplicity = 1

                         Standard orientation:
 ---------------------------------------------------------------------
 Center     Atomic      Atomic             Coordinates (Angstroms)
 Number     Number       Type             X           Y           Z
 ---------------------------------------------------------------------
      1          6           0       -1.473924   -1.545382   -0.001741
      2          6           0       -0.119810   -1.851053    0.006810
      3          6           0        0.875537   -0.859242    0.024709
      4          6           0       -1.877705   -0.211362    0.004896
      5          6           0       -0.938986    0.805422    0.012320
      6          6           0        0.412029    0.464970    0.015717
      7          1           0        0.174919   -2.893146    0.008927
      8         15           0        2.652902   -1.347324   -0.134438
      9          1           0       -2.214543   -2.334728   -0.006356
     10          1           0       -1.224669    1.846872    0.010775
     11          7           0        1.369610    1.588447    0.009312
     12          8           0        2.561175    1.306146    0.110945
     13          8           0        0.935051    2.723817   -0.101217
     14         17           0       -3.581316    0.181707    0.006869
     15          1           0        2.416731   -2.703575    0.221773
     16          1           0        3.116475   -0.973539    1.145408
 ---------------------------------------------------------------------

 SCF Done:  E(RHF) =  -1234.62354109     A.U. after    2 cycles

 The electronic state is 1-A.
 Alpha  occ. eigenvalues -- -103.68982 -81.28162 -20.63304 -20.63271 -15.93476
 Alpha  occ. eigenvalues --  -11.34383 -11.34035 -11.30879 -11.30149 -11.29934
 Alpha  occ. eigenvalues --  -11.29129 -10.72245  -8.37985  -8.37670  -8.37652
 Alpha  occ. eigenvalues --   -7.78405  -4.92490  -4.92386  -4.92043  -1.56498
 Alpha  occ. eigenvalues --   -1.38091  -1.23204  -1.17869  -1.09661  -1.04818
 Alpha  occ. eigenvalues --   -0.97545  -0.87905  -0.84931  -0.82856  -0.76958
 Alpha  occ. eigenvalues --   -0.74939  -0.74222  -0.70163  -0.69713  -0.65964
 Alpha  occ. eigenvalues --   -0.60317  -0.58309  -0.57343  -0.55355  -0.53317
 Alpha  occ. eigenvalues --   -0.52559  -0.51038  -0.50148  -0.49124  -0.49027
 Alpha  occ. eigenvalues --   -0.40439  -0.39734  -0.34484
 Alpha virt. eigenvalues --    0.01686   0.02658   0.04193   0.04581   0.05801
 Alpha virt. eigenvalues --    0.06155   0.07083   0.08388   0.09155   0.09299
 Alpha virt. eigenvalues --    0.10109   0.10977   0.11328   0.12087   0.12569

 Mulliken charges:
               1
     1  C    0.625116
     2  C    1.264456
     3  C   -1.141706
     4  C   -0.391371
     5  C    0.614222
     6  C    1.662856
     7  H   -0.595931
     8  P   -0.022213
     9  H   -0.437305
    10  H   -0.428262
    11  N    0.010504
    12  O   -0.552008
    13  O   -0.547518
    14  Cl  -0.341896
    15  H    0.114747
    16  H    0.166309
 Sum of Mulliken charges =  -0.00000

 Dipole moment (field-independent basis, Debye):
    X=             -1.7880    Y=             -4.0426    Z=              0.5698  Tot=              4.4569

 Test job not archived.
 1\1\GINC-SE368\SP\RHF\Aug-CC-pVDZ\C6H5Cl1N1O2P1\OHZDE\08-Apr-2025\0\\#
 t hf aug-cc-pvdz iop(5/13=1,5/36=2,99/5=2) pseudo=read geom=check gues
 s=(read,tcheck) scf=(maxcycle=1)\\title\\0,1\C,0,-1.473924,-1.545382,-
 0.001741\C,0,-0.11981,-1.851053,0.00681\C,0,0.875537,-0.859242,0.02470
 9\C,0,-1.877705,-0.211362,0.004896\C,0,-0.938986,0.805422,0.01232\C,0,
 0.412029,0.46497,0.015717\H,0,0.174919,-2.893146,0.008927\P,0,2.652902
 ,-1.347324,-0.134438\H,0,-2.214543,-2.334728,-0.006356\H,0,-1.224669,1
 .846872,0.010775\N,0,1.36961,1.588447,0.009312\O,0,2.561175,1.306146,0

 Normal termination of Gaussian 16 at Tue Apr  8 23:32:33 2025.
