 Gaussian 16, Revision C.01,

 ----------------------------------------------------------------------
 #t hf aug-cc-pvdz symm=none int=(grid=ultrafine) guess=(read,tcheck) s
 table=(opt,rrhf)
 ----------------------------------------------------------------------
 -----
 title
 -----
 Symbolic Z-matrix:
 Charge =  0 Multiplicity = 1

 SCF Done:  E(RHF) =  -1201.06258742     A.U. after   15 cycles
 Normal termination of Gaussian 16 at Tue Apr  8 23:52:30 2025.
 Gaussian 16:  ES64L-G16RevC.01  3-Jul-2019

 ----------------------------------------------------------------------
 #t hf aug-cc-pvdz iop(5/13=1,5/36=2,99/5=2) pseudo=read geom=check gue
 ss=(read,tcheck) scf=(maxcycle=1)
 ----------------------------------------------------------------------
 -----
 title
 -----
 Structure from the checkpoint file:  "BDE49_nonexpt_1938_mol1.chk"
 Charge =  0 Multiplicity = 1

                         Standard orientation:
 ---------------------------------------------------------------------
 Center     Atomic      Atomic             Coordinates (Angstroms)
 Number     Number       Type             X           Y           Z
 ---------------------------------------------------------------------
      1          6           0       -0.694218    0.539712    1.016558
      2         14           0        0.559492    1.407331   -0.117726
      3          6           0        2.039404    0.306398   -0.534398
      4          1           0        1.091121    2.605459    0.577341
      5          1           0       -0.079857    1.826131   -1.385024
      6         16           0        2.319327   -1.174163    0.070524
      7          1           0        2.772732    0.718464   -1.235639
      8          6           0       -1.414513   -0.572859    0.346221
      9         16           0       -2.869618   -0.479543   -0.372364
     10          1           0       -0.877001   -1.522442    0.332410
     11          1           0       -1.391675    1.318096    1.338663
     12          1           0       -0.127573    0.171466    1.879570
 ---------------------------------------------------------------------

 SCF Done:  E(RHF) =  -1201.15719933     A.U. after    2 cycles

 The electronic state is 1-A.
 Alpha  occ. eigenvalues --  -93.55083 -93.51836 -69.10025 -11.33522 -11.32745
 Alpha  occ. eigenvalues --  -11.25988  -8.84868  -8.81721  -6.85268  -6.18953
 Alpha  occ. eigenvalues --   -6.18714  -6.18390  -6.15873  -6.15534  -6.15255
 Alpha  occ. eigenvalues --   -3.96068  -3.96023  -3.96011  -1.09071  -1.05867
 Alpha  occ. eigenvalues --   -0.95200  -0.81400  -0.77390  -0.70133  -0.64233
 Alpha  occ. eigenvalues --   -0.59888  -0.57233  -0.53369  -0.51610  -0.50439
 Alpha  occ. eigenvalues --   -0.50188  -0.42410  -0.38448  -0.35310  -0.33803
 Alpha virt. eigenvalues --    0.01466   0.02794   0.04122   0.04592   0.04883
 Alpha virt. eigenvalues --    0.05590   0.06589   0.07215   0.07422   0.08268
 Alpha virt. eigenvalues --    0.09166   0.09638   0.10679   0.12216   0.13817

 Mulliken charges:
               1
     1  C    0.052411
     2  Si   0.851657
     3  C   -0.243298
     4  H   -0.017938
     5  H    0.067367
     6  S    0.084978
     7  H   -0.365667
     8  C    0.080475
     9  S    0.034344
    10  H   -0.317154
    11  H   -0.179368
    12  H   -0.047806
 Sum of Mulliken charges =  -0.00000

 Dipole moment (field-independent basis, Debye):
    X=              2.2419    Y=              1.9456    Z=              0.8084  Tot=              3.0765

 Test job not archived.
 1\1\GINC-SE106\SP\RHF\Aug-CC-pVDZ\C3H6S2Si1\OHZDE\08-Apr-2025\0\\#t hf
  aug-cc-pvdz iop(5/13=1,5/36=2,99/5=2) pseudo=read geom=check guess=(r
 ead,tcheck) scf=(maxcycle=1)\\title\\0,1\C,0,-0.694218,0.539712,1.0165
 58\Si,0,0.559492,1.407331,-0.117726\C,0,2.039404,0.306398,-0.534398\H,
 0,1.091121,2.605459,0.577341\H,0,-0.079857,1.826131,-1.385024\S,0,2.31
 9327,-1.174163,0.070524\H,0,2.772732,0.718464,-1.235639\C,0,-1.414513,
 -0.572859,0.346221\S,0,-2.869618,-0.479543,-0.372364\H,0,-0.877001,-1.
 522442,0.33241\H,0,-1.391675,1.318096,1.338663\H,0,-0.127573,0.171466,

 Normal termination of Gaussian 16 at Tue Apr  8 23:52:36 2025.
