 Gaussian 16, Revision C.01,

 ----------------------------------------------------------------------
 #t hf aug-cc-pvdz symm=none int=(grid=ultrafine) guess=(read,tcheck) s
 table=(opt,rrhf)
 ----------------------------------------------------------------------
 -----
 title
 -----
 Symbolic Z-matrix:
 Charge =  0 Multiplicity = 1

 SCF Done:  E(RHF) =  -802.229116517     A.U. after   15 cycles
 Normal termination of Gaussian 16 at Wed Apr  9 00:43:45 2025.
 Gaussian 16:  ES64L-G16RevC.01  3-Jul-2019

 ----------------------------------------------------------------------
 #t hf aug-cc-pvdz iop(5/13=1,5/36=2,99/5=2) pseudo=read geom=check gue
 ss=(read,tcheck) scf=(maxcycle=1)
 ----------------------------------------------------------------------
 -----
 title
 -----
 Structure from the checkpoint file:  "BDE49_nonexpt_742_mol1.chk"
 Charge =  0 Multiplicity = 1

                         Standard orientation:
 ---------------------------------------------------------------------
 Center     Atomic      Atomic             Coordinates (Angstroms)
 Number     Number       Type             X           Y           Z
 ---------------------------------------------------------------------
      1          6           0        2.263909    0.901267   -0.702327
      2          6           0        0.939587    1.287632   -0.536390
      3          6           0        2.767703   -0.227190   -0.038309
      4          6           0        1.894133   -0.954453    0.788078
      5          6           0        0.570289   -0.564797    0.937258
      6          6           0        0.056446    0.566677    0.280716
      7          1           0       -0.074055   -1.149050    1.585469
      8          1           0        2.918706    1.480446   -1.345890
      9          1           0        0.583865    2.176295   -1.047134
     10          5           0       -2.651601   -0.400027   -0.265827
     11          8           0       -3.984065   -0.489452   -0.002465
     12          8           0       -2.060882   -1.347056   -1.051761
     13          7           0        4.077008   -0.649888   -0.236413
     14          1           0        4.722902    0.054755   -0.559239
     15          1           0        4.467721   -1.229821    0.490850
     16          1           0        2.260548   -1.831984    1.311887
     17          1           0       -4.380492   -1.265291   -0.417071
     18          1           0       -1.108899   -1.218048   -1.131113
     19         15           0       -1.689476    1.153254    0.424184
     20          1           0       -1.922027    0.870482    1.793167
 ---------------------------------------------------------------------

 SCF Done:  E(RHF) =  -802.392825820     A.U. after    2 cycles

 The electronic state is 1-A.
 Alpha  occ. eigenvalues --  -81.23546 -20.58393 -20.58026 -15.64327 -11.30451
 Alpha  occ. eigenvalues --  -11.26027 -11.25779 -11.24633 -11.24528 -11.24391
 Alpha  occ. eigenvalues --   -7.74070  -7.66805  -4.88209  -4.88032  -4.87852
 Alpha  occ. eigenvalues --   -1.34558  -1.30912  -1.21000  -1.12654  -1.01930
 Alpha  occ. eigenvalues --   -0.99405  -0.84678  -0.84001  -0.79351  -0.76606
 Alpha  occ. eigenvalues --   -0.73742  -0.70828  -0.70210  -0.63997  -0.62769
 Alpha  occ. eigenvalues --   -0.61183  -0.59816  -0.59509  -0.59069  -0.58417
 Alpha  occ. eigenvalues --   -0.54691  -0.52264  -0.50254  -0.48780  -0.46919
 Alpha  occ. eigenvalues --   -0.43657  -0.35357  -0.34180  -0.30220
 Alpha virt. eigenvalues --    0.02629   0.03435   0.03711   0.05129   0.05737
 Alpha virt. eigenvalues --    0.05965   0.07220   0.07388   0.07647   0.08563
 Alpha virt. eigenvalues --    0.09053   0.09415   0.09531   0.10456   0.11583

 Mulliken charges:
               1
     1  C    0.990302
     2  C    0.249272
     3  C    0.000330
     4  C    0.867884
     5  C    1.035595
     6  C   -0.485032
     7  H   -0.591796
     8  H   -0.592511
     9  H   -0.524712
    10  B    0.833771
    11  O   -0.536011
    12  O   -0.476186
    13  N   -0.286237
    14  H   -0.031939
    15  H   -0.036206
    16  H   -0.593476
    17  H    0.185867
    18  H    0.269036
    19  P   -0.439885
    20  H    0.161936
 Sum of Mulliken charges =  -0.00000

 Dipole moment (field-independent basis, Debye):
    X=              3.8553    Y=             -1.2289    Z=              0.2940  Tot=              4.0570

 Test job not archived.
 1\1\GINC-SE344\SP\RHF\Aug-CC-pVDZ\C6H9B1N1O2P1\OHZDE\09-Apr-2025\0\\#t
  hf aug-cc-pvdz iop(5/13=1,5/36=2,99/5=2) pseudo=read geom=check guess
 =(read,tcheck) scf=(maxcycle=1)\\title\\0,1\C,0,2.263909,0.901267,-0.7
 02327\C,0,0.939587,1.287632,-0.53639\C,0,2.767703,-0.22719,-0.038309\C
 ,0,1.894133,-0.954453,0.788078\C,0,0.570289,-0.564797,0.937258\C,0,0.0
 56446,0.566677,0.280716\H,0,-0.074055,-1.14905,1.585469\H,0,2.918706,1
 .480446,-1.34589\H,0,0.583865,2.176295,-1.047134\B,0,-2.651601,-0.4000
 27,-0.265827\O,0,-3.984065,-0.489452,-0.002465\O,0,-2.060882,-1.347056

 Normal termination of Gaussian 16 at Wed Apr  9 00:43:59 2025.
