 Gaussian 16, Revision C.01,

 ----------------------------------------------------------------------
 #t hf aug-cc-pvdz symm=none int=(grid=ultrafine) guess=(read,tcheck) s
 table=(opt,rrhf)
 ----------------------------------------------------------------------
 -----
 title
 -----
 Symbolic Z-matrix:
 Charge =  0 Multiplicity = 1

 SCF Done:  E(RHF) =  -272.376450362     A.U. after   12 cycles
 Normal termination of Gaussian 16 at Wed Apr  9 00:36:04 2025.
 Gaussian 16:  ES64L-G16RevC.01  3-Jul-2019

 ----------------------------------------------------------------------
 #t hf aug-cc-pvdz iop(5/13=1,5/36=2,99/5=2) pseudo=read geom=check gue
 ss=(read,tcheck) scf=(maxcycle=1)
 ----------------------------------------------------------------------
 -----
 title
 -----
 Structure from the checkpoint file:  "BDE49_nonexpt_544_mol1.chk"
 Charge =  0 Multiplicity = 1

                         Standard orientation:
 ---------------------------------------------------------------------
 Center     Atomic      Atomic             Coordinates (Angstroms)
 Number     Number       Type             X           Y           Z
 ---------------------------------------------------------------------
      1          1           0        0.190873    2.631839   -0.274176
      2          8           0        1.281835    0.736940   -0.041425
      3          7           0       -1.138376    0.827213    0.031111
      4          6           0       -0.037135   -1.313563   -0.342438
      5          6           0       -1.300151   -0.618023    0.173289
      6          6           0        1.217190   -0.664252    0.239866
      7          5           0        0.113795    1.454848   -0.101085
      8          1           0        1.248713   -0.805843    1.327704
      9          1           0        2.118323   -1.116293   -0.180849
     10          1           0       -0.001759   -1.238211   -1.434362
     11          1           0       -0.056534   -2.376773   -0.084569
     12          1           0       -1.985690    1.371237    0.016627
     13          1           0       -1.477915   -0.893556    1.222268
     14          1           0       -2.170462   -0.957624   -0.397885
 ---------------------------------------------------------------------

 SCF Done:  E(RHF) =  -272.466156452     A.U. after    2 cycles

 The electronic state is 1-A.
 Alpha  occ. eigenvalues --  -20.55851 -15.60685 -11.28935 -11.27313 -11.24008
 Alpha  occ. eigenvalues --   -7.61776  -1.31687  -1.15572  -1.02919  -0.90671
 Alpha  occ. eigenvalues --   -0.82709  -0.72124  -0.68684  -0.63666  -0.62251
 Alpha  occ. eigenvalues --   -0.60776  -0.59097  -0.54491  -0.53398  -0.48342
 Alpha  occ. eigenvalues --   -0.46326  -0.45355  -0.38451
 Alpha virt. eigenvalues --    0.03020   0.04163   0.04394   0.04487   0.06391
 Alpha virt. eigenvalues --    0.06716   0.07218   0.07366   0.07523   0.09309
 Alpha virt. eigenvalues --    0.12133   0.13057   0.13734   0.14199   0.14668

 Mulliken charges:
               1
     1  H    0.332573
     2  O   -0.589307
     3  N   -0.289336
     4  C   -0.029770
     5  C    0.736756
     6  C    0.856965
     7  B   -0.084590
     8  H   -0.163830
     9  H   -0.184689
    10  H   -0.100604
    11  H   -0.052252
    12  H   -0.127599
    13  H   -0.147131
    14  H   -0.157188
 Sum of Mulliken charges =   0.00000

 Dipole moment (field-independent basis, Debye):
    X=             -1.9921    Y=             -2.0558    Z=              0.3097  Tot=              2.8793

 Test job not archived.
 1\1\GINC-SE227\SP\RHF\Aug-CC-pVDZ\C3H8B1N1O1\OHZDE\09-Apr-2025\0\\#t h
 f aug-cc-pvdz iop(5/13=1,5/36=2,99/5=2) pseudo=read geom=check guess=(
 read,tcheck) scf=(maxcycle=1)\\title\\0,1\H,0,0.190876,2.631839,-0.274
 176\O,0,1.281836,0.736939,-0.041425\N,0,-1.138375,0.827214,0.031111\C,
 0,-0.037136,-1.313563,-0.342438\C,0,-1.300152,-0.618022,0.173289\C,0,1
 .217189,-0.664253,0.239866\B,0,0.113797,1.454848,-0.101085\H,0,1.24871
 2,-0.805844,1.327704\H,0,2.118322,-1.116295,-0.180849\H,0,-0.00176,-1.
 238211,-1.434362\H,0,-0.056537,-2.376773,-0.084569\H,0,-1.985688,1.371

 Normal termination of Gaussian 16 at Wed Apr  9 00:36:08 2025.
