 Gaussian 16, Revision C.01,

 ----------------------------------------------------------------------
 #t hf aug-cc-pvdz symm=none int=(grid=ultrafine) guess=(read,tcheck) s
 table=(opt,rrhf)
 ----------------------------------------------------------------------
 -----
 title
 -----
 Symbolic Z-matrix:
 Charge =  0 Multiplicity = 1

 SCF Done:  E(RHF) =  -1640.07802069     A.U. after   13 cycles
 Normal termination of Gaussian 16 at Wed Apr  9 00:29:47 2025.
 Gaussian 16:  ES64L-G16RevC.01  3-Jul-2019

 ----------------------------------------------------------------------
 #t hf aug-cc-pvdz iop(5/13=1,5/36=2,99/5=2) pseudo=read geom=check gue
 ss=(read,tcheck) scf=(maxcycle=1)
 ----------------------------------------------------------------------
 -----
 title
 -----
 Structure from the checkpoint file:  "BDE49_nonexpt_365_mol1.chk"
 Charge =  0 Multiplicity = 1

                         Standard orientation:
 ---------------------------------------------------------------------
 Center     Atomic      Atomic             Coordinates (Angstroms)
 Number     Number       Type             X           Y           Z
 ---------------------------------------------------------------------
      1          9           0       -2.004215    1.132660   -0.256201
      2          9           0       -2.004246   -1.132594   -0.256188
      3          5           0       -1.343100    0.000025   -0.199186
      4          6           0        0.240626    0.000000   -0.021706
      5         17           0        0.989355   -1.464166   -0.721787
      6         17           0        0.453471   -0.000063    1.780986
      7         17           0        0.989403    1.464186   -0.721689
 ---------------------------------------------------------------------

 SCF Done:  E(RHF) =  -1640.23576023     A.U. after    2 cycles

 The electronic state is 1-A.
 Alpha  occ. eigenvalues -- -103.70680-103.70300-103.70299 -26.17250 -26.17243
 Alpha  occ. eigenvalues --  -11.44866 -10.73938 -10.73587 -10.73570  -8.39647
 Alpha  occ. eigenvalues --   -8.39318  -8.39307  -8.39300  -8.39294  -8.38956
 Alpha  occ. eigenvalues --   -8.38955  -8.38953  -8.38950  -7.79125  -1.72754
 Alpha  occ. eigenvalues --   -1.70665  -1.27128  -1.17139  -1.17019  -0.93521
 Alpha  occ. eigenvalues --   -0.89105  -0.85897  -0.80392  -0.80044  -0.75437
 Alpha  occ. eigenvalues --   -0.75131  -0.66409  -0.64602  -0.64297  -0.52961
 Alpha  occ. eigenvalues --   -0.52779  -0.49188  -0.49030  -0.47759  -0.47727
 Alpha virt. eigenvalues --    0.04668   0.05189   0.05715   0.05892   0.07165
 Alpha virt. eigenvalues --    0.07923   0.08963   0.11192   0.12276   0.13472
 Alpha virt. eigenvalues --    0.14348   0.17040   0.17110   0.17738   0.18419

 Mulliken charges:
               1
     1  F   -0.374525
     2  F   -0.374543
     3  B    1.378659
     4  C   -0.649488
     5  Cl  -0.007471
     6  Cl   0.034841
     7  Cl  -0.007472
 Sum of Mulliken charges =   0.00000

 Dipole moment (field-independent basis, Debye):
    X=              0.2538    Y=              0.0000    Z=             -0.1356  Tot=              0.2877

 Test job not archived.
 1\1\GINC-SE016\SP\RHF\Aug-CC-pVDZ\C1B1Cl3F2\OHZDE\09-Apr-2025\0\\#t hf
  aug-cc-pvdz iop(5/13=1,5/36=2,99/5=2) pseudo=read geom=check guess=(r
 ead,tcheck) scf=(maxcycle=1)\\title\\0,1\F,0,-2.004215,1.13266,-0.2562
 01\F,0,-2.004246,-1.132594,-0.256188\B,0,-1.3431,0.000025,-0.199186\C,
 0,0.240626,0.,-0.021706\Cl,0,0.989355,-1.464166,-0.721787\Cl,0,0.45347
 1,-0.000063,1.780986\Cl,0,0.989403,1.464186,-0.721689\\Version=ES64L-G
 16RevC.01\State=1-A\HF=-1640.2357602\RMSD=4.727e-03\Dipole=0.099838,0.
 0000055,-0.0533373\Quadrupole=-1.5275053,-0.7838314,2.3113367,-0.00000

 Normal termination of Gaussian 16 at Wed Apr  9 00:29:50 2025.
