 Gaussian 16, Revision C.01,

 ----------------------------------------------------------------------
 #t hf aug-cc-pvdz symm=none int=(grid=ultrafine) guess=(read,tcheck) s
 table=(opt,rrhf)
 ----------------------------------------------------------------------
 -----
 title
 -----
 Symbolic Z-matrix:
 Charge =  0 Multiplicity = 1

 SCF Done:  E(RHF) =  -967.943569696     A.U. after   17 cycles
 Normal termination of Gaussian 16 at Tue Apr  8 23:19:07 2025.
 Gaussian 16:  ES64L-G16RevC.01  3-Jul-2019

 ----------------------------------------------------------------------
 #t hf aug-cc-pvdz iop(5/13=1,5/36=2,99/5=2) pseudo=read geom=check gue
 ss=(read,tcheck) scf=(maxcycle=1)
 ----------------------------------------------------------------------
 -----
 title
 -----
 Structure from the checkpoint file:  "BDE49_nonexpt_1089_mol1.chk"
 Charge =  0 Multiplicity = 1

                         Standard orientation:
 ---------------------------------------------------------------------
 Center     Atomic      Atomic             Coordinates (Angstroms)
 Number     Number       Type             X           Y           Z
 ---------------------------------------------------------------------
      1         17           0        2.969044   -1.167711    0.000013
      2          8           0        2.435856    0.476010   -0.000034
      3          6           0        1.070568    0.680862    0.000012
      4          6           0        0.099764   -0.308195    0.000090
      5          6           0       -1.232770    0.095280    0.000130
      6          6           0       -1.621780    1.425271    0.000088
      7          6           0        0.719119    2.036336   -0.000028
      8          1           0        1.503966    2.781998   -0.000089
      9          6           0       -0.621724    2.396299    0.000010
     10          1           0       -0.889417    3.445816   -0.000021
     11          1           0       -2.671831    1.677887    0.000120
     12          7           0       -2.276711   -0.958357    0.000216
     13          8           0       -1.904460   -2.123268   -0.000213
     14          8           0       -3.443929   -0.595462   -0.000214
     15          1           0        0.341709   -1.359482    0.000123
 ---------------------------------------------------------------------

 SCF Done:  E(RHF) =  -968.114284305     A.U. after    2 cycles

 The electronic state is 1-A.
 Alpha  occ. eigenvalues -- -103.74559 -20.69101 -20.62597 -20.62581 -15.92861
 Alpha  occ. eigenvalues --  -11.35808 -11.33488 -11.29074 -11.28997 -11.28871
 Alpha  occ. eigenvalues --  -11.28749 -10.77186  -8.42955  -8.42528  -8.42492
 Alpha  occ. eigenvalues --   -1.55859  -1.42239  -1.37446  -1.20355  -1.15168
 Alpha  occ. eigenvalues --   -1.08632  -1.04517  -0.96613  -0.87339  -0.84515
 Alpha  occ. eigenvalues --   -0.80035  -0.75127  -0.73508  -0.72703  -0.71297
 Alpha  occ. eigenvalues --   -0.70179  -0.68548  -0.65254  -0.61237  -0.58135
 Alpha  occ. eigenvalues --   -0.55900  -0.54765  -0.52400  -0.51950  -0.50495
 Alpha  occ. eigenvalues --   -0.49443  -0.48223  -0.39171  -0.36732
 Alpha virt. eigenvalues --    0.02286   0.02715   0.03103   0.04132   0.04944
 Alpha virt. eigenvalues --    0.06388   0.08703   0.08704   0.10152   0.10900
 Alpha virt. eigenvalues --    0.12033   0.12296   0.12841   0.12986   0.13062

 Mulliken charges:
               1
     1  Cl   0.304081
     2  O   -0.768906
     3  C    0.207187
     4  C    0.468607
     5  C    1.415129
     6  C    0.242847
     7  C    0.331283
     8  H   -0.471288
     9  C    0.662339
    10  H   -0.421249
    11  H   -0.434180
    12  N    0.097737
    13  O   -0.560751
    14  O   -0.567345
    15  H   -0.505492
 Sum of Mulliken charges =  -0.00000

 Dipole moment (field-independent basis, Debye):
    X=              2.4230    Y=              3.4233    Z=              0.0012  Tot=              4.1940

 Test job not archived.
 1\1\GINC-SE361\SP\RHF\Aug-CC-pVDZ\C6H4Cl1N1O3\OHZDE\08-Apr-2025\0\\#t
 hf aug-cc-pvdz iop(5/13=1,5/36=2,99/5=2) pseudo=read geom=check guess=
 (read,tcheck) scf=(maxcycle=1)\\title\\0,1\Cl,0,2.969044,-1.167711,0.0
 00013\O,0,2.435856,0.47601,-0.000034\C,0,1.070568,0.680862,0.000012\C,
 0,0.099764,-0.308195,0.00009\C,0,-1.23277,0.09528,0.00013\C,0,-1.62178
 ,1.425271,0.000088\C,0,0.719119,2.036336,-0.000028\H,0,1.503966,2.7819
 98,-0.000089\C,0,-0.621724,2.396299,0.00001\H,0,-0.889417,3.445816,-0.
 000021\H,0,-2.671831,1.677887,0.00012\N,0,-2.276711,-0.958357,0.000216

 Normal termination of Gaussian 16 at Tue Apr  8 23:19:14 2025.
