 Gaussian 16, Revision C.01,

 ----------------------------------------------------------------------
 #t hf aug-cc-pvdz symm=none int=(grid=ultrafine) guess=(read,tcheck) s
 table=(opt,rrhf)
 ----------------------------------------------------------------------
 -----
 title
 -----
 Symbolic Z-matrix:
 Charge =  0 Multiplicity = 1

 SCF Done:  E(RHF) =  -808.885510304     A.U. after   15 cycles
 Normal termination of Gaussian 16 at Tue Apr  8 23:27:12 2025.
 Gaussian 16:  ES64L-G16RevC.01  3-Jul-2019

 ----------------------------------------------------------------------
 #t hf aug-cc-pvdz iop(5/13=1,5/36=2,99/5=2) pseudo=read geom=check gue
 ss=(read,tcheck) scf=(maxcycle=1)
 ----------------------------------------------------------------------
 -----
 title
 -----
 Structure from the checkpoint file:  "BDE49_nonexpt_1317_mol1.chk"
 Charge =  0 Multiplicity = 1

                         Standard orientation:
 ---------------------------------------------------------------------
 Center     Atomic      Atomic             Coordinates (Angstroms)
 Number     Number       Type             X           Y           Z
 ---------------------------------------------------------------------
      1          6           0       -0.641456   -0.288344    0.458022
      2         15           0        1.945718   -0.203018   -0.558688
      3          9           0        1.909827    1.415663   -0.445256
      4          9           0        3.325884   -0.455542    0.260167
      5          6           0       -1.167829    1.006555    0.538256
      6          6           0       -1.460468   -1.315681   -0.023480
      7          6           0       -2.483266    1.262313    0.161542
      8          6           0       -3.291977    0.230154   -0.309967
      9          6           0       -2.775764   -1.060139   -0.402978
     10          1           0       -3.397492   -1.870148   -0.767460
     11          1           0       -1.068288   -2.325345   -0.092689
     12          1           0       -2.876659    2.269819    0.236695
     13          1           0       -4.316757    0.429859   -0.601431
     14          1           0       -0.542224    1.815657    0.898073
     15          6           0        0.792329   -0.559939    0.842450
     16          1           0        0.942544   -1.612977    1.100233
     17          1           0        1.122290    0.047801    1.689639
 ---------------------------------------------------------------------

 SCF Done:  E(RHF) =  -809.070800340     A.U. after    2 cycles

 The electronic state is 1-A.
 Alpha  occ. eigenvalues --  -81.39276 -26.13252 -26.13200 -11.26976 -11.26395
 Alpha  occ. eigenvalues --  -11.25623 -11.25525 -11.25500 -11.25320 -11.25281
 Alpha  occ. eigenvalues --   -7.87970  -5.02068  -5.01845  -5.01352  -1.66402
 Alpha  occ. eigenvalues --   -1.65037  -1.15894  -1.06191  -1.02068  -0.96529
 Alpha  occ. eigenvalues --   -0.87230  -0.84204  -0.81601  -0.78589  -0.76239
 Alpha  occ. eigenvalues --   -0.75542  -0.73353  -0.71023  -0.70331  -0.65692
 Alpha  occ. eigenvalues --   -0.64868  -0.60957  -0.60128  -0.58789  -0.56768
 Alpha  occ. eigenvalues --   -0.50921  -0.50895  -0.50399  -0.40196  -0.35109
 Alpha  occ. eigenvalues --   -0.33905
 Alpha virt. eigenvalues --    0.03121   0.03817   0.04181   0.05467   0.05647
 Alpha virt. eigenvalues --    0.06775   0.07574   0.08021   0.08476   0.09133
 Alpha virt. eigenvalues --    0.09661   0.10625   0.10807   0.12912   0.13537

 Mulliken charges:
               1
     1  C    0.706515
     2  P    1.409776
     3  F   -0.637594
     4  F   -0.612583
     5  C    0.411632
     6  C    0.380660
     7  C    0.328247
     8  C    0.543554
     9  C    0.322023
    10  H   -0.440839
    11  H   -0.554166
    12  H   -0.434979
    13  H   -0.431988
    14  H   -0.578246
    15  C   -0.016784
    16  H   -0.204633
    17  H   -0.190594
 Sum of Mulliken charges =  -0.00000

 Dipole moment (field-independent basis, Debye):
    X=             -2.4292    Y=             -1.3031    Z=              0.3615  Tot=              2.7803

 Test job not archived.
 1\1\GINC-SE403\SP\RHF\Aug-CC-pVDZ\C7H7F2P1\OHZDE\08-Apr-2025\0\\#t hf
 aug-cc-pvdz iop(5/13=1,5/36=2,99/5=2) pseudo=read geom=check guess=(re
 ad,tcheck) scf=(maxcycle=1)\\title\\0,1\C,0,-0.641456,-0.288344,0.4580
 22\P,0,1.945718,-0.203018,-0.558688\F,0,1.909827,1.415663,-0.445256\F,
 0,3.325884,-0.455542,0.260167\C,0,-1.167829,1.006555,0.538256\C,0,-1.4
 60468,-1.315681,-0.02348\C,0,-2.483266,1.262313,0.161542\C,0,-3.291977
 ,0.230154,-0.309967\C,0,-2.775764,-1.060139,-0.402978\H,0,-3.397492,-1
 .870148,-0.76746\H,0,-1.068288,-2.325345,-0.092689\H,0,-2.876659,2.269

 Normal termination of Gaussian 16 at Tue Apr  8 23:27:21 2025.
