 Gaussian 16, Revision C.01,

 ----------------------------------------------------------------------
 #t hf aug-cc-pvdz symm=none int=(grid=ultrafine) guess=(read,tcheck) s
 table=opt
 ----------------------------------------------------------------------
 -----
 title
 -----
 Symbolic Z-matrix:
 Charge =  0 Multiplicity = 2

 SCF Done:  E(UHF) =  -839.873512699     A.U. after   16 cycles
 Normal termination of Gaussian 16 at Tue Apr  8 23:34:02 2025.
 Gaussian 16:  ES64L-G16RevC.01  3-Jul-2019

 ----------------------------------------------------------------------
 #t hf aug-cc-pvdz iop(5/13=1,5/36=2,99/5=2) pseudo=read geom=check gue
 ss=(read,tcheck) scf=(maxcycle=1)
 ----------------------------------------------------------------------
 -----
 title
 -----
 Structure from the checkpoint file:  "BDE49_nonexpt_1500_mol2.chk"
 Charge =  0 Multiplicity = 2

                         Standard orientation:
 ---------------------------------------------------------------------
 Center     Atomic      Atomic             Coordinates (Angstroms)
 Number     Number       Type             X           Y           Z
 ---------------------------------------------------------------------
      1         15           0        0.490871   -0.759097    0.000029
      2          6           0        1.636090    0.687352    0.000071
      3          1           0        1.494857    1.307233   -0.889216
      4          1           0        2.657496    0.293635    0.000123
      5         17           0       -1.342749    0.256131   -0.000065
      6          1           0        1.494772    1.307248    0.889335
 ---------------------------------------------------------------------

 SCF Done:  E(UHF) =  -839.925114619     A.U. after    2 cycles

 The electronic state is 2-A.
 Alpha  occ. eigenvalues -- -103.65743 -81.31743 -11.25854 -10.69090  -8.34724
 Alpha  occ. eigenvalues --   -8.34645  -8.34486  -7.81809  -4.96374  -4.95308
 Alpha  occ. eigenvalues --   -4.94958  -1.14183  -0.98400  -0.74295  -0.60399
 Alpha  occ. eigenvalues --   -0.60197  -0.53243  -0.50310  -0.48441  -0.40666
 Alpha  occ. eigenvalues --   -0.34531
 Alpha virt. eigenvalues --    0.03428   0.05379   0.05883   0.07227   0.07618
 Alpha virt. eigenvalues --    0.11234   0.11593   0.13782   0.14454   0.14496
 Alpha virt. eigenvalues --    0.16219   0.17785   0.18551   0.18574   0.20572

  Beta  occ. eigenvalues -- -103.65677 -81.31024 -11.25982 -10.69020  -8.34771
  Beta  occ. eigenvalues --   -8.34449  -8.34301  -7.80946  -4.94839  -4.94615
  Beta  occ. eigenvalues --   -4.93056  -1.13455  -0.97754  -0.68565  -0.59923
  Beta  occ. eigenvalues --   -0.58645  -0.52744  -0.47911  -0.47541  -0.38628
  Beta virt. eigenvalues --    0.03476   0.03662   0.05503   0.06096   0.07391
  Beta virt. eigenvalues --    0.08172   0.11458   0.13394   0.13962   0.14960
  Beta virt. eigenvalues --    0.15451   0.16896   0.18296   0.18662   0.18739

 Mulliken charges and spin densities:
               1          2
     1  P    0.706757   1.064795
     2  C    0.133889  -0.091944
     3  H   -0.107328   0.017068
     4  H   -0.156063  -0.005714
     5  Cl  -0.469928  -0.001273
     6  H   -0.107326   0.017068
 Sum of Mulliken charges =  -0.00000   1.00000

 Dipole moment (field-independent basis, Debye):
    X=              2.4289    Y=              0.3734    Z=              0.0001  Tot=              2.4574
                          Isotropic Fermi Contact Couplings
        Atom                 a.u.       MegaHertz       Gauss      10(-4) cm-1
     1  P(31)              0.27011     489.19959     174.55858     163.17942
     2  C(13)             -0.02463     -27.68439      -9.87848      -9.23452
     3  H(1)               0.01136      50.78412      18.12104      16.93976
     4  H(1)              -0.00003      -0.11666      -0.04163      -0.03891
     5  Cl(35)             0.03781      16.57951       5.91598       5.53033
     6  H(1)               0.01136      50.78413      18.12104      16.93976
 --------------------------------------------------------
       Center         ----  Spin Dipole Couplings  ----

 Normal termination of Gaussian 16 at Tue Apr  8 23:34:03 2025.
