 Gaussian 16, Revision C.01,

 ----------------------------------------------------------------------
 #t hf aug-cc-pvdz symm=none int=(grid=ultrafine) guess=(read,tcheck) s
 table=(opt,rrhf)
 ----------------------------------------------------------------------
 -----
 title
 -----
 Symbolic Z-matrix:
 Charge =  0 Multiplicity = 1

 SCF Done:  E(RHF) =  -710.071590299     A.U. after   14 cycles
 Normal termination of Gaussian 16 at Wed Apr  9 00:37:49 2025.
 Gaussian 16:  ES64L-G16RevC.01  3-Jul-2019

 ----------------------------------------------------------------------
 #t hf aug-cc-pvdz iop(5/13=1,5/36=2,99/5=2) pseudo=read geom=check gue
 ss=(read,tcheck) scf=(maxcycle=1)
 ----------------------------------------------------------------------
 -----
 title
 -----
 Structure from the checkpoint file:  "BDE49_nonexpt_628_mol1.chk"
 Charge =  0 Multiplicity = 1

                         Standard orientation:
 ---------------------------------------------------------------------
 Center     Atomic      Atomic             Coordinates (Angstroms)
 Number     Number       Type             X           Y           Z
 ---------------------------------------------------------------------
      1         17           0        1.731980   -0.050842   -0.000005
      2          8           0        0.178145   -0.799127    0.000004
      3          5           0       -0.934193    0.063645    0.000006
      4          8           0       -0.886938    1.412412   -0.000002
      5          8           0       -2.132347   -0.574635    0.000006
      6          1           0       -2.049693   -1.532688    0.000008
      7          1           0        0.006108    1.769579   -0.000006
 ---------------------------------------------------------------------

 SCF Done:  E(RHF) =  -710.179755182     A.U. after    2 cycles

 The electronic state is 1-A.
 Alpha  occ. eigenvalues -- -103.74035 -20.66037 -20.59977 -20.59426 -10.76707
 Alpha  occ. eigenvalues --   -8.42469  -8.42056  -8.42022  -7.71527  -1.39727
 Alpha  occ. eigenvalues --   -1.34511  -1.33324  -1.12383  -0.82380  -0.75201
 Alpha  occ. eigenvalues --   -0.72333  -0.66903  -0.66665  -0.59119  -0.58712
 Alpha  occ. eigenvalues --   -0.58334  -0.54188  -0.50086  -0.48173
 Alpha virt. eigenvalues --    0.03413   0.03854   0.05830   0.05988   0.06664
 Alpha virt. eigenvalues --    0.08956   0.10279   0.13672   0.14315   0.14679
 Alpha virt. eigenvalues --    0.18848   0.20012   0.20273   0.21387   0.21751

 Mulliken charges:
               1
     1  Cl   0.267120
     2  O   -0.581261
     3  B    0.777425
     4  O   -0.391133
     5  O   -0.430552
     6  H    0.172995
     7  H    0.185407
 Sum of Mulliken charges =  -0.00000

 Dipole moment (field-independent basis, Debye):
    X=              1.8487    Y=             -0.5148    Z=              0.0000  Tot=              1.9190

 Test job not archived.
 1\1\GINC-SE070\SP\RHF\Aug-CC-pVDZ\B1Cl1H2O3\OHZDE\09-Apr-2025\0\\#t hf
  aug-cc-pvdz iop(5/13=1,5/36=2,99/5=2) pseudo=read geom=check guess=(r
 ead,tcheck) scf=(maxcycle=1)\\title\\0,1\Cl,0,1.73198,-0.050842,-0.000
 005\O,0,0.178145,-0.799127,0.000004\B,0,-0.934193,0.063645,0.000006\O,
 0,-0.886938,1.412412,-0.000002\O,0,-2.132347,-0.574635,0.000006\H,0,-2
 .049693,-1.532688,0.000008\H,0,0.006108,1.769579,-0.000006\\Version=ES
 64L-G16RevC.01\State=1-A\HF=-710.1797552\RMSD=2.664e-03\Dipole=0.72731
 91,-0.2025517,0.0000033\Quadrupole=-2.0184826,2.0303244,-0.0118418,4.8

 Normal termination of Gaussian 16 at Wed Apr  9 00:37:51 2025.
