 Gaussian 16, Revision C.01,

 ----------------------------------------------------------------------
 #t hf aug-cc-pvdz symm=none int=(grid=ultrafine) guess=(read,tcheck) s
 table=(opt,rrhf)
 ----------------------------------------------------------------------
 -----
 title
 -----
 Symbolic Z-matrix:
 Charge =  0 Multiplicity = 1

 SCF Done:  E(RHF) =  -362.406141266     A.U. after   15 cycles
 Normal termination of Gaussian 16 at Tue Apr  8 23:18:49 2025.
 Gaussian 16:  ES64L-G16RevC.01  3-Jul-2019

 ----------------------------------------------------------------------
 #t hf aug-cc-pvdz iop(5/13=1,5/36=2,99/5=2) pseudo=read geom=check gue
 ss=(read,tcheck) scf=(maxcycle=1)
 ----------------------------------------------------------------------
 -----
 title
 -----
 Structure from the checkpoint file:  "BDE49_nonexpt_1128_mol1.chk"
 Charge =  0 Multiplicity = 1

                         Standard orientation:
 ---------------------------------------------------------------------
 Center     Atomic      Atomic             Coordinates (Angstroms)
 Number     Number       Type             X           Y           Z
 ---------------------------------------------------------------------
      1          9           0        1.782367   -0.000477    0.000092
      2          8           0        0.587288   -0.759582   -0.000027
      3          6           0       -0.467103    0.134626   -0.000125
      4          8           0       -0.404645    1.319193    0.000004
      5          8           0       -1.547771   -0.651703    0.000002
      6          1           0       -2.317672   -0.066725    0.000093
 ---------------------------------------------------------------------

 SCF Done:  E(RHF) =  -362.529011600     A.U. after    2 cycles

 The electronic state is 1-A.
 Alpha  occ. eigenvalues --  -26.20946 -20.75487 -20.67712 -20.61101 -11.49899
 Alpha  occ. eigenvalues --   -1.71896  -1.49993  -1.39224  -1.35869  -0.93700
 Alpha  occ. eigenvalues --   -0.84294  -0.82227  -0.78104  -0.74600  -0.71743
 Alpha  occ. eigenvalues --   -0.71094  -0.66452  -0.60262  -0.55006  -0.54245
 Alpha virt. eigenvalues --    0.02702   0.08231   0.08767   0.09104   0.10333
 Alpha virt. eigenvalues --    0.13699   0.16400   0.17028   0.18520   0.20877
 Alpha virt. eigenvalues --    0.20945   0.22368   0.23863   0.27860   0.28294

 Mulliken charges:
               1
     1  F   -0.283523
     2  O   -0.095742
     3  C    0.860745
     4  O   -0.291166
     5  O   -0.374013
     6  H    0.183699
 Sum of Mulliken charges =   0.00000

 Dipole moment (field-independent basis, Debye):
    X=             -2.7727    Y=             -0.8704    Z=             -0.0003  Tot=              2.9061

 Test job not archived.
 1\1\GINC-SE343\SP\RHF\Aug-CC-pVDZ\C1H1F1O3\OHZDE\08-Apr-2025\0\\#t hf
 aug-cc-pvdz iop(5/13=1,5/36=2,99/5=2) pseudo=read geom=check guess=(re
 ad,tcheck) scf=(maxcycle=1)\\title\\0,1\F,0,1.782367,-0.000477,0.00009
 2\O,0,0.587288,-0.759582,-0.000027\C,0,-0.467103,0.134626,-0.000125\O,
 0,-0.404645,1.319193,0.000004\O,0,-1.547771,-0.651703,0.000002\H,0,-2.
 317672,-0.066725,0.000093\\Version=ES64L-G16RevC.01\State=1-A\HF=-362.
 5290116\RMSD=3.932e-03\Dipole=-1.0908505,-0.3424387,-0.0001227\Quadrup
 ole=3.6127854,-4.0141743,0.4013889,-0.5491542,-0.0002481,-0.0000035\PG

 Normal termination of Gaussian 16 at Tue Apr  8 23:18:51 2025.
