 Gaussian 16, Revision C.01,

 ----------------------------------------------------------------------
 #t hf aug-cc-pvdz symm=none int=(grid=ultrafine) guess=(read,tcheck) s
 table=opt
 ----------------------------------------------------------------------
 -----
 title
 -----
 Symbolic Z-matrix:
 Charge =  0 Multiplicity = 2

 SCF Done:  E(UHF) =  -536.527295977     A.U. after   19 cycles
 Normal termination of Gaussian 16 at Wed Apr  9 00:11:22 2025.
 Gaussian 16:  ES64L-G16RevC.01  3-Jul-2019

 ----------------------------------------------------------------------
 #t hf aug-cc-pvdz iop(5/13=1,5/36=2,99/5=2) pseudo=read geom=check gue
 ss=(read,tcheck) scf=(maxcycle=1)
 ----------------------------------------------------------------------
 -----
 title
 -----
 Structure from the checkpoint file:  "BDE49_nonexpt_2389_mol2.chk"
 Charge =  0 Multiplicity = 2

                         Standard orientation:
 ---------------------------------------------------------------------
 Center     Atomic      Atomic             Coordinates (Angstroms)
 Number     Number       Type             X           Y           Z
 ---------------------------------------------------------------------
      1         14           0        1.794279   -0.349306   -0.057068
      2          7           0        0.197580    0.432964   -0.013382
      3          1           0        2.735036    0.807514   -0.046261
      4          1           0        2.022640   -1.184214    1.146995
      5          6           0       -0.830903   -0.482759   -0.017807
      6          8           0       -0.554950   -1.675371   -0.079852
      7          6           0       -2.259088    0.012468    0.053429
      8          1           0       -2.420159    0.641380    0.933019
      9          1           0       -2.917754   -0.851968    0.097932
     10          1           0       -2.508885    0.609824   -0.828276
     11          6           0       -0.032853    1.878677    0.000254
     12          1           0        0.924088    2.388869   -0.103351
     13          1           0       -0.485468    2.206013    0.942066
     14          1           0       -0.675801    2.194774   -0.825949
 ---------------------------------------------------------------------

 SCF Done:  E(UHF) =  -536.629945516     A.U. after    2 cycles

 The electronic state is 2-A.
 Alpha  occ. eigenvalues --  -69.09084 -20.54388 -15.64184 -11.37084 -11.28741
 Alpha  occ. eigenvalues --  -11.25437  -6.84079  -3.95310  -3.94593  -3.94457
 Alpha  occ. eigenvalues --   -1.35485  -1.18804  -1.00734  -0.95036  -0.77999
 Alpha  occ. eigenvalues --   -0.69710  -0.68587  -0.65252  -0.63211  -0.59008
 Alpha  occ. eigenvalues --   -0.58096  -0.57157  -0.53849  -0.52143  -0.48124
 Alpha  occ. eigenvalues --   -0.44877  -0.41067  -0.31653
 Alpha virt. eigenvalues --    0.02760   0.04091   0.04668   0.05022   0.06713
 Alpha virt. eigenvalues --    0.06945   0.07225   0.07744   0.08455   0.08891
 Alpha virt. eigenvalues --    0.10534   0.11876   0.12942   0.13559   0.14335

  Beta  occ. eigenvalues --  -69.08505 -20.54332 -15.64016 -11.37072 -11.28736
  Beta  occ. eigenvalues --  -11.25439  -6.83165  -3.94204  -3.94080  -3.93222
  Beta  occ. eigenvalues --   -1.35333  -1.18396  -1.00667  -0.94893  -0.77025
  Beta  occ. eigenvalues --   -0.68874  -0.68182  -0.64852  -0.61287  -0.58961
  Beta  occ. eigenvalues --   -0.57763  -0.57100  -0.53428  -0.51509  -0.46941
  Beta  occ. eigenvalues --   -0.44137  -0.39634
  Beta virt. eigenvalues --    0.02778   0.03475   0.04135   0.05031   0.05975
  Beta virt. eigenvalues --    0.06803   0.07318   0.07384   0.07865   0.08932
  Beta virt. eigenvalues --    0.10116   0.10698   0.12072   0.13150   0.13654

 Mulliken charges and spin densities:
               1          2
     1  Si  -0.061392   0.988993
     2  N   -0.423503  -0.122151
     3  H    0.040780   0.026662
     4  H    0.156467   0.053057
     5  C    0.240934   0.056341
     6  O   -0.500178   0.004582
     7  C    0.257820  -0.000708
     8  H    0.069511  -0.000323
     9  H   -0.122949  -0.000101
    10  H    0.076195   0.001304
    11  C    0.761916  -0.006296
    12  H   -0.335286  -0.005325
    13  H   -0.082112   0.003634
    14  H   -0.078204   0.000330
 Sum of Mulliken charges =  -0.00000   1.00000

 Dipole moment (field-independent basis, Debye):
    X=             -1.2769    Y=              4.1041    Z=              0.1056  Tot=              4.2995
                          Isotropic Fermi Contact Couplings
        Atom                 a.u.       MegaHertz       Gauss      10(-4) cm-1
     1  Si(29)             0.67809    -602.64009    -215.03697    -201.01910
     2  N(14)              0.02258       7.29597       2.60338       2.43367
     3  H(1)               0.00991      44.30740      15.80998      14.77936
     4  H(1)               0.01184      52.90711      18.87857      17.64791
     5  C(13)             -0.00087      -0.97815      -0.34903      -0.32627
     6  O(17)              0.01048      -6.35042      -2.26599      -2.11827
     7  C(13)             -0.00053      -0.59459      -0.21216      -0.19833
     8  H(1)              -0.00007      -0.29760      -0.10619      -0.09927

 1\1\GINC-SE398\SP\UHF\Aug-CC-pVDZ\C3H8N1O1Si1(2)\OHZDE\09-Apr-2025\0\\
 #t hf aug-cc-pvdz iop(5/13=1,5/36=2,99/5=2) pseudo=read geom=check gue
 ss=(read,tcheck) scf=(maxcycle=1)\\title\\0,2\Si,0,1.794279,-0.349306,
 -0.057068\N,0,0.19758,0.432964,-0.013382\H,0,2.735036,0.807514,-0.0462
 61\H,0,2.02264,-1.184214,1.146995\C,0,-0.830903,-0.482759,-0.017807\O,
 0,-0.55495,-1.675371,-0.079852\C,0,-2.259088,0.012468,0.053429\H,0,-2.
 420159,0.64138,0.933019\H,0,-2.917754,-0.851967,0.097932\H,0,-2.508885
 ,0.609824,-0.828276\C,0,-0.032853,1.878677,0.000254\H,0,0.924088,2.388

 Normal termination of Gaussian 16 at Wed Apr  9 00:11:27 2025.
