 Gaussian 16, Revision C.01,

 ----------------------------------------------------------------------
 #t hf aug-cc-pvdz symm=none int=(grid=ultrafine) guess=(read,tcheck) s
 table=(opt,rrhf)
 ----------------------------------------------------------------------
 -----
 title
 -----
 Symbolic Z-matrix:
 Charge =  0 Multiplicity = 1

 SCF Done:  E(RHF) =  -475.572097186     A.U. after   12 cycles
 Normal termination of Gaussian 16 at Tue Apr  8 23:29:52 2025.
 Gaussian 16:  ES64L-G16RevC.01  3-Jul-2019

 ----------------------------------------------------------------------
 #t hf aug-cc-pvdz iop(5/13=1,5/36=2,99/5=2) pseudo=read geom=check gue
 ss=(read,tcheck) scf=(maxcycle=1)
 ----------------------------------------------------------------------
 -----
 title
 -----
 Structure from the checkpoint file:  "BDE49_nonexpt_1397_mol1.chk"
 Charge =  0 Multiplicity = 1

                         Standard orientation:
 ---------------------------------------------------------------------
 Center     Atomic      Atomic             Coordinates (Angstroms)
 Number     Number       Type             X           Y           Z
 ---------------------------------------------------------------------
      1          6           0        1.006808    1.270089    0.050756
      2          7           0        0.353251    0.004748   -0.258707
      3          1           0        1.114431    1.439668    1.135140
      4          1           0        0.432257    2.098940   -0.366608
      5          1           0        2.006236    1.290383   -0.396815
      6         15           0       -1.334095   -0.167180   -0.004955
      7          6           0        1.174183   -1.164860    0.046563
      8          1           0        2.106273   -1.118981   -0.526502
      9          1           0        0.644279   -2.074851   -0.239648
     10          1           0        1.438703   -1.241618    1.113835
     11          1           0       -1.752893    0.999908   -0.695941
     12          1           0       -1.536568    0.449631    1.277901
 ---------------------------------------------------------------------

 SCF Done:  E(RHF) =  -475.643087990     A.U. after    2 cycles

 The electronic state is 1-A.
 Alpha  occ. eigenvalues --  -81.27134 -15.61958 -11.26410 -11.26387  -7.77159
 Alpha  occ. eigenvalues --   -4.91293  -4.91017  -4.90836  -1.17603  -0.95599
 Alpha  occ. eigenvalues --   -0.87536  -0.75118  -0.63275  -0.62905  -0.60912
 Alpha  occ. eigenvalues --   -0.55055  -0.52123  -0.51636  -0.49852  -0.36422
 Alpha  occ. eigenvalues --   -0.34812
 Alpha virt. eigenvalues --    0.03426   0.04649   0.04968   0.05582   0.07347
 Alpha virt. eigenvalues --    0.07602   0.08002   0.08862   0.09545   0.11778
 Alpha virt. eigenvalues --    0.12377   0.14186   0.14803   0.15838   0.16228

 Mulliken charges:
               1
     1  C    0.706620
     2  N   -0.843181
     3  H   -0.074584
     4  H   -0.219899
     5  H   -0.148851
     6  P    0.242151
     7  C    0.729914
     8  H   -0.162227
     9  H   -0.238220
    10  H   -0.052373
    11  H    0.001584
    12  H    0.059067
 Sum of Mulliken charges =  -0.00000

 Dipole moment (field-independent basis, Debye):
    X=              1.1449    Y=              0.6043    Z=              0.4730  Tot=              1.3783

 Test job not archived.
 1\1\GINC-SE094\SP\RHF\Aug-CC-pVDZ\C2H8N1P1\OHZDE\08-Apr-2025\0\\#t hf
 aug-cc-pvdz iop(5/13=1,5/36=2,99/5=2) pseudo=read geom=check guess=(re
 ad,tcheck) scf=(maxcycle=1)\\title\\0,1\C,0,1.006808,1.270089,0.050756
 \N,0,0.353251,0.004748,-0.258707\H,0,1.114431,1.439668,1.13514\H,0,0.4
 32258,2.09894,-0.366608\H,0,2.006236,1.290382,-0.396815\P,0,-1.334095,
 -0.167179,-0.004955\C,0,1.174183,-1.16486,0.046563\H,0,2.106273,-1.118
 982,-0.526502\H,0,0.644278,-2.074851,-0.239648\H,0,1.438703,-1.241618,
 1.113835\H,0,-1.752893,0.999909,-0.695941\H,0,-1.536568,0.449632,1.277

 Normal termination of Gaussian 16 at Tue Apr  8 23:29:56 2025.
