 Gaussian 16, Revision C.01,

 ----------------------------------------------------------------------
 #t hf aug-cc-pvdz symm=none int=(grid=ultrafine) guess=(read,tcheck) s
 table=opt
 ----------------------------------------------------------------------
 -----
 title
 -----
 Symbolic Z-matrix:
 Charge =  0 Multiplicity = 2

 SCF Done:  E(UHF) =  -887.340584178     A.U. after   22 cycles
 Normal termination of Gaussian 16 at Wed Apr  9 00:16:34 2025.
 Gaussian 16:  ES64L-G16RevC.01  3-Jul-2019

 ----------------------------------------------------------------------
 #t hf aug-cc-pvdz iop(5/13=1,5/36=2,99/5=2) pseudo=read geom=check gue
 ss=(read,tcheck) scf=(maxcycle=1)
 ----------------------------------------------------------------------
 -----
 title
 -----
 Structure from the checkpoint file:  "BDE49_nonexpt_2571_mol2.chk"
 Charge =  0 Multiplicity = 2

                         Standard orientation:
 ---------------------------------------------------------------------
 Center     Atomic      Atomic             Coordinates (Angstroms)
 Number     Number       Type             X           Y           Z
 ---------------------------------------------------------------------
      1         16           0        0.000000    0.000000   -2.175144
      2          7           0        0.000000    0.000000   -0.578448
      3          6           0        0.000000    0.000000    0.613593
      4         16           0        0.000000    0.000000    2.198118
 ---------------------------------------------------------------------

 SCF Done:  E(UHF) =  -887.413146040     A.U. after    2 cycles

 Unable to determine electronic state:  an orbital has unidentified symmetry.
 Alpha  occ. eigenvalues --  -93.63466 -93.55598 -15.72302 -11.40883  -8.92688
 Alpha  occ. eigenvalues --   -8.85438  -6.27756  -6.26645  -6.25819  -6.19658
 Alpha  occ. eigenvalues --   -6.19407  -6.18970  -1.29670  -1.08656  -1.00952
 Alpha  occ. eigenvalues --   -0.70431  -0.63512  -0.62257  -0.61254  -0.48123
 Alpha  occ. eigenvalues --   -0.44648  -0.37455  -0.34812
 Alpha virt. eigenvalues --    0.05511   0.06254   0.07955   0.08446   0.08529
 Alpha virt. eigenvalues --    0.10868   0.11221   0.13485   0.15035   0.15702
 Alpha virt. eigenvalues --    0.16676   0.17073   0.17715   0.24156   0.25110

  Beta  occ. eigenvalues --  -93.62650 -93.55381 -15.72388 -11.40822  -8.91776
  Beta  occ. eigenvalues --   -8.85197  -6.26255  -6.25314  -6.24135  -6.19550
  Beta  occ. eigenvalues --   -6.18789  -6.18511  -1.28679  -1.06483  -0.98078
  Beta  occ. eigenvalues --   -0.66112  -0.62213  -0.60042  -0.59911  -0.43566
  Beta  occ. eigenvalues --   -0.38441  -0.33657
  Beta virt. eigenvalues --   -0.03241   0.05724   0.06309   0.08460   0.08504
  Beta virt. eigenvalues --    0.08658   0.11107   0.11771   0.13613   0.15778
  Beta virt. eigenvalues --    0.16610   0.17105   0.18561   0.18993   0.24767

 Mulliken charges and spin densities:
               1          2
     1  S    0.586007   0.895211
     2  N   -0.406387  -0.098196
     3  C   -0.418190  -0.054491
     4  S    0.238569   0.257475
 Sum of Mulliken charges =  -0.00000   1.00000

 Dipole moment (field-independent basis, Debye):
    X=              0.0000    Y=             -0.0000    Z=             -1.5372  Tot=              1.5372
                          Isotropic Fermi Contact Couplings
        Atom                 a.u.       MegaHertz       Gauss      10(-4) cm-1
     1  S(33)              0.22083      75.84988      27.06512      25.30080
     2  N(14)             -0.02303      -7.43960      -2.65463      -2.48158
     3  C(13)              0.00188       2.10875       0.75245       0.70340
     4  S(33)              0.06578      22.59460       8.06231       7.53675
 --------------------------------------------------------
       Center         ----  Spin Dipole Couplings  ----
                      3XX-RR        3YY-RR        3ZZ-RR
 --------------------------------------------------------

 Normal termination of Gaussian 16 at Wed Apr  9 00:16:35 2025.
