 Gaussian 16, Revision C.01,

 ----------------------------------------------------------------------
 #t hf aug-cc-pvdz symm=none int=(grid=ultrafine) guess=(read,tcheck) s
 table=(opt,rrhf)
 ----------------------------------------------------------------------
 -----
 title
 -----
 Symbolic Z-matrix:
 Charge =  0 Multiplicity = 1

 SCF Done:  E(RHF) =  -1416.94933101     A.U. after   11 cycles

 1\1\GINC-SE165\Stability\RHF\Aug-CC-pVDZ\C1H1Cl3\OHZDE\08-Apr-2025\0\\
 #t hf aug-cc-pvdz symm=none int=(grid=ultrafine) guess=(read,tcheck) s
 table=(opt,rrhf)\\title\\0,1\C,0,-0.000022,0.000013,0.4564\Cl,0,1.0931
 73,1.300806,-0.083871\H,0,0.000005,0.000001,1.538684\Cl,0,0.579974,-1.
 597099,-0.083858\Cl,0,-1.673139,0.296288,-0.083864\\Version=ES64L-G16R
 evC.01\HF=-1416.949331\RMSD=6.314e-09\Dipole=-0.0000413,0.0000213,0.48
 13538\Quadrupole=-0.5899807,-0.590304,1.1802847,-0.0000085,0.0000048,-
 0.0000003\PG=Unknown\\@

 Normal termination of Gaussian 16 at Tue Apr  8 22:36:22 2025.
 Gaussian 16:  ES64L-G16RevC.01  3-Jul-2019

 ----------------------------------------------------------------------
 #t hf aug-cc-pvdz iop(5/13=1,5/36=2,99/5=2) pseudo=read geom=check gue
 ss=(read,tcheck) scf=(maxcycle=1)
 ----------------------------------------------------------------------
 -----
 title
 -----
 Structure from the checkpoint file:  "BDE49_expt_116_mol1.chk"
 Charge =  0 Multiplicity = 1

                         Standard orientation:
 ---------------------------------------------------------------------
 Center     Atomic      Atomic             Coordinates (Angstroms)
 Number     Number       Type             X           Y           Z
 ---------------------------------------------------------------------
      1          6           0        0.000022   -0.000013    0.456400
      2         17           0       -1.086723   -1.306199   -0.083871
      3          1           0       -0.000005   -0.000001    1.538684
      4         17           0       -0.587869    1.594210   -0.083858
      5         17           0        1.674585   -0.288006   -0.083864
 ---------------------------------------------------------------------

 SCF Done:  E(RHF) =  -1417.01850077     A.U. after    2 cycles

 The electronic state is 1-A.
 Alpha  occ. eigenvalues -- -103.69406-103.69406-103.69405 -11.44757 -10.72724
 Alpha  occ. eigenvalues --  -10.72724 -10.72698  -8.38438  -8.38438  -8.38429
 Alpha  occ. eigenvalues --   -8.38098  -8.38095  -8.38095  -8.38091  -8.38090
 Alpha  occ. eigenvalues --   -8.38090  -1.26458  -1.16242  -1.16241  -0.89803
 Alpha  occ. eigenvalues --   -0.69066  -0.63889  -0.63889  -0.51786  -0.51786
 Alpha  occ. eigenvalues --   -0.48397  -0.48397  -0.47942  -0.46866
 Alpha virt. eigenvalues --    0.03923   0.06491   0.08054   0.08054   0.10372
 Alpha virt. eigenvalues --    0.13317   0.13318   0.14655   0.14655   0.15461
 Alpha virt. eigenvalues --    0.16875   0.18169   0.18169   0.18862   0.20538

 Mulliken charges:
               1
     1  C   -0.508287
     2  Cl   0.082152
     3  H    0.261824
     4  Cl   0.082147
     5  Cl   0.082163
 Sum of Mulliken charges =  -0.00000

 Dipole moment (field-independent basis, Debye):
    X=              0.0001    Y=             -0.0001    Z=              1.2577  Tot=              1.2577

 Test job not archived.
 1\1\GINC-SE165\SP\RHF\Aug-CC-pVDZ\C1H1Cl3\OHZDE\08-Apr-2025\0\\#t hf a
 ug-cc-pvdz iop(5/13=1,5/36=2,99/5=2) pseudo=read geom=check guess=(rea
 d,tcheck) scf=(maxcycle=1)\\title\\0,1\C,0,-0.000022,0.000013,0.4564\C
 l,0,1.093173,1.300806,-0.083871\H,0,0.000005,0.000001,1.538684\Cl,0,0.
 579974,-1.597099,-0.083858\Cl,0,-1.673139,0.296288,-0.083864\\Version=
 ES64L-G16RevC.01\State=1-A\HF=-1417.0185008\RMSD=2.876e-03\Dipole=-0.0
 00042,0.0000216,0.4948029\Quadrupole=-0.5910171,-0.5913387,1.1823558,-
 0.0000086,0.0000051,-0.0000005\PG=C01 [X(C1H1Cl3)]\\@

 Normal termination of Gaussian 16 at Tue Apr  8 22:36:25 2025.
