 Gaussian 16, Revision C.01,

 ----------------------------------------------------------------------
 #t hf aug-cc-pvdz symm=none int=(grid=ultrafine) guess=(read,tcheck) s
 table=(opt,rrhf)
 ----------------------------------------------------------------------
 -----
 title
 -----
 Symbolic Z-matrix:
 Charge =  0 Multiplicity = 1

 SCF Done:  E(RHF) =  -1025.30917668     A.U. after   15 cycles
 Normal termination of Gaussian 16 at Tue Apr  8 22:48:43 2025.
 Gaussian 16:  ES64L-G16RevC.01  3-Jul-2019

 ----------------------------------------------------------------------
 #t hf aug-cc-pvdz iop(5/13=1,5/36=2,99/5=2) pseudo=read geom=check gue
 ss=(read,tcheck) scf=(maxcycle=1)
 ----------------------------------------------------------------------
 -----
 title
 -----
 Structure from the checkpoint file:  "BDE49_expt_1677_mol1.chk"
 Charge =  0 Multiplicity = 1

                         Standard orientation:
 ---------------------------------------------------------------------
 Center     Atomic      Atomic             Coordinates (Angstroms)
 Number     Number       Type             X           Y           Z
 ---------------------------------------------------------------------
      1          6           0        1.999221   -0.000000   -0.002827
      2          6           0        1.317205    1.213135   -0.011914
      3          6           0       -0.073024    1.208177   -0.027399
      4          6           0       -0.769221    0.000002   -0.035533
      5          6           0       -0.073025   -1.208173   -0.027399
      6          6           0        1.317203   -1.213134   -0.011914
      7         17           0        3.750898   -0.000001    0.015077
      8          1           0       -0.614806    2.145204   -0.042280
      9          1           0        1.867032    2.144934   -0.009692
     10          6           0       -2.272160    0.000001    0.001147
     11          9           0       -2.792955    1.088455   -0.605371
     12          9           0       -2.741526   -0.000043    1.271111
     13          9           0       -2.792953   -1.088416   -0.605444
     14          1           0       -0.614809   -2.145200   -0.042280
     15          1           0        1.867029   -2.144933   -0.009692
 ---------------------------------------------------------------------

 SCF Done:  E(RHF) =  -1025.51480153     A.U. after    2 cycles

 The electronic state is 1-A.
 Alpha  occ. eigenvalues -- -103.68272 -26.16975 -26.16963 -26.16465 -11.53544
 Alpha  occ. eigenvalues --  -11.33806 -11.29067 -11.28695 -11.28676 -11.28079
 Alpha  occ. eigenvalues --  -11.28076 -10.71545  -8.37281  -8.36970  -8.36955
 Alpha  occ. eigenvalues --   -1.76244  -1.69416  -1.68928  -1.22007  -1.16753
 Alpha  occ. eigenvalues --   -1.07753  -1.05320  -0.99867  -0.89585  -0.89141
 Alpha  occ. eigenvalues --   -0.87924  -0.86210  -0.81850  -0.77513  -0.77486
 Alpha  occ. eigenvalues --   -0.73255  -0.72854  -0.71856  -0.71416  -0.67800
 Alpha  occ. eigenvalues --   -0.67452  -0.63106  -0.61448  -0.57055  -0.54793
 Alpha  occ. eigenvalues --   -0.54569  -0.49976  -0.48398  -0.37789  -0.37024
 Alpha virt. eigenvalues --    0.03317   0.03728   0.04985   0.05972   0.06676
 Alpha virt. eigenvalues --    0.07890   0.08128   0.09200   0.09436   0.10429
 Alpha virt. eigenvalues --    0.12169   0.12444   0.13036   0.13438   0.14092

 Mulliken charges:
               1
     1  C   -0.531166
     2  C    0.741270
     3  C    0.299798
     4  C    0.981970
     5  C    0.299718
     6  C    0.741273
     7  Cl  -0.342849
     8  H   -0.553248
     9  H   -0.430359
    10  C    0.752047
    11  F   -0.323054
    12  F   -0.328735
    13  F   -0.323060
    14  H   -0.553245
    15  H   -0.430360
 Sum of Mulliken charges =  -0.00000

 Dipole moment (field-independent basis, Debye):
    X=              1.4606    Y=              0.0000    Z=             -0.1086  Tot=              1.4647

 Test job not archived.
 1\1\GINC-SE100\SP\RHF\Aug-CC-pVDZ\C7H4Cl1F3\OHZDE\08-Apr-2025\0\\#t hf
  aug-cc-pvdz iop(5/13=1,5/36=2,99/5=2) pseudo=read geom=check guess=(r
 ead,tcheck) scf=(maxcycle=1)\\title\\0,1\C,0,1.999221,0.,-0.002827\C,0
 ,1.317205,1.213135,-0.011914\C,0,-0.073024,1.208177,-0.027399\C,0,-0.7
 69221,0.000002,-0.035533\C,0,-0.073025,-1.208173,-0.027399\C,0,1.31720
 3,-1.213134,-0.011914\Cl,0,3.750898,-0.000001,0.015077\H,0,-0.614806,2
 .145204,-0.04228\H,0,1.867032,2.144934,-0.009692\C,0,-2.27216,0.000001
 ,0.001147\F,0,-2.792955,1.088455,-0.605371\F,0,-2.741526,-0.000043,1.2

 Normal termination of Gaussian 16 at Tue Apr  8 22:48:51 2025.
