 Gaussian 16, Revision C.01,

 ----------------------------------------------------------------------
 #t hf aug-cc-pvdz symm=none int=(grid=ultrafine) guess=(read,tcheck) s
 table=(opt,rrhf)
 ----------------------------------------------------------------------
 -----
 title
 -----
 Symbolic Z-matrix:
 Charge =  0 Multiplicity = 1

 SCF Done:  E(RHF) =  -1442.33220145     A.U. after   12 cycles
 Normal termination of Gaussian 16 at Tue Apr  8 23:41:10 2025.
 Gaussian 16:  ES64L-G16RevC.01  3-Jul-2019

 ----------------------------------------------------------------------
 #t hf aug-cc-pvdz iop(5/13=1,5/36=2,99/5=2) pseudo=read geom=check gue
 ss=(read,tcheck) scf=(maxcycle=1)
 ----------------------------------------------------------------------
 -----
 title
 -----
 Structure from the checkpoint file:  "BDE49_nonexpt_167_mol1.chk"
 Charge =  0 Multiplicity = 1

                         Standard orientation:
 ---------------------------------------------------------------------
 Center     Atomic      Atomic             Coordinates (Angstroms)
 Number     Number       Type             X           Y           Z
 ---------------------------------------------------------------------
      1         17           0       -2.120563   -0.808631    0.000027
      2         17           0       -0.395813    1.679635   -0.000035
      3          5           0       -0.520786   -0.061158   -0.000038
      4          6           0        0.704930   -1.042171    0.000012
      5         17           0        2.344134   -0.285921    0.000011
      6          1           0        0.651247   -1.693834   -0.875663
      7          1           0        0.651221   -1.693776    0.875730
 ---------------------------------------------------------------------

 SCF Done:  E(RHF) =  -1442.40525167     A.U. after    2 cycles

 The electronic state is 1-A.
 Alpha  occ. eigenvalues -- -103.68354-103.68190-103.66310 -11.31195 -10.71840
 Alpha  occ. eigenvalues --  -10.71689 -10.69558  -8.37529  -8.37385  -8.37306
 Alpha  occ. eigenvalues --   -8.37276  -8.37160  -8.37116  -8.35281  -8.34977
 Alpha  occ. eigenvalues --   -8.34975  -7.75100  -1.20025  -1.16643  -1.15891
 Alpha  occ. eigenvalues --   -0.95031  -0.70709  -0.64299  -0.62545  -0.60778
 Alpha  occ. eigenvalues --   -0.55493  -0.53411  -0.49676  -0.49392  -0.48081
 Alpha  occ. eigenvalues --   -0.45869  -0.45188
 Alpha virt. eigenvalues --    0.03323   0.04764   0.05362   0.05756   0.06519
 Alpha virt. eigenvalues --    0.08310   0.08437   0.09666   0.12229   0.13981
 Alpha virt. eigenvalues --    0.14312   0.14858   0.16258   0.17181   0.17629

 Mulliken charges:
               1
     1  Cl  -0.321438
     2  Cl  -0.255744
     3  B    0.682744
     4  C    0.016399
     5  Cl  -0.216433
     6  H    0.047239
     7  H    0.047232
 Sum of Mulliken charges =  -0.00000

 Dipole moment (field-independent basis, Debye):
    X=             -0.7465    Y=             -1.4491    Z=             -0.0001  Tot=              1.6301

 Test job not archived.
 1\1\GINC-SE367\SP\RHF\Aug-CC-pVDZ\C1H2B1Cl3\OHZDE\08-Apr-2025\0\\#t hf
  aug-cc-pvdz iop(5/13=1,5/36=2,99/5=2) pseudo=read geom=check guess=(r
 ead,tcheck) scf=(maxcycle=1)\\title\\0,1\Cl,0,-2.120563,-0.808631,0.00
 0027\Cl,0,-0.395813,1.679635,-0.000035\B,0,-0.520786,-0.061158,-0.0000
 38\C,0,0.70493,-1.042171,0.000012\Cl,0,2.344134,-0.28592,0.000011\H,0,
 0.651247,-1.693834,-0.875663\H,0,0.651221,-1.693776,0.87573\\Version=E
 S64L-G16RevC.01\State=1-A\HF=-1442.4052517\RMSD=2.811e-03\Dipole=-0.29
 37109,-0.5701328,-0.0000233\Quadrupole=-3.9168589,1.8767408,2.0401181,

 Normal termination of Gaussian 16 at Tue Apr  8 23:41:13 2025.
