 Gaussian 16, Revision C.01,

 ----------------------------------------------------------------------
 #t hf aug-cc-pvdz symm=none int=(grid=ultrafine) guess=(read,tcheck) s
 table=(opt,rrhf)
 ----------------------------------------------------------------------
 -----
 title
 -----
 Symbolic Z-matrix:
 Charge =  0 Multiplicity = 1

 SCF Done:  E(RHF) =  -646.603843805     A.U. after   14 cycles
 Normal termination of Gaussian 16 at Tue Apr  8 23:07:22 2025.
 Gaussian 16:  ES64L-G16RevC.01  3-Jul-2019

 ----------------------------------------------------------------------
 #t hf aug-cc-pvdz iop(5/13=1,5/36=2,99/5=2) pseudo=read geom=check gue
 ss=(read,tcheck) scf=(maxcycle=1)
 ----------------------------------------------------------------------
 -----
 title
 -----
 Structure from the checkpoint file:  "BDE49_expt_539_mol1.chk"
 Charge =  0 Multiplicity = 1

                         Standard orientation:
 ---------------------------------------------------------------------
 Center     Atomic      Atomic             Coordinates (Angstroms)
 Number     Number       Type             X           Y           Z
 ---------------------------------------------------------------------
      1          6           0        1.442727   -1.292992   -0.128740
      2          6           0        2.178676   -0.032458    0.312898
      3          7           0       -0.011068   -1.140503   -0.002202
      4          1           0        1.744701   -2.154607    0.472637
      5          1           0        1.690139   -1.521634   -1.174193
      6          6           0       -0.722462    0.000161    0.022479
      7          6           0        0.060543    1.296892    0.128978
      8          6           0        1.523476    1.196543   -0.319298
      9          1           0        0.015321    1.596849    1.182940
     10          1           0       -0.484183    2.060876   -0.425130
     11          1           0        1.574704    1.118838   -1.411660
     12          1           0        2.057811    2.108973   -0.042197
     13          1           0        3.230342   -0.117022    0.026991
     14          1           0        2.143943    0.051837    1.404644
     15         16           0       -2.388736   -0.011927   -0.002533
     16          1           0       -0.573290   -1.978633   -0.075998
 ---------------------------------------------------------------------

 SCF Done:  E(RHF) =  -646.696440646     A.U. after    2 cycles

 The electronic state is 1-A.
 Alpha  occ. eigenvalues --  -93.46791 -15.67429 -11.35434 -11.30022 -11.25859
 Alpha  occ. eigenvalues --  -11.25778 -11.25508  -8.76727  -6.10978  -6.10447
 Alpha  occ. eigenvalues --   -6.10357  -1.25361  -1.08653  -1.06125  -0.93045
 Alpha  occ. eigenvalues --   -0.90489  -0.83422  -0.76927  -0.69035  -0.65871
 Alpha  occ. eigenvalues --   -0.62779  -0.61307  -0.60305  -0.58116  -0.53277
 Alpha  occ. eigenvalues --   -0.50190  -0.49175  -0.47166  -0.46433  -0.31718
 Alpha  occ. eigenvalues --   -0.31215
 Alpha virt. eigenvalues --    0.02467   0.03575   0.03845   0.04664   0.06223
 Alpha virt. eigenvalues --    0.06524   0.06982   0.07364   0.07853   0.10398
 Alpha virt. eigenvalues --    0.10624   0.12226   0.12485   0.13180   0.13588

 Mulliken charges:
               1
     1  C    0.816623
     2  C    0.149290
     3  N   -0.488537
     4  H   -0.154696
     5  H   -0.149370
     6  C   -0.053816
     7  C    0.035718
     8  C    0.343927
     9  H    0.081450
    10  H   -0.017547
    11  H   -0.118236
    12  H   -0.042497
    13  H   -0.048075
    14  H   -0.134049
    15  S   -0.150510
    16  H   -0.069674
 Sum of Mulliken charges =  -0.00000

 Dipole moment (field-independent basis, Debye):
    X=              5.9053    Y=             -0.7884    Z=             -0.0609  Tot=              5.9580

 Test job not archived.
 1\1\GINC-SE232\SP\RHF\Aug-CC-pVDZ\C5H9N1S1\OHZDE\08-Apr-2025\0\\#t hf
 aug-cc-pvdz iop(5/13=1,5/36=2,99/5=2) pseudo=read geom=check guess=(re
 ad,tcheck) scf=(maxcycle=1)\\title\\0,1\C,0,1.442727,-1.292992,-0.1287
 4\C,0,2.178676,-0.032458,0.312898\N,0,-0.011068,-1.140503,-0.002202\H,
 0,1.744701,-2.154607,0.472637\H,0,1.690139,-1.521634,-1.174193\C,0,-0.
 722462,0.000161,0.022479\C,0,0.060543,1.296892,0.128978\C,0,1.523476,1
 .196543,-0.319298\H,0,0.015321,1.596849,1.18294\H,0,-0.484183,2.060876
 ,-0.42513\H,0,1.574704,1.118838,-1.41166\H,0,2.057811,2.108973,-0.0421

 Normal termination of Gaussian 16 at Tue Apr  8 23:07:30 2025.
