 Gaussian 16, Revision C.01,

 ----------------------------------------------------------------------
 #t hf aug-cc-pvdz symm=none int=(grid=ultrafine) guess=(read,tcheck) s
 table=(opt,rrhf)
 ----------------------------------------------------------------------
 -----
 title
 -----
 Symbolic Z-matrix:
 Charge =  0 Multiplicity = 1

 SCF Done:  E(RHF) =  -879.616705776     A.U. after   14 cycles
 Normal termination of Gaussian 16 at Tue Apr  8 23:52:40 2025.
 Gaussian 16:  ES64L-G16RevC.01  3-Jul-2019

 ----------------------------------------------------------------------
 #t hf aug-cc-pvdz iop(5/13=1,5/36=2,99/5=2) pseudo=read geom=check gue
 ss=(read,tcheck) scf=(maxcycle=1)
 ----------------------------------------------------------------------
 -----
 title
 -----
 Structure from the checkpoint file:  "BDE49_nonexpt_1944_mol1.chk"
 Charge =  0 Multiplicity = 1

                         Standard orientation:
 ---------------------------------------------------------------------
 Center     Atomic      Atomic             Coordinates (Angstroms)
 Number     Number       Type             X           Y           Z
 ---------------------------------------------------------------------
      1         14           0        2.505690   -0.079031   -0.443033
      2          6           0        1.124723   -0.304764    0.848014
      3          6           0       -0.167780    0.337208    0.409140
      4          8           0       -0.321248    1.527349    0.280365
      5         16           0       -1.478156   -0.842856    0.052927
      6          1           0        2.052160   -0.592044   -1.754778
      7          1           0        3.685067   -0.855993    0.003109
      8          1           0        2.868244    1.347884   -0.562249
      9          6           0       -2.764998    0.312491   -0.512761
     10          1           0       -3.663321   -0.279688   -0.685472
     11          1           0       -2.452799    0.799796   -1.434885
     12          1           0       -2.947781    1.061781    0.255005
     13          1           0        1.451881    0.191429    1.767217
     14          1           0        0.995694   -1.369453    1.058407
 ---------------------------------------------------------------------

 SCF Done:  E(RHF) =  -879.721078365     A.U. after    2 cycles

 The electronic state is 1-A.
 Alpha  occ. eigenvalues --  -93.55100 -69.07615 -20.57366 -11.38085 -11.27121
 Alpha  occ. eigenvalues --  -11.25228  -8.84958  -6.82878  -6.19094  -6.18861
 Alpha  occ. eigenvalues --   -6.18564  -3.93668  -3.93648  -3.93633  -1.37160
 Alpha  occ. eigenvalues --   -1.05710  -1.00877  -0.88790  -0.74506  -0.70333
 Alpha  occ. eigenvalues --   -0.66330  -0.64972  -0.60799  -0.59565  -0.57281
 Alpha  occ. eigenvalues --   -0.55001  -0.49596  -0.48448  -0.47909  -0.46416
 Alpha  occ. eigenvalues --   -0.41472  -0.37135
 Alpha virt. eigenvalues --    0.03337   0.04009   0.04708   0.05196   0.06188
 Alpha virt. eigenvalues --    0.06551   0.07243   0.08193   0.08661   0.09639
 Alpha virt. eigenvalues --    0.09765   0.10611   0.11612   0.12549   0.13781

 Mulliken charges:
               1
     1  Si   0.336113
     2  C    0.132749
     3  C    0.016403
     4  O   -0.546293
     5  S    0.311072
     6  H    0.016206
     7  H   -0.016927
     8  H    0.040415
     9  C    0.101841
    10  H   -0.103657
    11  H   -0.040599
    12  H   -0.028525
    13  H   -0.052332
    14  H   -0.166464
 Sum of Mulliken charges =  -0.00000

 Dipole moment (field-independent basis, Debye):
    X=             -0.1225    Y=             -1.6733    Z=              0.2084  Tot=              1.6906

 Test job not archived.
 1\1\GINC-SE361\SP\RHF\Aug-CC-pVDZ\C3H8O1S1Si1\OHZDE\08-Apr-2025\0\\#t
 hf aug-cc-pvdz iop(5/13=1,5/36=2,99/5=2) pseudo=read geom=check guess=
 (read,tcheck) scf=(maxcycle=1)\\title\\0,1\Si,0,2.50569,-0.079031,-0.4
 43033\C,0,1.124723,-0.304764,0.848014\C,0,-0.16778,0.337208,0.40914\O,
 0,-0.321248,1.527349,0.280365\S,0,-1.478156,-0.842856,0.052927\H,0,2.0
 5216,-0.592044,-1.754778\H,0,3.685067,-0.855993,0.003109\H,0,2.868244,
 1.347884,-0.562249\C,0,-2.764998,0.312491,-0.512761\H,0,-3.663321,-0.2
 79688,-0.685472\H,0,-2.452799,0.799796,-1.434885\H,0,-2.947781,1.06178

 Normal termination of Gaussian 16 at Tue Apr  8 23:52:44 2025.
