 Gaussian 16, Revision C.01,

 ----------------------------------------------------------------------
 #t hf aug-cc-pvdz symm=none int=(grid=ultrafine) guess=(read,tcheck) s
 table=(opt,rrhf)
 ----------------------------------------------------------------------
 -----
 title
 -----
 Symbolic Z-matrix:
 Charge =  0 Multiplicity = 1

 SCF Done:  E(RHF) =  -249.522251084     A.U. after   11 cycles
 Normal termination of Gaussian 16 at Wed Apr  9 00:51:56 2025.
 Gaussian 16:  ES64L-G16RevC.01  3-Jul-2019

 ----------------------------------------------------------------------
 #t hf aug-cc-pvdz iop(5/13=1,5/36=2,99/5=2) pseudo=read geom=check gue
 ss=(read,tcheck) scf=(maxcycle=1)
 ----------------------------------------------------------------------
 -----
 title
 -----
 Structure from the checkpoint file:  "BDE49_nonexpt_9_mol1.chk"
 Charge =  0 Multiplicity = 1

                         Standard orientation:
 ---------------------------------------------------------------------
 Center     Atomic      Atomic             Coordinates (Angstroms)
 Number     Number       Type             X           Y           Z
 ---------------------------------------------------------------------
      1          5           0        1.671965   -0.000716    0.000044
      2          5           0       -0.010620   -0.000057    0.000134
      3          9           0       -0.716139    1.127722   -0.000085
      4          9           0       -0.717008   -1.127291   -0.000016
      5          1           0        2.295744   -0.000021   -1.015269
      6          1           0        2.295849   -0.000003    1.015292
 ---------------------------------------------------------------------

 SCF Done:  E(RHF) =  -249.623021190     A.U. after    2 cycles

 The electronic state is 1-A.
 Alpha  occ. eigenvalues --  -26.13884 -26.13877  -7.73061  -7.63553  -1.69142
 Alpha  occ. eigenvalues --   -1.66811  -0.87946  -0.81791  -0.79738  -0.76773
 Alpha  occ. eigenvalues --   -0.72126  -0.71507  -0.69681  -0.51536  -0.49000
 Alpha virt. eigenvalues --    0.02753   0.04068   0.04663   0.05013   0.07135
 Alpha virt. eigenvalues --    0.07474   0.07621   0.09936   0.11608   0.12999
 Alpha virt. eigenvalues --    0.14254   0.14819   0.21254   0.22533   0.25277

 Mulliken charges:
               1
     1  B   -0.223689
     2  B    0.864899
     3  F   -0.480392
     4  F   -0.480162
     5  H    0.159658
     6  H    0.159686
 Sum of Mulliken charges =  -0.00000

 Dipole moment (field-independent basis, Debye):
    X=              1.7000    Y=             -0.0019    Z=              0.0006  Tot=              1.7000

 Test job not archived.
 1\1\GINC-SE340\SP\RHF\Aug-CC-pVDZ\B2F2H2\OHZDE\09-Apr-2025\0\\#t hf au
 g-cc-pvdz iop(5/13=1,5/36=2,99/5=2) pseudo=read geom=check guess=(read
 ,tcheck) scf=(maxcycle=1)\\title\\0,1\B,0,1.671965,-0.000717,0.000044\
 B,0,-0.01062,-0.000057,0.000134\F,0,-0.716138,1.127723,-0.000085\F,0,-
 0.717009,-1.12729,-0.000016\H,0,2.295744,-0.000023,-1.015269\H,0,2.295
 849,-0.000005,1.015292\\Version=ES64L-G16RevC.01\State=1-A\HF=-249.623
 0212\RMSD=6.101e-03\Dipole=0.6688465,-0.000762,0.0002506\Quadrupole=-0
 .6396775,-0.7316986,1.3713762,-0.0028284,-0.000401,0.0000977\PG=C01 [X

 Normal termination of Gaussian 16 at Wed Apr  9 00:51:58 2025.
