 Gaussian 16, Revision C.01,

 ----------------------------------------------------------------------
 #t hf aug-cc-pvdz symm=none int=(grid=ultrafine) guess=(read,tcheck) s
 table=(opt,rrhf)
 ----------------------------------------------------------------------
 -----
 title
 -----
 Symbolic Z-matrix:
 Charge =  0 Multiplicity = 1

 SCF Done:  E(RHF) =  -270.065888601     A.U. after   14 cycles

 1\1\GINC-SE435\Stability\RHF\Aug-CC-pVDZ\C5H10O1\OHZDE\08-Apr-2025\0\\
 #t hf aug-cc-pvdz symm=none int=(grid=ultrafine) guess=(read,tcheck) s
 table=(opt,rrhf)\\title\\0,1\C,0,-0.127626,-0.91749,-0.234809\C,0,-1.5
 29182,-0.37421,-0.52327\C,0,-2.165748,0.337937,0.674336\H,0,-2.168545,
 -1.205394,-0.838297\H,0,-1.467211,0.318065,-1.367219\H,0,-2.249945,-0.
 33314,1.535742\H,0,-3.171635,0.689965,0.430781\H,0,-1.573908,1.20563,0
 .972879\C,0,0.954738,0.150699,-0.112305\H,0,0.197538,-1.589848,-1.0409
 33\H,0,-0.118858,-1.534906,0.672754\O,0,0.762949,1.301802,-0.433733\C,

 Normal termination of Gaussian 16 at Tue Apr  8 22:31:44 2025.
 Gaussian 16:  ES64L-G16RevC.01  3-Jul-2019

 ----------------------------------------------------------------------
 #t hf aug-cc-pvdz iop(5/13=1,5/36=2,99/5=2) pseudo=read geom=check gue
 ss=(read,tcheck) scf=(maxcycle=1)
 ----------------------------------------------------------------------
 -----
 title
 -----
 Structure from the checkpoint file:  "BDE49_expt_1088_mol1.chk"
 Charge =  0 Multiplicity = 1

                         Standard orientation:
 ---------------------------------------------------------------------
 Center     Atomic      Atomic             Coordinates (Angstroms)
 Number     Number       Type             X           Y           Z
 ---------------------------------------------------------------------
      1          6           0       -0.127626   -0.917490   -0.234809
      2          6           0       -1.529182   -0.374210   -0.523270
      3          6           0       -2.165748    0.337937    0.674336
      4          1           0       -2.168545   -1.205394   -0.838297
      5          1           0       -1.467211    0.318065   -1.367219
      6          1           0       -2.249945   -0.333140    1.535742
      7          1           0       -3.171635    0.689965    0.430781
      8          1           0       -1.573908    1.205630    0.972879
      9          6           0        0.954738    0.150699   -0.112305
     10          1           0        0.197538   -1.589848   -1.040933
     11          1           0       -0.118858   -1.534906    0.672754
     12          8           0        0.762949    1.301802   -0.433733
     13          6           0        2.297551   -0.310243    0.426254
     14          1           0        2.207223   -0.512344    1.499100
     15          1           0        3.043673    0.468500    0.272974
     16          1           0        2.619677   -1.241092   -0.049145
 ---------------------------------------------------------------------

 SCF Done:  E(RHF) =  -270.152176494     A.U. after    2 cycles

 The electronic state is 1-A.
 Alpha  occ. eigenvalues --  -20.55933 -11.34176 -11.24700 -11.24515 -11.23236
 Alpha  occ. eigenvalues --  -11.22012  -1.35198  -1.06632  -1.00910  -0.93983
 Alpha  occ. eigenvalues --   -0.82481  -0.73482  -0.67048  -0.64009  -0.63041
 Alpha  occ. eigenvalues --   -0.59545  -0.58518  -0.55472  -0.54976  -0.51052
 Alpha  occ. eigenvalues --   -0.49105  -0.48259  -0.48026  -0.41893
 Alpha virt. eigenvalues --    0.03145   0.04161   0.04473   0.05099   0.06352
 Alpha virt. eigenvalues --    0.06592   0.06796   0.07772   0.08089   0.09118
 Alpha virt. eigenvalues --    0.11097   0.12869   0.13550   0.14248   0.15013

 Mulliken charges:
               1
     1  C    0.109356
     2  C    0.320517
     3  C    0.344305
     4  H   -0.070583
     5  H   -0.077780
     6  H   -0.067230
     7  H   -0.082414
     8  H   -0.085742
     9  C   -0.185363
    10  H    0.004868
    11  H   -0.090101
    12  O   -0.535503
    13  C    0.416321
    14  H    0.061590
    15  H   -0.071539
    16  H    0.009298
 Sum of Mulliken charges =   0.00000

 Dipole moment (field-independent basis, Debye):
    X=              0.4620    Y=             -3.1732    Z=              0.8103  Tot=              3.3074

 Test job not archived.
 1\1\GINC-SE435\SP\RHF\Aug-CC-pVDZ\C5H10O1\OHZDE\08-Apr-2025\0\\#t hf a
 ug-cc-pvdz iop(5/13=1,5/36=2,99/5=2) pseudo=read geom=check guess=(rea
 d,tcheck) scf=(maxcycle=1)\\title\\0,1\C,0,-0.127626,-0.91749,-0.23480
 9\C,0,-1.529182,-0.37421,-0.52327\C,0,-2.165748,0.337937,0.674336\H,0,
 -2.168545,-1.205394,-0.838297\H,0,-1.467211,0.318065,-1.367219\H,0,-2.
 249945,-0.33314,1.535742\H,0,-3.171635,0.689965,0.430781\H,0,-1.573908
 ,1.20563,0.972879\C,0,0.954738,0.150699,-0.112305\H,0,0.197538,-1.5898
 48,-1.040933\H,0,-0.118858,-1.534906,0.672754\O,0,0.762949,1.301802,-0

 Normal termination of Gaussian 16 at Tue Apr  8 22:31:49 2025.
