 Gaussian 16, Revision C.01,

 ----------------------------------------------------------------------
 #t hf aug-cc-pvdz symm=none int=(grid=ultrafine) guess=(read,tcheck) s
 table=(opt,rrhf)
 ----------------------------------------------------------------------
 -----
 title
 -----
 Symbolic Z-matrix:
 Charge =  0 Multiplicity = 1

 SCF Done:  E(RHF) =  -987.161488856     A.U. after   11 cycles
 Normal termination of Gaussian 16 at Tue Apr  8 23:44:14 2025.
 Gaussian 16:  ES64L-G16RevC.01  3-Jul-2019

 ----------------------------------------------------------------------
 #t hf aug-cc-pvdz iop(5/13=1,5/36=2,99/5=2) pseudo=read geom=check gue
 ss=(read,tcheck) scf=(maxcycle=1)
 ----------------------------------------------------------------------
 -----
 title
 -----
 Structure from the checkpoint file:  "BDE49_nonexpt_1757_mol1.chk"
 Charge =  0 Multiplicity = 1

                         Standard orientation:
 ---------------------------------------------------------------------
 Center     Atomic      Atomic             Coordinates (Angstroms)
 Number     Number       Type             X           Y           Z
 ---------------------------------------------------------------------
      1         14           0       -0.324797   -0.076975    0.000001
      2          6           0       -1.292083    1.486659    0.000001
      3         17           0        1.701018    0.238508   -0.000004
      4          9           0       -0.674172   -0.962523   -1.275611
      5          9           0       -0.674167   -0.962520    1.275616
      6          1           0       -2.362743    1.265101    0.000010
      7          1           0       -1.059930    2.081673   -0.886302
      8          1           0       -1.059916    2.081682    0.886294
 ---------------------------------------------------------------------

 SCF Done:  E(RHF) =  -987.310234693     A.U. after    2 cycles

 The electronic state is 1-A.
 Alpha  occ. eigenvalues -- -103.67185 -69.20652 -26.13410 -26.13409 -11.25322
 Alpha  occ. eigenvalues --  -10.70693  -8.36383  -8.36153  -8.36150  -6.94417
 Alpha  occ. eigenvalues --   -4.05408  -4.05358  -4.05174  -1.67055  -1.65817
 Alpha  occ. eigenvalues --   -1.16019  -0.98249  -0.84463  -0.79230  -0.76074
 Alpha  occ. eigenvalues --   -0.75788  -0.73658  -0.72094  -0.61785  -0.59242
 Alpha  occ. eigenvalues --   -0.58684  -0.52675  -0.50172  -0.48976
 Alpha virt. eigenvalues --    0.03073   0.05278   0.05308   0.06137   0.07843
 Alpha virt. eigenvalues --    0.08198   0.09846   0.13443   0.13858   0.14494
 Alpha virt. eigenvalues --    0.15436   0.17038   0.17692   0.18896   0.19022

 Mulliken charges:
               1
     1  Si   2.359353
     2  C    0.261969
     3  Cl  -0.487868
     4  F   -0.799291
     5  F   -0.799291
     6  H   -0.169189
     7  H   -0.182841
     8  H   -0.182841
 Sum of Mulliken charges =  -0.00000

 Dipole moment (field-independent basis, Debye):
    X=             -1.1083    Y=              2.4452    Z=              0.0000  Tot=              2.6847

 Test job not archived.
 1\1\GINC-SE453\SP\RHF\Aug-CC-pVDZ\C1H3Cl1F2Si1\OHZDE\08-Apr-2025\0\\#t
  hf aug-cc-pvdz iop(5/13=1,5/36=2,99/5=2) pseudo=read geom=check guess
 =(read,tcheck) scf=(maxcycle=1)\\title\\0,1\Si,0,-0.324797,-0.076975,0
 .000001\C,0,-1.292082,1.48666,0.000001\Cl,0,1.701018,0.238507,-0.00000
 4\F,0,-0.674172,-0.962523,-1.275611\F,0,-0.674167,-0.96252,1.275616\H,
 0,-2.362742,1.265102,0.00001\H,0,-1.059929,2.081673,-0.886302\H,0,-1.0
 59915,2.081682,0.886294\\Version=ES64L-G16RevC.01\State=1-A\HF=-987.31
 02347\RMSD=4.533e-03\Dipole=-0.4360459,0.9620187,0.0000006\Quadrupole=

 Normal termination of Gaussian 16 at Tue Apr  8 23:44:16 2025.
