 Gaussian 16, Revision C.01,

 ----------------------------------------------------------------------
 #t hf aug-cc-pvdz symm=none int=(grid=ultrafine) guess=(read,tcheck) s
 table=(opt,rrhf)
 ----------------------------------------------------------------------
 -----
 title
 -----
 Symbolic Z-matrix:
 Charge =  0 Multiplicity = 1

 SCF Done:  E(RHF) =  -473.274114039     A.U. after   16 cycles
 Normal termination of Gaussian 16 at Tue Apr  8 22:38:36 2025.
 Gaussian 16:  ES64L-G16RevC.01  3-Jul-2019

 ----------------------------------------------------------------------
 #t hf aug-cc-pvdz iop(5/13=1,5/36=2,99/5=2) pseudo=read geom=check gue
 ss=(read,tcheck) scf=(maxcycle=1)
 ----------------------------------------------------------------------
 -----
 title
 -----
 Structure from the checkpoint file:  "BDE49_expt_1258_mol1.chk"
 Charge =  0 Multiplicity = 1

                         Standard orientation:
 ---------------------------------------------------------------------
 Center     Atomic      Atomic             Coordinates (Angstroms)
 Number     Number       Type             X           Y           Z
 ---------------------------------------------------------------------
      1          6           0        2.188565   -1.206403   -0.195975
      2          6           0        0.882399   -1.206983    0.284905
      3          6           0        2.843536    0.000002   -0.435757
      4          6           0        2.188561    1.206404   -0.195964
      5          6           0        0.882395    1.206975    0.284917
      6          6           0        0.223051   -0.000006    0.533612
      7          1           0        0.369727   -2.145400    0.464489
      8          7           0       -2.163370    0.000003   -0.148962
      9          8           0       -2.502918    1.087236   -0.585408
     10          8           0       -2.502955   -1.087218   -0.585407
     11          1           0        2.694363   -2.146652   -0.382822
     12          1           0        2.694357    2.146656   -0.382801
     13          1           0        3.861672    0.000006   -0.807902
     14          1           0        0.369721    2.145390    0.464509
     15          6           0       -1.197145   -0.000011    1.032735
     16          1           0       -1.433715    0.896518    1.601482
     17          1           0       -1.433716   -0.896553    1.601461
 ---------------------------------------------------------------------

 SCF Done:  E(RHF) =  -473.415092208     A.U. after    2 cycles

 The electronic state is 1-A.
 Alpha  occ. eigenvalues --  -20.61910 -20.61901 -15.91131 -11.32546 -11.27784
 Alpha  occ. eigenvalues --  -11.26654 -11.26647 -11.26471 -11.26198 -11.26178
 Alpha  occ. eigenvalues --   -1.54850  -1.36743  -1.17323  -1.10148  -1.03026
 Alpha  occ. eigenvalues --   -1.00913  -0.87517  -0.85205  -0.82579  -0.75997
 Alpha  occ. eigenvalues --   -0.74269  -0.74066  -0.70568  -0.67201  -0.65445
 Alpha  occ. eigenvalues --   -0.61350  -0.59951  -0.59911  -0.53629  -0.52072
 Alpha  occ. eigenvalues --   -0.52056  -0.50841  -0.49720  -0.47419  -0.35958
 Alpha  occ. eigenvalues --   -0.35850
 Alpha virt. eigenvalues --    0.02895   0.03374   0.03703   0.05145   0.05453
 Alpha virt. eigenvalues --    0.07008   0.07448   0.08030   0.08949   0.09330
 Alpha virt. eigenvalues --    0.10135   0.10935   0.12175   0.12593   0.13503

 Mulliken charges:
               1
     1  C    0.385193
     2  C    0.228814
     3  C    0.486772
     4  C    0.385193
     5  C    0.228799
     6  C    0.853209
     7  H   -0.527951
     8  N    0.467839
     9  O   -0.591934
    10  O   -0.591933
    11  H   -0.433869
    12  H   -0.433870
    13  H   -0.430932
    14  H   -0.527950
    15  C    0.870713
    16  H   -0.184042
    17  H   -0.184050
 Sum of Mulliken charges =  -0.00000

 Dipole moment (field-independent basis, Debye):
    X=              3.5220    Y=             -0.0000    Z=              2.8685  Tot=              4.5424

 Test job not archived.
 1\1\GINC-SE073\SP\RHF\Aug-CC-pVDZ\C7H7N1O2\OHZDE\08-Apr-2025\0\\#t hf
 aug-cc-pvdz iop(5/13=1,5/36=2,99/5=2) pseudo=read geom=check guess=(re
 ad,tcheck) scf=(maxcycle=1)\\title\\0,1\C,0,2.188565,-1.206403,-0.1959
 75\C,0,0.882399,-1.206983,0.284905\C,0,2.843536,0.000002,-0.435757\C,0
 ,2.188561,1.206404,-0.195964\C,0,0.882395,1.206975,0.284917\C,0,0.2230
 51,-0.000006,0.533612\H,0,0.369727,-2.1454,0.464489\N,0,-2.16337,0.000
 003,-0.148962\O,0,-2.502918,1.087236,-0.585408\O,0,-2.502955,-1.087218
 ,-0.585407\H,0,2.694363,-2.146652,-0.382822\H,0,2.694357,2.146656,-0.3

 Normal termination of Gaussian 16 at Tue Apr  8 22:38:45 2025.
