 Gaussian 16, Revision C.01,

 ----------------------------------------------------------------------
 #t hf aug-cc-pvdz symm=none int=(grid=ultrafine) guess=(read,tcheck) s
 table=(opt,rrhf)
 ----------------------------------------------------------------------
 -----
 title
 -----
 Symbolic Z-matrix:
 Charge =  0 Multiplicity = 1

 SCF Done:  E(RHF) =  -906.387504558     A.U. after   12 cycles
 Normal termination of Gaussian 16 at Tue Apr  8 23:43:42 2025.
 Gaussian 16:  ES64L-G16RevC.01  3-Jul-2019

 ----------------------------------------------------------------------
 #t hf aug-cc-pvdz iop(5/13=1,5/36=2,99/5=2) pseudo=read geom=check gue
 ss=(read,tcheck) scf=(maxcycle=1)
 ----------------------------------------------------------------------
 -----
 title
 -----
 Structure from the checkpoint file:  "BDE49_nonexpt_1736_mol1.chk"
 Charge =  0 Multiplicity = 1

                         Standard orientation:
 ---------------------------------------------------------------------
 Center     Atomic      Atomic             Coordinates (Angstroms)
 Number     Number       Type             X           Y           Z
 ---------------------------------------------------------------------
      1          6           0       -2.215089    0.894190   -0.000032
      2          6           0       -1.040941   -0.110910   -0.000006
      3         14           0        0.552596    0.916124   -0.000011
      4          6           0       -1.112304   -0.992894    1.262576
      5         17           0        2.252271   -0.306992    0.000022
      6          1           0       -2.205683    1.537227    0.885676
      7          1           0       -3.168116    0.352410   -0.000031
      8          1           0       -1.076464   -0.396395    2.179307
      9          1           0       -0.292760   -1.715343    1.298839
     10          1           0       -2.052923   -1.556218    1.272301
     11          6           0       -1.112284   -0.992936   -1.262560
     12          1           0       -1.076429   -0.396468   -2.179310
     13          1           0       -2.052903   -1.556261   -1.272282
     14          1           0       -0.292740   -1.715387   -1.298786
     15          1           0       -2.205669    1.537197   -0.885762
     16          1           0        0.641216    1.758860    1.211690
     17          1           0        0.641234    1.758821   -1.211737
 ---------------------------------------------------------------------

 SCF Done:  E(RHF) =  -906.479562952     A.U. after    2 cycles

 The electronic state is 1-A.
 Alpha  occ. eigenvalues -- -103.64430 -69.10251 -11.24741 -11.24018 -11.23466
 Alpha  occ. eigenvalues --  -11.23459 -10.67850  -8.33542  -8.33332  -8.33324
 Alpha  occ. eigenvalues --   -6.85217  -3.96037  -3.95882  -3.95855  -1.12793
 Alpha  occ. eigenvalues --   -1.08156  -0.93938  -0.93658  -0.78074  -0.69202
 Alpha  occ. eigenvalues --   -0.61569  -0.61170  -0.60836  -0.55601  -0.55496
 Alpha  occ. eigenvalues --   -0.52796  -0.51776  -0.51406  -0.48233  -0.47966
 Alpha  occ. eigenvalues --   -0.47597  -0.44952  -0.40804
 Alpha virt. eigenvalues --    0.03185   0.04667   0.04688   0.05065   0.06400
 Alpha virt. eigenvalues --    0.06694   0.06731   0.07035   0.07069   0.09251
 Alpha virt. eigenvalues --    0.09543   0.09782   0.09784   0.11524   0.12699

 Mulliken charges:
               1
     1  C    0.928138
     2  C   -1.921424
     3  Si  -0.206640
     4  C    0.849340
     5  Cl  -0.596300
     6  H   -0.076554
     7  H   -0.030836
     8  H   -0.095234
     9  H   -0.075387
    10  H   -0.016898
    11  C    0.849340
    12  H   -0.095236
    13  H   -0.016898
    14  H   -0.075387
    15  H   -0.076554
    16  H    0.328265
    17  H    0.328266
 Sum of Mulliken charges =  -0.00000

 Dipole moment (field-independent basis, Debye):
    X=             -2.3013    Y=              0.4633    Z=             -0.0000  Tot=              2.3475

 Test job not archived.
 1\1\GINC-SE361\SP\RHF\Aug-CC-pVDZ\C4H11Cl1Si1\OHZDE\08-Apr-2025\0\\#t
 hf aug-cc-pvdz iop(5/13=1,5/36=2,99/5=2) pseudo=read geom=check guess=
 (read,tcheck) scf=(maxcycle=1)\\title\\0,1\C,0,-2.215089,0.89419,-0.00
 0032\C,0,-1.040941,-0.11091,-0.000006\Si,0,0.552596,0.916124,-0.000011
 \C,0,-1.112304,-0.992894,1.262576\Cl,0,2.252271,-0.306992,0.000022\H,0
 ,-2.205683,1.537227,0.885676\H,0,-3.168116,0.35241,-0.000031\H,0,-1.07
 6464,-0.396395,2.179307\H,0,-0.29276,-1.715343,1.298839\H,0,-2.052923,
 -1.556218,1.272301\C,0,-1.112284,-0.992936,-1.26256\H,0,-1.076429,-0.3

 Normal termination of Gaussian 16 at Tue Apr  8 23:43:48 2025.
