 Gaussian 16, Revision C.01,

 ----------------------------------------------------------------------
 #t hf aug-cc-pvdz symm=none int=(grid=ultrafine) guess=(read,tcheck) s
 table=(opt,rrhf)
 ----------------------------------------------------------------------
 -----
 title
 -----
 Symbolic Z-matrix:
 Charge =  0 Multiplicity = 1

 SCF Done:  E(RHF) =  -1291.02820124     A.U. after   15 cycles
 Normal termination of Gaussian 16 at Tue Apr  8 23:30:00 2025.
 Gaussian 16:  ES64L-G16RevC.01  3-Jul-2019

 ----------------------------------------------------------------------
 #t hf aug-cc-pvdz iop(5/13=1,5/36=2,99/5=2) pseudo=read geom=check gue
 ss=(read,tcheck) scf=(maxcycle=1)
 ----------------------------------------------------------------------
 -----
 title
 -----
 Structure from the checkpoint file:  "BDE49_nonexpt_1329_mol1.chk"
 Charge =  0 Multiplicity = 1

                         Standard orientation:
 ---------------------------------------------------------------------
 Center     Atomic      Atomic             Coordinates (Angstroms)
 Number     Number       Type             X           Y           Z
 ---------------------------------------------------------------------
      1          6           0        2.373739    0.000007   -0.018700
      2          6           0        1.678935    1.204526   -0.004327
      3          6           0        0.291341    1.186963    0.017688
      4          6           0        1.678947   -1.204519   -0.004328
      5          6           0        0.291352   -1.186969    0.017685
      6          6           0       -0.436027   -0.000006    0.017331
      7          9           0        3.704220    0.000013   -0.038782
      8          9           0        2.347118    2.358763   -0.008247
      9          9           0       -0.346995    2.371664    0.055826
     10          9           0        2.347141   -2.358750   -0.008247
     11          9           0       -0.346968   -2.371680    0.055832
     12         15           0       -2.263683   -0.000006    0.110446
     13          8           0       -2.732053   -0.000015    1.496326
     14          8           0       -2.718301   -1.190904   -0.841079
     15          1           0       -2.652949   -2.053740   -0.414921
     16          8           0       -2.718292    1.190916   -0.841052
     17          1           0       -2.652998    2.053734   -0.414849
 ---------------------------------------------------------------------

 SCF Done:  E(RHF) =  -1291.41257713     A.U. after    2 cycles

 The electronic state is 1-A.
 Alpha  occ. eigenvalues --  -81.45152 -26.19801 -26.19799 -26.19733 -26.19139
 Alpha  occ. eigenvalues --  -26.19137 -20.63696 -20.63689 -20.54750 -11.41527
 Alpha  occ. eigenvalues --  -11.41352 -11.41350 -11.40394 -11.40386 -11.31949
 Alpha  occ. eigenvalues --   -7.93371  -5.08053  -5.07988  -5.07772  -1.74382
 Alpha  occ. eigenvalues --   -1.73958  -1.73748  -1.72862  -1.72605  -1.40712
 Alpha  occ. eigenvalues --   -1.37096  -1.28347  -1.23967  -1.11162  -1.10772
 Alpha  occ. eigenvalues --   -0.98021  -0.97381  -0.89823  -0.89192  -0.89047
 Alpha  occ. eigenvalues --   -0.87071  -0.83483  -0.83000  -0.82957  -0.81732
 Alpha  occ. eigenvalues --   -0.81559  -0.80923  -0.79609  -0.79128  -0.78025
 Alpha  occ. eigenvalues --   -0.77293  -0.75796  -0.74992  -0.70245  -0.69420
 Alpha  occ. eigenvalues --   -0.67421  -0.66710  -0.65152  -0.61264  -0.59864
 Alpha  occ. eigenvalues --   -0.57559  -0.55551  -0.50973  -0.50575  -0.41380
 Alpha  occ. eigenvalues --   -0.40736
 Alpha virt. eigenvalues --    0.03365   0.04470   0.04807   0.05492   0.07428
 Alpha virt. eigenvalues --    0.07452   0.08041   0.08123   0.09849   0.10597
 Alpha virt. eigenvalues --    0.10755   0.11030   0.11068   0.12619   0.13402

 Mulliken charges:
               1
     1  C    0.699090
     2  C    0.296745
     3  C    0.017229
     4  C    0.296739
     5  C    0.017255
     6  C   -0.082200
     7  F   -0.271905
     8  F   -0.221116
     9  F   -0.329366
    10  F   -0.221116
    11  F   -0.329371
    12  P    2.081156
    13  O   -0.889124
    14  O   -0.720958
    15  H    0.188952
    16  O   -0.720959
    17  H    0.188951
 Sum of Mulliken charges =  -0.00000

 Dipole moment (field-independent basis, Debye):
    X=              0.7528    Y=              0.0000    Z=             -1.4623  Tot=              1.6447

 Test job not archived.
 1\1\GINC-SE096\SP\RHF\Aug-CC-pVDZ\C6H2F5O3P1\OHZDE\08-Apr-2025\0\\#t h
 f aug-cc-pvdz iop(5/13=1,5/36=2,99/5=2) pseudo=read geom=check guess=(
 read,tcheck) scf=(maxcycle=1)\\title\\0,1\C,0,-2.373739,-0.000007,-0.0
 187\C,0,-1.678935,-1.204526,-0.004327\C,0,-0.291341,-1.186963,0.017688
 \C,0,-1.678947,1.204519,-0.004328\C,0,-0.291352,1.186969,0.017685\C,0,
 0.436027,0.000006,0.017331\F,0,-3.70422,-0.000013,-0.038782\F,0,-2.347
 118,-2.358763,-0.008247\F,0,0.346995,-2.371664,0.055826\F,0,-2.347141,
 2.35875,-0.008247\F,0,0.346968,2.37168,0.055832\P,0,2.263683,0.000006,

 Normal termination of Gaussian 16 at Tue Apr  8 23:30:15 2025.
