 Gaussian 16, Revision C.01,

 ----------------------------------------------------------------------
 #t hf aug-cc-pvdz symm=none int=(grid=ultrafine) guess=(read,tcheck) s
 table=(opt,rrhf)
 ----------------------------------------------------------------------
 -----
 title
 -----
 Symbolic Z-matrix:
 Charge =  0 Multiplicity = 1

 SCF Done:  E(RHF) =  -1025.23191068     A.U. after   15 cycles
 Normal termination of Gaussian 16 at Tue Apr  8 23:31:12 2025.
 Gaussian 16:  ES64L-G16RevC.01  3-Jul-2019

 ----------------------------------------------------------------------
 #t hf aug-cc-pvdz iop(5/13=1,5/36=2,99/5=2) pseudo=read geom=check gue
 ss=(read,tcheck) scf=(maxcycle=1)
 ----------------------------------------------------------------------
 -----
 title
 -----
 Structure from the checkpoint file:  "BDE49_nonexpt_1406_mol1.chk"
 Charge =  0 Multiplicity = 1

                         Standard orientation:
 ---------------------------------------------------------------------
 Center     Atomic      Atomic             Coordinates (Angstroms)
 Number     Number       Type             X           Y           Z
 ---------------------------------------------------------------------
      1          6           0        0.222501   -1.245469   -0.216609
      2          6           0        1.040123    0.000004    0.161171
      3          6           0        0.222500    1.245503   -0.216522
      4         15           0       -1.656713    1.129878    0.104145
      5         15           0       -1.656698   -1.129888    0.104143
      6          6           0        1.185670   -0.000046    1.709235
      7          1           0        0.222097   -0.000065    2.225799
      8          1           0        1.738038    0.888363    2.022942
      9          1           0        1.738042   -0.888474    2.022883
     10          6           0        2.407235    0.000028   -0.522698
     11          1           0        2.302111    0.000064   -1.608929
     12          1           0        2.967481   -0.891217   -0.237179
     13          1           0        2.967479    0.891255   -0.237119
     14          8           0        0.702310    2.261151   -0.642966
     15          8           0        0.702328   -2.261136   -0.642987
     16          1           0       -1.969699   -1.361055   -1.256274
     17          1           0       -1.969667    1.361042   -1.256283
 ---------------------------------------------------------------------

 SCF Done:  E(RHF) =  -1025.37194669     A.U. after    2 cycles

 The electronic state is 1-A.
 Alpha  occ. eigenvalues --  -81.28883 -81.28883 -20.59648 -20.59647 -11.37338
 Alpha  occ. eigenvalues --  -11.37331 -11.29180 -11.26971 -11.24218  -7.79317
 Alpha  occ. eigenvalues --   -7.79309  -4.93232  -4.93207  -4.93182  -4.93160
 Alpha  occ. eigenvalues --   -4.92915  -4.92879  -1.39007  -1.38599  -1.12066
 Alpha  occ. eigenvalues --   -0.96272  -0.94529  -0.85160  -0.84736  -0.75988
 Alpha  occ. eigenvalues --   -0.72269  -0.67865  -0.66709  -0.64924  -0.61201
 Alpha  occ. eigenvalues --   -0.61025  -0.57291  -0.56759  -0.56139  -0.55364
 Alpha  occ. eigenvalues --   -0.55004  -0.52786  -0.50536  -0.43111  -0.41852
 Alpha  occ. eigenvalues --   -0.38206  -0.35816
 Alpha virt. eigenvalues --    0.03312   0.04115   0.04956   0.05140   0.05567
 Alpha virt. eigenvalues --    0.06332   0.06428   0.07688   0.07721   0.07930
 Alpha virt. eigenvalues --    0.09174   0.09765   0.09800   0.11142   0.11526

 Mulliken charges:
               1
     1  C    0.245256
     2  C   -1.824500
     3  C    0.245243
     4  P   -0.030475
     5  P   -0.030480
     6  C    0.778827
     7  H   -0.092172
     8  H   -0.035711
     9  H   -0.035704
    10  C    1.256598
    11  H   -0.027554
    12  H    0.015243
    13  H    0.015243
    14  O   -0.480290
    15  O   -0.480295
    16  H    0.240379
    17  H    0.240392
 Sum of Mulliken charges =   0.00000

 Dipole moment (field-independent basis, Debye):
    X=             -1.1414    Y=             -0.0000    Z=              1.3774  Tot=              1.7889

 Test job not archived.
 1\1\GINC-SE253\SP\RHF\Aug-CC-pVDZ\C5H8O2P2\OHZDE\08-Apr-2025\0\\#t hf
 aug-cc-pvdz iop(5/13=1,5/36=2,99/5=2) pseudo=read geom=check guess=(re
 ad,tcheck) scf=(maxcycle=1)\\title\\0,1\C,0,-0.222502,1.245469,-0.2166
 09\C,0,-1.040123,-0.000005,0.161171\C,0,-0.222499,-1.245503,-0.216522\
 P,0,1.656714,-1.129877,0.104145\P,0,1.656697,1.129889,0.104143\C,0,-1.
 18567,0.000045,1.709235\H,0,-0.222097,0.000065,2.225799\H,0,-1.738037,
 -0.888364,2.022942\H,0,-1.738042,0.888473,2.022883\C,0,-2.407235,-0.00
 0029,-0.522698\H,0,-2.302111,-0.000065,-1.608929\H,0,-2.967481,0.89121

 Normal termination of Gaussian 16 at Tue Apr  8 23:31:20 2025.
