 Gaussian 16, Revision C.01,

 ----------------------------------------------------------------------
 #t hf aug-cc-pvdz symm=none int=(grid=ultrafine) guess=(read,tcheck) s
 table=(opt,rrhf)
 ----------------------------------------------------------------------
 -----
 title
 -----
 Symbolic Z-matrix:
 Charge =  0 Multiplicity = 1

 SCF Done:  E(RHF) =  -519.778795123     A.U. after   15 cycles
 Normal termination of Gaussian 16 at Wed Apr  9 00:41:24 2025.
 Gaussian 16:  ES64L-G16RevC.01  3-Jul-2019

 ----------------------------------------------------------------------
 #t hf aug-cc-pvdz iop(5/13=1,5/36=2,99/5=2) pseudo=read geom=check gue
 ss=(read,tcheck) scf=(maxcycle=1)
 ----------------------------------------------------------------------
 -----
 title
 -----
 Structure from the checkpoint file:  "BDE49_nonexpt_678_mol1.chk"
 Charge =  0 Multiplicity = 1

                         Standard orientation:
 ---------------------------------------------------------------------
 Center     Atomic      Atomic             Coordinates (Angstroms)
 Number     Number       Type             X           Y           Z
 ---------------------------------------------------------------------
      1          5           0       -1.914523    0.071217   -0.000002
      2          8           0       -2.238000    1.396706   -0.000001
      3          1           0       -1.435712    1.935510   -0.000001
      4          8           0       -2.931596   -0.845839   -0.000001
      5          1           0       -3.789671   -0.409184   -0.000001
      6          6           0       -0.440342   -0.475963   -0.000002
      7          6           0        0.699235    0.355597    0.000000
      8          1           0        1.132383    3.614680    0.000013
      9          1           0        2.181795    2.487666    0.894620
     10          1           0        2.181800    2.487676   -0.894599
     11          8           0        0.462379    1.714124    0.000002
     12          6           0        1.564017    2.615023    0.000009
     13          6           0        1.988790   -0.178051    0.000000
     14          1           0        2.859413    0.463265    0.000001
     15          6           0        2.158940   -1.562279   -0.000002
     16          1           0        3.163780   -1.970329   -0.000002
     17          6           0        1.057222   -2.409835   -0.000004
     18          1           0        1.192192   -3.485064   -0.000005
     19          6           0       -0.222144   -1.859709   -0.000004
     20          1           0       -1.089939   -2.508942   -0.000005
 ---------------------------------------------------------------------

 SCF Done:  E(RHF) =  -519.943527026     A.U. after    2 cycles

 The electronic state is 1-A.
 Alpha  occ. eigenvalues --  -20.61580 -20.56713 -20.56235 -11.32307 -11.31017
 Alpha  occ. eigenvalues --  -11.25790 -11.24979 -11.24529 -11.23716 -11.22145
 Alpha  occ. eigenvalues --   -7.64737  -1.38212  -1.32999  -1.29274  -1.14130
 Alpha  occ. eigenvalues --   -1.02545  -1.01405  -0.95156  -0.84221  -0.81913
 Alpha  occ. eigenvalues --   -0.77122  -0.74041  -0.72103  -0.68509  -0.67948
 Alpha  occ. eigenvalues --   -0.66706  -0.62962  -0.61328  -0.59507  -0.57894
 Alpha  occ. eigenvalues --   -0.57181  -0.55993  -0.53897  -0.53873  -0.51171
 Alpha  occ. eigenvalues --   -0.50727  -0.48341  -0.47110  -0.34673  -0.32603
 Alpha virt. eigenvalues --    0.02874   0.03759   0.04400   0.05225   0.05236
 Alpha virt. eigenvalues --    0.05892   0.06888   0.06980   0.07465   0.07894
 Alpha virt. eigenvalues --    0.08867   0.09687   0.10215   0.11103   0.11757

 Mulliken charges:
               1
     1  B    0.597285
     2  O   -0.462769
     3  H    0.260418
     4  O   -0.529154
     5  H    0.206236
     6  C   -0.141791
     7  C    0.496484
     8  H   -0.312576
     9  H   -0.080432
    10  H   -0.080436
    11  O   -0.853289
    12  C    0.942362
    13  C    0.524898
    14  H   -0.751476
    15  C    0.517798
    16  H   -0.460124
    17  C    0.550587
    18  H   -0.451694
    19  C    0.683577
    20  H   -0.655903
 Sum of Mulliken charges =  -0.00000

 Dipole moment (field-independent basis, Debye):
    X=              2.9703    Y=              1.4285    Z=              0.0000  Tot=              3.2960

 Test job not archived.
 1\1\GINC-SE049\SP\RHF\Aug-CC-pVDZ\C7H9B1O3\OHZDE\09-Apr-2025\0\\#t hf
 aug-cc-pvdz iop(5/13=1,5/36=2,99/5=2) pseudo=read geom=check guess=(re
 ad,tcheck) scf=(maxcycle=1)\\title\\0,1\B,0,-1.914523,0.071217,-0.0000
 02\O,0,-2.238,1.396706,-0.000001\H,0,-1.435712,1.93551,-0.000001\O,0,-
 2.931596,-0.845839,-0.000001\H,0,-3.789671,-0.409184,-0.000001\C,0,-0.
 440342,-0.475963,-0.000002\C,0,0.699235,0.355597,0.\H,0,1.132383,3.614
 68,0.000013\H,0,2.181795,2.487666,0.89462\H,0,2.1818,2.487676,-0.89459
 9\O,0,0.462379,1.714124,0.000002\C,0,1.564017,2.615023,0.000009\C,0,1.

 Normal termination of Gaussian 16 at Wed Apr  9 00:41:37 2025.
