 Gaussian 16, Revision C.01,

 ----------------------------------------------------------------------
 #t hf aug-cc-pvdz symm=none int=(grid=ultrafine) guess=(read,tcheck) s
 table=opt
 ----------------------------------------------------------------------
 -----
 title
 -----
 Symbolic Z-matrix:
 Charge =  0 Multiplicity = 2

 SCF Done:  E(UHF) =  -1106.81057092     A.U. after   19 cycles
 Normal termination of Gaussian 16 at Tue Apr  8 23:49:25 2025.
 Gaussian 16:  ES64L-G16RevC.01  3-Jul-2019

 ----------------------------------------------------------------------
 #t hf aug-cc-pvdz iop(5/13=1,5/36=2,99/5=2) pseudo=read geom=check gue
 ss=(read,tcheck) scf=(maxcycle=1)
 ----------------------------------------------------------------------
 -----
 title
 -----
 Structure from the checkpoint file:  "BDE49_nonexpt_186_mol2.chk"
 Charge =  0 Multiplicity = 2

                         Standard orientation:
 ---------------------------------------------------------------------
 Center     Atomic      Atomic             Coordinates (Angstroms)
 Number     Number       Type             X           Y           Z
 ---------------------------------------------------------------------
      1         17           0       -2.368016   -0.016375   -0.054181
      2          5           0       -0.840002   -0.551417   -0.591644
      3         16           0        0.784232    0.071105    0.108123
      4          8           0        0.829894    1.501511    0.207546
      5          8           0        1.036895   -0.807049    1.230951
      6          8           0        1.852701   -0.305349   -1.056136
      7          1           0        2.152660   -1.215118   -0.909554
 ---------------------------------------------------------------------

 SCF Done:  E(UHF) =  -1106.98748233     A.U. after    2 cycles

 The electronic state is 2-A.
 Alpha  occ. eigenvalues -- -103.72364 -93.83882 -20.65959 -20.59626 -20.59274
 Alpha  occ. eigenvalues --  -10.75835  -9.10159  -8.41574  -8.41306  -8.41222
 Alpha  occ. eigenvalues --   -7.77732  -6.44784  -6.44698  -6.44496  -1.48868
 Alpha  occ. eigenvalues --   -1.37161  -1.34768  -1.22216  -0.94468  -0.82216
 Alpha  occ. eigenvalues --   -0.75442  -0.72094  -0.68842  -0.66701  -0.61068
 Alpha  occ. eigenvalues --   -0.57904  -0.56485  -0.55458  -0.54413  -0.53044
 Alpha  occ. eigenvalues --   -0.52543  -0.40655
 Alpha virt. eigenvalues --    0.00242   0.03138   0.04351   0.05622   0.05759
 Alpha virt. eigenvalues --    0.08170   0.11209   0.12543   0.13340   0.14191
 Alpha virt. eigenvalues --    0.15002   0.15591   0.16761   0.17890   0.19361

  Beta  occ. eigenvalues -- -103.72300 -93.83819 -20.65992 -20.59582 -20.59074
  Beta  occ. eigenvalues --  -10.75762  -9.10070  -8.41471  -8.41280  -8.41036
  Beta  occ. eigenvalues --   -7.75568  -6.44765  -6.44667  -6.44277  -1.48655
  Beta  occ. eigenvalues --   -1.37077  -1.34424  -1.21487  -0.93436  -0.81086
  Beta  occ. eigenvalues --   -0.74962  -0.71756  -0.66954  -0.66290  -0.60627
  Beta  occ. eigenvalues --   -0.56682  -0.56181  -0.54173  -0.53824  -0.52690
  Beta  occ. eigenvalues --   -0.49831
  Beta virt. eigenvalues --    0.00843   0.03072   0.04081   0.05022   0.05794
  Beta virt. eigenvalues --    0.06211   0.08941   0.11533   0.12733   0.14199
  Beta virt. eigenvalues --    0.14328   0.15380   0.15722   0.16975   0.18148

 Mulliken charges and spin densities:
               1          2
     1  Cl  -0.125569   0.001009
     2  B    0.266680   0.981432
     3  S    2.289688  -0.019087
     4  O   -0.937608   0.035984
     5  O   -0.964301   0.011379
     6  O   -0.717053  -0.010305
     7  H    0.188163  -0.000412
 Sum of Mulliken charges =  -0.00000   1.00000

 Dipole moment (field-independent basis, Debye):
    X=             -1.5442    Y=             -2.8152    Z=             -2.4162  Tot=              4.0185
                          Isotropic Fermi Contact Couplings
        Atom                 a.u.       MegaHertz       Gauss      10(-4) cm-1
     1  Cl(35)             0.05368      23.53534       8.39800       7.85054
     2  B(11)              0.40084     574.95080     205.15674     191.78294
     3  S(33)              0.12536      43.05748      15.36398      14.36243
     4  O(17)              0.01783     -10.80574      -3.85576      -3.60441
     5  O(17)              0.00231      -1.40284      -0.50057      -0.46794
     6  O(17)             -0.00776       4.70439       1.67864       1.56922
     7  H(1)               0.00016       0.70769       0.25252       0.23606
 --------------------------------------------------------

 1\1\GINC-SE109\SP\UHF\Aug-CC-pVDZ\B1Cl1H1O3S1(2)\OHZDE\08-Apr-2025\0\\
 #t hf aug-cc-pvdz iop(5/13=1,5/36=2,99/5=2) pseudo=read geom=check gue
 ss=(read,tcheck) scf=(maxcycle=1)\\title\\0,2\Cl,0,-2.368016,-0.016375
 ,-0.054181\B,0,-0.840002,-0.551417,-0.591644\S,0,0.784232,0.071105,0.1
 08123\O,0,0.829894,1.501511,0.207546\O,0,1.036895,-0.807049,1.230951\O
 ,0,1.852701,-0.305349,-1.056136\H,0,2.15266,-1.215118,-0.909554\\Versi
 on=ES64L-G16RevC.01\State=2-A\HF=-1106.9874823\S2=0.756229\S2-1=0.\S2A
 =0.750026\RMSD=3.753e-03\Dipole=-0.6075442,-1.1075823,-0.9506085\Quadr

 Normal termination of Gaussian 16 at Tue Apr  8 23:49:29 2025.
