 Gaussian 16, Revision C.01,

 ----------------------------------------------------------------------
 #t hf aug-cc-pvdz symm=none int=(grid=ultrafine) guess=(read,tcheck) s
 table=(opt,rrhf)
 ----------------------------------------------------------------------
 -----
 title
 -----
 Symbolic Z-matrix:
 Charge =  0 Multiplicity = 1

 SCF Done:  E(RHF) =  -575.606579107     A.U. after   14 cycles
 Normal termination of Gaussian 16 at Wed Apr  9 00:19:37 2025.
 Gaussian 16:  ES64L-G16RevC.01  3-Jul-2019

 ----------------------------------------------------------------------
 #t hf aug-cc-pvdz iop(5/13=1,5/36=2,99/5=2) pseudo=read geom=check gue
 ss=(read,tcheck) scf=(maxcycle=1)
 ----------------------------------------------------------------------
 -----
 title
 -----
 Structure from the checkpoint file:  "BDE49_nonexpt_2636_mol1.chk"
 Charge =  0 Multiplicity = 1

                         Standard orientation:
 ---------------------------------------------------------------------
 Center     Atomic      Atomic             Coordinates (Angstroms)
 Number     Number       Type             X           Y           Z
 ---------------------------------------------------------------------
      1          9           0       -1.248521    1.007020    0.178317
      2         16           0       -0.806792   -0.564798   -0.212841
      3          6           0        0.874544   -0.526911    0.444106
      4          6           0        1.797399    0.476778   -0.241399
      5          1           0        0.819011   -0.360927    1.522529
      6          1           0        1.908810    0.247412   -1.302909
      7          1           0        2.786589    0.464033    0.225531
      8          1           0        1.390601    1.485162   -0.151111
      9          1           0        1.208695   -1.561298    0.290322
 ---------------------------------------------------------------------

 SCF Done:  E(RHF) =  -575.691220758     A.U. after    2 cycles

 The electronic state is 1-A.
 Alpha  occ. eigenvalues --  -93.61314 -26.11912 -11.28928 -11.24498  -8.90206
 Alpha  occ. eigenvalues --   -6.24401  -6.24004  -6.23600  -1.62890  -1.07763
 Alpha  occ. eigenvalues --   -0.95015  -0.84114  -0.72608  -0.72346  -0.68192
 Alpha  occ. eigenvalues --   -0.62926  -0.59420  -0.54985  -0.52355  -0.47219
 Alpha  occ. eigenvalues --   -0.37234
 Alpha virt. eigenvalues --    0.03336   0.04666   0.05002   0.06263   0.07699
 Alpha virt. eigenvalues --    0.07841   0.08493   0.12333   0.12488   0.14303
 Alpha virt. eigenvalues --    0.15311   0.16179   0.16751   0.17379   0.17917

 Mulliken charges:
               1
     1  F   -0.633364
     2  S    0.798948
     3  C   -0.341927
     4  C    0.293570
     5  H   -0.032963
     6  H   -0.049972
     7  H   -0.049274
     8  H   -0.025684
     9  H    0.040665
 Sum of Mulliken charges =   0.00000

 Dipole moment (field-independent basis, Debye):
    X=              2.5359    Y=             -1.6718    Z=              0.2118  Tot=              3.0448

 Test job not archived.
 1\1\GINC-SE074\SP\RHF\Aug-CC-pVDZ\C2H5F1S1\OHZDE\09-Apr-2025\0\\#t hf
 aug-cc-pvdz iop(5/13=1,5/36=2,99/5=2) pseudo=read geom=check guess=(re
 ad,tcheck) scf=(maxcycle=1)\\title\\0,1\F,0,-1.248521,1.00702,0.178317
 \S,0,-0.806792,-0.564798,-0.212841\C,0,0.874544,-0.526911,0.444106\C,0
 ,1.797399,0.476778,-0.241399\H,0,0.819011,-0.360927,1.522529\H,0,1.908
 81,0.247412,-1.302909\H,0,2.786589,0.464033,0.225531\H,0,1.390601,1.48
 5162,-0.151111\H,0,1.208695,-1.561298,0.290322\\Version=ES64L-G16RevC.
 01\State=1-A\HF=-575.6912208\RMSD=4.592e-03\Dipole=0.9976991,-0.657750

 Normal termination of Gaussian 16 at Wed Apr  9 00:19:39 2025.
