 Gaussian 16, Revision C.01,

 ----------------------------------------------------------------------
 #t hf aug-cc-pvdz symm=none int=(grid=ultrafine) guess=(read,tcheck) s
 table=(opt,rrhf)
 ----------------------------------------------------------------------
 -----
 title
 -----
 Symbolic Z-matrix:
 Charge =  0 Multiplicity = 1

 SCF Done:  E(RHF) =  -713.573501652     A.U. after   14 cycles
 Normal termination of Gaussian 16 at Wed Apr  9 00:30:43 2025.
 Gaussian 16:  ES64L-G16RevC.01  3-Jul-2019

 ----------------------------------------------------------------------
 #t hf aug-cc-pvdz iop(5/13=1,5/36=2,99/5=2) pseudo=read geom=check gue
 ss=(read,tcheck) scf=(maxcycle=1)
 ----------------------------------------------------------------------
 -----
 title
 -----
 Structure from the checkpoint file:  "BDE49_nonexpt_388_mol1.chk"
 Charge =  0 Multiplicity = 1

                         Standard orientation:
 ---------------------------------------------------------------------
 Center     Atomic      Atomic             Coordinates (Angstroms)
 Number     Number       Type             X           Y           Z
 ---------------------------------------------------------------------
      1          9           0        2.272680   -0.274794    0.000010
      2          9           0        0.832887    1.499822   -0.000012
      3          5           0        1.046548    0.206697   -0.000001
      4          6           0       -1.656621    0.003316   -0.000001
      5          7           0       -2.622773    0.638447    0.000010
      6         16           0       -0.305232   -1.034235   -0.000003
 ---------------------------------------------------------------------

 SCF Done:  E(RHF) =  -713.713583482     A.U. after    2 cycles

 The electronic state is 1-A.
 Alpha  occ. eigenvalues --  -93.62525 -26.18571 -26.18507 -15.67177 -11.33180
 Alpha  occ. eigenvalues --   -8.92365  -7.81925  -6.26595  -6.26267  -6.25970
 Alpha  occ. eigenvalues --   -1.73915  -1.72005  -1.22155  -1.07204  -0.92032
 Alpha  occ. eigenvalues --   -0.87302  -0.83039  -0.81625  -0.76804  -0.76548
 Alpha  occ. eigenvalues --   -0.69761  -0.58406  -0.56319  -0.54876  -0.47662
 Alpha  occ. eigenvalues --   -0.42657
 Alpha virt. eigenvalues --    0.03798   0.04922   0.05182   0.05587   0.09413
 Alpha virt. eigenvalues --    0.09674   0.10134   0.10152   0.12245   0.12957
 Alpha virt. eigenvalues --    0.13493   0.14758   0.16958   0.17434   0.18721

 Mulliken charges:
               1
     1  F   -0.398982
     2  F   -0.319366
     3  B    1.062592
     4  C   -0.493899
     5  N   -0.129799
     6  S    0.279454
 Sum of Mulliken charges =  -0.00000

 Dipole moment (field-independent basis, Debye):
    X=              2.1101    Y=             -1.8711    Z=             -0.0000  Tot=              2.8202

 Test job not archived.
 1\1\GINC-SE368\SP\RHF\Aug-CC-pVDZ\C1B1F2N1S1\OHZDE\09-Apr-2025\0\\#t h
 f aug-cc-pvdz iop(5/13=1,5/36=2,99/5=2) pseudo=read geom=check guess=(
 read,tcheck) scf=(maxcycle=1)\\title\\0,1\F,0,2.27268,-0.274794,0.0000
 1\F,0,0.832887,1.499822,-0.000012\B,0,1.046548,0.206697,-0.000001\C,0,
 -1.656621,0.003316,-0.000001\N,0,-2.622773,0.638447,0.00001\S,0,-0.305
 232,-1.034235,-0.000003\\Version=ES64L-G16RevC.01\State=1-A\HF=-713.71
 35835\RMSD=5.823e-03\Dipole=0.8301614,-0.7361595,-0.0000063\Quadrupole
 =-5.0342042,1.3311992,3.703005,2.5720191,0.0000166,0.0000174\PG=C01 [X

 Normal termination of Gaussian 16 at Wed Apr  9 00:30:45 2025.
