 Gaussian 16, Revision C.01,

 ----------------------------------------------------------------------
 #t hf aug-cc-pvdz symm=none int=(grid=ultrafine) guess=(read,tcheck) s
 table=(opt,rrhf)
 ----------------------------------------------------------------------
 -----
 title
 -----
 Symbolic Z-matrix:
 Charge =  0 Multiplicity = 1

 SCF Done:  E(RHF) =  -1825.95372711     A.U. after   15 cycles
 Normal termination of Gaussian 16 at Tue Apr  8 23:22:02 2025.
 Gaussian 16:  ES64L-G16RevC.01  3-Jul-2019

 ----------------------------------------------------------------------
 #t hf aug-cc-pvdz iop(5/13=1,5/36=2,99/5=2) pseudo=read geom=check gue
 ss=(read,tcheck) scf=(maxcycle=1)
 ----------------------------------------------------------------------
 -----
 title
 -----
 Structure from the checkpoint file:  "BDE49_nonexpt_1242_mol1.chk"
 Charge =  0 Multiplicity = 1

                         Standard orientation:
 ---------------------------------------------------------------------
 Center     Atomic      Atomic             Coordinates (Angstroms)
 Number     Number       Type             X           Y           Z
 ---------------------------------------------------------------------
      1         17           0        3.083400    0.000006   -0.230641
      2         15           0        1.205094    0.000012    0.668760
      3          6           0       -0.000001   -1.270942    0.000044
      4          8           0        0.000029   -2.459850    0.000015
      5          6           0       -0.000005    1.270942    0.000007
      6         15           0       -1.205080   -0.000012   -0.668749
      7          8           0       -0.000024    2.459850    0.000019
      8         17           0       -3.083412   -0.000006    0.230598
 ---------------------------------------------------------------------

 SCF Done:  E(RHF) =  -1826.10327236     A.U. after    2 cycles

 The electronic state is 1-A.
 Alpha  occ. eigenvalues -- -103.70672-103.70672 -81.36949 -81.36947 -20.63903
 Alpha  occ. eigenvalues --  -20.63903 -11.41768 -11.41759 -10.73916 -10.73913
 Alpha  occ. eigenvalues --   -8.39621  -8.39621  -8.39316  -8.39316  -8.39298
 Alpha  occ. eigenvalues --   -8.39296  -7.87002  -7.86992  -5.00919  -5.00908
 Alpha  occ. eigenvalues --   -5.00710  -5.00667  -5.00451  -5.00422  -1.43003
 Alpha  occ. eigenvalues --   -1.42774  -1.18368  -1.18253  -1.03061  -0.84326
 Alpha  occ. eigenvalues --   -0.81884  -0.74881  -0.70683  -0.67056  -0.65690
 Alpha  occ. eigenvalues --   -0.64545  -0.63725  -0.61222  -0.53641  -0.53624
 Alpha  occ. eigenvalues --   -0.53168  -0.52452  -0.51499  -0.41269  -0.40919
 Alpha  occ. eigenvalues --   -0.36892
 Alpha virt. eigenvalues --   -0.02255   0.05163   0.05194   0.05717   0.05943
 Alpha virt. eigenvalues --    0.06412   0.07361   0.08512   0.08967   0.09243
 Alpha virt. eigenvalues --    0.11393   0.11957   0.12728   0.12982   0.14338

 Mulliken charges:
               1
     1  Cl  -0.399216
     2  P    0.804097
     3  C   -0.020426
     4  O   -0.384458
     5  C   -0.020426
     6  P    0.804107
     7  O   -0.384458
     8  Cl  -0.399219
 Sum of Mulliken charges =  -0.00000

 Dipole moment (field-independent basis, Debye):
    X=             -0.0000    Y=              0.0000    Z=             -0.0000  Tot=              0.0000

 Test job not archived.
 1\1\GINC-SE338\SP\RHF\Aug-CC-pVDZ\C2Cl2O2P2\OHZDE\08-Apr-2025\0\\#t hf
  aug-cc-pvdz iop(5/13=1,5/36=2,99/5=2) pseudo=read geom=check guess=(r
 ead,tcheck) scf=(maxcycle=1)\\title\\0,1\Cl,0,3.0834,-0.000006,0.23064
 1\P,0,1.205094,-0.000012,-0.66876\C,0,-0.000001,1.270942,-0.000044\O,0
 ,0.000029,2.45985,-0.000015\C,0,-0.000005,-1.270942,-0.000007\P,0,-1.2
 0508,0.000012,0.668749\O,0,-0.000024,-2.45985,-0.000019\Cl,0,-3.083412
 ,0.000006,-0.230598\\Version=ES64L-G16RevC.01\State=1-A\HF=-1826.10327
 24\RMSD=5.909e-03\Dipole=-0.000001,0.,0.0000027\Quadrupole=3.4785003,-

 Normal termination of Gaussian 16 at Tue Apr  8 23:22:06 2025.
