 Gaussian 16, Revision C.01,

 ----------------------------------------------------------------------
 #t hf aug-cc-pvdz symm=none int=(grid=ultrafine) guess=(read,tcheck) s
 table=(opt,rrhf)
 ----------------------------------------------------------------------
 -----
 title
 -----
 Symbolic Z-matrix:
 Charge =  0 Multiplicity = 1

 SCF Done:  E(RHF) =  -1454.54480165     A.U. after   12 cycles
 Normal termination of Gaussian 16 at Wed Apr  9 00:12:11 2025.
 Gaussian 16:  ES64L-G16RevC.01  3-Jul-2019

 ----------------------------------------------------------------------
 #t hf aug-cc-pvdz iop(5/13=1,5/36=2,99/5=2) pseudo=read geom=check gue
 ss=(read,tcheck) scf=(maxcycle=1)
 ----------------------------------------------------------------------
 -----
 title
 -----
 Structure from the checkpoint file:  "BDE49_nonexpt_2416_mol1.chk"
 Charge =  0 Multiplicity = 1

                         Standard orientation:
 ---------------------------------------------------------------------
 Center     Atomic      Atomic             Coordinates (Angstroms)
 Number     Number       Type             X           Y           Z
 ---------------------------------------------------------------------
      1         14           0        0.783575   -0.891647    1.195064
      2         14           0       -0.783575    0.891647    1.195064
      3         16           0       -0.960882    1.925552   -0.689195
      4          1           0       -0.417557    1.822194    2.296058
      5          1           0       -2.152609    0.383123    1.448381
      6         16           0        0.960882   -1.925552   -0.689195
      7          1           0        0.417557   -1.822194    2.296058
      8          1           0        2.152609   -0.383123    1.448381
      9          6           0        0.783575    2.412195   -1.020398
     10          1           0        0.766746    2.991851   -1.943051
     11          1           0        1.411227    1.533666   -1.164580
     12          1           0        1.175453    3.037087   -0.218195
     13          6           0       -0.783575   -2.412195   -1.020398
     14          1           0       -0.766746   -2.991851   -1.943051
     15          1           0       -1.411227   -1.533666   -1.164580
     16          1           0       -1.175453   -3.037087   -0.218195
 ---------------------------------------------------------------------

 SCF Done:  E(RHF) =  -1454.65110839     A.U. after    2 cycles

 The electronic state is 1-A.
 Alpha  occ. eigenvalues --  -93.52478 -93.52477 -69.08917 -69.08917 -11.27410
 Alpha  occ. eigenvalues --  -11.27410  -8.82352  -8.82352  -6.84033  -6.84031
 Alpha  occ. eigenvalues --   -6.16469  -6.16466  -6.16278  -6.16276  -6.16013
 Alpha  occ. eigenvalues --   -6.15998  -3.94832  -3.94821  -3.94765  -3.94758
 Alpha  occ. eigenvalues --   -3.94734  -3.94667  -1.02244  -1.01886  -0.86017
 Alpha  occ. eigenvalues --   -0.85517  -0.71460  -0.64975  -0.60075  -0.59583
 Alpha  occ. eigenvalues --   -0.59570  -0.59435  -0.51555  -0.51231  -0.48008
 Alpha  occ. eigenvalues --   -0.47111  -0.45440  -0.41902  -0.40362  -0.35877
 Alpha  occ. eigenvalues --   -0.33977
 Alpha virt. eigenvalues --    0.03435   0.04424   0.04634   0.04712   0.05918
 Alpha virt. eigenvalues --    0.06241   0.06850   0.06878   0.07374   0.08766
 Alpha virt. eigenvalues --    0.09170   0.09365   0.09968   0.10222   0.10977

 Mulliken charges:
               1
     1  Si   0.197311
     2  Si   0.197311
     3  S   -0.216700
     4  H    0.088851
     5  H    0.111432
     6  S   -0.216700
     7  H    0.088851
     8  H    0.111432
     9  C    0.149553
    10  H   -0.098090
    11  H   -0.096820
    12  H   -0.135536
    13  C    0.149553
    14  H   -0.098090
    15  H   -0.096820
    16  H   -0.135536
 Sum of Mulliken charges =  -0.00000

 Dipole moment (field-independent basis, Debye):
    X=              0.0000    Y=              0.0000    Z=              0.4143  Tot=              0.4143

 Test job not archived.
 1\1\GINC-SE105\SP\RHF\Aug-CC-pVDZ\C2H10S2Si2\OHZDE\09-Apr-2025\0\\#t h
 f aug-cc-pvdz iop(5/13=1,5/36=2,99/5=2) pseudo=read geom=check guess=(
 read,tcheck) scf=(maxcycle=1)\\title\\0,1\Si,0,0.783575,-0.891647,1.19
 5064\Si,0,-0.783575,0.891647,1.195064\S,0,-0.960882,1.925552,-0.689195
 \H,0,-0.417557,1.822194,2.296058\H,0,-2.152609,0.383123,1.448381\S,0,0
 .960882,-1.925552,-0.689195\H,0,0.417557,-1.822194,2.296058\H,0,2.1526
 09,-0.383123,1.448381\C,0,0.783575,2.412195,-1.020398\H,0,0.766746,2.9
 91851,-1.943051\H,0,1.411227,1.533666,-1.16458\H,0,1.175453,3.037087,-

 Normal termination of Gaussian 16 at Wed Apr  9 00:12:16 2025.
