 Gaussian 16, Revision C.01,

 ----------------------------------------------------------------------
 #t hf aug-cc-pvdz symm=none int=(grid=ultrafine) guess=(read,tcheck) s
 table=(opt,rrhf)
 ----------------------------------------------------------------------
 -----
 title
 -----
 Symbolic Z-matrix:
 Charge =  0 Multiplicity = 1

 SCF Done:  E(RHF) =  -846.346931752     A.U. after   13 cycles
 Normal termination of Gaussian 16 at Wed Apr  9 00:29:47 2025.
 Gaussian 16:  ES64L-G16RevC.01  3-Jul-2019

 ----------------------------------------------------------------------
 #t hf aug-cc-pvdz iop(5/13=1,5/36=2,99/5=2) pseudo=read geom=check gue
 ss=(read,tcheck) scf=(maxcycle=1)
 ----------------------------------------------------------------------
 -----
 title
 -----
 Structure from the checkpoint file:  "BDE49_nonexpt_376_mol1.chk"
 Charge =  0 Multiplicity = 1

                         Standard orientation:
 ---------------------------------------------------------------------
 Center     Atomic      Atomic             Coordinates (Angstroms)
 Number     Number       Type             X           Y           Z
 ---------------------------------------------------------------------
      1          9           0        1.731875    1.216417   -0.042464
      2          9           0        1.935106   -1.056831   -0.002937
      3          5           0        1.200083    0.021169   -0.023908
      4         16           0       -0.684555   -0.161331    0.047651
      5          8           0       -1.105112   -1.240996   -0.793741
      6          8           0       -1.045077   -0.066954    1.443655
      7          8           0       -1.183737    1.205098   -0.679869
      8          1           0       -1.378965    1.861992    0.005363
 ---------------------------------------------------------------------

 SCF Done:  E(RHF) =  -846.593060045     A.U. after    2 cycles

 The electronic state is 1-A.
 Alpha  occ. eigenvalues --  -93.84834 -26.20450 -26.20170 -20.66706 -20.60377
 Alpha  occ. eigenvalues --  -20.59954  -9.11076  -7.83204  -6.45745  -6.45658
 Alpha  occ. eigenvalues --   -6.45377  -1.75702  -1.73803  -1.49635  -1.37963
 Alpha  occ. eigenvalues --   -1.35517  -0.96796  -0.92656  -0.89008  -0.85434
 Alpha  occ. eigenvalues --   -0.83132  -0.78566  -0.78210  -0.77945  -0.74654
 Alpha  occ. eigenvalues --   -0.72432  -0.67337  -0.61527  -0.57067  -0.56217
 Alpha  occ. eigenvalues --   -0.53619  -0.51164
 Alpha virt. eigenvalues --    0.03037   0.04286   0.04606   0.05669   0.07385
 Alpha virt. eigenvalues --    0.07611   0.10829   0.12644   0.13024   0.16088
 Alpha virt. eigenvalues --    0.16641   0.18092   0.19432   0.20720   0.22215

 Mulliken charges:
               1
     1  F   -0.279750
     2  F   -0.344379
     3  B    0.871887
     4  S    2.139969
     5  O   -0.909023
     6  O   -0.941799
     7  O   -0.725411
     8  H    0.188506
 Sum of Mulliken charges =  -0.00000

 Dipole moment (field-independent basis, Debye):
    X=              1.6136    Y=              2.8849    Z=              0.0688  Tot=              3.3062

 Test job not archived.
 1\1\GINC-SE459\SP\RHF\Aug-CC-pVDZ\B1F2H1O3S1\OHZDE\09-Apr-2025\0\\#t h
 f aug-cc-pvdz iop(5/13=1,5/36=2,99/5=2) pseudo=read geom=check guess=(
 read,tcheck) scf=(maxcycle=1)\\title\\0,1\F,0,1.731875,1.216417,-0.042
 464\F,0,1.935106,-1.056831,-0.002937\B,0,1.200083,0.021169,-0.023908\S
 ,0,-0.684555,-0.161331,0.047651\O,0,-1.105112,-1.240996,-0.793741\O,0,
 -1.045077,-0.066954,1.443655\O,0,-1.183737,1.205098,-0.679869\H,0,-1.3
 78965,1.861992,0.005363\\Version=ES64L-G16RevC.01\State=1-A\HF=-846.59
 306\RMSD=4.977e-03\Dipole=0.6348323,1.1349905,0.0270552\Quadrupole=-0.

 Normal termination of Gaussian 16 at Wed Apr  9 00:29:51 2025.
