 Gaussian 16, Revision C.01,

 ----------------------------------------------------------------------
 #t hf aug-cc-pvdz symm=none int=(grid=ultrafine) guess=(read,tcheck) s
 table=(opt,rrhf)
 ----------------------------------------------------------------------
 -----
 title
 -----
 Symbolic Z-matrix:
 Charge =  0 Multiplicity = 1

 SCF Done:  E(RHF) =  -887.804913596     A.U. after   15 cycles
 Normal termination of Gaussian 16 at Tue Apr  8 23:25:14 2025.
 Gaussian 16:  ES64L-G16RevC.01  3-Jul-2019

 ----------------------------------------------------------------------
 #t hf aug-cc-pvdz iop(5/13=1,5/36=2,99/5=2) pseudo=read geom=check gue
 ss=(read,tcheck) scf=(maxcycle=1)
 ----------------------------------------------------------------------
 -----
 title
 -----
 Structure from the checkpoint file:  "BDE49_nonexpt_1284_mol1.chk"
 Charge =  0 Multiplicity = 1

                         Standard orientation:
 ---------------------------------------------------------------------
 Center     Atomic      Atomic             Coordinates (Angstroms)
 Number     Number       Type             X           Y           Z
 ---------------------------------------------------------------------
      1          6           0        0.457760    0.245507   -0.434156
      2          7           0        1.080419   -1.081666   -0.035392
      3         15           0       -1.350550    0.261435   -0.080369
      4          8           0        0.868535   -1.485704    1.110225
      5          8           0        1.776794   -1.646930   -0.850444
      6          8           0       -2.025826    1.480040   -0.524383
      7          8           0       -1.469287   -0.019293    1.478975
      8          1           0        0.587759    0.297487   -1.514574
      9          6           0        1.185277    1.398774    0.276167
     10          6           0        2.664890    1.516326   -0.096470
     11          1           0        1.066121    1.278379    1.355572
     12          1           0        0.647313    2.309465   -0.000408
     13          1           0        3.235018    0.635685    0.209188
     14          1           0        3.106028    2.383670    0.399155
     15          1           0        2.795175    1.642962   -1.174439
     16          8           0       -1.785155   -1.091501   -0.826463
     17          1           0       -2.689535   -1.064756   -1.162960
     18          1           0       -0.820618   -0.689285    1.765225
 ---------------------------------------------------------------------

 SCF Done:  E(RHF) =  -888.041215435     A.U. after    2 cycles

 The electronic state is 1-A.
 Alpha  occ. eigenvalues --  -81.44098 -20.65557 -20.64327 -20.63536 -20.62462
 Alpha  occ. eigenvalues --  -20.54508 -15.94240 -11.34302 -11.28328 -11.25561
 Alpha  occ. eigenvalues --   -7.92445  -5.07120  -5.07028  -5.06781  -1.57887
 Alpha  occ. eigenvalues --   -1.40091  -1.39218  -1.36323  -1.28025  -1.14290
 Alpha  occ. eigenvalues --   -1.02989  -0.91659  -0.87050  -0.84836  -0.79284
 Alpha  occ. eigenvalues --   -0.78097  -0.76646  -0.75095  -0.70208  -0.68337
 Alpha  occ. eigenvalues --   -0.66212  -0.64073  -0.61489  -0.59781  -0.59314
 Alpha  occ. eigenvalues --   -0.57220  -0.56041  -0.54261  -0.53550  -0.52875
 Alpha  occ. eigenvalues --   -0.51888  -0.50789  -0.50248  -0.48479
 Alpha virt. eigenvalues --    0.02980   0.03472   0.04348   0.04841   0.05795
 Alpha virt. eigenvalues --    0.06166   0.06807   0.07907   0.08372   0.09243
 Alpha virt. eigenvalues --    0.10623   0.11611   0.12747   0.13330   0.13674

 Mulliken charges:
               1
     1  C    0.522049
     2  N    0.247609
     3  P    2.589897
     4  O   -0.637185
     5  O   -0.526716
     6  O   -0.918534
     7  O   -0.753605
     8  H   -0.332356
     9  C    0.063870
    10  C    0.469350
    11  H   -0.093646
    12  H   -0.132056
    13  H   -0.059203
    14  H   -0.032726
    15  H   -0.045419
    16  O   -0.743554
    17  H    0.172965
    18  H    0.209261
 Sum of Mulliken charges =  -0.00000

 Dipole moment (field-independent basis, Debye):
    X=              1.0525    Y=              0.4156    Z=             -0.5793  Tot=              1.2713

 Test job not archived.
 1\1\GINC-SE403\SP\RHF\Aug-CC-pVDZ\C3H8N1O5P1\OHZDE\08-Apr-2025\0\\#t h
 f aug-cc-pvdz iop(5/13=1,5/36=2,99/5=2) pseudo=read geom=check guess=(
 read,tcheck) scf=(maxcycle=1)\\title\\0,1\C,0,0.45776,0.245507,-0.4341
 56\N,0,1.080419,-1.081666,-0.035392\P,0,-1.35055,0.261435,-0.080369\O,
 0,0.868535,-1.485704,1.110225\O,0,1.776794,-1.64693,-0.850444\O,0,-2.0
 25826,1.48004,-0.524383\O,0,-1.469287,-0.019293,1.478975\H,0,0.587759,
 0.297487,-1.514574\C,0,1.185277,1.398774,0.276167\C,0,2.66489,1.516326
 ,-0.09647\H,0,1.066121,1.278379,1.355572\H,0,0.647313,2.309465,-0.0004

 Normal termination of Gaussian 16 at Tue Apr  8 23:25:24 2025.
