 Gaussian 16, Revision C.01,

 ----------------------------------------------------------------------
 #t hf aug-cc-pvdz symm=none int=(grid=ultrafine) guess=(read,tcheck) s
 table=(opt,rrhf)
 ----------------------------------------------------------------------
 -----
 title
 -----
 Symbolic Z-matrix:
 Charge =  0 Multiplicity = 1

 SCF Done:  E(RHF) =  -1056.89892119     A.U. after   12 cycles
 Normal termination of Gaussian 16 at Tue Apr  8 22:36:22 2025.
 Gaussian 16:  ES64L-G16RevC.01  3-Jul-2019

 ----------------------------------------------------------------------
 #t hf aug-cc-pvdz iop(5/13=1,5/36=2,99/5=2) pseudo=read geom=check gue
 ss=(read,tcheck) scf=(maxcycle=1)
 ----------------------------------------------------------------------
 -----
 title
 -----
 Structure from the checkpoint file:  "BDE49_expt_115_mol1.chk"
 Charge =  0 Multiplicity = 1

                         Standard orientation:
 ---------------------------------------------------------------------
 Center     Atomic      Atomic             Coordinates (Angstroms)
 Number     Number       Type             X           Y           Z
 ---------------------------------------------------------------------
      1          6           0        0.000000    0.383860    0.402220
      2         17           0        1.475885   -0.504042   -0.063634
      3          1           0       -0.000003    0.499644    1.481232
      4         17           0       -1.475886   -0.504041   -0.063634
      5          9           0        0.000001    1.592734   -0.192331
 ---------------------------------------------------------------------

 SCF Done:  E(RHF) =  -1056.98640283     A.U. after    2 cycles

 The electronic state is 1-A.
 Alpha  occ. eigenvalues -- -103.69263-103.69262 -26.17424 -11.47813 -10.72609
 Alpha  occ. eigenvalues --  -10.72602  -8.38326  -8.38320  -8.37992  -8.37991
 Alpha  occ. eigenvalues --   -8.37986  -8.37986  -1.71971  -1.23355  -1.16438
 Alpha  occ. eigenvalues --   -0.96131  -0.82507  -0.79832  -0.76724  -0.63023
 Alpha  occ. eigenvalues --   -0.59409  -0.52062  -0.49875  -0.49083  -0.47744
 Alpha virt. eigenvalues --    0.03707   0.07107   0.07902   0.10057   0.11373
 Alpha virt. eigenvalues --    0.12812   0.14165   0.15182   0.15786   0.15897
 Alpha virt. eigenvalues --    0.17973   0.20502   0.20958   0.24876   0.26991

 Mulliken charges:
               1
     1  C    0.227433
     2  Cl  -0.023890
     3  H    0.116598
     4  Cl  -0.023891
     5  F   -0.296249
 Sum of Mulliken charges =  -0.00000

 Dipole moment (field-independent basis, Debye):
    X=              0.0000    Y=             -0.2650    Z=              1.5680  Tot=              1.5903

 Test job not archived.
 1\1\GINC-SE163\SP\RHF\Aug-CC-pVDZ\C1H1Cl2F1\OHZDE\08-Apr-2025\0\\#t hf
  aug-cc-pvdz iop(5/13=1,5/36=2,99/5=2) pseudo=read geom=check guess=(r
 ead,tcheck) scf=(maxcycle=1)\\title\\0,1\C,0,0.,0.38386,0.40222\Cl,0,1
 .475885,-0.504042,-0.063634\H,0,-0.000003,0.499644,1.481232\Cl,0,-1.47
 5886,-0.504041,-0.063634\F,0,0.000001,1.592734,-0.192331\\Version=ES64
 L-G16RevC.01\State=1-A\HF=-1056.9864028\RMSD=4.007e-03\Dipole=0.000000
 7,-0.1042708,0.6169138\Quadrupole=-0.0701385,-1.4176608,1.4877994,-0.0
 000043,-0.0000046,1.1749949\PG=C01 [X(C1H1Cl2F1)]\\@

 Normal termination of Gaussian 16 at Tue Apr  8 22:36:24 2025.
