 Gaussian 16, Revision C.01,

 ----------------------------------------------------------------------
 #t hf aug-cc-pvdz symm=none int=(grid=ultrafine) guess=(read,tcheck) s
 table=(opt,rrhf)
 ----------------------------------------------------------------------
 -----
 title
 -----
 Symbolic Z-matrix:
 Charge =  0 Multiplicity = 1

 SCF Done:  E(RHF) =  -1174.96108114     A.U. after   10 cycles
 Normal termination of Gaussian 16 at Tue Apr  8 22:56:42 2025.
 Gaussian 16:  ES64L-G16RevC.01  3-Jul-2019

 ----------------------------------------------------------------------
 #t hf aug-cc-pvdz iop(5/13=1,5/36=2,99/5=2) pseudo=read geom=check gue
 ss=(read,tcheck) scf=(maxcycle=1)
 ----------------------------------------------------------------------
 -----
 title
 -----
 Structure from the checkpoint file:  "BDE49_expt_1942_mol1.chk"
 Charge =  0 Multiplicity = 1

                         Standard orientation:
 ---------------------------------------------------------------------
 Center     Atomic      Atomic             Coordinates (Angstroms)
 Number     Number       Type             X           Y           Z
 ---------------------------------------------------------------------
      1         14           0       -1.167143   -0.000006   -0.000005
      2         14           0        1.167143    0.000006    0.000006
      3          9           0        1.723659   -1.078183    1.016335
      4          9           0        1.723651   -0.341087   -1.441897
      5          9           0        1.723634    1.419283    0.425555
      6          9           0       -1.723657    1.078191   -1.016327
      7          9           0       -1.723634   -1.419279   -0.425567
      8          9           0       -1.723653    0.341076    1.441899
 ---------------------------------------------------------------------

 SCF Done:  E(RHF) =  -1175.27953553     A.U. after    2 cycles

 The electronic state is 1-A.
 Alpha  occ. eigenvalues --  -69.24504 -69.24504 -26.16444 -26.16444 -26.16442
 Alpha  occ. eigenvalues --  -26.16442 -26.16441 -26.16441  -6.98147  -6.98132
 Alpha  occ. eigenvalues --   -4.09168  -4.09168  -4.09153  -4.09153  -4.08941
 Alpha  occ. eigenvalues --   -4.08844  -1.70811  -1.70679  -1.68955  -1.68955
 Alpha  occ. eigenvalues --   -1.68936  -1.68936  -0.90613  -0.89078  -0.83200
 Alpha  occ. eigenvalues --   -0.83200  -0.82806  -0.82805  -0.81338  -0.78966
 Alpha  occ. eigenvalues --   -0.77940  -0.77940  -0.77813  -0.77813  -0.75836
 Alpha  occ. eigenvalues --   -0.75836  -0.75359  -0.75359  -0.74187  -0.74114
 Alpha  occ. eigenvalues --   -0.54122
 Alpha virt. eigenvalues --    0.04529   0.04914   0.04914   0.05360   0.07840
 Alpha virt. eigenvalues --    0.07840   0.08209   0.11086   0.11086   0.13229
 Alpha virt. eigenvalues --    0.17444   0.17444   0.21919   0.22673   0.22673

 Mulliken charges:
               1
     1  Si   2.260069
     2  Si   2.260068
     3  F   -0.753358
     4  F   -0.753356
     5  F   -0.753355
     6  F   -0.753358
     7  F   -0.753355
     8  F   -0.753356
 Sum of Mulliken charges =  -0.00000

 Dipole moment (field-independent basis, Debye):
    X=             -0.0000    Y=             -0.0000    Z=              0.0000  Tot=              0.0000

 Test job not archived.
 1\1\GINC-SE402\SP\RHF\Aug-CC-pVDZ\F6Si2\OHZDE\08-Apr-2025\0\\#t hf aug
 -cc-pvdz iop(5/13=1,5/36=2,99/5=2) pseudo=read geom=check guess=(read,
 tcheck) scf=(maxcycle=1)\\title\\0,1\Si,0,1.167143,0.000006,-0.000005\
 Si,0,-1.167143,-0.000006,0.000006\F,0,-1.723659,1.073554,1.021224\F,0,
 -1.723651,0.347635,-1.440332\F,0,-1.723634,-1.421202,0.419102\F,0,1.72
 3657,-1.073562,-1.021216\F,0,1.723634,1.421198,-0.419114\F,0,1.723653,
 -0.347624,1.440334\\Version=ES64L-G16RevC.01\State=1-A\HF=-1175.279535
 5\RMSD=4.463e-03\Dipole=0.0000004,0.0000008,0.0000045\Quadrupole=-0.64

 Normal termination of Gaussian 16 at Tue Apr  8 22:56:45 2025.
