 Gaussian 16, Revision C.01,

 ----------------------------------------------------------------------
 #t hf aug-cc-pvdz symm=none int=(grid=ultrafine) guess=(read,tcheck) s
 table=(opt,rrhf)
 ----------------------------------------------------------------------
 -----
 title
 -----
 Symbolic Z-matrix:
 Charge =  0 Multiplicity = 1

 SCF Done:  E(RHF) =  -1155.98323876     A.U. after   13 cycles
 Normal termination of Gaussian 16 at Tue Apr  8 23:51:19 2025.
 Gaussian 16:  ES64L-G16RevC.01  3-Jul-2019

 ----------------------------------------------------------------------
 #t hf aug-cc-pvdz iop(5/13=1,5/36=2,99/5=2) pseudo=read geom=check gue
 ss=(read,tcheck) scf=(maxcycle=1)
 ----------------------------------------------------------------------
 -----
 title
 -----
 Structure from the checkpoint file:  "BDE49_nonexpt_192_mol1.chk"
 Charge =  0 Multiplicity = 1

                         Standard orientation:
 ---------------------------------------------------------------------
 Center     Atomic      Atomic             Coordinates (Angstroms)
 Number     Number       Type             X           Y           Z
 ---------------------------------------------------------------------
      1         17           0        1.138768   -1.522821    0.002831
      2         17           0        1.138678    1.522868    0.002650
      3          5           0        0.293733   -0.000003   -0.030310
      4          6           0       -1.289486   -0.000054   -0.137470
      5          8           0       -1.940261   -0.000289   -1.124392
      6          9           0       -1.880694    0.000206    1.097591
 ---------------------------------------------------------------------

 SCF Done:  E(RHF) =  -1156.09845239     A.U. after    2 cycles

 The electronic state is 1-A.
 Alpha  occ. eigenvalues -- -103.70824-103.70823 -26.17025 -20.62820 -11.45016
 Alpha  occ. eigenvalues --  -10.74322 -10.74289  -8.40002  -8.39997  -8.39763
 Alpha  occ. eigenvalues --   -8.39761  -8.39724  -8.39724  -7.78489  -1.70979
 Alpha  occ. eigenvalues --   -1.42701  -1.22213  -1.18609  -0.94682  -0.83791
 Alpha  occ. eigenvalues --   -0.78383  -0.76984  -0.71514  -0.66331  -0.63589
 Alpha  occ. eigenvalues --   -0.58266  -0.57023  -0.55696  -0.51466  -0.50659
 Alpha  occ. eigenvalues --   -0.49730
 Alpha virt. eigenvalues --    0.03913   0.04299   0.05218   0.05388   0.05540
 Alpha virt. eigenvalues --    0.09043   0.10855   0.11977   0.12271   0.12844
 Alpha virt. eigenvalues --    0.14047   0.15996   0.17183   0.17601   0.17716

 Mulliken charges:
               1
     1  Cl  -0.218615
     2  Cl  -0.218615
     3  B    0.638448
     4  C    0.534336
     5  O   -0.358574
     6  F   -0.376980
 Sum of Mulliken charges =  -0.00000

 Dipole moment (field-independent basis, Debye):
    X=              2.2412    Y=              0.0002    Z=              0.4980  Tot=              2.2959

 Test job not archived.
 1\1\GINC-SE340\SP\RHF\Aug-CC-pVDZ\C1B1Cl2F1O1\OHZDE\08-Apr-2025\0\\#t
 hf aug-cc-pvdz iop(5/13=1,5/36=2,99/5=2) pseudo=read geom=check guess=
 (read,tcheck) scf=(maxcycle=1)\\title\\0,1\Cl,0,1.138768,-1.522821,0.0
 02831\Cl,0,1.138678,1.522868,0.00265\B,0,0.293733,-0.000003,-0.03031\C
 ,0,-1.289486,-0.000054,-0.13747\O,0,-1.940261,-0.00029,-1.124392\F,0,-
 1.880694,0.000206,1.097591\\Version=ES64L-G16RevC.01\State=1-A\HF=-115
 6.0984524\RMSD=3.791e-03\Dipole=0.8817528,0.0000606,0.1959273\Quadrupo
 le=-2.9943394,2.9368288,0.0575106,-0.0003529,-1.052705,-0.0007702\PG=C

 Normal termination of Gaussian 16 at Tue Apr  8 23:51:21 2025.
