 Gaussian 16, Revision C.01,

 ----------------------------------------------------------------------
 #t hf aug-cc-pvdz symm=none int=(grid=ultrafine) guess=(read,tcheck) s
 table=(opt,rrhf)
 ----------------------------------------------------------------------
 -----
 title
 -----
 Symbolic Z-matrix:
 Charge =  0 Multiplicity = 1

 SCF Done:  E(RHF) =  -875.908908935     A.U. after   12 cycles
 Normal termination of Gaussian 16 at Tue Apr  8 23:24:58 2025.
 Gaussian 16:  ES64L-G16RevC.01  3-Jul-2019

 ----------------------------------------------------------------------
 #t hf aug-cc-pvdz iop(5/13=1,5/36=2,99/5=2) pseudo=read geom=check gue
 ss=(read,tcheck) scf=(maxcycle=1)
 ----------------------------------------------------------------------
 -----
 title
 -----
 Structure from the checkpoint file:  "BDE49_nonexpt_1300_mol1.chk"
 Charge =  0 Multiplicity = 1

                         Standard orientation:
 ---------------------------------------------------------------------
 Center     Atomic      Atomic             Coordinates (Angstroms)
 Number     Number       Type             X           Y           Z
 ---------------------------------------------------------------------
      1          6           0        0.228634    0.810872    0.000000
      2         15           0       -0.841480   -0.763886   -0.000000
      3          9           0       -0.073666    1.542825    1.091159
      4          9           0        1.544706    0.572196    0.000000
      5          9           0       -0.073666    1.542825   -1.091159
      6          9           0       -0.073666   -1.462642   -1.222881
      7          9           0       -0.073666   -1.462642    1.222881
 ---------------------------------------------------------------------

 SCF Done:  E(RHF) =  -876.141176806     A.U. after    2 cycles

 The electronic state is 1-A'.
 Alpha  occ. eigenvalues --  -81.44564 -26.19019 -26.19010 -26.18824 -26.17546
 Alpha  occ. eigenvalues --  -26.17542 -11.54304  -7.93231  -5.07298  -5.07027
 Alpha  occ. eigenvalues --   -5.06606  -1.78339  -1.71430  -1.71415  -1.70933
 Alpha  occ. eigenvalues --   -1.69592  -1.05841  -0.94787  -0.90147  -0.90104
 Alpha  occ. eigenvalues --   -0.87777  -0.83028  -0.80962  -0.79297  -0.79204
 Alpha  occ. eigenvalues --   -0.78665  -0.77377  -0.75149  -0.75097  -0.74479
 Alpha  occ. eigenvalues --   -0.73917  -0.62332  -0.45381
 Alpha virt. eigenvalues --    0.05241   0.05572   0.07107   0.07838   0.11120
 Alpha virt. eigenvalues --    0.11367   0.11460   0.13671   0.13994   0.20218
 Alpha virt. eigenvalues --    0.20453   0.22109   0.25657   0.25948   0.27892

 Mulliken charges:
               1
     1  C    0.667861
     2  P    1.438516
     3  F   -0.314453
     4  F   -0.330905
     5  F   -0.314453
     6  F   -0.573283
     7  F   -0.573283
 Sum of Mulliken charges =   0.00000

 Dipole moment (field-independent basis, Debye):
    X=             -1.9621    Y=             -0.3586    Z=             -0.0000  Tot=              1.9946

 Test job not archived.
 1\1\GINC-SE339\SP\RHF\Aug-CC-pVDZ\C1F5P1\OHZDE\08-Apr-2025\0\\#t hf au
 g-cc-pvdz iop(5/13=1,5/36=2,99/5=2) pseudo=read geom=check guess=(read
 ,tcheck) scf=(maxcycle=1)\\title\\0,1\C,0,0.228634,0.810872,0.\P,0,-0.
 84148,-0.763886,0.\F,0,-0.073666,1.542825,1.091159\F,0,1.544706,0.5721
 96,0.\F,0,-0.073666,1.542825,-1.091159\F,0,-0.073666,-1.462642,-1.2228
 81\F,0,-0.073666,-1.462642,1.222881\\Version=ES64L-G16RevC.01\State=1-
 A'\HF=-876.1411768\RMSD=6.058e-03\Dipole=-0.7719588,-0.141088,0.\Quadr
 upole=1.4184852,-0.6703307,-0.7481545,0.9621274,0.,0.\PG=CS [SG(C1F1P1

 Normal termination of Gaussian 16 at Tue Apr  8 23:25:01 2025.
