 Gaussian 16, Revision C.01,

 ----------------------------------------------------------------------
 #t hf aug-cc-pvdz symm=none int=(grid=ultrafine) guess=(read,tcheck) s
 table=(opt,rrhf)
 ----------------------------------------------------------------------
 -----
 title
 -----
 Symbolic Z-matrix:
 Charge =  0 Multiplicity = 1

 SCF Done:  E(RHF) =  -585.107039487     A.U. after   16 cycles
 Normal termination of Gaussian 16 at Wed Apr  9 00:47:40 2025.
 Gaussian 16:  ES64L-G16RevC.01  3-Jul-2019

 ----------------------------------------------------------------------
 #t hf aug-cc-pvdz iop(5/13=1,5/36=2,99/5=2) pseudo=read geom=check gue
 ss=(read,tcheck) scf=(maxcycle=1)
 ----------------------------------------------------------------------
 -----
 title
 -----
 Structure from the checkpoint file:  "BDE49_nonexpt_860_mol1.chk"
 Charge =  0 Multiplicity = 1

                         Standard orientation:
 ---------------------------------------------------------------------
 Center     Atomic      Atomic             Coordinates (Angstroms)
 Number     Number       Type             X           Y           Z
 ---------------------------------------------------------------------
      1          6           0       -0.141476   -0.149572   -0.098702
      2          6           0       -1.036904   -1.172942   -0.451164
      3          6           0       -2.415037   -0.982717   -0.377418
      4          6           0       -2.929275    0.237351    0.056842
      5          6           0       -2.059585    1.264654    0.417891
      6          6           0       -0.682454    1.069976    0.344157
      7          5           0        2.204214   -0.645611    1.774666
      8          1           0       -3.087309   -1.784991   -0.661768
      9          1           0       -4.001781    0.387087    0.113563
     10          1           0       -2.453965    2.216291    0.757376
     11          1           0       -0.023366    1.883662    0.631478
     12          1           0       -0.652726   -2.127199   -0.796929
     13         14           0        1.731969   -0.423361   -0.169169
     14          6           0        2.602969    1.017463   -1.020619
     15          1           0        2.428743    1.957155   -0.489288
     16          1           0        2.248206    1.136395   -2.047947
     17          1           0        3.684017    0.852510   -1.054294
     18          1           0        2.393566    0.305791    2.471730
     19          1           0        2.211394   -1.713871    2.305203
     20          1           0        1.955156   -1.662994   -0.960004
 ---------------------------------------------------------------------

 SCF Done:  E(RHF) =  -585.218075818     A.U. after    2 cycles

 The electronic state is 1-A.
 Alpha  occ. eigenvalues --  -69.04385 -11.24918 -11.24854 -11.24759 -11.24593
 Alpha  occ. eigenvalues --  -11.24523 -11.23341 -11.21572  -7.61635  -6.79824
 Alpha  occ. eigenvalues --   -3.90605  -3.90568  -3.90507  -1.13980  -1.01008
 Alpha  occ. eigenvalues --   -1.00722  -0.93674  -0.82624  -0.82250  -0.72500
 Alpha  occ. eigenvalues --   -0.69228  -0.64093  -0.62879  -0.61453  -0.59203
 Alpha  occ. eigenvalues --   -0.56387  -0.55821  -0.53846  -0.50779  -0.49872
 Alpha  occ. eigenvalues --   -0.49530  -0.44867  -0.44067  -0.40382  -0.34141
 Alpha  occ. eigenvalues --   -0.33328
 Alpha virt. eigenvalues --    0.02997   0.03314   0.04004   0.04552   0.04655
 Alpha virt. eigenvalues --    0.05250   0.05899   0.06516   0.06809   0.07274
 Alpha virt. eigenvalues --    0.07718   0.08084   0.09553   0.09850   0.10255

 Mulliken charges:
               1
     1  C   -0.369795
     2  C    0.249651
     3  C    0.691951
     4  C    0.674799
     5  C    0.628902
     6  C    0.692527
     7  B   -0.611230
     8  H   -0.456202
     9  H   -0.441707
    10  H   -0.457608
    11  H   -0.652936
    12  H   -0.655894
    13  Si   0.247866
    14  C    0.344334
    15  H   -0.184358
    16  H   -0.289838
    17  H   -0.259264
    18  H    0.419458
    19  H    0.428593
    20  H    0.000754
 Sum of Mulliken charges =  -0.00000

 Dipole moment (field-independent basis, Debye):
    X=             -0.1113    Y=              0.4925    Z=             -0.1546  Tot=              0.5280

 Test job not archived.
 1\1\GINC-SE186\SP\RHF\Aug-CC-pVDZ\C7H11B1Si1\OHZDE\09-Apr-2025\0\\#t h
 f aug-cc-pvdz iop(5/13=1,5/36=2,99/5=2) pseudo=read geom=check guess=(
 read,tcheck) scf=(maxcycle=1)\\title\\0,1\C,0,-0.141476,-0.149572,-0.0
 98702\C,0,-1.036904,-1.172942,-0.451164\C,0,-2.415037,-0.982717,-0.377
 418\C,0,-2.929275,0.237351,0.056842\C,0,-2.059585,1.264654,0.417891\C,
 0,-0.682454,1.069976,0.344157\B,0,2.204214,-0.645611,1.774666\H,0,-3.0
 87309,-1.784991,-0.661768\H,0,-4.001781,0.387087,0.113563\H,0,-2.45396
 5,2.216291,0.757376\H,0,-0.023366,1.883662,0.631478\H,0,-0.652726,-2.1

 Normal termination of Gaussian 16 at Wed Apr  9 00:47:51 2025.
