 Gaussian 16, Revision C.01,

 ----------------------------------------------------------------------
 #t hf aug-cc-pvdz symm=none int=(grid=ultrafine) guess=(read,tcheck) s
 table=(opt,rrhf)
 ----------------------------------------------------------------------
 -----
 title
 -----
 Symbolic Z-matrix:
 Charge =  0 Multiplicity = 1

 SCF Done:  E(RHF) =  -118.276269295     A.U. after   10 cycles
 Normal termination of Gaussian 16 at Tue Apr  8 23:03:40 2025.
 Gaussian 16:  ES64L-G16RevC.01  3-Jul-2019

 ----------------------------------------------------------------------
 #t hf aug-cc-pvdz iop(5/13=1,5/36=2,99/5=2) pseudo=read geom=check gue
 ss=(read,tcheck) scf=(maxcycle=1)
 ----------------------------------------------------------------------
 -----
 title
 -----
 Structure from the checkpoint file:  "BDE49_expt_3_mol1.chk"
 Charge =  0 Multiplicity = 1

                         Standard orientation:
 ---------------------------------------------------------------------
 Center     Atomic      Atomic             Coordinates (Angstroms)
 Number     Number       Type             X           Y           Z
 ---------------------------------------------------------------------
      1          6           0        0.000000    1.276939   -0.259549
      2          6           0        0.000000   -0.000000    0.585518
      3          1           0        0.882737    1.322827   -0.905512
      4          1           0        0.000000    2.173349    0.366818
      5          1           0       -0.882737    1.322827   -0.905512
      6          6           0       -0.000000   -1.276939   -0.259549
      7          1           0       -0.875423    0.000000    1.244950
      8          1           0        0.875423   -0.000000    1.244950
      9          1           0       -0.882737   -1.322827   -0.905512
     10          1           0       -0.000000   -2.173349    0.366818
     11          1           0        0.882737   -1.322827   -0.905512
 ---------------------------------------------------------------------

 SCF Done:  E(RHF) =  -118.317343954     A.U. after    2 cycles

 The electronic state is 1-A1.
 Alpha  occ. eigenvalues --  -11.22770 -11.22065 -11.22058  -1.04276  -0.92110
 Alpha  occ. eigenvalues --   -0.79935  -0.62442  -0.59855  -0.55193  -0.53227
 Alpha  occ. eigenvalues --   -0.47810  -0.47704  -0.46896
 Alpha virt. eigenvalues --    0.03732   0.04842   0.05016   0.05160   0.07439
 Alpha virt. eigenvalues --    0.07614   0.07852   0.08234   0.12266   0.14223
 Alpha virt. eigenvalues --    0.15237   0.15885   0.17142   0.17378   0.17401

 Mulliken charges:
               1
     1  C    0.341515
     2  C   -0.046060
     3  H   -0.072205
     4  H   -0.090760
     5  H   -0.072205
     6  C    0.341515
     7  H   -0.083316
     8  H   -0.083316
     9  H   -0.072205
    10  H   -0.090760
    11  H   -0.072205
 Sum of Mulliken charges =  -0.00000

 Dipole moment (field-independent basis, Debye):
    X=             -0.0000    Y=              0.0000    Z=              0.0829  Tot=              0.0829

 Test job not archived.
 1\1\GINC-SE069\SP\RHF\Aug-CC-pVDZ\C3H8\OHZDE\08-Apr-2025\0\\#t hf aug-
 cc-pvdz iop(5/13=1,5/36=2,99/5=2) pseudo=read geom=check guess=(read,t
 check) scf=(maxcycle=1)\\title\\0,1\C,0,0.,1.276939,-0.259549\C,0,0.,0
 .,0.585518\H,0,0.882737,1.322827,-0.905512\H,0,0.,2.173349,0.366818\H,
 0,-0.882737,1.322827,-0.905512\C,0,0.,-1.276939,-0.259549\H,0,-0.87542
 3,0.,1.24495\H,0,0.875423,0.,1.24495\H,0,-0.882737,-1.322827,-0.905512
 \H,0,0.,-2.173349,0.366818\H,0,0.882737,-1.322827,-0.905512\\Version=E
 S64L-G16RevC.01\State=1-A1\HF=-118.317344\RMSD=3.623e-03\Dipole=0.,0.,

 Normal termination of Gaussian 16 at Tue Apr  8 23:03:42 2025.
