 Gaussian 16, Revision C.01,

 ----------------------------------------------------------------------
 #t hf aug-cc-pvdz symm=none int=(grid=ultrafine) guess=(read,tcheck) s
 table=(opt,rrhf)
 ----------------------------------------------------------------------
 -----
 title
 -----
 Symbolic Z-matrix:
 Charge =  0 Multiplicity = 1

 SCF Done:  E(RHF) =  -787.639070866     A.U. after   12 cycles
 Normal termination of Gaussian 16 at Wed Apr  9 00:19:35 2025.
 Gaussian 16:  ES64L-G16RevC.01  3-Jul-2019

 ----------------------------------------------------------------------
 #t hf aug-cc-pvdz iop(5/13=1,5/36=2,99/5=2) pseudo=read geom=check gue
 ss=(read,tcheck) scf=(maxcycle=1)
 ----------------------------------------------------------------------
 -----
 title
 -----
 Structure from the checkpoint file:  "BDE49_nonexpt_2627_mol1.chk"
 Charge =  0 Multiplicity = 1

                         Standard orientation:
 ---------------------------------------------------------------------
 Center     Atomic      Atomic             Coordinates (Angstroms)
 Number     Number       Type             X           Y           Z
 ---------------------------------------------------------------------
      1          9           0        1.494736    0.810516    0.000014
      2         16           0        0.662453   -0.658916   -0.000004
      3         14           0       -1.338016    0.167308   -0.000003
      4          1           0       -1.571219    0.978903   -1.211518
      5          1           0       -2.177198   -1.052088   -0.000019
      6          1           0       -1.571227    0.978878    1.211527
 ---------------------------------------------------------------------

 SCF Done:  E(RHF) =  -787.718507543     A.U. after    2 cycles

 The electronic state is 1-A.
 Alpha  occ. eigenvalues --  -93.61323 -69.11190 -26.12951  -8.90396  -6.86325
 Alpha  occ. eigenvalues --   -6.24581  -6.24131  -6.23820  -3.97163  -3.97061
 Alpha  occ. eigenvalues --   -3.97013  -1.63590  -0.96682  -0.75488  -0.73081
 Alpha  occ. eigenvalues --   -0.71840  -0.65761  -0.51875  -0.51631  -0.46243
 Alpha  occ. eigenvalues --   -0.39373
 Alpha virt. eigenvalues --    0.03482   0.04555   0.05074   0.05840   0.06501
 Alpha virt. eigenvalues --    0.08596   0.08897   0.10527   0.13495   0.14048
 Alpha virt. eigenvalues --    0.15582   0.16136   0.18143   0.18742   0.22126

 Mulliken charges:
               1
     1  F   -0.614403
     2  S    0.169763
     3  Si   0.694072
     4  H   -0.075976
     5  H   -0.097479
     6  H   -0.075976
 Sum of Mulliken charges =  -0.00000

 Dipole moment (field-independent basis, Debye):
    X=             -2.5708    Y=             -0.9095    Z=             -0.0000  Tot=              2.7270

 Test job not archived.
 1\1\GINC-SE187\SP\RHF\Aug-CC-pVDZ\F1H3S1Si1\OHZDE\09-Apr-2025\0\\#t hf
  aug-cc-pvdz iop(5/13=1,5/36=2,99/5=2) pseudo=read geom=check guess=(r
 ead,tcheck) scf=(maxcycle=1)\\title\\0,1\F,0,1.494736,0.810516,0.00001
 4\S,0,0.662453,-0.658916,-0.000004\Si,0,-1.338016,0.167308,-0.000003\H
 ,0,-1.571219,0.978903,-1.211518\H,0,-2.177198,-1.052088,-0.000019\H,0,
 -1.571227,0.978878,1.211527\\Version=ES64L-G16RevC.01\State=1-A\HF=-78
 7.7185075\RMSD=6.044e-03\Dipole=-1.0114436,-0.3578243,-0.0000072\Quadr
 upole=0.1440764,0.2542463,-0.3983227,-1.1185661,-0.0000098,0.0000026\P

 Normal termination of Gaussian 16 at Wed Apr  9 00:19:37 2025.
