 Gaussian 16, Revision C.01,

 ----------------------------------------------------------------------
 #t hf aug-cc-pvdz symm=none int=(grid=ultrafine) guess=(read,tcheck) s
 table=(opt,rrhf)
 ----------------------------------------------------------------------
 -----
 title
 -----
 Symbolic Z-matrix:
 Charge =  0 Multiplicity = 1

 SCF Done:  E(RHF) =  -882.581707248     A.U. after   17 cycles
 Normal termination of Gaussian 16 at Tue Apr  8 23:34:02 2025.
 Gaussian 16:  ES64L-G16RevC.01  3-Jul-2019

 ----------------------------------------------------------------------
 #t hf aug-cc-pvdz iop(5/13=1,5/36=2,99/5=2) pseudo=read geom=check gue
 ss=(read,tcheck) scf=(maxcycle=1)
 ----------------------------------------------------------------------
 -----
 title
 -----
 Structure from the checkpoint file:  "BDE49_nonexpt_1470_mol1.chk"
 Charge =  0 Multiplicity = 1

                         Standard orientation:
 ---------------------------------------------------------------------
 Center     Atomic      Atomic             Coordinates (Angstroms)
 Number     Number       Type             X           Y           Z
 ---------------------------------------------------------------------
      1          7           0       -1.370973   -0.643218    0.360798
      2          6           0       -0.588296    0.348408    1.095029
      3         15           0        1.371666    0.659360   -1.045082
      4          7           0       -2.642309   -0.294658   -0.074212
      5          1           0       -1.383677   -1.602439    0.680669
      6          7           0        2.446243   -0.378857    0.086240
      7          8           0       -2.883794    0.899494   -0.179290
      8          8           0       -3.386414   -1.220609   -0.349549
      9          8           0        2.578734   -0.022482    1.250020
     10          8           0        3.016335   -1.319965   -0.436701
     11          6           0        0.169214    1.327465    0.188116
     12          1           0        0.118099   -0.213261    1.706597
     13          1           0        0.720846    2.036802    0.810339
     14          1           0       -0.544182    1.912474   -0.401265
     15          1           0       -1.240840    0.917669    1.764008
     16          1           0        0.639632   -0.471260   -1.468604
 ---------------------------------------------------------------------

 SCF Done:  E(RHF) =  -882.769409025     A.U. after    2 cycles

 The electronic state is 1-A.
 Alpha  occ. eigenvalues --  -81.34166 -20.63722 -20.63512 -20.63339 -20.63135
 Alpha  occ. eigenvalues --  -15.97104 -15.91211 -15.73314 -11.32882 -11.29033
 Alpha  occ. eigenvalues --   -7.84210  -4.98246  -4.98015  -4.97745  -1.58820
 Alpha  occ. eigenvalues --   -1.55433  -1.39574  -1.37716  -1.27219  -1.08100
 Alpha  occ. eigenvalues --   -0.98132  -0.94201  -0.87446  -0.82457  -0.80867
 Alpha  occ. eigenvalues --   -0.77823  -0.76618  -0.74741  -0.73421  -0.72205
 Alpha  occ. eigenvalues --   -0.69057  -0.64985  -0.61865  -0.58698  -0.54389
 Alpha  occ. eigenvalues --   -0.54229  -0.53500  -0.51763  -0.50376  -0.48977
 Alpha  occ. eigenvalues --   -0.48654  -0.46546  -0.41227
 Alpha virt. eigenvalues --    0.02837   0.03084   0.03759   0.05399   0.05909
 Alpha virt. eigenvalues --    0.06434   0.06696   0.07627   0.08157   0.09710
 Alpha virt. eigenvalues --    0.10334   0.11275   0.11964   0.12913   0.13384

 Mulliken charges:
               1
     1  N   -0.047736
     2  C    0.942143
     3  P    0.815256
     4  N    0.511934
     5  H    0.002539
     6  N    0.393541
     7  O   -0.519515
     8  O   -0.535454
     9  O   -0.588755
    10  O   -0.576643
    11  C   -0.179372
    12  H   -0.217136
    13  H    0.009270
    14  H   -0.067485
    15  H   -0.083739
    16  H    0.141150
 Sum of Mulliken charges =   0.00000

 Dipole moment (field-independent basis, Debye):
    X=             -0.1679    Y=              1.5928    Z=              0.7975  Tot=              1.7892

 Test job not archived.
 1\1\GINC-SE368\SP\RHF\Aug-CC-pVDZ\C2H6N3O4P1\OHZDE\08-Apr-2025\0\\#t h
 f aug-cc-pvdz iop(5/13=1,5/36=2,99/5=2) pseudo=read geom=check guess=(
 read,tcheck) scf=(maxcycle=1)\\title\\0,1\N,0,1.370973,0.643218,0.3607
 98\C,0,0.588296,-0.348408,1.095029\P,0,-1.371666,-0.65936,-1.045082\N,
 0,2.642309,0.294658,-0.074212\H,0,1.383677,1.602439,0.680669\N,0,-2.44
 6243,0.378857,0.08624\O,0,2.883794,-0.899494,-0.17929\O,0,3.386414,1.2
 20609,-0.349549\O,0,-2.578734,0.022482,1.25002\O,0,-3.016335,1.319965,
 -0.436701\C,0,-0.169214,-1.327465,0.188116\H,0,-0.118099,0.213261,1.70

 Normal termination of Gaussian 16 at Tue Apr  8 23:34:09 2025.
