 Gaussian 16, Revision C.01,

 ----------------------------------------------------------------------
 #t hf aug-cc-pvdz symm=none int=(grid=ultrafine) guess=(read,tcheck) s
 table=(opt,rrhf)
 ----------------------------------------------------------------------
 -----
 title
 -----
 Symbolic Z-matrix:
 Charge =  0 Multiplicity = 1

 SCF Done:  E(RHF) =  -612.957186547     A.U. after   14 cycles
 Normal termination of Gaussian 16 at Tue Apr  8 23:14:49 2025.
 Gaussian 16:  ES64L-G16RevC.01  3-Jul-2019

 ----------------------------------------------------------------------
 #t hf aug-cc-pvdz iop(5/13=1,5/36=2,99/5=2) pseudo=read geom=check gue
 ss=(read,tcheck) scf=(maxcycle=1)
 ----------------------------------------------------------------------
 -----
 title
 -----
 Structure from the checkpoint file:  "BDE49_nonexpt_1035_mol1.chk"
 Charge =  0 Multiplicity = 1

                         Standard orientation:
 ---------------------------------------------------------------------
 Center     Atomic      Atomic             Coordinates (Angstroms)
 Number     Number       Type             X           Y           Z
 ---------------------------------------------------------------------
      1         17           0       -1.663906    0.057116    0.000000
      2          8           0        0.000000    0.556477    0.000000
      3          6           0        0.880052   -0.580109    0.000000
      4          6           0        2.283305    0.002694    0.000000
      5          1           0        0.698392   -1.190167    0.890827
      6          1           0        2.448135    0.616784   -0.887184
      7          1           0        3.013212   -0.811533    0.000000
      8          1           0        2.448135    0.616784    0.887184
      9          1           0        0.698392   -1.190167   -0.890827
 ---------------------------------------------------------------------

 SCF Done:  E(RHF) =  -613.026470505     A.U. after    2 cycles

 The electronic state is 1-A'.
 Alpha  occ. eigenvalues -- -103.70637 -20.64840 -11.30917 -11.24348 -10.73345
 Alpha  occ. eigenvalues --   -8.39102  -8.38702  -8.38679  -1.36576  -1.11592
 Alpha  occ. eigenvalues --   -1.00440  -0.85629  -0.69054  -0.67600  -0.62652
 Alpha  occ. eigenvalues --   -0.57904  -0.55355  -0.51337  -0.50780  -0.47175
 Alpha  occ. eigenvalues --   -0.44783
 Alpha virt. eigenvalues --    0.03438   0.04908   0.05151   0.05937   0.06358
 Alpha virt. eigenvalues --    0.07768   0.10409   0.12134   0.13533   0.14466
 Alpha virt. eigenvalues --    0.15896   0.16251   0.16950   0.17202   0.17587

 Mulliken charges:
               1
     1  Cl   0.225907
     2  O   -0.689941
     3  C    0.682636
     4  C    0.146871
     5  H   -0.139447
     6  H   -0.040079
     7  H   -0.006421
     8  H   -0.040079
     9  H   -0.139447
 Sum of Mulliken charges =  -0.00000

 Dipole moment (field-independent basis, Debye):
    X=              1.5817    Y=             -1.5151    Z=              0.0000  Tot=              2.1903

 Test job not archived.
 1\1\GINC-SE461\SP\RHF\Aug-CC-pVDZ\C2H5Cl1O1\OHZDE\08-Apr-2025\0\\#t hf
  aug-cc-pvdz iop(5/13=1,5/36=2,99/5=2) pseudo=read geom=check guess=(r
 ead,tcheck) scf=(maxcycle=1)\\title\\0,1\Cl,0,-1.663906,0.057115,0.\O,
 0,0.,0.556477,0.\C,0,0.880052,-0.580109,0.\C,0,2.283305,0.002695,0.\H,
 0,0.698393,-1.190167,0.890827\H,0,2.448135,0.616785,-0.887184\H,0,3.01
 3212,-0.811532,0.\H,0,2.448135,0.616785,0.887184\H,0,0.698393,-1.19016
 7,-0.890827\\Version=ES64L-G16RevC.01\State=1-A'\HF=-613.0264705\RMSD=
 3.373e-03\Dipole=0.6223025,-0.5960791,0.\Quadrupole=1.5454389,-0.92448

 Normal termination of Gaussian 16 at Tue Apr  8 23:14:51 2025.
