 Gaussian 16, Revision C.01,

 ----------------------------------------------------------------------
 #t hf aug-cc-pvdz symm=none int=(grid=ultrafine) guess=(read,tcheck) s
 table=opt
 ----------------------------------------------------------------------
 -----
 title
 -----
 Symbolic Z-matrix:
 Charge =  0 Multiplicity = 2

 SCF Done:  E(UHF) =  -557.598692197     A.U. after   16 cycles
 Normal termination of Gaussian 16 at Wed Apr  9 00:02:01 2025.
 Gaussian 16:  ES64L-G16RevC.01  3-Jul-2019

 ----------------------------------------------------------------------
 #t hf aug-cc-pvdz iop(5/13=1,5/36=2,99/5=2) pseudo=read geom=check gue
 ss=(read,tcheck) scf=(maxcycle=1)
 ----------------------------------------------------------------------
 -----
 title
 -----
 Structure from the checkpoint file:  "BDE49_nonexpt_2175_mol2.chk"
 Charge =  0 Multiplicity = 2

                         Standard orientation:
 ---------------------------------------------------------------------
 Center     Atomic      Atomic             Coordinates (Angstroms)
 Number     Number       Type             X           Y           Z
 ---------------------------------------------------------------------
      1         14           0        0.765834   -0.017915    0.385813
      2          8           0        1.448437   -1.393687   -0.230565
      3          6           0       -0.998566    0.000261   -0.332599
      4          6           0       -1.728852    1.316415   -0.027312
      5          6           0       -1.807472   -1.230570    0.104728
      6          1           0       -0.821351   -0.062506   -1.416106
      7          1           0       -1.979183   -1.228908    1.186145
      8          1           0       -1.293046   -2.159838   -0.150365
      9          1           0       -2.788474   -1.243094   -0.383156
     10          1           0       -1.897543    1.439263    1.047850
     11          1           0       -2.708814    1.340076   -0.515904
     12          1           0       -1.164178    2.184154   -0.380200
     13          1           0        2.407117   -1.457355   -0.221273
     14          8           0        1.681760    1.251907   -0.190732
     15          1           0        1.691560    2.056620    0.333093
 ---------------------------------------------------------------------

 SCF Done:  E(UHF) =  -557.722338881     A.U. after    2 cycles

 The electronic state is 2-A.
 Alpha  occ. eigenvalues --  -69.11100 -20.57550 -20.57011 -11.23013 -11.22956
 Alpha  occ. eigenvalues --  -11.22515  -6.85622  -3.96808  -3.96276  -3.96070
 Alpha  occ. eigenvalues --   -1.31515  -1.29370  -1.04789  -0.92719  -0.81288
 Alpha  occ. eigenvalues --   -0.75119  -0.71560  -0.63623  -0.60889  -0.60481
 Alpha  occ. eigenvalues --   -0.57622  -0.56262  -0.54856  -0.53953  -0.53560
 Alpha  occ. eigenvalues --   -0.48366  -0.48177  -0.44596  -0.31612
 Alpha virt. eigenvalues --    0.03339   0.04474   0.04587   0.05140   0.06301
 Alpha virt. eigenvalues --    0.06752   0.07274   0.07627   0.07763   0.09114
 Alpha virt. eigenvalues --    0.09460   0.10582   0.13486   0.14793   0.15310

  Beta  occ. eigenvalues --  -69.10628 -20.57168 -20.56667 -11.23026 -11.22582
  Beta  occ. eigenvalues --  -11.22527  -6.84863  -3.95989  -3.95842  -3.95031
  Beta  occ. eigenvalues --   -1.30402  -1.28293  -1.04278  -0.92735  -0.80331
  Beta  occ. eigenvalues --   -0.74333  -0.71145  -0.62114  -0.60604  -0.58106
  Beta  occ. eigenvalues --   -0.56786  -0.55719  -0.53936  -0.53235  -0.52569
  Beta  occ. eigenvalues --   -0.48267  -0.47955  -0.41620
  Beta virt. eigenvalues --    0.02475   0.04456   0.04661   0.05087   0.06319
  Beta virt. eigenvalues --    0.06526   0.06814   0.07378   0.07784   0.08699
  Beta virt. eigenvalues --    0.09191   0.09761   0.10886   0.14582   0.15310

 Mulliken charges and spin densities:
               1          2
     1  Si   1.363612   0.943693
     2  O   -0.843483   0.037693
     3  C   -0.153986   0.039301
     4  C    0.424760  -0.005498
     5  C    0.397993   0.000777
     6  H   -0.124499  -0.000141
     7  H   -0.084074   0.000723
     8  H   -0.105854   0.001465
     9  H   -0.066629  -0.002949
    10  H   -0.065595  -0.001136
    11  H   -0.067355  -0.002197
    12  H   -0.123511   0.000086
    13  H    0.130584  -0.010006
    14  O   -0.837034   0.024165
    15  H    0.155073  -0.025976
 Sum of Mulliken charges =   0.00000   1.00000

 Dipole moment (field-independent basis, Debye):
    X=              0.1253    Y=              1.1834    Z=              1.0451  Tot=              1.5838
                          Isotropic Fermi Contact Couplings
        Atom                 a.u.       MegaHertz       Gauss      10(-4) cm-1
     1  Si(29)             0.60481    -537.50810    -191.79625    -179.29340
     2  O(17)              0.04533     -27.47957      -9.80539      -9.16620
     3  C(13)              0.07597      85.40246      30.47372      28.48719
     4  C(13)             -0.00616      -6.92001      -2.46923      -2.30827
     5  C(13)             -0.00604      -6.79181      -2.42349      -2.26550
     6  H(1)               0.00216       9.63269       3.43718       3.21312
     7  H(1)              -0.00006      -0.26555      -0.09475      -0.08858
     8  H(1)               0.00018       0.81903       0.29225       0.27320

 Normal termination of Gaussian 16 at Wed Apr  9 00:02:06 2025.
