 Gaussian 16, Revision C.01,

 ----------------------------------------------------------------------
 #t hf aug-cc-pvdz symm=none int=(grid=ultrafine) guess=(read,tcheck) s
 table=opt
 ----------------------------------------------------------------------
 -----
 title
 -----
 Symbolic Z-matrix:
 Charge =  0 Multiplicity = 2

 SCF Done:  E(UHF) =  -194.560140857     A.U. after   15 cycles
 Normal termination of Gaussian 16 at Tue Apr  8 22:36:44 2025.
 Gaussian 16:  ES64L-G16RevC.01  3-Jul-2019

 ----------------------------------------------------------------------
 #t hf aug-cc-pvdz iop(5/13=1,5/36=2,99/5=2) pseudo=read geom=check gue
 ss=(read,tcheck) scf=(maxcycle=1)
 ----------------------------------------------------------------------
 -----
 title
 -----
 Structure from the checkpoint file:  "BDE49_expt_1159_mol2.chk"
 Charge =  0 Multiplicity = 2

                         Standard orientation:
 ---------------------------------------------------------------------
 Center     Atomic      Atomic             Coordinates (Angstroms)
 Number     Number       Type             X           Y           Z
 ---------------------------------------------------------------------
      1          6           0       -0.000000    1.276809    0.000000
      2          6           0       -0.738114   -0.989337    0.220888
      3          6           0        0.738114   -0.989337   -0.220888
      4          6           0        1.233720    0.435618    0.119935
      5          1           0        0.799209   -1.148095   -1.302846
      6          1           0        1.326978   -1.774334    0.259281
      7          1           0        1.639208    0.465643    1.145474
      8          1           0        2.050739    0.768869   -0.531534
      9          6           0       -1.233721    0.435618   -0.119935
     10          1           0       -0.000000    2.359605   -0.000002
     11          1           0       -1.639209    0.465643   -1.145473
     12          1           0       -2.050738    0.768868    0.531535
     13          1           0       -0.799208   -1.148096    1.302845
     14          1           0       -1.326978   -1.774334   -0.259281
 ---------------------------------------------------------------------

 SCF Done:  E(UHF) =  -194.619109384     A.U. after    2 cycles

 The electronic state is 2-A.
 Alpha  occ. eigenvalues --  -11.22789 -11.22568 -11.22566 -11.22524 -11.22486
 Alpha  occ. eigenvalues --   -1.11299  -0.95655  -0.95387  -0.78029  -0.76058
 Alpha  occ. eigenvalues --   -0.65969  -0.64825  -0.57328  -0.54436  -0.49930
 Alpha  occ. eigenvalues --   -0.49846  -0.47659  -0.46868  -0.46154  -0.32134
 Alpha virt. eigenvalues --    0.03661   0.04620   0.04777   0.04858   0.06705
 Alpha virt. eigenvalues --    0.07008   0.07077   0.07349   0.07526   0.13020
 Alpha virt. eigenvalues --    0.13577   0.14815   0.15033   0.15424   0.15760

  Beta  occ. eigenvalues --  -11.22903 -11.22899 -11.22519 -11.22466 -11.20263
  Beta  occ. eigenvalues --   -1.09660  -0.95643  -0.92149  -0.77829  -0.72145
  Beta  occ. eigenvalues --   -0.65172  -0.63523  -0.56459  -0.51608  -0.49116
  Beta  occ. eigenvalues --   -0.48704  -0.47438  -0.46799  -0.45733
  Beta virt. eigenvalues --    0.03694   0.04647   0.04794   0.04860   0.06739
  Beta virt. eigenvalues --    0.07019   0.07063   0.07359   0.07484   0.11496
  Beta virt. eigenvalues --    0.13072   0.13609   0.14869   0.15154   0.15645

 Mulliken charges and spin densities:
               1          2
     1  C    0.172404   1.552173
     2  C    0.280644   0.008998
     3  C    0.280642   0.008999
     4  C    0.148206  -0.294664
     5  H   -0.151220   0.001600
     6  H   -0.073369   0.000787
     7  H   -0.058832   0.040664
     8  H   -0.083536   0.021641
     9  C    0.148214  -0.294663
    10  H   -0.296189  -0.110228
    11  H   -0.058834   0.040664
    12  H   -0.083538   0.021641
    13  H   -0.151223   0.001600
    14  H   -0.073369   0.000787
 Sum of Mulliken charges =  -0.00000   1.00000

 Dipole moment (field-independent basis, Debye):
    X=             -0.0000    Y=             -0.1353    Z=             -0.0000  Tot=              0.1353
                          Isotropic Fermi Contact Couplings
        Atom                 a.u.       MegaHertz       Gauss      10(-4) cm-1
     1  C(13)              0.22682     254.99304      90.98786      85.05652
     2  C(13)              0.00496       5.57612       1.98970       1.85999
     3  C(13)              0.00496       5.57620       1.98973       1.86002
     4  C(13)             -0.06550     -73.63863     -26.27609     -24.56320
     5  H(1)              -0.00070      -3.14673      -1.12283      -1.04964
     6  H(1)              -0.00058      -2.61150      -0.93185      -0.87110
     7  H(1)               0.02488     111.23089      39.68995      37.10263
     8  H(1)               0.01445      64.60160      23.05146      21.54878

 Normal termination of Gaussian 16 at Tue Apr  8 22:36:48 2025.
