 Gaussian 16, Revision C.01,

 ----------------------------------------------------------------------
 #t hf aug-cc-pvdz symm=none int=(grid=ultrafine) guess=(read,tcheck) s
 table=(opt,rrhf)
 ----------------------------------------------------------------------
 -----
 title
 -----
 Symbolic Z-matrix:
 Charge =  0 Multiplicity = 1

 SCF Done:  E(RHF) =  -440.921700725     A.U. after   12 cycles

 1\1\GINC-SE403\Stability\RHF\Aug-CC-pVDZ\H4O2Si1\OHZDE\08-Apr-2025\0\\
 #t hf aug-cc-pvdz symm=none int=(grid=ultrafine) guess=(read,tcheck) s
 table=(opt,rrhf)\\title\\0,1\Si,0,0.989362,-0.117733,0.012707\O,0,-0.4
 88236,0.689585,-0.02978\O,0,-1.515942,-0.357106,-0.087412\H,0,-2.04921
 5,-0.103348,0.678322\H,0,1.955197,0.999741,0.005115\H,0,1.162655,-0.98
 4266,-1.170292\H,0,1.11373,-0.923697,1.246492\\Version=ES64L-G16RevC.0
 1\HF=-440.9217007\RMSD=9.374e-09\Dipole=0.0765255,-0.1633407,0.5253956
 \Quadrupole=2.1757229,-1.8672779,-0.3084451,-0.1088005,-2.4364099,-0.0

 Normal termination of Gaussian 16 at Tue Apr  8 23:56:18 2025.
 Gaussian 16:  ES64L-G16RevC.01  3-Jul-2019

 ----------------------------------------------------------------------
 #t hf aug-cc-pvdz iop(5/13=1,5/36=2,99/5=2) pseudo=read geom=check gue
 ss=(read,tcheck) scf=(maxcycle=1)
 ----------------------------------------------------------------------
 -----
 title
 -----
 Structure from the checkpoint file:  "BDE49_nonexpt_2042_mol1.chk"
 Charge =  0 Multiplicity = 1

                         Standard orientation:
 ---------------------------------------------------------------------
 Center     Atomic      Atomic             Coordinates (Angstroms)
 Number     Number       Type             X           Y           Z
 ---------------------------------------------------------------------
      1         14           0        0.989362   -0.117733    0.012707
      2          8           0       -0.488236    0.689585   -0.029780
      3          8           0       -1.515942   -0.357106   -0.087412
      4          1           0       -2.049215   -0.103348    0.678322
      5          1           0        1.955197    0.999741    0.005115
      6          1           0        1.162654   -0.984266   -1.170292
      7          1           0        1.113729   -0.923697    1.246492
 ---------------------------------------------------------------------

 SCF Done:  E(RHF) =  -441.001970897     A.U. after    2 cycles

 The electronic state is 1-A.
 Alpha  occ. eigenvalues --  -69.10399 -20.65434 -20.63053  -6.85246  -3.96156
 Alpha  occ. eigenvalues --   -3.96018  -3.95970  -1.41720  -1.18494  -0.74562
 Alpha  occ. eigenvalues --   -0.73471  -0.64813  -0.62250  -0.54871  -0.51138
 Alpha  occ. eigenvalues --   -0.49005  -0.47021
 Alpha virt. eigenvalues --    0.03422   0.05070   0.05912   0.06373   0.07163
 Alpha virt. eigenvalues --    0.09106   0.09226   0.14127   0.14912   0.16770
 Alpha virt. eigenvalues --    0.18133   0.19419   0.20312   0.21893   0.24002

 Mulliken charges:
               1
     1  Si   0.945360
     2  O   -0.671871
     3  O   -0.264825
     4  H    0.235733
     5  H   -0.077307
     6  H   -0.077129
     7  H   -0.089961
 Sum of Mulliken charges =  -0.00000

 Dipole moment (field-independent basis, Debye):
    X=              0.2064    Y=             -0.4364    Z=              1.3888  Tot=              1.4703

 Test job not archived.
 1\1\GINC-SE403\SP\RHF\Aug-CC-pVDZ\H4O2Si1\OHZDE\08-Apr-2025\0\\#t hf a
 ug-cc-pvdz iop(5/13=1,5/36=2,99/5=2) pseudo=read geom=check guess=(rea
 d,tcheck) scf=(maxcycle=1)\\title\\0,1\Si,0,0.989362,-0.117733,0.01270
 7\O,0,-0.488236,0.689585,-0.02978\O,0,-1.515942,-0.357106,-0.087412\H,
 0,-2.049215,-0.103348,0.678322\H,0,1.955197,0.999741,0.005115\H,0,1.16
 2655,-0.984266,-1.170292\H,0,1.11373,-0.923697,1.246492\\Version=ES64L
 -G16RevC.01\State=1-A\HF=-441.0019709\RMSD=4.477e-03\Dipole=0.0812074,
 -0.1716811,0.5463857\Quadrupole=2.2193087,-1.9123271,-0.3069816,-0.109

 Normal termination of Gaussian 16 at Tue Apr  8 23:56:20 2025.
