 Gaussian 16, Revision C.01,

 ----------------------------------------------------------------------
 #t hf aug-cc-pvdz symm=none int=(grid=ultrafine) guess=(read,tcheck) s
 table=opt
 ----------------------------------------------------------------------
 -----
 title
 -----
 Symbolic Z-matrix:
 Charge =  0 Multiplicity = 2

 SCF Done:  E(UHF) =  -586.776768581     A.U. after   20 cycles
 Normal termination of Gaussian 16 at Tue Apr  8 23:53:22 2025.
 Gaussian 16:  ES64L-G16RevC.01  3-Jul-2019

 ----------------------------------------------------------------------
 #t hf aug-cc-pvdz iop(5/13=1,5/36=2,99/5=2) pseudo=read geom=check gue
 ss=(read,tcheck) scf=(maxcycle=1)
 ----------------------------------------------------------------------
 -----
 title
 -----
 Structure from the checkpoint file:  "BDE49_nonexpt_1965_mol2.chk"
 Charge =  0 Multiplicity = 2

                         Standard orientation:
 ---------------------------------------------------------------------
 Center     Atomic      Atomic             Coordinates (Angstroms)
 Number     Number       Type             X           Y           Z
 ---------------------------------------------------------------------
      1          6           0       -1.027802   -1.153344   -0.162595
      2         16           0       -0.034867    0.166375    0.382784
      3          8           0       -0.467518    1.388294   -0.309728
      4          8           0        1.390184   -0.469408   -0.301983
      5          1           0        2.118137   -0.041322    0.170908
      6          1           0       -0.789160   -2.155273    0.169367
      7          1           0       -1.985628   -0.896421   -0.595566
 ---------------------------------------------------------------------

 SCF Done:  E(UHF) =  -586.886935372     A.U. after    2 cycles

 The electronic state is 2-A.
 Alpha  occ. eigenvalues --  -93.72386 -20.62890 -20.55260 -11.30458  -9.00075
 Alpha  occ. eigenvalues --   -6.34383  -6.34108  -6.33764  -1.38942  -1.31675
 Alpha  occ. eigenvalues --   -1.05432  -0.86048  -0.73426  -0.67973  -0.65837
 Alpha  occ. eigenvalues --   -0.62501  -0.59946  -0.54927  -0.49516  -0.46118
 Alpha  occ. eigenvalues --   -0.39655
 Alpha virt. eigenvalues --    0.03271   0.04438   0.05426   0.07823   0.10741
 Alpha virt. eigenvalues --    0.11501   0.11889   0.12397   0.16257   0.17415
 Alpha virt. eigenvalues --    0.17882   0.19798   0.21040   0.21996   0.23036

  Beta  occ. eigenvalues --  -93.72456 -20.62509 -20.55298 -11.28004  -9.00139
  Beta  occ. eigenvalues --   -6.34471  -6.34322  -6.33881  -1.38227  -1.31120
  Beta  occ. eigenvalues --   -1.00097  -0.82566  -0.72481  -0.66683  -0.64926
  Beta  occ. eigenvalues --   -0.61609  -0.59195  -0.54096  -0.48928  -0.41149
  Beta virt. eigenvalues --    0.02316   0.03546   0.04976   0.05539   0.08296
  Beta virt. eigenvalues --    0.10850   0.11758   0.12543   0.15119   0.16855
  Beta virt. eigenvalues --    0.17977   0.19081   0.20559   0.21149   0.22216

 Mulliken charges and spin densities:
               1          2
     1  C    0.071287   1.263613
     2  S    1.607296  -0.089198
     3  O   -0.937369  -0.003468
     4  O   -0.676216   0.039505
     5  H    0.180738  -0.011434
     6  H   -0.122017  -0.096924
     7  H   -0.123719  -0.102093
 Sum of Mulliken charges =  -0.00000   1.00000

 Dipole moment (field-independent basis, Debye):
    X=              0.3715    Y=             -2.9787    Z=              1.9251  Tot=              3.5661
                          Isotropic Fermi Contact Couplings
        Atom                 a.u.       MegaHertz       Gauss      10(-4) cm-1
     1  C(13)              0.21890     246.08155      87.80802      82.08397
     2  S(33)              0.05135      17.63580       6.29289       5.88267
     3  O(17)             -0.00445       2.69714       0.96240       0.89967
     4  O(17)              0.07975     -48.34622     -17.25113     -16.12656
     5  H(1)              -0.00071      -3.15193      -1.12469      -1.05137
     6  H(1)              -0.02373    -106.09170     -37.85616     -35.38838
     7  H(1)              -0.02521    -112.66727     -40.20248     -37.58175
 --------------------------------------------------------

 Normal termination of Gaussian 16 at Tue Apr  8 23:53:24 2025.
