 Gaussian 16, Revision C.01,

 ----------------------------------------------------------------------
 #t hf aug-cc-pvdz symm=none int=(grid=ultrafine) guess=(read,tcheck) s
 table=(opt,rrhf)
 ----------------------------------------------------------------------
 -----
 title
 -----
 Symbolic Z-matrix:
 Charge =  0 Multiplicity = 1

 SCF Done:  E(RHF) =  -1835.99297517     A.U. after   13 cycles
 Normal termination of Gaussian 16 at Tue Apr  8 23:45:21 2025.
 Gaussian 16:  ES64L-G16RevC.01  3-Jul-2019

 ----------------------------------------------------------------------
 #t hf aug-cc-pvdz iop(5/13=1,5/36=2,99/5=2) pseudo=read geom=check gue
 ss=(read,tcheck) scf=(maxcycle=1)
 ----------------------------------------------------------------------
 -----
 title
 -----
 Structure from the checkpoint file:  "BDE49_nonexpt_1783_mol1.chk"
 Charge =  0 Multiplicity = 1

                         Standard orientation:
 ---------------------------------------------------------------------
 Center     Atomic      Atomic             Coordinates (Angstroms)
 Number     Number       Type             X           Y           Z
 ---------------------------------------------------------------------
      1         14           0       -0.219230    0.001303   -0.000001
      2          6           0        1.682031   -0.265069    0.000019
      3         17           0       -0.711419    2.016752   -0.000066
      4         17           0       -1.015202   -0.870601    1.673270
      5         17           0       -1.015184   -0.870706   -1.673225
      6          7           0        2.487197    0.825163   -0.000003
      7          1           0        2.116887    1.761589   -0.000032
      8          1           0        3.489127    0.690677    0.000001
      9          8           0        2.071416   -1.417349    0.000038
 ---------------------------------------------------------------------

 SCF Done:  E(RHF) =  -1836.12810897     A.U. after    2 cycles

 The electronic state is 1-A.
 Alpha  occ. eigenvalues -- -103.69098-103.68406-103.68406 -69.22411 -20.57163
 Alpha  occ. eigenvalues --  -15.68145 -11.39028 -10.72530 -10.71862 -10.71849
 Alpha  occ. eigenvalues --   -8.38218  -8.37992  -8.37979  -8.37556  -8.37550
 Alpha  occ. eigenvalues --   -8.37307  -8.37302  -8.37299  -8.37298  -6.96295
 Alpha  occ. eigenvalues --   -4.07138  -4.07121  -4.06985  -1.37584  -1.20864
 Alpha  occ. eigenvalues --   -1.19240  -1.16171  -1.15852  -0.85949  -0.77846
 Alpha  occ. eigenvalues --   -0.72061  -0.68267  -0.61780  -0.61762  -0.59470
 Alpha  occ. eigenvalues --   -0.58494  -0.53477  -0.52435  -0.52291  -0.49873
 Alpha  occ. eigenvalues --   -0.49626  -0.48485  -0.44526  -0.43739
 Alpha virt. eigenvalues --    0.02739   0.04769   0.05744   0.05899   0.07288
 Alpha virt. eigenvalues --    0.07871   0.08472   0.10693   0.11894   0.12193
 Alpha virt. eigenvalues --    0.12708   0.12950   0.14134   0.16093   0.17239

 Mulliken charges:
               1
     1  Si   1.538875
     2  C    0.423006
     3  Cl  -0.468195
     4  Cl  -0.449493
     5  Cl  -0.449491
     6  N   -0.084328
     7  H    0.010070
     8  H   -0.013289
     9  O   -0.507154
 Sum of Mulliken charges =  -0.00000

 Dipole moment (field-independent basis, Debye):
    X=              1.2043    Y=              3.7068    Z=             -0.0001  Tot=              3.8976

 Test job not archived.
 1\1\GINC-SE454\SP\RHF\Aug-CC-pVDZ\C1H2Cl3N1O1Si1\OHZDE\08-Apr-2025\0\\
 #t hf aug-cc-pvdz iop(5/13=1,5/36=2,99/5=2) pseudo=read geom=check gue
 ss=(read,tcheck) scf=(maxcycle=1)\\title\\0,1\Si,0,-0.21923,0.001303,-
 0.000001\C,0,1.682031,-0.26507,0.000019\Cl,0,-0.711417,2.016753,-0.000
 066\Cl,0,-1.015203,-0.8706,1.67327\Cl,0,-1.015185,-0.870705,-1.673225\
 N,0,2.487198,0.825161,-0.000003\H,0,2.116889,1.761587,-0.000032\H,0,3.
 489128,0.690674,0.000001\O,0,2.071415,-1.417351,0.000038\\Version=ES64
 L-G16RevC.01\State=1-A\HF=-1836.128109\RMSD=3.512e-03\Dipole=0.473818,

 Normal termination of Gaussian 16 at Tue Apr  8 23:45:25 2025.
