 Gaussian 16, Revision C.01,

 ----------------------------------------------------------------------
 #t hf aug-cc-pvdz symm=none int=(grid=ultrafine) guess=(read,tcheck) s
 table=(opt,rrhf)
 ----------------------------------------------------------------------
 -----
 title
 -----
 Symbolic Z-matrix:
 Charge =  0 Multiplicity = 1

 SCF Done:  E(RHF) =  -643.085929788     A.U. after   15 cycles
 Normal termination of Gaussian 16 at Tue Apr  8 23:35:47 2025.
 Gaussian 16:  ES64L-G16RevC.01  3-Jul-2019

 ----------------------------------------------------------------------
 #t hf aug-cc-pvdz iop(5/13=1,5/36=2,99/5=2) pseudo=read geom=check gue
 ss=(read,tcheck) scf=(maxcycle=1)
 ----------------------------------------------------------------------
 -----
 title
 -----
 Structure from the checkpoint file:  "BDE49_nonexpt_1511_mol1.chk"
 Charge =  0 Multiplicity = 1

                         Standard orientation:
 ---------------------------------------------------------------------
 Center     Atomic      Atomic             Coordinates (Angstroms)
 Number     Number       Type             X           Y           Z
 ---------------------------------------------------------------------
      1          6           0       -0.406297    1.104126   -0.171632
      2          6           0       -1.780356    1.308151   -0.093189
      3          6           0       -2.612831    0.204058    0.068566
      4          7           0       -2.157532   -1.050158    0.160904
      5          6           0       -0.837674   -1.230344    0.088876
      6          6           0        0.093931   -0.196397   -0.075804
      7          1           0       -2.200884    2.305210   -0.157268
      8          1           0       -3.690450    0.327202    0.130289
      9          1           0        0.277978    1.936353   -0.291714
     10          7           0        2.600081    0.837319    0.354252
     11          1           0       -0.500906   -2.261524    0.176650
     12         15           0        1.885183   -0.569949   -0.297762
     13          1           0        1.954383   -1.502950    0.776729
     14          1           0        3.508056    1.067247   -0.020332
     15          1           0        2.535595    1.030008    1.345083
 ---------------------------------------------------------------------

 SCF Done:  E(RHF) =  -643.200378596     A.U. after    2 cycles

 The electronic state is 1-A.
 Alpha  occ. eigenvalues --  -81.28643 -15.63166 -15.62845 -11.28718 -11.28421
 Alpha  occ. eigenvalues --  -11.26615 -11.25364 -11.25144  -7.78599  -4.92740
 Alpha  occ. eigenvalues --   -4.92597  -4.92245  -1.23042  -1.13236  -1.07495
 Alpha  occ. eigenvalues --   -1.02908  -0.86424  -0.85720  -0.77232  -0.71156
 Alpha  occ. eigenvalues --   -0.67975  -0.67024  -0.62999  -0.58243  -0.57762
 Alpha  occ. eigenvalues --   -0.56731  -0.54565  -0.50393  -0.42241  -0.41476
 Alpha  occ. eigenvalues --   -0.39414  -0.37148  -0.31778
 Alpha virt. eigenvalues --    0.02943   0.03779   0.04399   0.05272   0.05409
 Alpha virt. eigenvalues --    0.06466   0.07661   0.08457   0.09213   0.09651
 Alpha virt. eigenvalues --    0.10870   0.11258   0.11748   0.12767   0.13259

 Mulliken charges:
               1
     1  C    0.027013
     2  C    0.621000
     3  C    0.568694
     4  N   -0.494401
     5  C    0.652097
     6  C    0.136415
     7  H   -0.396291
     8  H   -0.341362
     9  H   -0.543374
    10  N   -0.421596
    11  H   -0.439982
    12  P    0.596892
    13  H    0.067387
    14  H    0.004749
    15  H   -0.037242
 Sum of Mulliken charges =  -0.00000

 Dipole moment (field-independent basis, Debye):
    X=              2.0169    Y=              2.1997    Z=              1.1051  Tot=              3.1824

 Test job not archived.
 1\1\GINC-SE108\SP\RHF\Aug-CC-pVDZ\C5H7N2P1\OHZDE\08-Apr-2025\0\\#t hf
 aug-cc-pvdz iop(5/13=1,5/36=2,99/5=2) pseudo=read geom=check guess=(re
 ad,tcheck) scf=(maxcycle=1)\\title\\0,1\C,0,-0.406297,1.104126,-0.1716
 32\C,0,-1.780356,1.308151,-0.093189\C,0,-2.612831,0.204058,0.068566\N,
 0,-2.157532,-1.050158,0.160904\C,0,-0.837674,-1.230344,0.088876\C,0,0.
 093931,-0.196397,-0.075804\H,0,-2.200884,2.30521,-0.157268\H,0,-3.6904
 5,0.327202,0.130289\H,0,0.277978,1.936353,-0.291714\N,0,2.600081,0.837
 319,0.354252\H,0,-0.500906,-2.261524,0.17665\P,0,1.885183,-0.569949,-0

 Normal termination of Gaussian 16 at Tue Apr  8 23:35:54 2025.
