 Gaussian 16, Revision C.01,

 ----------------------------------------------------------------------
 #t hf aug-cc-pvdz symm=none int=(grid=ultrafine) guess=(read,tcheck) s
 table=(opt,rrhf)
 ----------------------------------------------------------------------
 -----
 title
 -----
 Symbolic Z-matrix:
 Charge =  0 Multiplicity = 1

 SCF Done:  E(RHF) =  -1159.12409823     A.U. after   15 cycles
 Normal termination of Gaussian 16 at Wed Apr  9 00:17:42 2025.
 Gaussian 16:  ES64L-G16RevC.01  3-Jul-2019

 ----------------------------------------------------------------------
 #t hf aug-cc-pvdz iop(5/13=1,5/36=2,99/5=2) pseudo=read geom=check gue
 ss=(read,tcheck) scf=(maxcycle=1)
 ----------------------------------------------------------------------
 -----
 title
 -----
 Structure from the checkpoint file:  "BDE49_nonexpt_2589_mol1.chk"
 Charge =  0 Multiplicity = 1

                         Standard orientation:
 ---------------------------------------------------------------------
 Center     Atomic      Atomic             Coordinates (Angstroms)
 Number     Number       Type             X           Y           Z
 ---------------------------------------------------------------------
      1         17           0       -2.349535   -0.850805   -0.302923
      2         16           0       -1.420320    0.895149    0.305783
      3          8           0        0.064610    0.822862   -0.462427
      4          6           0        1.072251    0.083727    0.144940
      5          8           0        0.963421   -0.575859    1.132127
      6          8           0        2.149787    0.264953   -0.606142
      7          6           0        3.327103   -0.440631   -0.156742
      8          1           0        3.140744   -1.514801   -0.145274
      9          1           0        3.607566   -0.107787    0.842953
     10          1           0        4.100236   -0.190319   -0.878173
 ---------------------------------------------------------------------

 SCF Done:  E(RHF) =  -1159.26870631     A.U. after    2 cycles

 The electronic state is 1-A.
 Alpha  occ. eigenvalues -- -103.69244 -93.66468 -20.67162 -20.64845 -20.59029
 Alpha  occ. eigenvalues --  -11.47388 -11.31994 -10.72424  -8.95121  -8.38153
 Alpha  occ. eigenvalues --   -8.37807  -8.37761  -6.29230  -6.28925  -6.28408
 Alpha  occ. eigenvalues --   -1.48607  -1.38660  -1.36477  -1.17825  -1.02279
 Alpha  occ. eigenvalues --   -0.93692  -0.81447  -0.77961  -0.73663  -0.73054
 Alpha  occ. eigenvalues --   -0.65654  -0.65092  -0.62842  -0.57202  -0.57041
 Alpha  occ. eigenvalues --   -0.52802  -0.52120  -0.51174  -0.51005  -0.49180
 Alpha  occ. eigenvalues --   -0.38850
 Alpha virt. eigenvalues --    0.03254   0.03881   0.05499   0.05765   0.06876
 Alpha virt. eigenvalues --    0.07375   0.10409   0.10749   0.11778   0.13458
 Alpha virt. eigenvalues --    0.13826   0.14796   0.15049   0.15282   0.15514

 Mulliken charges:
               1
     1  Cl  -0.291588
     2  S    0.720544
     3  O   -0.735356
     4  C    0.649386
     5  O   -0.295627
     6  O   -0.466264
     7  C    0.732259
     8  H   -0.045318
     9  H   -0.044464
    10  H   -0.223572
 Sum of Mulliken charges =   0.00000

 Dipole moment (field-independent basis, Debye):
    X=              2.3247    Y=              0.4707    Z=             -0.2096  Tot=              2.3811

 Test job not archived.
 1\1\GINC-SE459\SP\RHF\Aug-CC-pVDZ\C2H3Cl1O3S1\OHZDE\09-Apr-2025\0\\#t
 hf aug-cc-pvdz iop(5/13=1,5/36=2,99/5=2) pseudo=read geom=check guess=
 (read,tcheck) scf=(maxcycle=1)\\title\\0,1\Cl,0,2.349535,0.850805,-0.3
 02923\S,0,1.42032,-0.895149,0.305783\O,0,-0.06461,-0.822862,-0.462427\
 C,0,-1.072251,-0.083727,0.14494\O,0,-0.963421,0.575859,1.132127\O,0,-2
 .149787,-0.264953,-0.606142\C,0,-3.327103,0.440631,-0.156742\H,0,-3.14
 0744,1.514801,-0.145274\H,0,-3.607566,0.107787,0.842953\H,0,-4.100236,
 0.190319,-0.878173\\Version=ES64L-G16RevC.01\State=1-A\HF=-1159.268706

 Normal termination of Gaussian 16 at Wed Apr  9 00:17:46 2025.
