 Gaussian 16, Revision C.01,

 ----------------------------------------------------------------------
 #t hf aug-cc-pvdz symm=none int=(grid=ultrafine) guess=(read,tcheck) s
 table=(opt,rrhf)
 ----------------------------------------------------------------------
 -----
 title
 -----
 Symbolic Z-matrix:
 Charge =  0 Multiplicity = 1

 SCF Done:  E(RHF) =  -884.918910777     A.U. after   13 cycles
 Normal termination of Gaussian 16 at Wed Apr  9 00:09:22 2025.
 Gaussian 16:  ES64L-G16RevC.01  3-Jul-2019

 ----------------------------------------------------------------------
 #t hf aug-cc-pvdz iop(5/13=1,5/36=2,99/5=2) pseudo=read geom=check gue
 ss=(read,tcheck) scf=(maxcycle=1)
 ----------------------------------------------------------------------
 -----
 title
 -----
 Structure from the checkpoint file:  "BDE49_nonexpt_2344_mol1.chk"
 Charge =  0 Multiplicity = 1

                         Standard orientation:
 ---------------------------------------------------------------------
 Center     Atomic      Atomic             Coordinates (Angstroms)
 Number     Number       Type             X           Y           Z
 ---------------------------------------------------------------------
      1         14           0        0.866843    1.226570   -0.805200
      2         14           0       -0.866844    1.226570    0.805199
      3          6           0       -2.271710   -0.892924   -0.433362
      4          8           0       -1.617060   -1.273651   -1.379117
      5          6           0       -1.695935   -0.495848    0.888116
      6          1           0       -0.885729   -1.175943    1.168747
      7          1           0       -2.462847   -0.484095    1.667004
      8          1           0       -1.879816    2.251446    0.443251
      9          1           0       -0.351581    1.549552    2.156013
     10          1           0       -3.373938   -0.791109   -0.531460
     11          6           0        1.695935   -0.495848   -0.888116
     12          1           0        1.879815    2.251447   -0.443252
     13          1           0        0.351580    1.549550   -2.156013
     14          6           0        2.271711   -0.892923    0.433362
     15          1           0        0.885729   -1.175944   -1.168745
     16          1           0        2.462847   -0.484096   -1.667004
     17          8           0        1.617060   -1.273649    1.379119
     18          1           0        3.373940   -0.791114    0.531458
 ---------------------------------------------------------------------

 SCF Done:  E(RHF) =  -885.056050954     A.U. after    2 cycles

 The electronic state is 1-A.
 Alpha  occ. eigenvalues --  -69.07313 -69.07313 -20.57440 -20.57439 -11.35436
 Alpha  occ. eigenvalues --  -11.35436 -11.24047 -11.24047  -6.82602  -6.82597
 Alpha  occ. eigenvalues --   -3.93369  -3.93360  -3.93349  -3.93347  -3.93336
 Alpha  occ. eigenvalues --   -3.93261  -1.36224  -1.36174  -1.01058  -1.00800
 Alpha  occ. eigenvalues --   -0.81373  -0.79924  -0.72083  -0.68958  -0.68922
 Alpha  occ. eigenvalues --   -0.66160  -0.64268  -0.63221  -0.57744  -0.56805
 Alpha  occ. eigenvalues --   -0.56449  -0.55772  -0.49649  -0.48081  -0.46700
 Alpha  occ. eigenvalues --   -0.45365  -0.43777  -0.42807  -0.39662
 Alpha virt. eigenvalues --    0.03325   0.03606   0.04582   0.04826   0.05533
 Alpha virt. eigenvalues --    0.05820   0.06541   0.07597   0.07876   0.08312
 Alpha virt. eigenvalues --    0.08809   0.09022   0.09202   0.10148   0.10327

 Mulliken charges:
               1
     1  Si  -0.032300
     2  Si  -0.032299
     3  C    0.415322
     4  O   -0.475255
     5  C    0.320871
     6  H   -0.136333
     7  H   -0.211356
     8  H    0.174112
     9  H    0.130756
    10  H   -0.185818
    11  C    0.320869
    12  H    0.174111
    13  H    0.130758
    14  C    0.415323
    15  H   -0.136332
    16  H   -0.211356
    17  O   -0.475258
    18  H   -0.185816
 Sum of Mulliken charges =  -0.00000

 Dipole moment (field-independent basis, Debye):
    X=              0.0000    Y=              1.5681    Z=             -0.0000  Tot=              1.5681

 Test job not archived.
 1\1\GINC-SE362\SP\RHF\Aug-CC-pVDZ\C4H10O2Si2\OHZDE\09-Apr-2025\0\\#t h
 f aug-cc-pvdz iop(5/13=1,5/36=2,99/5=2) pseudo=read geom=check guess=(
 read,tcheck) scf=(maxcycle=1)\\title\\0,1\Si,0,-0.866843,1.22657,0.805
 2\Si,0,0.866844,1.22657,-0.805199\C,0,2.27171,-0.892924,0.433362\O,0,1
 .61706,-1.273651,1.379117\C,0,1.695935,-0.495848,-0.888116\H,0,0.88572
 9,-1.175943,-1.168747\H,0,2.462847,-0.484095,-1.667004\H,0,1.879816,2.
 251446,-0.443251\H,0,0.351581,1.549552,-2.156013\H,0,3.373938,-0.79110
 9,0.53146\C,0,-1.695935,-0.495848,0.888116\H,0,-1.879815,2.251447,0.44

 Normal termination of Gaussian 16 at Wed Apr  9 00:09:30 2025.
