 Gaussian 16, Revision C.01,

 ----------------------------------------------------------------------
 #t hf aug-cc-pvdz symm=none int=(grid=ultrafine) guess=(read,tcheck) s
 table=(opt,rrhf)
 ----------------------------------------------------------------------
 -----
 title
 -----
 Symbolic Z-matrix:
 Charge =  0 Multiplicity = 1

 SCF Done:  E(RHF) =  -1005.48699417     A.U. after   15 cycles
 Normal termination of Gaussian 16 at Wed Apr  9 00:18:08 2025.
 Gaussian 16:  ES64L-G16RevC.01  3-Jul-2019

 ----------------------------------------------------------------------
 #t hf aug-cc-pvdz iop(5/13=1,5/36=2,99/5=2) pseudo=read geom=check gue
 ss=(read,tcheck) scf=(maxcycle=1)
 ----------------------------------------------------------------------
 -----
 title
 -----
 Structure from the checkpoint file:  "BDE49_nonexpt_2594_mol1.chk"
 Charge =  0 Multiplicity = 1

                         Standard orientation:
 ---------------------------------------------------------------------
 Center     Atomic      Atomic             Coordinates (Angstroms)
 Number     Number       Type             X           Y           Z
 ---------------------------------------------------------------------
      1         17           0       -1.896483   -0.748887   -0.000008
      2         16           0       -0.690639    0.992303    0.000010
      3          7           0        0.895526    0.622837   -0.000008
      4          7           0        1.421084   -0.492485    0.000007
      5          6           0        2.887406   -0.443831   -0.000000
      6          1           0        3.237421   -0.986710   -0.881760
      7          1           0        3.237434   -0.986684    0.881771
      8          1           0        3.274887    0.578157   -0.000018
 ---------------------------------------------------------------------

 SCF Done:  E(RHF) =  -1005.57456258     A.U. after    2 cycles

 The electronic state is 1-A.
 Alpha  occ. eigenvalues -- -103.67790 -93.63937 -15.74744 -15.72075 -11.28675
 Alpha  occ. eigenvalues --  -10.70927  -8.93102  -8.36646  -8.36310  -8.36285
 Alpha  occ. eigenvalues --   -6.27264  -6.26840  -6.26411  -1.35987  -1.16622
 Alpha  occ. eigenvalues --   -1.08070  -0.95799  -0.77483  -0.68077  -0.66949
 Alpha  occ. eigenvalues --   -0.64199  -0.55953  -0.55773  -0.51214  -0.49599
 Alpha  occ. eigenvalues --   -0.47535  -0.40269  -0.37227
 Alpha virt. eigenvalues --    0.03158   0.04066   0.05392   0.05683   0.08063
 Alpha virt. eigenvalues --    0.09373   0.10033   0.11803   0.11872   0.13158
 Alpha virt. eigenvalues --    0.13780   0.15855   0.16132   0.17039   0.17302

 Mulliken charges:
               1
     1  Cl  -0.301695
     2  S    0.718726
     3  N   -0.348925
     4  N   -0.560442
     5  C    0.758667
     6  H   -0.070159
     7  H   -0.070160
     8  H   -0.126012
 Sum of Mulliken charges =  -0.00000

 Dipole moment (field-independent basis, Debye):
    X=              2.7689    Y=              0.5794    Z=              0.0000  Tot=              2.8289

 Test job not archived.
 1\1\GINC-SE116\SP\RHF\Aug-CC-pVDZ\C1H3Cl1N2S1\OHZDE\09-Apr-2025\0\\#t
 hf aug-cc-pvdz iop(5/13=1,5/36=2,99/5=2) pseudo=read geom=check guess=
 (read,tcheck) scf=(maxcycle=1)\\title\\0,1\Cl,0,-1.896483,-0.748887,-0
 .000008\S,0,-0.690639,0.992303,0.00001\N,0,0.895526,0.622837,-0.000008
 \N,0,1.421084,-0.492485,0.000007\C,0,2.887406,-0.443831,0.\H,0,3.23742
 1,-0.98671,-0.88176\H,0,3.237434,-0.986684,0.881771\H,0,3.274887,0.578
 157,-0.000018\\Version=ES64L-G16RevC.01\State=1-A\HF=-1005.5745626\RMS
 D=4.942e-03\Dipole=1.0893675,0.2279454,0.0000039\Quadrupole=3.243878,-

 Normal termination of Gaussian 16 at Wed Apr  9 00:18:11 2025.
