 Gaussian 16, Revision C.01,

 ----------------------------------------------------------------------
 #t hf aug-cc-pvdz symm=none int=(grid=ultrafine) guess=(read,tcheck) s
 table=(opt,rrhf)
 ----------------------------------------------------------------------
 -----
 title
 -----
 Symbolic Z-matrix:
 Charge =  0 Multiplicity = 1

 SCF Done:  E(RHF) =  -1081.23780162     A.U. after   16 cycles
 Normal termination of Gaussian 16 at Wed Apr  9 00:28:49 2025.
 Gaussian 16:  ES64L-G16RevC.01  3-Jul-2019

 ----------------------------------------------------------------------
 #t hf aug-cc-pvdz iop(5/13=1,5/36=2,99/5=2) pseudo=read geom=check gue
 ss=(read,tcheck) scf=(maxcycle=1)
 ----------------------------------------------------------------------
 -----
 title
 -----
 Structure from the checkpoint file:  "BDE49_nonexpt_342_mol1.chk"
 Charge =  0 Multiplicity = 1

                         Standard orientation:
 ---------------------------------------------------------------------
 Center     Atomic      Atomic             Coordinates (Angstroms)
 Number     Number       Type             X           Y           Z
 ---------------------------------------------------------------------
      1          6           0       -0.034998   -0.008327    0.169983
      2          7           0       -0.692724    1.331272   -0.259062
      3          5           0        1.557049   -0.153202   -0.143207
      4          7           0       -0.794337   -1.077007   -0.656359
      5         17           0       -0.330740   -0.178511    1.902320
      6          8           0       -0.616323   -0.931947   -1.854127
      7          8           0        1.980991   -1.432920   -0.110719
      8          8           0       -1.881847    1.322410   -0.458885
      9          8           0        2.365225    0.895186   -0.362187
     10          8           0        0.043519    2.307247   -0.314311
     11          8           0       -1.435588   -1.927154   -0.097908
     12          1           0        1.884241    1.736794   -0.370141
     13          1           0        2.924694   -1.528571   -0.280133
 ---------------------------------------------------------------------

 SCF Done:  E(RHF) =  -1081.45152935     A.U. after    2 cycles

 The electronic state is 1-A.
 Alpha  occ. eigenvalues -- -103.73320 -20.67987 -20.67184 -20.66829 -20.65501
 Alpha  occ. eigenvalues --  -20.62866 -20.62458 -15.97545 -15.96183 -11.46008
 Alpha  occ. eigenvalues --  -10.76542  -8.42278  -8.41927  -8.41919  -7.73317
 Alpha  occ. eigenvalues --   -1.61441  -1.59442  -1.42971  -1.41860  -1.39325
 Alpha  occ. eigenvalues --   -1.36014  -1.26156  -1.10981  -0.98548  -0.88379
 Alpha  occ. eigenvalues --   -0.86225  -0.83201  -0.80951  -0.79367  -0.79051
 Alpha  occ. eigenvalues --   -0.77636  -0.76089  -0.73672  -0.68226  -0.63888
 Alpha  occ. eigenvalues --   -0.63589  -0.61361  -0.58047  -0.57520  -0.56763
 Alpha  occ. eigenvalues --   -0.56126  -0.54601  -0.52907  -0.51665  -0.51079
 Alpha  occ. eigenvalues --   -0.50359
 Alpha virt. eigenvalues --    0.01892   0.02804   0.04138   0.04754   0.04890
 Alpha virt. eigenvalues --    0.06240   0.07561   0.08149   0.09092   0.11453
 Alpha virt. eigenvalues --    0.12671   0.13617   0.14127   0.14998   0.15265

 Mulliken charges:
               1
     1  C    0.733892
     2  N    0.478641
     3  B    0.952573
     4  N    0.461202
     5  Cl   0.005900
     6  O   -0.576213
     7  O   -0.478341
     8  O   -0.541213
     9  O   -0.340672
    10  O   -0.596702
    11  O   -0.536637
    12  H    0.248265
    13  H    0.189306
 Sum of Mulliken charges =  -0.00000

 Dipole moment (field-independent basis, Debye):
    X=              3.3642    Y=              0.3630    Z=              1.8010  Tot=              3.8332

 Test job not archived.
 1\1\GINC-SE070\SP\RHF\Aug-CC-pVDZ\C1H2B1Cl1N2O6\OHZDE\09-Apr-2025\0\\#
 t hf aug-cc-pvdz iop(5/13=1,5/36=2,99/5=2) pseudo=read geom=check gues
 s=(read,tcheck) scf=(maxcycle=1)\\title\\0,1\C,0,-0.034998,-0.008327,0
 .169983\N,0,-0.692722,1.331273,-0.259062\B,0,1.557049,-0.153205,-0.143
 207\N,0,-0.794339,-1.077005,-0.656359\Cl,0,-0.33074,-0.17851,1.90232\O
 ,0,-0.616325,-0.931946,-1.854127\O,0,1.980988,-1.432924,-0.110719\O,0,
 -1.881845,1.322414,-0.458885\O,0,2.365226,0.895182,-0.362187\O,0,0.043
 523,2.307247,-0.314311\O,0,-1.435592,-1.927151,-0.097908\H,0,1.884244,

 Normal termination of Gaussian 16 at Wed Apr  9 00:28:56 2025.
