 Gaussian 16, Revision C.01,

 ----------------------------------------------------------------------
 #t hf aug-cc-pvdz symm=none int=(grid=ultrafine) guess=(read,tcheck) s
 table=(opt,rrhf)
 ----------------------------------------------------------------------
 -----
 title
 -----
 Symbolic Z-matrix:
 Charge =  0 Multiplicity = 1

 SCF Done:  E(RHF) =  -1655.69602100     A.U. after   13 cycles
 Normal termination of Gaussian 16 at Wed Apr  9 00:48:09 2025.
 Gaussian 16:  ES64L-G16RevC.01  3-Jul-2019

 ----------------------------------------------------------------------
 #t hf aug-cc-pvdz iop(5/13=1,5/36=2,99/5=2) pseudo=read geom=check gue
 ss=(read,tcheck) scf=(maxcycle=1)
 ----------------------------------------------------------------------
 -----
 title
 -----
 Structure from the checkpoint file:  "BDE49_nonexpt_895_mol1.chk"
 Charge =  0 Multiplicity = 1

                         Standard orientation:
 ---------------------------------------------------------------------
 Center     Atomic      Atomic             Coordinates (Angstroms)
 Number     Number       Type             X           Y           Z
 ---------------------------------------------------------------------
      1         16           0       -0.326052   -1.175403   -0.294238
      2          5           0        1.021512    0.044287   -0.046888
      3         16           0        2.681833   -0.633423    0.267688
      4         16           0        0.859005    1.840320   -0.102337
      5         16           0       -2.098845   -0.083202   -0.558383
      6          6           0       -2.713393    0.066126    1.157382
      7          1           0       -3.670991    0.586720    1.081128
      8          1           0       -2.027047    0.650475    1.768835
      9          1           0       -2.870741   -0.919719    1.591858
     10          1           0       -0.453542    1.826929   -0.430845
     11          1           0        2.340046   -1.935276    0.275504
 ---------------------------------------------------------------------

 SCF Done:  E(RHF) =  -1655.79145245     A.U. after    2 cycles

 The electronic state is 1-A.
 Alpha  occ. eigenvalues --  -93.57631 -93.56814 -93.54864 -93.54447 -11.28620
 Alpha  occ. eigenvalues --   -8.87157  -8.86564  -8.84810  -8.84446  -7.70393
 Alpha  occ. eigenvalues --   -6.21268  -6.21005  -6.20732  -6.20702  -6.20401
 Alpha  occ. eigenvalues --   -6.20178  -6.18987  -6.18744  -6.18610  -6.18485
 Alpha  occ. eigenvalues --   -6.18402  -6.18139  -1.07165  -1.01012  -0.95716
 Alpha  occ. eigenvalues --   -0.95415  -0.82760  -0.65322  -0.62132  -0.61362
 Alpha  occ. eigenvalues --   -0.57508  -0.53918  -0.52801  -0.49826  -0.45650
 Alpha  occ. eigenvalues --   -0.44728  -0.43460  -0.37635  -0.37268  -0.36982
 Alpha virt. eigenvalues --    0.03314   0.04470   0.05191   0.05822   0.06399
 Alpha virt. eigenvalues --    0.07043   0.07428   0.08261   0.09018   0.09614
 Alpha virt. eigenvalues --    0.09831   0.11269   0.11662   0.12121   0.13826

 Mulliken charges:
               1
     1  S   -0.228520
     2  B    0.775014
     3  S   -0.284717
     4  S   -0.205682
     5  S   -0.052221
     6  C    0.130386
     7  H   -0.053808
     8  H   -0.139225
     9  H   -0.035507
    10  H    0.089190
    11  H    0.005091
 Sum of Mulliken charges =  -0.00000

 Dipole moment (field-independent basis, Debye):
    X=             -2.1093    Y=             -0.2417    Z=              1.3578  Tot=              2.5201

 Test job not archived.
 1\1\GINC-SE084\SP\RHF\Aug-CC-pVDZ\C1H5B1S4\OHZDE\09-Apr-2025\0\\#t hf
 aug-cc-pvdz iop(5/13=1,5/36=2,99/5=2) pseudo=read geom=check guess=(re
 ad,tcheck) scf=(maxcycle=1)\\title\\0,1\S,0,-0.326052,-1.175403,-0.294
 238\B,0,1.021512,0.044287,-0.046888\S,0,2.681833,-0.633423,0.267688\S,
 0,0.859005,1.84032,-0.102337\S,0,-2.098845,-0.083202,-0.558383\C,0,-2.
 713393,0.066126,1.157382\H,0,-3.670991,0.58672,1.081128\H,0,-2.027047,
 0.650475,1.768835\H,0,-2.870741,-0.919719,1.591858\H,0,-0.453542,1.826
 929,-0.430845\H,0,2.340046,-1.935276,0.275504\\Version=ES64L-G16RevC.0

 Normal termination of Gaussian 16 at Wed Apr  9 00:48:15 2025.
