 Gaussian 16, Revision C.01,

 ----------------------------------------------------------------------
 #t hf aug-cc-pvdz symm=none int=(grid=ultrafine) guess=(read,tcheck) s
 table=(opt,rrhf)
 ----------------------------------------------------------------------
 -----
 title
 -----
 Symbolic Z-matrix:
 Charge =  0 Multiplicity = 1

 SCF Done:  E(RHF) =  -916.538802053     A.U. after   13 cycles
 Normal termination of Gaussian 16 at Wed Apr  9 00:13:53 2025.
 Gaussian 16:  ES64L-G16RevC.01  3-Jul-2019

 ----------------------------------------------------------------------
 #t hf aug-cc-pvdz iop(5/13=1,5/36=2,99/5=2) pseudo=read geom=check gue
 ss=(read,tcheck) scf=(maxcycle=1)
 ----------------------------------------------------------------------
 -----
 title
 -----
 Structure from the checkpoint file:  "BDE49_nonexpt_2496_mol1.chk"
 Charge =  0 Multiplicity = 1

                         Standard orientation:
 ---------------------------------------------------------------------
 Center     Atomic      Atomic             Coordinates (Angstroms)
 Number     Number       Type             X           Y           Z
 ---------------------------------------------------------------------
      1         16           0       -0.723308   -0.233583    0.000001
      2         14           0        1.260951    0.828549   -0.000002
      3          6           0       -2.022997    1.018762    0.000009
      4          8           0       -0.824356   -0.957683    1.265727
      5          8           0       -0.824365   -0.957677   -1.265727
      6          1           0       -1.937957    1.623202    0.902788
      7          1           0       -2.964201    0.465613    0.000011
      8          1           0       -1.937964    1.623207   -0.902767
      9          6           0        2.524887   -0.541576   -0.000008
     10          1           0        2.403703   -1.168029    0.886201
     11          1           0        3.536416   -0.126492   -0.000008
     12          1           0        2.403700   -1.168023   -0.886222
     13          1           0        1.297174    1.673966    1.213264
     14          1           0        1.297167    1.673970   -1.213266
 ---------------------------------------------------------------------

 SCF Done:  E(RHF) =  -916.704277729     A.U. after    2 cycles

 The electronic state is 1-A.
 Alpha  occ. eigenvalues --  -93.75477 -69.11140 -20.54726 -20.54724 -11.28433
 Alpha  occ. eigenvalues --  -11.24480  -9.02535  -6.86346  -6.37147  -6.36887
 Alpha  occ. eigenvalues --   -6.36784  -3.97158  -3.97054  -3.97049  -1.39772
 Alpha  occ. eigenvalues --   -1.28781  -1.02914  -0.96960  -0.84594  -0.72844
 Alpha  occ. eigenvalues --   -0.66527  -0.65483  -0.64867  -0.60457  -0.59883
 Alpha  occ. eigenvalues --   -0.59088  -0.57666  -0.52017  -0.50323  -0.49261
 Alpha  occ. eigenvalues --   -0.49130  -0.47928  -0.40964
 Alpha virt. eigenvalues --    0.02614   0.03672   0.05023   0.05221   0.06105
 Alpha virt. eigenvalues --    0.06486   0.06882   0.07571   0.08668   0.08804
 Alpha virt. eigenvalues --    0.10764   0.11376   0.13113   0.13586   0.13743

 Mulliken charges:
               1
     1  S    1.999065
     2  Si   0.669820
     3  C   -0.077814
     4  O   -1.118337
     5  O   -1.118336
     6  H   -0.049830
     7  H    0.000340
     8  H   -0.049831
     9  C    0.213607
    10  H   -0.125499
    11  H   -0.254684
    12  H   -0.125495
    13  H    0.018498
    14  H    0.018498
 Sum of Mulliken charges =  -0.00000

 Dipole moment (field-independent basis, Debye):
    X=              1.9110    Y=              4.7965    Z=              0.0000  Tot=              5.1632

 Test job not archived.
 1\1\GINC-SE332\SP\RHF\Aug-CC-pVDZ\C2H8O2S1Si1\OHZDE\09-Apr-2025\0\\#t
 hf aug-cc-pvdz iop(5/13=1,5/36=2,99/5=2) pseudo=read geom=check guess=
 (read,tcheck) scf=(maxcycle=1)\\title\\0,1\S,0,-0.723308,-0.233583,0.0
 00001\Si,0,1.260951,0.828549,-0.000002\C,0,-2.022997,1.018762,0.000009
 \O,0,-0.824356,-0.957683,1.265727\O,0,-0.824365,-0.957677,-1.265727\H,
 0,-1.937957,1.623202,0.902788\H,0,-2.964201,0.465614,0.000011\H,0,-1.9
 37964,1.623207,-0.902767\C,0,2.524887,-0.541576,-0.000008\H,0,2.403703
 ,-1.168029,0.886201\H,0,3.536416,-0.126493,-0.000008\H,0,2.4037,-1.168

 Normal termination of Gaussian 16 at Wed Apr  9 00:13:57 2025.
