 Gaussian 16, Revision C.01,

 ----------------------------------------------------------------------
 #t hf aug-cc-pvdz symm=none int=(grid=ultrafine) guess=(read,tcheck) s
 table=opt
 ----------------------------------------------------------------------
 -----
 title
 -----
 Symbolic Z-matrix:
 Charge =  0 Multiplicity = 2

 SCF Done:  E(UHF) =  -485.835584621     A.U. after   15 cycles
 Normal termination of Gaussian 16 at Tue Apr  8 23:44:12 2025.
 Gaussian 16:  ES64L-G16RevC.01  3-Jul-2019

 ----------------------------------------------------------------------
 #t hf aug-cc-pvdz iop(5/13=1,5/36=2,99/5=2) pseudo=read geom=check gue
 ss=(read,tcheck) scf=(maxcycle=1)
 ----------------------------------------------------------------------
 -----
 title
 -----
 Structure from the checkpoint file:  "BDE49_nonexpt_1743_mol2.chk"
 Charge =  0 Multiplicity = 2

                         Standard orientation:
 ---------------------------------------------------------------------
 Center     Atomic      Atomic             Coordinates (Angstroms)
 Number     Number       Type             X           Y           Z
 ---------------------------------------------------------------------
      1         14           0       -2.003699   -0.517992    0.241428
      2          6           0       -0.251444   -0.887459   -0.381579
      3          6           0        0.846677    0.039918    0.180919
      4          1           0       -0.255767   -0.835961   -1.477351
      5          1           0       -0.017612   -1.929055   -0.130726
      6          6           0       -2.606893    1.202726   -0.255127
      7          1           0       -1.965323    1.982486    0.170996
      8          1           0       -3.624506    1.375358    0.104269
      9          1           0       -2.608439    1.322616   -1.341840
     10          6           0        2.254031   -0.308318   -0.325267
     11          1           0        0.839741   -0.005014    1.276764
     12          1           0        0.623203    1.081104   -0.081488
     13          6           0        3.341198    0.614090    0.233723
     14          1           0        2.261600   -0.264203   -1.420939
     15          1           0        2.481771   -1.347788   -0.060764
     16          1           0        3.157565    1.656681   -0.044311
     17          1           0        4.329975    0.339713   -0.144006
     18          1           0        3.378161    0.565417    1.326479
     19          1           0       -2.049997   -0.655202    1.726910
 ---------------------------------------------------------------------

 SCF Done:  E(UHF) =  -485.920950946     A.U. after    2 cycles

 The electronic state is 2-A.
 Alpha  occ. eigenvalues --  -69.05596 -11.23385 -11.22853 -11.22300 -11.21968
 Alpha  occ. eigenvalues --  -11.21784  -6.80919  -3.92256  -3.91376  -3.91370
 Alpha  occ. eigenvalues --   -1.06255  -0.97723  -0.93680  -0.85917  -0.79307
 Alpha  occ. eigenvalues --   -0.65344  -0.64344  -0.58837  -0.57878  -0.56030
 Alpha  occ. eigenvalues --   -0.55955  -0.54079  -0.50440  -0.49805  -0.47671
 Alpha  occ. eigenvalues --   -0.46845  -0.44984  -0.41948  -0.30231
 Alpha virt. eigenvalues --    0.03297   0.04247   0.04416   0.04631   0.05696
 Alpha virt. eigenvalues --    0.06181   0.06353   0.06987   0.07650   0.08151
 Alpha virt. eigenvalues --    0.08570   0.09018   0.09502   0.10827   0.10896

  Beta  occ. eigenvalues --  -69.05051 -11.23292 -11.22828 -11.22296 -11.21915
  Beta  occ. eigenvalues --  -11.21732  -6.80100  -3.91004  -3.90999  -3.90144
  Beta  occ. eigenvalues --   -1.06061  -0.97415  -0.93211  -0.85652  -0.79186
  Beta  occ. eigenvalues --   -0.64392  -0.61941  -0.58442  -0.57755  -0.55771
  Beta  occ. eigenvalues --   -0.55054  -0.53795  -0.50345  -0.49313  -0.47445
  Beta  occ. eigenvalues --   -0.46807  -0.44169  -0.41149
  Beta virt. eigenvalues --    0.03098   0.03926   0.04387   0.04656   0.05718
  Beta virt. eigenvalues --    0.05856   0.06382   0.06719   0.07559   0.07977
  Beta virt. eigenvalues --    0.08361   0.08768   0.09174   0.10374   0.10871

 Mulliken charges and spin densities:
               1          2
     1  Si   0.583400   1.021409
     2  C    0.154975  -0.022800
     3  C    0.089378   0.004112
     4  H   -0.133020  -0.005886
     5  H   -0.198373  -0.002428
     6  C    0.265544  -0.005793
     7  H   -0.218060   0.013603
     8  H   -0.256167  -0.015081
     9  H   -0.166273  -0.005768
    10  C    0.213550   0.001885
    11  H   -0.206237  -0.006803
    12  H   -0.219885  -0.002196
    13  C    0.480796   0.000229
    14  H   -0.127148   0.000306
    15  H   -0.138942  -0.000216
    16  H   -0.083279   0.000107
    17  H   -0.067256   0.000216
    18  H   -0.069748  -0.000156
    19  H    0.096746   0.025261
 Sum of Mulliken charges =   0.00000   1.00000

 Dipole moment (field-independent basis, Debye):
    X=              0.5650    Y=              0.4505    Z=             -0.4536  Tot=              0.8532
                          Isotropic Fermi Contact Couplings
        Atom                 a.u.       MegaHertz       Gauss      10(-4) cm-1
     1  Si(29)             0.50669    -450.31226    -160.68261    -150.20800
     2  C(13)              0.01465      16.47405       5.87835       5.49515
     3  C(13)              0.02129      23.93879       8.54196       7.98512
     4  H(1)               0.00009       0.38945       0.13897       0.12991
     5  H(1)               0.00038       1.71253       0.61107       0.57124
     6  C(13)              0.01300      14.61822       5.21614       4.87611
     7  H(1)               0.00966      43.17656      15.40647      14.40215
     8  H(1)               0.00034       1.52765       0.54510       0.50957

 Normal termination of Gaussian 16 at Tue Apr  8 23:44:19 2025.
