 Gaussian 16, Revision C.01,

 ----------------------------------------------------------------------
 #t hf aug-cc-pvdz symm=none int=(grid=ultrafine) guess=(read,tcheck) s
 table=(opt,rrhf)
 ----------------------------------------------------------------------
 -----
 title
 -----
 Symbolic Z-matrix:
 Charge =  0 Multiplicity = 1

 SCF Done:  E(RHF) =  -1242.50082999     A.U. after   14 cycles
 Normal termination of Gaussian 16 at Wed Apr  9 00:14:58 2025.
 Gaussian 16:  ES64L-G16RevC.01  3-Jul-2019

 ----------------------------------------------------------------------
 #t hf aug-cc-pvdz iop(5/13=1,5/36=2,99/5=2) pseudo=read geom=check gue
 ss=(read,tcheck) scf=(maxcycle=1)
 ----------------------------------------------------------------------
 -----
 title
 -----
 Structure from the checkpoint file:  "BDE49_nonexpt_2513_mol1.chk"
 Charge =  0 Multiplicity = 1

                         Standard orientation:
 ---------------------------------------------------------------------
 Center     Atomic      Atomic             Coordinates (Angstroms)
 Number     Number       Type             X           Y           Z
 ---------------------------------------------------------------------
      1          6           0       -1.609734    0.187796    0.124474
      2         16           0       -0.231734   -0.458607   -0.981390
      3         16           0        1.332383   -0.997824    0.325441
      4         14           0        2.683355    0.661191   -0.025070
      5          6           0       -2.718737    0.520343   -0.887165
      6          1           0       -2.402135    1.293139   -1.592071
      7          1           0       -3.595325    0.893775   -0.348774
      8          1           0       -3.023810   -0.362724   -1.454185
      9          6           0       -2.067357   -0.909364    1.089521
     10          1           0       -1.265316   -1.194449    1.773761
     11          1           0       -2.391449   -1.800972    0.548923
     12          1           0       -2.907462   -0.545694    1.691347
     13          6           0       -1.170979    1.442369    0.881541
     14          1           0       -0.859251    2.232375    0.195329
     15          1           0       -0.343286    1.225867    1.559759
     16          1           0       -2.004992    1.819457    1.483535
     17          1           0        3.890116    0.349033    0.776005
     18          1           0        2.095797    1.942085    0.420604
     19          1           0        3.030617    0.747476   -1.458291
 ---------------------------------------------------------------------

 SCF Done:  E(RHF) =  -1242.61032275     A.U. after    2 cycles

 The electronic state is 1-A.
 Alpha  occ. eigenvalues --  -93.55294 -93.54476 -69.09313 -11.29234 -11.24080
 Alpha  occ. eigenvalues --  -11.23466 -11.23320  -8.84784  -8.84217  -6.84340
 Alpha  occ. eigenvalues --   -6.18932  -6.18641  -6.18346  -6.18315  -6.18080
 Alpha  occ. eigenvalues --   -6.17833  -3.95156  -3.95083  -3.95048  -1.10989
 Alpha  occ. eigenvalues --   -0.99580  -0.94569  -0.94170  -0.85567  -0.73610
 Alpha  occ. eigenvalues --   -0.69216  -0.62356  -0.61842  -0.61463  -0.56110
 Alpha  occ. eigenvalues --   -0.55603  -0.52940  -0.50792  -0.50271  -0.49450
 Alpha  occ. eigenvalues --   -0.49139  -0.47405  -0.45367  -0.43316  -0.36456
 Alpha  occ. eigenvalues --   -0.34103
 Alpha virt. eigenvalues --    0.03334   0.04186   0.04682   0.05111   0.05851
 Alpha virt. eigenvalues --    0.06260   0.06572   0.06987   0.07179   0.08280
 Alpha virt. eigenvalues --    0.08753   0.08856   0.09410   0.09853   0.10809

 Mulliken charges:
               1
     1  C   -2.402981
     2  S    0.057464
     3  S   -0.480072
     4  Si   0.394458
     5  C    1.071894
     6  H   -0.051832
     7  H    0.002438
     8  H   -0.055993
     9  C    0.839503
    10  H   -0.057086
    11  H   -0.044445
    12  H   -0.008660
    13  C    0.860505
    14  H   -0.079053
    15  H   -0.054707
    16  H   -0.011116
    17  H   -0.033444
    18  H    0.024445
    19  H    0.028681
 Sum of Mulliken charges =  -0.00000

 Dipole moment (field-independent basis, Debye):
    X=             -1.2365    Y=              1.5474    Z=              0.8191  Tot=              2.1434

 Test job not archived.
 1\1\GINC-SE361\SP\RHF\Aug-CC-pVDZ\C4H12S2Si1\OHZDE\09-Apr-2025\0\\#t h
 f aug-cc-pvdz iop(5/13=1,5/36=2,99/5=2) pseudo=read geom=check guess=(
 read,tcheck) scf=(maxcycle=1)\\title\\0,1\C,0,-1.609734,0.187796,0.124
 474\S,0,-0.231734,-0.458607,-0.98139\S,0,1.332383,-0.997824,0.325441\S
 i,0,2.683355,0.661191,-0.02507\C,0,-2.718737,0.520343,-0.887165\H,0,-2
 .402135,1.293139,-1.592071\H,0,-3.595325,0.893775,-0.348774\H,0,-3.023
 81,-0.362724,-1.454185\C,0,-2.067357,-0.909364,1.089521\H,0,-1.265316,
 -1.194449,1.773761\H,0,-2.391449,-1.800972,0.548923\H,0,-2.907462,-0.5

 Normal termination of Gaussian 16 at Wed Apr  9 00:15:07 2025.
