 Gaussian 16, Revision C.01,

 ----------------------------------------------------------------------
 #t hf aug-cc-pvdz symm=none int=(grid=ultrafine) guess=(read,tcheck) s
 table=(opt,rrhf)
 ----------------------------------------------------------------------
 -----
 title
 -----
 Symbolic Z-matrix:
 Charge =  0 Multiplicity = 1

 SCF Done:  E(RHF) =  -997.089528619     A.U. after   12 cycles

 1\1\GINC-SE044\Stability\RHF\Aug-CC-pVDZ\C2H4Cl2\OHZDE\08-Apr-2025\0\\
 #t hf aug-cc-pvdz symm=none int=(grid=ultrafine) guess=(read,tcheck) s
 table=(opt,rrhf)\\title\\0,1\C,0,-0.477575,0.588155,0.\C,0,0.477575,-0
 .588155,0.\Cl,0,0.477575,2.13178,0.\H,0,-1.10141,0.600674,0.890691\H,0
 ,-1.10141,0.600674,-0.890691\H,0,1.10141,-0.600674,0.890691\H,0,1.1014
 1,-0.600674,-0.890691\Cl,0,-0.477575,-2.13178,0.\\Version=ES64L-G16Rev
 C.01\HF=-997.0895286\RMSD=2.649e-09\Dipole=0.,0.,0.\Quadrupole=2.30599
 28,-4.3609618,2.0549689,-1.8150534,0.,0.\PG=Unknown\\@

 Normal termination of Gaussian 16 at Tue Apr  8 22:28:17 2025.
 Gaussian 16:  ES64L-G16RevC.01  3-Jul-2019

 ----------------------------------------------------------------------
 #t hf aug-cc-pvdz iop(5/13=1,5/36=2,99/5=2) pseudo=read geom=check gue
 ss=(read,tcheck) scf=(maxcycle=1)
 ----------------------------------------------------------------------
 -----
 title
 -----
 Structure from the checkpoint file:  "BDE49_expt_1018_mol1.chk"
 Charge =  0 Multiplicity = 1

                         Standard orientation:
 ---------------------------------------------------------------------
 Center     Atomic      Atomic             Coordinates (Angstroms)
 Number     Number       Type             X           Y           Z
 ---------------------------------------------------------------------
      1          6           0       -0.477575    0.588155    0.000000
      2          6           0        0.477575   -0.588155    0.000000
      3         17           0        0.477575    2.131780    0.000000
      4          1           0       -1.101410    0.600674    0.890691
      5          1           0       -1.101410    0.600674   -0.890691
      6          1           0        1.101410   -0.600674    0.890691
      7          1           0        1.101410   -0.600674   -0.890691
      8         17           0       -0.477575   -2.131780    0.000000
 ---------------------------------------------------------------------

 SCF Done:  E(RHF) =  -997.151410602     A.U. after    2 cycles

 The electronic state is 1-AG.
 Alpha  occ. eigenvalues -- -103.66497-103.66496 -11.32790 -11.32730 -10.69762
 Alpha  occ. eigenvalues --  -10.69759  -8.35478  -8.35476  -8.35191  -8.35188
 Alpha  occ. eigenvalues --   -8.35178  -8.35178  -1.19367  -1.15834  -1.00004
 Alpha  occ. eigenvalues --   -0.86416  -0.69424  -0.61692  -0.61290  -0.58446
 Alpha  occ. eigenvalues --   -0.53204  -0.47494  -0.46299  -0.46085  -0.45552
 Alpha virt. eigenvalues --    0.03835   0.04809   0.04978   0.07134   0.07182
 Alpha virt. eigenvalues --    0.09921   0.11643   0.13363   0.14459   0.15331
 Alpha virt. eigenvalues --    0.15487   0.16072   0.16843   0.17527   0.18628

 Mulliken charges:
               1
     1  C    0.057136
     2  C    0.057136
     3  Cl  -0.144280
     4  H    0.043572
     5  H    0.043572
     6  H    0.043572
     7  H    0.043572
     8  Cl  -0.144280
 Sum of Mulliken charges =  -0.00000

 Dipole moment (field-independent basis, Debye):
    X=             -0.0000    Y=             -0.0000    Z=              0.0000  Tot=              0.0000

 Test job not archived.
 1\1\GINC-SE044\SP\RHF\Aug-CC-pVDZ\C2H4Cl2\OHZDE\08-Apr-2025\0\\#t hf a
 ug-cc-pvdz iop(5/13=1,5/36=2,99/5=2) pseudo=read geom=check guess=(rea
 d,tcheck) scf=(maxcycle=1)\\title\\0,1\C,0,-0.477575,0.588155,0.\C,0,0
 .477575,-0.588155,0.\Cl,0,0.477575,2.13178,0.\H,0,-1.10141,0.600674,0.
 890691\H,0,-1.10141,0.600674,-0.890691\H,0,1.10141,-0.600674,0.890691\
 H,0,1.10141,-0.600674,-0.890691\Cl,0,-0.477575,-2.13178,0.\\Version=ES
 64L-G16RevC.01\State=1-AG\HF=-997.1514106\RMSD=3.547e-03\Dipole=0.,0.,
 0.\Quadrupole=2.3552951,-4.4401357,2.0848405,-1.822807,0.,0.\PG=C02H [

 Normal termination of Gaussian 16 at Tue Apr  8 22:28:19 2025.
