 Gaussian 16, Revision C.01,

 ----------------------------------------------------------------------
 #t hf aug-cc-pvdz symm=none int=(grid=ultrafine) guess=(read,tcheck) s
 table=opt
 ----------------------------------------------------------------------
 -----
 title
 -----
 Symbolic Z-matrix:
 Charge =  0 Multiplicity = 2

 SCF Done:  E(UHF) =  -524.874912074     A.U. after   15 cycles
 Normal termination of Gaussian 16 at Tue Apr  8 23:11:34 2025.
 Gaussian 16:  ES64L-G16RevC.01  3-Jul-2019

 ----------------------------------------------------------------------
 #t hf aug-cc-pvdz iop(5/13=1,5/36=2,99/5=2) pseudo=read geom=check gue
 ss=(read,tcheck) scf=(maxcycle=1)
 ----------------------------------------------------------------------
 -----
 title
 -----
 Structure from the checkpoint file:  "BDE49_expt_801_mol2.chk"
 Charge =  0 Multiplicity = 2

                         Standard orientation:
 ---------------------------------------------------------------------
 Center     Atomic      Atomic             Coordinates (Angstroms)
 Number     Number       Type             X           Y           Z
 ---------------------------------------------------------------------
      1         14           0       -0.566334    0.199147    0.000000
      2          6           0       -0.640967   -0.899585    1.550810
      3          6           0       -0.640967   -0.152216    2.894849
      4          1           0       -0.689315   -0.845914    3.739714
      5          1           0       -1.496894    0.524067    2.974341
      6          1           0        0.262942    0.450761    3.021192
      7          1           0        0.209607   -1.595154    1.510774
      8          1           0       -1.536867   -1.526180    1.472489
      9          6           0       -0.640967   -0.899585   -1.550810
     10          6           0       -0.640967   -0.152216   -2.894849
     11          1           0        0.262942    0.450761   -3.021192
     12          1           0       -1.496894    0.524067   -2.974341
     13          1           0       -0.689315   -0.845914   -3.739714
     14          1           0       -1.536867   -1.526180   -1.472489
     15          1           0        0.209607   -1.595154   -1.510774
     16          6           0        0.989682    1.294834   -0.000000
     17          6           0        2.327072    0.525556   -0.000000
     18          1           0        2.424460   -0.114504   -0.881532
     19          1           0        2.424460   -0.114504    0.881532
     20          1           0        3.180134    1.211888   -0.000000
     21          1           0        0.941681    1.956588    0.871981
     22          1           0        0.941681    1.956588   -0.871981
 ---------------------------------------------------------------------

 SCF Done:  E(UHF) =  -524.973142685     A.U. after    2 cycles

 The electronic state is 2-A'.
 Alpha  occ. eigenvalues --  -69.04502 -11.22952 -11.22653 -11.22652 -11.21662
 Alpha  occ. eigenvalues --  -11.21659 -11.21611  -6.79840  -3.91157  -3.90295
 Alpha  occ. eigenvalues --   -3.90287  -1.02155  -1.00151  -1.00032  -0.85422
 Alpha  occ. eigenvalues --   -0.83501  -0.82400  -0.63961  -0.61437  -0.61062
 Alpha  occ. eigenvalues --   -0.59311  -0.57380  -0.57047  -0.53630  -0.52118
 Alpha  occ. eigenvalues --   -0.50878  -0.50211  -0.49738  -0.49431  -0.48470
 Alpha  occ. eigenvalues --   -0.40554  -0.40534  -0.29055
 Alpha virt. eigenvalues --    0.03295   0.04133   0.04390   0.04635   0.05868
 Alpha virt. eigenvalues --    0.06205   0.06437   0.06510   0.06701   0.08345
 Alpha virt. eigenvalues --    0.08465   0.08703   0.09172   0.09766   0.09938

  Beta  occ. eigenvalues --  -69.03982 -11.22866 -11.22653 -11.22653 -11.21593
  Beta  occ. eigenvalues --  -11.21590 -11.21535  -6.79059  -3.89949  -3.89940
  Beta  occ. eigenvalues --   -3.89113  -1.01732  -1.00014  -0.99781  -0.84846
  Beta  occ. eigenvalues --   -0.83239  -0.82203  -0.62176  -0.61329  -0.60142
  Beta  occ. eigenvalues --   -0.59026  -0.57278  -0.56862  -0.52997  -0.51059
  Beta  occ. eigenvalues --   -0.50259  -0.50131  -0.49414  -0.49339  -0.48293
  Beta  occ. eigenvalues --   -0.39815  -0.39792
  Beta virt. eigenvalues --    0.03017   0.04156   0.04321   0.04486   0.05833
  Beta virt. eigenvalues --    0.06212   0.06239   0.06525   0.06620   0.08287
  Beta virt. eigenvalues --    0.08527   0.08581   0.08711   0.09501   0.09824

 Mulliken charges and spin densities:
               1          2
     1  Si   0.739945   1.155016
     2  C    0.276949  -0.070334
     3  C    0.241942   0.033388
     4  H   -0.076603  -0.000424
     5  H   -0.118420  -0.000197
     6  H   -0.148189  -0.004142
     7  H   -0.130704   0.001261
     8  H   -0.277319  -0.018767
     9  C    0.276949  -0.070334
    10  C    0.241942   0.033388
    11  H   -0.148189  -0.004142
    12  H   -0.118420  -0.000197
    13  H   -0.076603  -0.000424
    14  H   -0.277319  -0.018767
    15  H   -0.130704   0.001261
    16  C    0.379114  -0.033603
    17  C    0.235439   0.022356
    18  H   -0.146289  -0.003080
    19  H   -0.146289  -0.003080
    20  H   -0.109405   0.004344
    21  H   -0.243914  -0.011761
    22  H   -0.243914  -0.011761
 Sum of Mulliken charges =   0.00000   1.00000

 Dipole moment (field-independent basis, Debye):
    X=              0.4678    Y=             -0.4000    Z=             -0.0000  Tot=              0.6156
                          Isotropic Fermi Contact Couplings
        Atom                 a.u.       MegaHertz       Gauss      10(-4) cm-1
     1  Si(29)             0.47480    -421.96921    -150.56911    -140.75378
     2  C(13)              0.01615      18.15142       6.47688       6.05466
     3  C(13)              0.00098       1.10335       0.39370       0.36804
     4  H(1)              -0.00048      -2.13918      -0.76331      -0.71355
     5  H(1)              -0.00026      -1.16030      -0.41403      -0.38704
     6  H(1)              -0.00008      -0.34377      -0.12266      -0.11467
     7  H(1)               0.00705      31.51961      11.24698      10.51381
     8  H(1)               0.00002       0.08231       0.02937       0.02746

 Normal termination of Gaussian 16 at Tue Apr  8 23:11:43 2025.
