 Gaussian 16, Revision C.01,

 ----------------------------------------------------------------------
 #t hf aug-cc-pvdz symm=none int=(grid=ultrafine) guess=(read,tcheck) s
 table=(opt,rrhf)
 ----------------------------------------------------------------------
 -----
 title
 -----
 Symbolic Z-matrix:
 Charge =  0 Multiplicity = 1

 SCF Done:  E(RHF) =  -489.264866018     A.U. after   14 cycles
 Normal termination of Gaussian 16 at Tue Apr  8 23:35:04 2025.
 Gaussian 16:  ES64L-G16RevC.01  3-Jul-2019

 ----------------------------------------------------------------------
 #t hf aug-cc-pvdz iop(5/13=1,5/36=2,99/5=2) pseudo=read geom=check gue
 ss=(read,tcheck) scf=(maxcycle=1)
 ----------------------------------------------------------------------
 -----
 title
 -----
 Structure from the checkpoint file:  "BDE49_nonexpt_1522_mol1.chk"
 Charge =  0 Multiplicity = 1

                         Standard orientation:
 ---------------------------------------------------------------------
 Center     Atomic      Atomic             Coordinates (Angstroms)
 Number     Number       Type             X           Y           Z
 ---------------------------------------------------------------------
      1          7           0       -1.527431    0.743688    0.053762
      2          6           0        1.154324   -0.003591    0.016217
      3          7           0        2.240879    0.393178   -0.015564
      4         15           0       -0.548160   -0.631901   -0.100856
      5          1           0       -0.563971   -1.057886    1.246037
      6          1           0       -1.842813    1.136486   -0.822086
      7          1           0       -1.290892    1.463400    0.724200
 ---------------------------------------------------------------------

 SCF Done:  E(RHF) =  -489.337322020     A.U. after    2 cycles

 The electronic state is 1-A.
 Alpha  occ. eigenvalues --  -81.33502 -15.65409 -15.65046 -11.28089  -7.83315
 Alpha  occ. eigenvalues --   -4.97414  -4.97208  -4.96909  -1.19312  -1.15746
 Alpha  occ. eigenvalues --   -0.86049  -0.70501  -0.67702  -0.59157  -0.55357
 Alpha  occ. eigenvalues --   -0.49874  -0.47596  -0.44536  -0.38883
 Alpha virt. eigenvalues --    0.02779   0.04309   0.05028   0.06961   0.08040
 Alpha virt. eigenvalues --    0.09984   0.10990   0.12305   0.13068   0.13613
 Alpha virt. eigenvalues --    0.15364   0.16275   0.18143   0.18719   0.20015

 Mulliken charges:
               1
     1  N   -0.458968
     2  C   -0.208050
     3  N   -0.255921
     4  P    0.800570
     5  H    0.074621
     6  H    0.055525
     7  H   -0.007778
 Sum of Mulliken charges =  -0.00000

 Dipole moment (field-independent basis, Debye):
    X=             -3.5293    Y=              0.4622    Z=              0.2957  Tot=              3.5717

 Test job not archived.
 1\1\GINC-SE252\SP\RHF\Aug-CC-pVDZ\C1H3N2P1\OHZDE\08-Apr-2025\0\\#t hf
 aug-cc-pvdz iop(5/13=1,5/36=2,99/5=2) pseudo=read geom=check guess=(re
 ad,tcheck) scf=(maxcycle=1)\\title\\0,1\N,0,-1.527431,0.743688,0.05376
 2\C,0,1.154324,-0.003591,0.016217\N,0,2.240879,0.393178,-0.015564\P,0,
 -0.54816,-0.631901,-0.100856\H,0,-0.563971,-1.057886,1.246037\H,0,-1.8
 42813,1.136486,-0.822086\H,0,-1.290892,1.4634,0.7242\\Version=ES64L-G1
 6RevC.01\State=1-A\HF=-489.337322\RMSD=8.958e-03\Dipole=-1.3885485,0.1
 818379,0.1163186\Quadrupole=-5.4487691,3.0211434,2.4276257,-3.0599107,

 Normal termination of Gaussian 16 at Tue Apr  8 23:35:06 2025.
