 Gaussian 16, Revision C.01,

 ----------------------------------------------------------------------
 #t hf aug-cc-pvdz symm=none int=(grid=ultrafine) guess=(read,tcheck) s
 table=opt
 ----------------------------------------------------------------------
 -----
 title
 -----
 Symbolic Z-matrix:
 Charge =  0 Multiplicity = 2

 SCF Done:  E(UHF) =  -321.298982162     A.U. after   19 cycles
 Normal termination of Gaussian 16 at Tue Apr  8 23:01:58 2025.
 Gaussian 16:  ES64L-G16RevC.01  3-Jul-2019

 ----------------------------------------------------------------------
 #t hf aug-cc-pvdz iop(5/13=1,5/36=2,99/5=2) pseudo=read geom=check gue
 ss=(read,tcheck) scf=(maxcycle=1)
 ----------------------------------------------------------------------
 -----
 title
 -----
 Structure from the checkpoint file:  "BDE49_expt_365_mol2.chk"
 Charge =  0 Multiplicity = 2

                         Standard orientation:
 ---------------------------------------------------------------------
 Center     Atomic      Atomic             Coordinates (Angstroms)
 Number     Number       Type             X           Y           Z
 ---------------------------------------------------------------------
      1          6           0       -1.230620   -0.680375    0.009392
      2          6           0       -0.012068    0.071449    0.001707
      3          8           0        0.038834    1.295792    0.006392
      4          8           0        1.092196   -0.727794   -0.003950
      5          7           0       -2.401804    0.013021   -0.055897
      6          1           0       -1.247574   -1.759270    0.010544
      7          1           0       -2.325391    1.014434    0.063978
      8          1           0       -3.266147   -0.424036    0.216466
      9          6           0        2.344799   -0.033034    0.001186
     10          1           0        3.109274   -0.807817   -0.003401
     11          1           0        2.440537    0.591097    0.892329
     12          1           0        2.441028    0.602218   -0.881885
 ---------------------------------------------------------------------

 SCF Done:  E(UHF) =  -321.402405030     A.U. after    2 cycles

 The electronic state is 2-A.
 Alpha  occ. eigenvalues --  -20.60721 -20.55554 -15.65424 -11.38080 -11.29104
 Alpha  occ. eigenvalues --  -11.29030  -1.40696  -1.31798  -1.20874  -1.01109
 Alpha  occ. eigenvalues --   -0.92036  -0.78193  -0.75630  -0.69787  -0.68252
 Alpha  occ. eigenvalues --   -0.67455  -0.61587  -0.59081  -0.58424  -0.53297
 Alpha  occ. eigenvalues --   -0.52509  -0.48936  -0.47691  -0.31087
 Alpha virt. eigenvalues --    0.03094   0.04085   0.04706   0.06413   0.06614
 Alpha virt. eigenvalues --    0.06968   0.10601   0.11140   0.13147   0.14158
 Alpha virt. eigenvalues --    0.14370   0.14938   0.15700   0.16353   0.17208

  Beta  occ. eigenvalues --  -20.60592 -20.54580 -15.64590 -11.38415 -11.29046
  Beta  occ. eigenvalues --  -11.27360  -1.39999  -1.30168  -1.18023  -0.99078
  Beta  occ. eigenvalues --   -0.89075  -0.77224  -0.75009  -0.68963  -0.66865
  Beta  occ. eigenvalues --   -0.66690  -0.60690  -0.58098  -0.54073  -0.53088
  Beta  occ. eigenvalues --   -0.46486  -0.45956  -0.42771
  Beta virt. eigenvalues --    0.03129   0.04095   0.04744   0.06417   0.06525
  Beta virt. eigenvalues --    0.06978   0.07768   0.10707   0.11981   0.13273
  Beta virt. eigenvalues --    0.14353   0.14527   0.15007   0.15988   0.16361

 Mulliken charges and spin densities:
               1          2
     1  C    1.000147   0.860520
     2  C    0.370830  -0.198866
     3  O   -0.526022   0.218665
     4  O   -0.563966   0.023166
     5  N   -0.303799   0.215258
     6  H   -0.354495  -0.082075
     7  H    0.022768  -0.015415
     8  H   -0.005296  -0.016989
     9  C    0.745566  -0.006042
    10  H   -0.251088  -0.000059
    11  H   -0.067601   0.000993
    12  H   -0.067044   0.000843
 Sum of Mulliken charges =  -0.00000   1.00000

 Dipole moment (field-independent basis, Debye):
    X=             -1.2224    Y=             -1.7715    Z=              0.5779  Tot=              2.2285
                          Isotropic Fermi Contact Couplings
        Atom                 a.u.       MegaHertz       Gauss      10(-4) cm-1
     1  C(13)              0.13218     148.59709      53.02314      49.56665
     2  C(13)             -0.06212     -69.83540     -24.91901     -23.29458
     3  O(17)              0.08522     -51.66294     -18.43462     -17.23290
     4  O(17)              0.00631      -3.82565      -1.36509      -1.27610
     5  N(14)              0.07997      25.84008       9.22038       8.61932
     6  H(1)              -0.01931     -86.32410     -30.80259     -28.79462
     7  H(1)              -0.00492     -21.99843      -7.84959      -7.33789
     8  H(1)              -0.00312     -13.93133      -4.97104      -4.64699

 Normal termination of Gaussian 16 at Tue Apr  8 23:02:03 2025.
