 Gaussian 16, Revision C.01,

 ----------------------------------------------------------------------
 #t hf aug-cc-pvdz symm=none int=(grid=ultrafine) guess=(read,tcheck) s
 table=(opt,rrhf)
 ----------------------------------------------------------------------
 -----
 title
 -----
 Symbolic Z-matrix:
 Charge =  0 Multiplicity = 1

 SCF Done:  E(RHF) =  -1253.56375440     A.U. after   15 cycles
 Normal termination of Gaussian 16 at Wed Apr  9 00:26:23 2025.
 Gaussian 16:  ES64L-G16RevC.01  3-Jul-2019

 ----------------------------------------------------------------------
 #t hf aug-cc-pvdz iop(5/13=1,5/36=2,99/5=2) pseudo=read geom=check gue
 ss=(read,tcheck) scf=(maxcycle=1)
 ----------------------------------------------------------------------
 -----
 title
 -----
 Structure from the checkpoint file:  "BDE49_nonexpt_2713_mol1.chk"
 Charge =  0 Multiplicity = 1

                         Standard orientation:
 ---------------------------------------------------------------------
 Center     Atomic      Atomic             Coordinates (Angstroms)
 Number     Number       Type             X           Y           Z
 ---------------------------------------------------------------------
      1         16           0       -0.878523    1.419535    0.541133
      2         16           0        0.878522    1.419534   -0.541140
      3          6           0        1.815318    0.044760    0.244753
      4          6           0       -1.815323    0.044765   -0.244763
      5          8           0       -1.373768   -0.632770   -1.129450
      6          8           0        1.373783   -0.632739    1.129478
      7          6           0       -3.155136   -0.107508    0.374928
      8          6           0       -4.279617   -0.614927   -0.517110
      9          6           0       -3.696864   -1.524592    0.509111
     10          1           0       -4.016277   -0.791975   -1.552174
     11          1           0       -5.261430   -0.190776   -0.348238
     12          1           0       -4.265550   -1.742709    1.404239
     13          1           0       -3.039984   -2.314017    0.166768
     14          1           0       -3.408576    0.602588    1.152861
     15          6           0        3.155128   -0.107521   -0.374942
     16          6           0        4.279617   -0.614912    0.517100
     17          6           0        3.696863   -1.524605   -0.509095
     18          1           0        3.408559    0.602558   -1.152894
     19          1           0        4.265543   -1.742741   -1.404221
     20          1           0        3.039988   -2.314025   -0.166728
     21          1           0        4.016285   -0.791936    1.552170
     22          1           0        5.261428   -0.190760    0.348211
 ---------------------------------------------------------------------

 SCF Done:  E(RHF) =  -1253.74391159     A.U. after    2 cycles

 The electronic state is 1-A.
 Alpha  occ. eigenvalues --  -93.57425 -93.57421 -20.57737 -20.57737 -11.38256
 Alpha  occ. eigenvalues --  -11.38256 -11.26919 -11.26918 -11.26061 -11.26061
 Alpha  occ. eigenvalues --  -11.26000 -11.25999  -8.87085  -8.87066  -6.21283
 Alpha  occ. eigenvalues --   -6.21158  -6.20935  -6.20899  -6.20611  -6.20608
 Alpha  occ. eigenvalues --   -1.37880  -1.37675  -1.15718  -1.15686  -1.06043
 Alpha  occ. eigenvalues --   -0.97375  -0.91263  -0.84107  -0.84086  -0.84070
 Alpha  occ. eigenvalues --   -0.75271  -0.74548  -0.70704  -0.69274  -0.67668
 Alpha  occ. eigenvalues --   -0.66363  -0.63426  -0.61184  -0.58903  -0.58333
 Alpha  occ. eigenvalues --   -0.58158  -0.57391  -0.53369  -0.53315  -0.49590
 Alpha  occ. eigenvalues --   -0.46724  -0.44987  -0.43967  -0.43826  -0.43181
 Alpha  occ. eigenvalues --   -0.42886  -0.38298  -0.36959
 Alpha virt. eigenvalues --    0.03409   0.03531   0.04869   0.04924   0.05240
 Alpha virt. eigenvalues --    0.05254   0.05837   0.06861   0.07428   0.08361
 Alpha virt. eigenvalues --    0.09247   0.09862   0.10072   0.10238   0.11167

 Mulliken charges:
               1
     1  S    0.130847
     2  S    0.130846
     3  C   -0.462551
     4  C   -0.462547
     5  O   -0.457736
     6  O   -0.457738
     7  C    1.093680
     8  C    0.705851
     9  C    0.680536
    10  H   -0.329065
    11  H   -0.328416
    12  H   -0.333730
    13  H   -0.310205
    14  H   -0.389219
    15  C    1.093694
    16  C    0.705853
    17  C    0.680530
    18  H   -0.389217
    19  H   -0.333735
    20  H   -0.310201
    21  H   -0.329067
    22  H   -0.328413
 Sum of Mulliken charges =  -0.00000

 Dipole moment (field-independent basis, Debye):
    X=             -0.0000    Y=              0.3470    Z=             -0.0001  Tot=              0.3470

 Test job not archived.
 1\1\GINC-SE284\SP\RHF\Aug-CC-pVDZ\C8H10O2S2\OHZDE\09-Apr-2025\0\\#t hf
  aug-cc-pvdz iop(5/13=1,5/36=2,99/5=2) pseudo=read geom=check guess=(r
 ead,tcheck) scf=(maxcycle=1)\\title\\0,1\S,0,0.878523,1.419535,-0.5411
 33\S,0,-0.878522,1.419534,0.54114\C,0,-1.815318,0.04476,-0.244753\C,0,
 1.815323,0.044765,0.244763\O,0,1.373768,-0.63277,1.12945\O,0,-1.373783
 ,-0.632739,-1.129478\C,0,3.155136,-0.107508,-0.374928\C,0,4.279617,-0.
 614927,0.51711\C,0,3.696864,-1.524592,-0.509111\H,0,4.016277,-0.791975
 ,1.552174\H,0,5.26143,-0.190776,0.348238\H,0,4.26555,-1.742709,-1.4042

 Normal termination of Gaussian 16 at Wed Apr  9 00:26:39 2025.
