 Gaussian 16, Revision C.01,

 ----------------------------------------------------------------------
 #t hf aug-cc-pvdz symm=none int=(grid=ultrafine) guess=(read,tcheck) s
 table=opt
 ----------------------------------------------------------------------
 -----
 title
 -----
 Symbolic Z-matrix:
 Charge =  0 Multiplicity = 2

 SCF Done:  E(UHF) =  -465.764004499     A.U. after   16 cycles
 Normal termination of Gaussian 16 at Tue Apr  8 23:53:21 2025.
 Gaussian 16:  ES64L-G16RevC.01  3-Jul-2019

 ----------------------------------------------------------------------
 #t hf aug-cc-pvdz iop(5/13=1,5/36=2,99/5=2) pseudo=read geom=check gue
 ss=(read,tcheck) scf=(maxcycle=1)
 ----------------------------------------------------------------------
 -----
 title
 -----
 Structure from the checkpoint file:  "BDE49_nonexpt_1958_mol2.chk"
 Charge =  0 Multiplicity = 2

                         Standard orientation:
 ---------------------------------------------------------------------
 Center     Atomic      Atomic             Coordinates (Angstroms)
 Number     Number       Type             X           Y           Z
 ---------------------------------------------------------------------
      1         14           0       -1.485579   -0.022784   -0.074518
      2          5           0        0.527447   -0.005071    0.011755
      3          1           0       -2.196532   -1.196892    0.480313
      4          1           0       -2.160527    1.236060    0.336350
      5          8           0        1.283825    1.137682    0.011792
      6          1           0        0.774718    1.951518    0.036753
      7          8           0        1.167994   -1.205272    0.003496
      8          1           0        2.128664   -1.105629    0.008754
 ---------------------------------------------------------------------

 SCF Done:  E(UHF) =  -465.844297023     A.U. after    2 cycles

 The electronic state is 2-A.
 Alpha  occ. eigenvalues --  -69.05907 -20.59667 -20.58802  -7.67534  -6.81536
 Alpha  occ. eigenvalues --   -3.92946  -3.92029  -3.91964  -1.35563  -1.31824
 Alpha  occ. eigenvalues --   -0.79759  -0.76578  -0.70231  -0.62837  -0.60231
 Alpha  occ. eigenvalues --   -0.59241  -0.53403  -0.48455  -0.44133  -0.31102
 Alpha virt. eigenvalues --    0.03400   0.04515   0.05509   0.06374   0.07284
 Alpha virt. eigenvalues --    0.07607   0.08230   0.08978   0.09276   0.10215
 Alpha virt. eigenvalues --    0.10800   0.14251   0.16839   0.17345   0.18609

  Beta  occ. eigenvalues --  -69.05365 -20.59614 -20.58744  -7.67571  -6.80766
  Beta  occ. eigenvalues --   -3.91626  -3.91586  -3.90743  -1.35429  -1.31676
  Beta  occ. eigenvalues --   -0.79544  -0.76216  -0.67118  -0.61734  -0.59707
  Beta  occ. eigenvalues --   -0.59173  -0.52870  -0.48159  -0.43322
  Beta virt. eigenvalues --    0.02702   0.03513   0.04658   0.05566   0.07026
  Beta virt. eigenvalues --    0.07381   0.07708   0.09275   0.09608   0.10262
  Beta virt. eigenvalues --    0.10457   0.11309   0.16697   0.17429   0.19282

 Mulliken charges and spin densities:
               1          2
     1  Si  -0.156395   1.093534
     2  B    0.740562  -0.044147
     3  H   -0.031786  -0.040423
     4  H   -0.045827  -0.051274
     5  O   -0.461767   0.021988
     6  H    0.195110  -0.003843
     7  O   -0.431282   0.025431
     8  H    0.191384  -0.001266
 Sum of Mulliken charges =  -0.00000   1.00000

 Dipole moment (field-independent basis, Debye):
    X=              0.4407    Y=              1.4139    Z=              0.1450  Tot=              1.4881
                          Isotropic Fermi Contact Couplings
        Atom                 a.u.       MegaHertz       Gauss      10(-4) cm-1
     1  Si(29)             0.38010    -337.80806    -120.53832    -112.68064
     2  B(11)             -0.00850     -12.19772      -4.35245      -4.06872
     3  H(1)              -0.00867     -38.77152     -13.83464     -12.93279
     4  H(1)              -0.00863     -38.57393     -13.76414     -12.86688
     5  O(17)              0.00541      -3.28245      -1.17126      -1.09491
     6  H(1)              -0.00029      -1.30005      -0.46389      -0.43365
     7  O(17)              0.00283      -1.71589      -0.61227      -0.57236
     8  H(1)              -0.00064      -2.84724      -1.01597      -0.94974

 Normal termination of Gaussian 16 at Tue Apr  8 23:53:24 2025.
