 Gaussian 16, Revision C.01,

 ----------------------------------------------------------------------
 #t hf aug-cc-pvdz symm=none int=(grid=ultrafine) guess=(read,tcheck) s
 table=(opt,rrhf)
 ----------------------------------------------------------------------
 -----
 title
 -----
 Symbolic Z-matrix:
 Charge =  0 Multiplicity = 1

 SCF Done:  E(RHF) =  -537.130398350     A.U. after   13 cycles
 Normal termination of Gaussian 16 at Tue Apr  8 23:50:40 2025.
 Gaussian 16:  ES64L-G16RevC.01  3-Jul-2019

 ----------------------------------------------------------------------
 #t hf aug-cc-pvdz iop(5/13=1,5/36=2,99/5=2) pseudo=read geom=check gue
 ss=(read,tcheck) scf=(maxcycle=1)
 ----------------------------------------------------------------------
 -----
 title
 -----
 Structure from the checkpoint file:  "BDE49_nonexpt_1906_mol1.chk"
 Charge =  0 Multiplicity = 1

                         Standard orientation:
 ---------------------------------------------------------------------
 Center     Atomic      Atomic             Coordinates (Angstroms)
 Number     Number       Type             X           Y           Z
 ---------------------------------------------------------------------
      1         14           0        2.374769   -0.191648   -0.299747
      2          6           0        0.881697    0.439557    0.684424
      3          1           0        2.629458   -1.611863    0.050957
      4          1           0        3.578191    0.605187    0.038612
      5          1           0        2.106456   -0.105432   -1.752579
      6          7           0       -0.311122   -0.375735    0.473046
      7          6           0       -1.477635    0.147121   -0.018288
      8          8           0       -1.598511    1.321702   -0.319190
      9          1           0       -0.283153   -1.351246    0.721652
     10          6           0       -2.619027   -0.843940   -0.174356
     11          1           0       -2.375064   -1.857915    0.149876
     12          1           0       -2.915752   -0.868594   -1.224832
     13          1           0       -3.474454   -0.480955    0.398405
     14          1           0        0.622591    1.447884    0.353194
     15          1           0        1.120683    0.506112    1.752693
 ---------------------------------------------------------------------

 SCF Done:  E(RHF) =  -537.232191567     A.U. after    2 cycles

 The electronic state is 1-A.
 Alpha  occ. eigenvalues --  -69.06735 -20.53136 -15.65673 -11.36542 -11.26553
 Alpha  occ. eigenvalues --  -11.25007  -6.82078  -3.92860  -3.92847  -3.92839
 Alpha  occ. eigenvalues --   -1.34514  -1.19657  -1.01246  -0.92373  -0.79223
 Alpha  occ. eigenvalues --   -0.71588  -0.68480  -0.65851  -0.62385  -0.59491
 Alpha  occ. eigenvalues --   -0.57231  -0.56069  -0.53063  -0.49077  -0.48275
 Alpha  occ. eigenvalues --   -0.47667  -0.43813  -0.38100
 Alpha virt. eigenvalues --    0.02766   0.03862   0.04338   0.05051   0.06093
 Alpha virt. eigenvalues --    0.06536   0.07132   0.07749   0.08450   0.09354
 Alpha virt. eigenvalues --    0.09602   0.10250   0.12590   0.13518   0.13884

 Mulliken charges:
               1
     1  Si   0.469553
     2  C    0.397420
     3  H   -0.039978
     4  H   -0.040499
     5  H   -0.017352
     6  N   -0.282875
     7  C    0.286131
     8  O   -0.556833
     9  H   -0.115990
    10  C    0.412709
    11  H   -0.141095
    12  H    0.036977
    13  H    0.031602
    14  H   -0.200394
    15  H   -0.239377
 Sum of Mulliken charges =  -0.00000

 Dipole moment (field-independent basis, Debye):
    X=              0.7175    Y=             -3.5657    Z=              1.4293  Tot=              3.9079

 Test job not archived.
 1\1\GINC-SE343\SP\RHF\Aug-CC-pVDZ\C3H9N1O1Si1\OHZDE\08-Apr-2025\0\\#t
 hf aug-cc-pvdz iop(5/13=1,5/36=2,99/5=2) pseudo=read geom=check guess=
 (read,tcheck) scf=(maxcycle=1)\\title\\0,1\Si,0,2.374769,-0.191648,-0.
 299747\C,0,0.881697,0.439557,0.684424\H,0,2.629458,-1.611863,0.050957\
 H,0,3.578191,0.605187,0.038612\H,0,2.106456,-0.105432,-1.752579\N,0,-0
 .311122,-0.375735,0.473046\C,0,-1.477635,0.147121,-0.018288\O,0,-1.598
 511,1.321702,-0.31919\H,0,-0.283153,-1.351246,0.721652\C,0,-2.619027,-
 0.84394,-0.174356\H,0,-2.375064,-1.857915,0.149876\H,0,-2.915752,-0.86

 Normal termination of Gaussian 16 at Tue Apr  8 23:50:45 2025.
