 Gaussian 16, Revision C.01,

 ----------------------------------------------------------------------
 #t hf aug-cc-pvdz symm=none int=(grid=ultrafine) guess=(read,tcheck) s
 table=opt
 ----------------------------------------------------------------------
 -----
 title
 -----
 Symbolic Z-matrix:
 Charge =  0 Multiplicity = 2

 SCF Done:  E(UHF) =  -1900.53570815     A.U. after   18 cycles

 1\1\GINC-SE404\Stability\UHF\Aug-CC-pVDZ\C1B1Cl4\OHZDE\09-Apr-2025\0\\
 #t hf aug-cc-pvdz symm=none int=(grid=ultrafine) guess=(read,tcheck) s
 table=opt\\title\\0,2\Cl,0,-2.546552,-0.026941,-0.409055\B,0,-0.927544
 ,0.28153,-0.88318\C,0,0.389602,-0.007754,-0.078104\Cl,0,0.679639,1.631
 948,0.65252\Cl,0,0.269969,-1.244012,1.22503\Cl,0,1.732245,-0.441062,-1
 .18117\\Version=ES64L-G16RevC.01\HF=-1900.5357082\S2=0.755484\S2-1=0.\
 S2A=0.750022\RMSD=6.626e-09\Dipole=-0.1903429,0.0061059,-0.1233149\Qua
 drupole=-0.2553227,0.5060429,-0.2507202,0.1641868,-0.2486449,0.6654122

 Normal termination of Gaussian 16 at Wed Apr  9 00:19:42 2025.
 Gaussian 16:  ES64L-G16RevC.01  3-Jul-2019

 ----------------------------------------------------------------------
 #t hf aug-cc-pvdz iop(5/13=1,5/36=2,99/5=2) pseudo=read geom=check gue
 ss=(read,tcheck) scf=(maxcycle=1)
 ----------------------------------------------------------------------
 -----
 title
 -----
 Structure from the checkpoint file:  "BDE49_nonexpt_262_mol2.chk"
 Charge =  0 Multiplicity = 2

                         Standard orientation:
 ---------------------------------------------------------------------
 Center     Atomic      Atomic             Coordinates (Angstroms)
 Number     Number       Type             X           Y           Z
 ---------------------------------------------------------------------
      1         17           0       -2.546552   -0.026941   -0.409055
      2          5           0       -0.927544    0.281530   -0.883180
      3          6           0        0.389602   -0.007754   -0.078104
      4         17           0        0.679639    1.631948    0.652520
      5         17           0        0.269969   -1.244012    1.225030
      6         17           0        1.732245   -0.441062   -1.181170
 ---------------------------------------------------------------------

 SCF Done:  E(UHF) =  -1900.62497509     A.U. after    2 cycles

 The electronic state is 2-A.
 Alpha  occ. eigenvalues -- -103.70438-103.69987-103.69869-103.69698 -11.44542
 Alpha  occ. eigenvalues --  -10.73681 -10.73364 -10.73260 -10.72960  -8.39385
 Alpha  occ. eigenvalues --   -8.39111  -8.39060  -8.39055  -8.38972  -8.38830
 Alpha  occ. eigenvalues --   -8.38770  -8.38759  -8.38642  -8.38633  -8.38327
 Alpha  occ. eigenvalues --   -8.38325  -7.73961  -1.26661  -1.19683  -1.16803
 Alpha  occ. eigenvalues --   -1.16454  -0.90872  -0.72221  -0.65317  -0.64533
 Alpha  occ. eigenvalues --   -0.63574  -0.55083  -0.53688  -0.52256  -0.51554
 Alpha  occ. eigenvalues --   -0.48760  -0.48527  -0.47634  -0.47347  -0.38072
 Alpha virt. eigenvalues --    0.03042   0.04677   0.05660   0.05993   0.06059
 Alpha virt. eigenvalues --    0.08096   0.09225   0.09919   0.12355   0.12640
 Alpha virt. eigenvalues --    0.13966   0.14930   0.15837   0.17106   0.17413

  Beta  occ. eigenvalues -- -103.70441-103.69980-103.69799-103.69641 -11.44458
  Beta  occ. eigenvalues --  -10.73683 -10.73282 -10.73250 -10.72902  -8.39396
  Beta  occ. eigenvalues --   -8.39073  -8.39044  -8.38986  -8.38972  -8.38804
  Beta  occ. eigenvalues --   -8.38630  -8.38614  -8.38588  -8.38545  -8.38294
  Beta  occ. eigenvalues --   -8.38274  -7.71793  -1.26401  -1.18937  -1.16757
  Beta  occ. eigenvalues --   -1.16109  -0.89648  -0.70283  -0.64613  -0.64301
  Beta  occ. eigenvalues --   -0.61861  -0.53939  -0.52693  -0.52091  -0.51033
  Beta  occ. eigenvalues --   -0.48741  -0.48336  -0.47287  -0.46883
  Beta virt. eigenvalues --    0.03131   0.04829   0.05516   0.05874   0.06442
  Beta virt. eigenvalues --    0.06868   0.08658   0.10451   0.10604   0.12661
  Beta virt. eigenvalues --    0.13155   0.14408   0.15079   0.16467   0.17281

 Mulliken charges and spin densities:
               1          2
     1  Cl  -0.176304   0.006103
     2  B    0.551288   1.026193
     3  C   -0.314856  -0.085679
     4  Cl  -0.030257   0.003086
     5  Cl  -0.005634   0.042085
     6  Cl  -0.024238   0.008213
 Sum of Mulliken charges =  -0.00000   1.00000

 Dipole moment (field-independent basis, Debye):
    X=             -0.4649    Y=              0.0281    Z=             -0.3857  Tot=              0.6048
                          Isotropic Fermi Contact Couplings
        Atom                 a.u.       MegaHertz       Gauss      10(-4) cm-1
     1  Cl(35)             0.07232      31.71068      11.31516      10.57754
     2  B(11)              0.39436     565.65884     201.84114     188.68348
     3  C(13)              0.04444      49.96328      17.82814      16.66596
     4  Cl(35)             0.00056       0.24568       0.08766       0.08195
     5  Cl(35)             0.01258       5.51683       1.96854       1.84022
     6  Cl(35)             0.01350       5.91757       2.11153       1.97389
 --------------------------------------------------------
       Center         ----  Spin Dipole Couplings  ----

 Normal termination of Gaussian 16 at Wed Apr  9 00:19:45 2025.
