 Gaussian 16, Revision C.01,

 ----------------------------------------------------------------------
 #t hf aug-cc-pvdz symm=none int=(grid=ultrafine) guess=(read,tcheck) s
 table=opt
 ----------------------------------------------------------------------
 -----
 title
 -----
 Symbolic Z-matrix:
 Charge =  0 Multiplicity = 2

 SCF Done:  E(UHF) =  -596.635432329     A.U. after   16 cycles
 Normal termination of Gaussian 16 at Wed Apr  9 00:02:35 2025.
 Gaussian 16:  ES64L-G16RevC.01  3-Jul-2019

 ----------------------------------------------------------------------
 #t hf aug-cc-pvdz iop(5/13=1,5/36=2,99/5=2) pseudo=read geom=check gue
 ss=(read,tcheck) scf=(maxcycle=1)
 ----------------------------------------------------------------------
 -----
 title
 -----
 Structure from the checkpoint file:  "BDE49_nonexpt_2176_mol2.chk"
 Charge =  0 Multiplicity = 2

                         Standard orientation:
 ---------------------------------------------------------------------
 Center     Atomic      Atomic             Coordinates (Angstroms)
 Number     Number       Type             X           Y           Z
 ---------------------------------------------------------------------
      1         14           0       -0.847967   -0.605610   -0.203120
      2          8           0       -1.128365   -0.732342    1.424028
      3          6           0        0.567020    0.669688   -0.341714
      4          6           0        1.881855    0.178741    0.294159
      5          6           0        2.516282   -1.022168   -0.414018
      6          1           0        1.703479   -0.064302    1.347515
      7          1           0        2.596663    1.012117    0.293220
      8          1           0        1.849656   -1.890163   -0.409013
      9          1           0        3.450387   -1.318253    0.070951
     10          1           0        2.742989   -0.789050   -1.459332
     11          6           0        0.094912    2.006859    0.264728
     12          1           0        0.737317    0.813566   -1.417877
     13          1           0       -0.094588    1.901934    1.335857
     14          1           0       -0.828272    2.356752   -0.203484
     15          1           0        0.858970    2.780805    0.129446
     16          1           0       -1.969743   -1.101199    1.705228
     17          8           0       -2.261026   -0.017882   -0.870543
     18          1           0       -2.420596   -0.220595   -1.795635
 ---------------------------------------------------------------------

 SCF Done:  E(UHF) =  -596.770488979     A.U. after    2 cycles

 The electronic state is 2-A.
 Alpha  occ. eigenvalues --  -69.10922 -20.57395 -20.56897 -11.22940 -11.22681
 Alpha  occ. eigenvalues --  -11.22296 -11.22166  -6.85455  -3.96649  -3.96096
 Alpha  occ. eigenvalues --   -3.95896  -1.31368  -1.29229  -1.06064  -0.97633
 Alpha  occ. eigenvalues --   -0.85974  -0.79702  -0.75399  -0.71555  -0.62990
 Alpha  occ. eigenvalues --   -0.61549  -0.59626  -0.58248  -0.57849  -0.56615
 Alpha  occ. eigenvalues --   -0.54500  -0.53503  -0.51732  -0.49410  -0.47588
 Alpha  occ. eigenvalues --   -0.46212  -0.44375  -0.31340
 Alpha virt. eigenvalues --    0.03139   0.04319   0.04423   0.04999   0.06101
 Alpha virt. eigenvalues --    0.06573   0.06671   0.07123   0.07322   0.09003
 Alpha virt. eigenvalues --    0.09301   0.09479   0.09685   0.10316   0.13577

  Beta  occ. eigenvalues --  -69.10438 -20.57010 -20.56550 -11.22972 -11.22285
  Beta  occ. eigenvalues --  -11.22271 -11.22133  -6.84675  -3.95801  -3.95659
  Beta  occ. eigenvalues --   -3.94836  -1.30247  -1.28143  -1.05667  -0.97367
  Beta  occ. eigenvalues --   -0.85746  -0.78744  -0.74790  -0.71153  -0.62547
  Beta  occ. eigenvalues --   -0.59348  -0.58289  -0.57783  -0.57204  -0.56098
  Beta  occ. eigenvalues --   -0.52735  -0.52564  -0.51434  -0.49213  -0.47183
  Beta  occ. eigenvalues --   -0.46079  -0.41439
  Beta virt. eigenvalues --    0.02524   0.04305   0.04481   0.04769   0.06124
  Beta virt. eigenvalues --    0.06571   0.06682   0.07098   0.07260   0.08033
  Beta virt. eigenvalues --    0.09070   0.09389   0.09684   0.09951   0.10398

 Mulliken charges and spin densities:
               1          2
     1  Si   1.407941   0.960947
     2  O   -0.880155   0.041330
     3  C   -0.416071   0.031175
     4  C    0.322498   0.031412
     5  C    0.407180   0.014550
     6  H   -0.131955   0.001393
     7  H   -0.103411   0.001352
     8  H   -0.106849  -0.021088
     9  H   -0.058574   0.001070
    10  H   -0.081848   0.004352
    11  C    0.606958  -0.027161
    12  H   -0.126723  -0.025660
    13  H   -0.047499  -0.001607
    14  H   -0.107764   0.000607
    15  H   -0.096509   0.002981
    16  H    0.118276  -0.006166
    17  O   -0.855329   0.012867
    18  H    0.149832  -0.022354
 Sum of Mulliken charges =  -0.00000   1.00000

 Dipole moment (field-independent basis, Debye):
    X=             -0.1690    Y=             -0.6706    Z=             -1.4793  Tot=              1.6330
                          Isotropic Fermi Contact Couplings
        Atom                 a.u.       MegaHertz       Gauss      10(-4) cm-1
     1  Si(29)             0.61875    -549.90213    -196.21875    -183.42761
     2  O(17)              0.04548     -27.57108      -9.83805      -9.19672
     3  C(13)              0.07370      82.85580      29.56501      27.63772
     4  C(13)             -0.00682      -7.66866      -2.73637      -2.55799
     5  C(13)              0.00310       3.48436       1.24331       1.16226
     6  H(1)               0.00027       1.20292       0.42923       0.40125
     7  H(1)               0.00109       4.85349       1.73184       1.61895
     8  H(1)               0.00022       0.97399       0.34754       0.32489

 Normal termination of Gaussian 16 at Wed Apr  9 00:02:44 2025.
