 Gaussian 16, Revision C.01,

 ----------------------------------------------------------------------
 #t hf aug-cc-pvdz symm=none int=(grid=ultrafine) guess=(read,tcheck) s
 table=opt
 ----------------------------------------------------------------------
 -----
 title
 -----
 Symbolic Z-matrix:
 Charge =  0 Multiplicity = 2

 SCF Done:  E(UHF) =  -463.264814503     A.U. after   19 cycles

 1\1\GINC-SE338\Stability\UHF\Aug-CC-pVDZ\F1O1Si1\OHZDE\08-Apr-2025\0\\
 #t hf aug-cc-pvdz symm=none int=(grid=ultrafine) guess=(read,tcheck) s
 table=opt\\title\\0,2\Si,0,0.,0.392016,0.\O,0,1.456381,-0.06585,0.\F,0
 ,-1.294561,-0.551269,0.\\Version=ES64L-G16RevC.01\HF=-463.2648145\S2=0
 .766853\S2-1=0.\S2A=0.750092\RMSD=6.352e-09\Dipole=-1.0828046,0.747863
 9,0.\Quadrupole=-4.5848109,1.5284823,3.0563286,-0.6080787,0.,0.\PG=Unk
 nown\\@
 The archive entry for this job was punched.

 Normal termination of Gaussian 16 at Tue Apr  8 23:54:16 2025.
 Gaussian 16:  ES64L-G16RevC.01  3-Jul-2019

 ----------------------------------------------------------------------
 #t hf aug-cc-pvdz iop(5/13=1,5/36=2,99/5=2) pseudo=read geom=check gue
 ss=(read,tcheck) scf=(maxcycle=1)
 ----------------------------------------------------------------------
 -----
 title
 -----
 Structure from the checkpoint file:  "BDE49_nonexpt_1989_mol2.chk"
 Charge =  0 Multiplicity = 2

                         Standard orientation:
 ---------------------------------------------------------------------
 Center     Atomic      Atomic             Coordinates (Angstroms)
 Number     Number       Type             X           Y           Z
 ---------------------------------------------------------------------
      1         14           0        0.000000    0.392016    0.000000
      2          8           0        1.456381   -0.065850    0.000000
      3          9           0       -1.294561   -0.551269   -0.000000
 ---------------------------------------------------------------------

 SCF Done:  E(UHF) =  -463.364433671     A.U. after    2 cycles

 The electronic state is 2-A'.
 Alpha  occ. eigenvalues --  -69.19442 -26.17100 -20.57020  -6.94005  -4.04844
 Alpha  occ. eigenvalues --   -4.04411  -4.04316  -1.70061  -1.26150  -0.86043
 Alpha  occ. eigenvalues --   -0.77800  -0.77029  -0.63656  -0.53251  -0.50840
 Alpha  occ. eigenvalues --   -0.45010
 Alpha virt. eigenvalues --    0.01366   0.05155   0.05449   0.06564   0.08384
 Alpha virt. eigenvalues --    0.15483   0.18408   0.20682   0.22726   0.22866
 Alpha virt. eigenvalues --    0.24711   0.25033   0.29387   0.29807   0.31256

  Beta  occ. eigenvalues --  -69.18929 -26.16549 -20.55861  -6.93086  -4.04140
  Beta  occ. eigenvalues --   -4.03969  -4.03249  -1.68251  -1.21891  -0.82815
  Beta  occ. eigenvalues --   -0.76702  -0.76431  -0.56488  -0.50551  -0.48769
  Beta virt. eigenvalues --   -0.04121   0.03784   0.05663   0.06128   0.08637
  Beta virt. eigenvalues --    0.11294   0.17814   0.20153   0.21641   0.23322
  Beta virt. eigenvalues --    0.24367   0.25092   0.25131   0.29655   0.30125

 Mulliken charges and spin densities:
               1          2
     1  Si   1.584289   0.796656
     2  O   -0.921502   0.256058
     3  F   -0.662787  -0.052713
 Sum of Mulliken charges =   0.00000   1.00000

 Dipole moment (field-independent basis, Debye):
    X=             -2.8907    Y=              2.1745    Z=             -0.0000  Tot=              3.6173
                          Isotropic Fermi Contact Couplings
        Atom                 a.u.       MegaHertz       Gauss      10(-4) cm-1
     1  Si(29)             0.95813    -851.51662    -303.84230    -284.03537
     2  O(17)              0.06427     -38.96012     -13.90194     -12.99570
     3  F(19)              0.12874     541.67198     193.28203     180.68232
 --------------------------------------------------------
       Center         ----  Spin Dipole Couplings  ----
                      3XX-RR        3YY-RR        3ZZ-RR
 --------------------------------------------------------
     1   Atom       -0.256700      0.630240     -0.373541

 Normal termination of Gaussian 16 at Tue Apr  8 23:54:17 2025.
