 Gaussian 16, Revision C.01,

 ----------------------------------------------------------------------
 #t hf aug-cc-pvdz symm=none int=(grid=ultrafine) guess=(read,tcheck) s
 table=(opt,rrhf)
 ----------------------------------------------------------------------
 -----
 title
 -----
 Symbolic Z-matrix:
 Charge =  0 Multiplicity = 1

 SCF Done:  E(RHF) =  -538.245595766     A.U. after   12 cycles
 Normal termination of Gaussian 16 at Tue Apr  8 23:56:51 2025.
 Gaussian 16:  ES64L-G16RevC.01  3-Jul-2019

 ----------------------------------------------------------------------
 #t hf aug-cc-pvdz iop(5/13=1,5/36=2,99/5=2) pseudo=read geom=check gue
 ss=(read,tcheck) scf=(maxcycle=1)
 ----------------------------------------------------------------------
 -----
 title
 -----
 Structure from the checkpoint file:  "BDE49_nonexpt_2050_mol1.chk"
 Charge =  0 Multiplicity = 1

                         Standard orientation:
 ---------------------------------------------------------------------
 Center     Atomic      Atomic             Coordinates (Angstroms)
 Number     Number       Type             X           Y           Z
 ---------------------------------------------------------------------
      1         14           0       -1.911575    0.314314   -0.267513
      2          6           0       -0.200366   -0.540898   -0.266533
      3          8           0       -0.162906   -1.496384    0.831131
      4          7           0        0.931766    0.344801   -0.360033
      5          6           0        2.194611   -0.345963   -0.621407
      6          1           0        2.081226   -0.994936   -1.492863
      7          1           0        2.531557   -0.962942    0.224948
      8          1           0        2.970629    0.390364   -0.845686
      9          6           0        1.058974    1.319008    0.717008
     10          1           0        0.126619    1.875815    0.840569
     11          1           0        1.839181    2.040636    0.463204
     12          1           0        1.325211    0.871373    1.690279
     13          1           0       -0.168267   -1.185908   -1.149230
     14          1           0       -0.348581   -1.024857    1.650246
     15          1           0       -2.237858    0.750848    1.114899
     16          1           0       -2.923899   -0.682228   -0.682520
     17          1           0       -1.972197    1.486020   -1.171890
 ---------------------------------------------------------------------

 SCF Done:  E(RHF) =  -538.347366322     A.U. after    2 cycles

 The electronic state is 1-A.
 Alpha  occ. eigenvalues --  -69.06405 -20.57483 -15.62125 -11.30730 -11.26470
 Alpha  occ. eigenvalues --  -11.25525  -6.81778  -3.92543  -3.92538  -3.92519
 Alpha  occ. eigenvalues --   -1.32106  -1.18981  -0.95808  -0.94023  -0.81049
 Alpha  occ. eigenvalues --   -0.72772  -0.67856  -0.65410  -0.62277  -0.61202
 Alpha  occ. eigenvalues --   -0.57771  -0.55333  -0.54425  -0.52104  -0.50160
 Alpha  occ. eigenvalues --   -0.48124  -0.47557  -0.42342  -0.36336
 Alpha virt. eigenvalues --    0.03228   0.04137   0.04332   0.04978   0.06212
 Alpha virt. eigenvalues --    0.06986   0.07241   0.07496   0.07854   0.08884
 Alpha virt. eigenvalues --    0.09399   0.10026   0.10208   0.11659   0.13129

 Mulliken charges:
               1
     1  Si  -0.250637
     2  C    0.738522
     3  O   -0.616864
     4  N   -0.747685
     5  C    0.693840
     6  H   -0.173009
     7  H    0.004715
     8  H   -0.194188
     9  C    0.731206
    10  H   -0.195223
    11  H   -0.183706
    12  H   -0.055766
    13  H   -0.307346
    14  H    0.175536
    15  H    0.157478
    16  H    0.055370
    17  H    0.167757
 Sum of Mulliken charges =  -0.00000

 Dipole moment (field-independent basis, Debye):
    X=              0.5831    Y=              1.3416    Z=              0.4124  Tot=              1.5199

 Test job not archived.
 1\1\GINC-SE080\SP\RHF\Aug-CC-pVDZ\C3H11N1O1Si1\OHZDE\08-Apr-2025\0\\#t
  hf aug-cc-pvdz iop(5/13=1,5/36=2,99/5=2) pseudo=read geom=check guess
 =(read,tcheck) scf=(maxcycle=1)\\title\\0,1\Si,0,-1.911575,0.314314,-0
 .267513\C,0,-0.200366,-0.540898,-0.266533\O,0,-0.162906,-1.496384,0.83
 1131\N,0,0.931766,0.344801,-0.360033\C,0,2.194611,-0.345963,-0.621407\
 H,0,2.081226,-0.994936,-1.492863\H,0,2.531557,-0.962942,0.224948\H,0,2
 .970629,0.390365,-0.845686\C,0,1.058974,1.319008,0.717008\H,0,0.126619
 ,1.875815,0.840569\H,0,1.839181,2.040636,0.463204\H,0,1.325211,0.87137

 Normal termination of Gaussian 16 at Tue Apr  8 23:56:57 2025.
