 Gaussian 16, Revision C.01,

 ----------------------------------------------------------------------
 #t hf aug-cc-pvdz symm=none int=(grid=ultrafine) guess=(read,tcheck) s
 table=(opt,rrhf)
 ----------------------------------------------------------------------
 -----
 title
 -----
 Symbolic Z-matrix:
 Charge =  0 Multiplicity = 1

 SCF Done:  E(RHF) =  -78.0436580278     A.U. after    9 cycles
 Normal termination of Gaussian 16 at Tue Apr  8 23:01:37 2025.
 Gaussian 16:  ES64L-G16RevC.01  3-Jul-2019

 ----------------------------------------------------------------------
 #t hf aug-cc-pvdz iop(5/13=1,5/36=2,99/5=2) pseudo=read geom=check gue
 ss=(read,tcheck) scf=(maxcycle=1)
 ----------------------------------------------------------------------
 -----
 title
 -----
 Structure from the checkpoint file:  "BDE49_expt_33_mol1.chk"
 Charge =  0 Multiplicity = 1

                         Standard orientation:
 ---------------------------------------------------------------------
 Center     Atomic      Atomic             Coordinates (Angstroms)
 Number     Number       Type             X           Y           Z
 ---------------------------------------------------------------------
      1          6           0       -0.000000   -0.000000    0.663482
      2          6           0        0.000000   -0.000000   -0.663482
      3          1           0        0.000000    0.922494    1.234676
      4          1           0       -0.000000   -0.922494    1.234676
      5          1           0        0.000000    0.922494   -1.234676
      6          1           0       -0.000000   -0.922494   -1.234676
 ---------------------------------------------------------------------

 SCF Done:  E(RHF) =  -78.0708637559     A.U. after    2 cycles

 The electronic state is 1-AG.
 Alpha  occ. eigenvalues --  -11.24290 -11.24117  -1.02986  -0.79265  -0.64645
 Alpha  occ. eigenvalues --   -0.59392  -0.50757  -0.38162
 Alpha virt. eigenvalues --    0.03974   0.05023   0.05142   0.07102   0.10170
 Alpha virt. eigenvalues --    0.12056   0.12742   0.14677   0.17735   0.17824
 Alpha virt. eigenvalues --    0.20638   0.20819   0.22375   0.25122   0.29276

 Mulliken charges:
               1
     1  C    0.500334
     2  C    0.500334
     3  H   -0.250167
     4  H   -0.250167
     5  H   -0.250167
     6  H   -0.250167
 Sum of Mulliken charges =  -0.00000

 Dipole moment (field-independent basis, Debye):
    X=              0.0000    Y=             -0.0000    Z=             -0.0000  Tot=              0.0000

 Test job not archived.
 1\1\GINC-SE187\SP\RHF\Aug-CC-pVDZ\C2H4\OHZDE\08-Apr-2025\0\\#t hf aug-
 cc-pvdz iop(5/13=1,5/36=2,99/5=2) pseudo=read geom=check guess=(read,t
 check) scf=(maxcycle=1)\\title\\0,1\C,0,0.,0.663482,0.\C,0,0.,-0.66348
 2,0.\H,0,0.922494,1.234676,0.\H,0,-0.922494,1.234676,0.\H,0,0.922494,-
 1.234676,0.\H,0,-0.922494,-1.234676,0.\\Version=ES64L-G16RevC.01\State
 =1-AG\HF=-78.0708638\RMSD=4.906e-03\Dipole=0.,0.,0.\Quadrupole=0.85309
 74,1.0420528,-1.8951503,0.,0.,0.\PG=D02H [C2"(C1.C1),SG(H4)]\\@

 Normal termination of Gaussian 16 at Tue Apr  8 23:01:39 2025.
