 Gaussian 16, Revision C.01,

 ----------------------------------------------------------------------
 #t hf aug-cc-pvdz symm=none int=(grid=ultrafine) guess=(read,tcheck) s
 table=(opt,rrhf)
 ----------------------------------------------------------------------
 -----
 title
 -----
 Symbolic Z-matrix:
 Charge =  0 Multiplicity = 1

 SCF Done:  E(RHF) =  -653.685569988     A.U. after   13 cycles
 Normal termination of Gaussian 16 at Wed Apr  9 00:19:59 2025.
 Gaussian 16:  ES64L-G16RevC.01  3-Jul-2019

 ----------------------------------------------------------------------
 #t hf aug-cc-pvdz iop(5/13=1,5/36=2,99/5=2) pseudo=read geom=check gue
 ss=(read,tcheck) scf=(maxcycle=1)
 ----------------------------------------------------------------------
 -----
 title
 -----
 Structure from the checkpoint file:  "BDE49_nonexpt_2637_mol1.chk"
 Charge =  0 Multiplicity = 1

                         Standard orientation:
 ---------------------------------------------------------------------
 Center     Atomic      Atomic             Coordinates (Angstroms)
 Number     Number       Type             X           Y           Z
 ---------------------------------------------------------------------
      1          9           0       -1.999060    0.508230   -0.000244
      2         16           0       -0.965418   -0.817593    0.000076
      3          6           0        0.639496    0.082860    0.000038
      4          6           0        1.679900   -1.049698    0.000015
      5          1           0        1.592346   -1.680579    0.888570
      6          1           0        2.681977   -0.611121   -0.000018
      7          1           0        1.592295   -1.680591   -0.888527
      8          6           0        0.748691    0.942562   -1.265498
      9          1           0        1.691899    1.498906   -1.259959
     10          1           0       -0.071258    1.661279   -1.313031
     11          1           0        0.714554    0.324814   -2.165087
     12          6           0        0.748748    0.942561    1.265569
     13          1           0        0.714651    0.324813    2.165161
     14          1           0       -0.071198    1.661279    1.313141
     15          1           0        1.691956    1.498904    1.259987
 ---------------------------------------------------------------------

 SCF Done:  E(RHF) =  -653.792314587     A.U. after    2 cycles

 The electronic state is 1-A.
 Alpha  occ. eigenvalues --  -93.60451 -26.11495 -11.29707 -11.25070 -11.23808
 Alpha  occ. eigenvalues --  -11.23799  -8.89352  -6.23577  -6.23152  -6.22781
 Alpha  occ. eigenvalues --   -1.62450  -1.11797  -0.95386  -0.94602  -0.94266
 Alpha  occ. eigenvalues --   -0.76888  -0.71942  -0.71913  -0.67979  -0.62551
 Alpha  occ. eigenvalues --   -0.61302  -0.59450  -0.56239  -0.55734  -0.53448
 Alpha  occ. eigenvalues --   -0.49761  -0.49510  -0.44488  -0.36763
 Alpha virt. eigenvalues --    0.03256   0.04502   0.04746   0.05580   0.06815
 Alpha virt. eigenvalues --    0.06969   0.07180   0.07708   0.08483   0.09416
 Alpha virt. eigenvalues --    0.09690   0.12394   0.13804   0.13813   0.15139

 Mulliken charges:
               1
     1  F   -0.673297
     2  S    0.731706
     3  C   -2.459317
     4  C    0.947204
     5  H   -0.059725
     6  H    0.021746
     7  H   -0.059719
     8  C    0.862149
     9  H   -0.012051
    10  H   -0.022055
    11  H   -0.052315
    12  C    0.862099
    13  H   -0.052305
    14  H   -0.022065
    15  H   -0.012054
 Sum of Mulliken charges =  -0.00000

 Dipole moment (field-independent basis, Debye):
    X=              3.2264    Y=             -0.4011    Z=              0.0003  Tot=              3.2513

 Test job not archived.
 1\1\GINC-SE458\SP\RHF\Aug-CC-pVDZ\C4H9F1S1\OHZDE\09-Apr-2025\0\\#t hf
 aug-cc-pvdz iop(5/13=1,5/36=2,99/5=2) pseudo=read geom=check guess=(re
 ad,tcheck) scf=(maxcycle=1)\\title\\0,1\F,0,-1.99906,0.508231,-0.00024
 4\S,0,-0.965418,-0.817593,0.000076\C,0,0.639496,0.08286,0.000038\C,0,1
 .6799,-1.049698,0.000015\H,0,1.592346,-1.680579,0.88857\H,0,2.681977,-
 0.611122,-0.000018\H,0,1.592295,-1.680591,-0.888527\C,0,0.748691,0.942
 562,-1.265498\H,0,1.691899,1.498906,-1.259959\H,0,-0.071258,1.661279,-
 1.313031\H,0,0.714554,0.324814,-2.165087\C,0,0.748748,0.942561,1.26556

 Normal termination of Gaussian 16 at Wed Apr  9 00:20:04 2025.
