 Gaussian 16, Revision C.01,

 ----------------------------------------------------------------------
 #t hf aug-cc-pvdz symm=none int=(grid=ultrafine) guess=(read,tcheck) s
 table=(opt,rrhf)
 ----------------------------------------------------------------------
 -----
 title
 -----
 Symbolic Z-matrix:
 Charge =  0 Multiplicity = 1

 SCF Done:  E(RHF) =  -1004.58964140     A.U. after   14 cycles
 Normal termination of Gaussian 16 at Wed Apr  9 00:08:48 2025.
 Gaussian 16:  ES64L-G16RevC.01  3-Jul-2019

 ----------------------------------------------------------------------
 #t hf aug-cc-pvdz iop(5/13=1,5/36=2,99/5=2) pseudo=read geom=check gue
 ss=(read,tcheck) scf=(maxcycle=1)
 ----------------------------------------------------------------------
 -----
 title
 -----
 Structure from the checkpoint file:  "BDE49_nonexpt_2351_mol1.chk"
 Charge =  0 Multiplicity = 1

                         Standard orientation:
 ---------------------------------------------------------------------
 Center     Atomic      Atomic             Coordinates (Angstroms)
 Number     Number       Type             X           Y           Z
 ---------------------------------------------------------------------
      1         14           0       -1.100499    1.109486    0.502541
      2         14           0        0.976135    1.158471   -0.618049
      3          6           0       -2.033534   -0.476866   -0.044611
      4          8           0       -3.067659   -0.596500   -0.601476
      5          1           0       -1.946672    2.266152    0.149131
      6          1           0       -0.887429    1.018933    1.961279
      7          9           0       -1.289829   -1.594870    0.287762
      8          6           0        1.963854   -0.409569   -0.117219
      9          1           0        1.753585    2.332932   -0.167377
     10          1           0        0.827036    1.146913   -2.085769
     11          8           0        2.365508   -1.295433   -0.785281
     12          9           0        2.182035   -0.412046    1.248337
 ---------------------------------------------------------------------

 SCF Done:  E(RHF) =  -1004.77556098     A.U. after    2 cycles

 The electronic state is 1-A.
 Alpha  occ. eigenvalues --  -69.12022 -69.12019 -26.15681 -26.15515 -20.62312
 Alpha  occ. eigenvalues --  -20.62049 -11.43914 -11.43719  -6.87414  -6.87403
 Alpha  occ. eigenvalues --   -3.98217  -3.98202  -3.98158  -3.98137  -3.98130
 Alpha  occ. eigenvalues --   -3.98078  -1.69399  -1.69232  -1.42054  -1.41817
 Alpha  occ. eigenvalues --   -0.92618  -0.91964  -0.82914  -0.80871  -0.77052
 Alpha  occ. eigenvalues --   -0.76766  -0.76034  -0.75526  -0.72658  -0.69385
 Alpha  occ. eigenvalues --   -0.62909  -0.61458  -0.58726  -0.58408  -0.53953
 Alpha  occ. eigenvalues --   -0.52978  -0.50342  -0.49470  -0.44672
 Alpha virt. eigenvalues --    0.02728   0.03317   0.04820   0.04901   0.06019
 Alpha virt. eigenvalues --    0.06447   0.06649   0.06686   0.07028   0.07808
 Alpha virt. eigenvalues --    0.08509   0.08974   0.10327   0.10893   0.12726

 Mulliken charges:
               1
     1  Si   0.251637
     2  Si   0.152212
     3  C    0.431191
     4  O   -0.393864
     5  H    0.042237
     6  H    0.081947
     7  F   -0.400552
     8  C    0.477697
     9  H    0.059255
    10  H    0.109027
    11  O   -0.399776
    12  F   -0.411009
 Sum of Mulliken charges =   0.00000

 Dipole moment (field-independent basis, Debye):
    X=             -0.0253    Y=              5.3623    Z=              0.2783  Tot=              5.3696

 Test job not archived.
 1\1\GINC-SE070\SP\RHF\Aug-CC-pVDZ\C2H4F2O2Si2\OHZDE\09-Apr-2025\0\\#t
 hf aug-cc-pvdz iop(5/13=1,5/36=2,99/5=2) pseudo=read geom=check guess=
 (read,tcheck) scf=(maxcycle=1)\\title\\0,1\Si,0,-1.100499,1.109486,0.5
 02541\Si,0,0.976135,1.158471,-0.618049\C,0,-2.033534,-0.476866,-0.0446
 11\O,0,-3.067659,-0.5965,-0.601476\H,0,-1.946672,2.266152,0.149131\H,0
 ,-0.887429,1.018933,1.961279\F,0,-1.289829,-1.59487,0.287762\C,0,1.963
 854,-0.409569,-0.117219\H,0,1.753585,2.332932,-0.167377\H,0,0.827036,1
 .146913,-2.085769\O,0,2.365508,-1.295433,-0.785281\F,0,2.182035,-0.412

 Normal termination of Gaussian 16 at Wed Apr  9 00:08:53 2025.
