 Gaussian 16, Revision C.01,

 ----------------------------------------------------------------------
 #t hf aug-cc-pvdz symm=none int=(grid=ultrafine) guess=(read,tcheck) s
 table=(opt,rrhf)
 ----------------------------------------------------------------------
 -----
 title
 -----
 Symbolic Z-matrix:
 Charge =  0 Multiplicity = 1

 SCF Done:  E(RHF) =  -680.272104108     A.U. after   11 cycles

 1\1\GINC-SE341\Stability\RHF\Aug-CC-pVDZ\F1H5Si2\OHZDE\08-Apr-2025\0\\
 #t hf aug-cc-pvdz symm=none int=(grid=ultrafine) guess=(read,tcheck) s
 table=(opt,rrhf)\\title\\0,1\Si,0,0.772746,-1.329421,0.\Si,0,0.,0.8979
 13,0.\F,0,-1.619883,0.909775,0.\H,0,0.451584,1.629578,1.205819\H,0,0.4
 51584,1.629578,-1.205819\H,0,0.300356,-2.047022,1.207449\H,0,2.256611,
 -1.311982,0.\H,0,0.300356,-2.047022,-1.207449\\Version=ES64L-G16RevC.0
 1\HF=-680.2721041\RMSD=1.939e-09\Dipole=0.6043679,-0.0985486,0.\Quadru
 pole=-1.5377832,0.6067345,0.9310487,1.1814444,0.,0.\PG=Unknown\\@

 Normal termination of Gaussian 16 at Tue Apr  8 23:55:18 2025.
 Gaussian 16:  ES64L-G16RevC.01  3-Jul-2019

 ----------------------------------------------------------------------
 #t hf aug-cc-pvdz iop(5/13=1,5/36=2,99/5=2) pseudo=read geom=check gue
 ss=(read,tcheck) scf=(maxcycle=1)
 ----------------------------------------------------------------------
 -----
 title
 -----
 Structure from the checkpoint file:  "BDE49_nonexpt_2020_mol1.chk"
 Charge =  0 Multiplicity = 1

                         Standard orientation:
 ---------------------------------------------------------------------
 Center     Atomic      Atomic             Coordinates (Angstroms)
 Number     Number       Type             X           Y           Z
 ---------------------------------------------------------------------
      1         14           0        0.772747   -1.329421    0.000000
      2         14           0        0.000000    0.897913    0.000000
      3          9           0       -1.619883    0.909775    0.000000
      4          1           0        0.451584    1.629578    1.205819
      5          1           0        0.451584    1.629578   -1.205819
      6          1           0        0.300357   -2.047022    1.207449
      7          1           0        2.256612   -1.311981    0.000000
      8          1           0        0.300357   -2.047022   -1.207449
 ---------------------------------------------------------------------

 SCF Done:  E(RHF) =  -680.358110535     A.U. after    2 cycles

 The electronic state is 1-A'.
 Alpha  occ. eigenvalues --  -69.11729 -69.07038 -26.10629  -6.86456  -6.82509
 Alpha  occ. eigenvalues --   -3.97361  -3.97173  -3.97146  -3.93267  -3.93261
 Alpha  occ. eigenvalues --   -3.93240  -1.63092  -0.80374  -0.72764  -0.71871
 Alpha  occ. eigenvalues --   -0.71157  -0.62539  -0.50478  -0.49375  -0.48183
 Alpha  occ. eigenvalues --   -0.41205
 Alpha virt. eigenvalues --    0.03757   0.04276   0.05557   0.06305   0.07174
 Alpha virt. eigenvalues --    0.07456   0.07571   0.08614   0.08854   0.10011
 Alpha virt. eigenvalues --    0.10294   0.12530   0.15018   0.15044   0.16070

 Mulliken charges:
               1
     1  Si  -0.033111
     2  Si   0.893109
     3  F   -0.774058
     4  H   -0.023165
     5  H   -0.023165
     6  H   -0.011397
     7  H   -0.016816
     8  H   -0.011397
 Sum of Mulliken charges =   0.00000

 Dipole moment (field-independent basis, Debye):
    X=              1.6836    Y=             -0.2600    Z=             -0.0000  Tot=              1.7035

 Test job not archived.
 1\1\GINC-SE341\SP\RHF\Aug-CC-pVDZ\F1H5Si2\OHZDE\08-Apr-2025\0\\#t hf a
 ug-cc-pvdz iop(5/13=1,5/36=2,99/5=2) pseudo=read geom=check guess=(rea
 d,tcheck) scf=(maxcycle=1)\\title\\0,1\Si,0,0.772746,-1.329421,0.\Si,0
 ,0.,0.897913,0.\F,0,-1.619883,0.909775,0.\H,0,0.451584,1.629578,1.2058
 19\H,0,0.451584,1.629578,-1.205819\H,0,0.300356,-2.047022,1.207449\H,0
 ,2.256611,-1.311982,0.\H,0,0.300356,-2.047022,-1.207449\\Version=ES64L
 -G16RevC.01\State=1-A'\HF=-680.3581105\RMSD=5.692e-03\Dipole=0.6623622
 ,-0.1022887,0.\Quadrupole=-1.667092,0.6516949,1.0153971,1.2880301,0.,0

 Normal termination of Gaussian 16 at Tue Apr  8 23:55:21 2025.
