 Gaussian 16, Revision C.01,

 ----------------------------------------------------------------------
 #t hf aug-cc-pvdz symm=none int=(grid=ultrafine) guess=(read,tcheck) s
 table=(opt,rrhf)
 ----------------------------------------------------------------------
 -----
 title
 -----
 Symbolic Z-matrix:
 Charge =  0 Multiplicity = 1

 SCF Done:  E(RHF) =  -971.201701423     A.U. after   13 cycles
 Normal termination of Gaussian 16 at Tue Apr  8 23:53:27 2025.
 Gaussian 16:  ES64L-G16RevC.01  3-Jul-2019

 ----------------------------------------------------------------------
 #t hf aug-cc-pvdz iop(5/13=1,5/36=2,99/5=2) pseudo=read geom=check gue
 ss=(read,tcheck) scf=(maxcycle=1)
 ----------------------------------------------------------------------
 -----
 title
 -----
 Structure from the checkpoint file:  "BDE49_nonexpt_1957_mol1.chk"
 Charge =  0 Multiplicity = 1

                         Standard orientation:
 ---------------------------------------------------------------------
 Center     Atomic      Atomic             Coordinates (Angstroms)
 Number     Number       Type             X           Y           Z
 ---------------------------------------------------------------------
      1         14           0       -2.986965    0.187515   -0.040090
      2          6           0       -1.294568   -0.643963    0.152282
      3         15           0        1.250528    0.010679    0.096605
      4          8           0        1.578667   -0.984487   -1.109789
      5          8           0        1.960988    1.362728   -0.360858
      6          1           0        2.143947    1.936937    0.391952
      7          8           0        1.606535   -0.476172    1.431349
      8          8           0       -0.277819    0.348689   -0.168735
      9          1           0       -3.096104    1.325908    0.897529
     10          1           0       -4.024934   -0.821643    0.277453
     11          1           0       -3.162189    0.661241   -1.429660
     12          1           0        2.349601   -1.531488   -0.918746
     13          1           0       -1.190891   -1.494065   -0.529197
     14          1           0       -1.139394   -1.004583    1.173424
 ---------------------------------------------------------------------

 SCF Done:  E(RHF) =  -971.411772110     A.U. after    2 cycles

 The electronic state is 1-A.
 Alpha  occ. eigenvalues --  -81.44877 -69.07346 -20.62227 -20.62116 -20.61225
 Alpha  occ. eigenvalues --  -20.53271 -11.30227  -7.92825  -6.82697  -5.07519
 Alpha  occ. eigenvalues --   -5.07429  -5.07407  -3.93488  -3.93471  -3.93456
 Alpha  occ. eigenvalues --   -1.40091  -1.35672  -1.35101  -1.26700  -0.96418
 Alpha  occ. eigenvalues --   -0.84971  -0.77184  -0.73871  -0.71401  -0.69045
 Alpha  occ. eigenvalues --   -0.66288  -0.65715  -0.61958  -0.60234  -0.57670
 Alpha  occ. eigenvalues --   -0.56807  -0.52654  -0.49675  -0.49475  -0.49015
 Alpha  occ. eigenvalues --   -0.48224  -0.46361
 Alpha virt. eigenvalues --    0.03095   0.04053   0.04545   0.05426   0.05571
 Alpha virt. eigenvalues --    0.07050   0.08350   0.08723   0.09124   0.09517
 Alpha virt. eigenvalues --    0.10994   0.11216   0.12383   0.13551   0.15304

 Mulliken charges:
               1
     1  Si   0.382556
     2  C    0.477751
     3  P    2.426568
     4  O   -0.669109
     5  O   -0.648766
     6  H    0.166753
     7  O   -0.850161
     8  O   -0.952535
     9  H   -0.029942
    10  H   -0.019046
    11  H   -0.026900
    12  H    0.166604
    13  H   -0.219589
    14  H   -0.204186
 Sum of Mulliken charges =  -0.00000

 Dipole moment (field-independent basis, Debye):
    X=             -0.4807    Y=             -0.2835    Z=             -0.7022  Tot=              0.8970

 Test job not archived.
 1\1\GINC-SE095\SP\RHF\Aug-CC-pVDZ\C1H7O4P1Si1\OHZDE\08-Apr-2025\0\\#t
 hf aug-cc-pvdz iop(5/13=1,5/36=2,99/5=2) pseudo=read geom=check guess=
 (read,tcheck) scf=(maxcycle=1)\\title\\0,1\Si,0,-2.986965,0.187515,-0.
 04009\C,0,-1.294568,-0.643963,0.152282\P,0,1.250528,0.010679,0.096605\
 O,0,1.578667,-0.984487,-1.109789\O,0,1.960988,1.362728,-0.360858\H,0,2
 .143947,1.936937,0.391952\O,0,1.606535,-0.476172,1.431349\O,0,-0.27781
 9,0.348689,-0.168735\H,0,-3.096104,1.325908,0.897529\H,0,-4.024934,-0.
 821643,0.277453\H,0,-3.162189,0.661241,-1.42966\H,0,2.349601,-1.531488

 Normal termination of Gaussian 16 at Tue Apr  8 23:53:32 2025.
