 Gaussian 16, Revision C.01,

 ----------------------------------------------------------------------
 #t hf aug-cc-pvdz symm=none int=(grid=ultrafine) guess=(read,tcheck) s
 table=(opt,rrhf)
 ----------------------------------------------------------------------
 -----
 title
 -----
 Symbolic Z-matrix:
 Charge =  0 Multiplicity = 1

 SCF Done:  E(RHF) =  -636.409491840     A.U. after   11 cycles

 1\1\GINC-SE334\Stability\RHF\Aug-CC-pVDZ\H7N1Si2\OHZDE\09-Apr-2025\0\\
 #t hf aug-cc-pvdz symm=none int=(grid=ultrafine) guess=(read,tcheck) s
 table=(opt,rrhf)\\title\\0,1\Si,0,1.549972,-0.186716,0.015683\Si,0,-0.
 675293,0.591496,-0.024984\H,0,1.864736,-0.849814,1.304379\H,0,2.491573
 ,0.944671,-0.176425\H,0,1.78195,-1.167046,-1.076661\N,0,-1.747564,-0.7
 63544,0.060884\H,0,-0.840635,1.471947,-1.218677\H,0,-0.946552,1.433802
 ,1.165488\H,0,-1.64178,-1.535964,-0.581107\H,0,-2.72185,-0.619707,0.28
 7026\\Version=ES64L-G16RevC.01\HF=-636.4094918\RMSD=4.737e-09\Dipole=-

 Normal termination of Gaussian 16 at Wed Apr  9 00:09:30 2025.
 Gaussian 16:  ES64L-G16RevC.01  3-Jul-2019

 ----------------------------------------------------------------------
 #t hf aug-cc-pvdz iop(5/13=1,5/36=2,99/5=2) pseudo=read geom=check gue
 ss=(read,tcheck) scf=(maxcycle=1)
 ----------------------------------------------------------------------
 -----
 title
 -----
 Structure from the checkpoint file:  "BDE49_nonexpt_2374_mol1.chk"
 Charge =  0 Multiplicity = 1

                         Standard orientation:
 ---------------------------------------------------------------------
 Center     Atomic      Atomic             Coordinates (Angstroms)
 Number     Number       Type             X           Y           Z
 ---------------------------------------------------------------------
      1         14           0        1.549972   -0.186716    0.015683
      2         14           0       -0.675293    0.591496   -0.024984
      3          1           0        1.864736   -0.849814    1.304379
      4          1           0        2.491573    0.944670   -0.176425
      5          1           0        1.781950   -1.167046   -1.076661
      6          7           0       -1.747564   -0.763544    0.060884
      7          1           0       -0.840635    1.471947   -1.218677
      8          1           0       -0.946552    1.433802    1.165488
      9          1           0       -1.641780   -1.535964   -0.581107
     10          1           0       -2.721850   -0.619706    0.287026
 ---------------------------------------------------------------------

 SCF Done:  E(RHF) =  -636.475696562     A.U. after    2 cycles

 The electronic state is 1-A.
 Alpha  occ. eigenvalues --  -69.07439 -69.05478 -15.60566  -6.82500  -6.80932
 Alpha  occ. eigenvalues --   -3.93361  -3.93271  -3.93222  -3.91693  -3.91688
 Alpha  occ. eigenvalues --   -3.91649  -1.10255  -0.73206  -0.67044  -0.65327
 Alpha  occ. eigenvalues --   -0.55052  -0.49628  -0.47778  -0.47065  -0.41744
 Alpha  occ. eigenvalues --   -0.37769
 Alpha virt. eigenvalues --    0.03406   0.04181   0.05132   0.05887   0.06983
 Alpha virt. eigenvalues --    0.07500   0.07669   0.08251   0.09254   0.09869
 Alpha virt. eigenvalues --    0.10142   0.10734   0.11199   0.14380   0.15489

 Mulliken charges:
               1
     1  Si  -0.085804
     2  Si   0.714169
     3  H   -0.007099
     4  H   -0.015936
     5  H   -0.007404
     6  N   -0.482191
     7  H   -0.037761
     8  H   -0.028627
     9  H   -0.011223
    10  H   -0.038125
 Sum of Mulliken charges =  -0.00000

 Dipole moment (field-independent basis, Debye):
    X=             -1.2175    Y=             -0.5047    Z=             -0.5664  Tot=              1.4345

 Test job not archived.
 1\1\GINC-SE334\SP\RHF\Aug-CC-pVDZ\H7N1Si2\OHZDE\09-Apr-2025\0\\#t hf a
 ug-cc-pvdz iop(5/13=1,5/36=2,99/5=2) pseudo=read geom=check guess=(rea
 d,tcheck) scf=(maxcycle=1)\\title\\0,1\Si,0,1.549972,-0.186716,0.01568
 3\Si,0,-0.675293,0.591496,-0.024984\H,0,1.864736,-0.849814,1.304379\H,
 0,2.491573,0.944671,-0.176425\H,0,1.78195,-1.167046,-1.076661\N,0,-1.7
 47564,-0.763544,0.060884\H,0,-0.840635,1.471947,-1.218677\H,0,-0.94655
 2,1.433802,1.165488\H,0,-1.64178,-1.535964,-0.581107\H,0,-2.72185,-0.6
 19707,0.287026\\Version=ES64L-G16RevC.01\State=1-A\HF=-636.4756966\RMS

 Normal termination of Gaussian 16 at Wed Apr  9 00:09:33 2025.
