 Gaussian 16, Revision C.01,

 ----------------------------------------------------------------------
 #t hf aug-cc-pvdz symm=none int=(grid=ultrafine) guess=(read,tcheck) s
 table=(opt,rrhf)
 ----------------------------------------------------------------------
 -----
 title
 -----
 Symbolic Z-matrix:
 Charge =  0 Multiplicity = 1

 SCF Done:  E(RHF) =  -866.178401126     A.U. after   12 cycles
 Normal termination of Gaussian 16 at Tue Apr  8 23:44:18 2025.
 Gaussian 16:  ES64L-G16RevC.01  3-Jul-2019

 ----------------------------------------------------------------------
 #t hf aug-cc-pvdz iop(5/13=1,5/36=2,99/5=2) pseudo=read geom=check gue
 ss=(read,tcheck) scf=(maxcycle=1)
 ----------------------------------------------------------------------
 -----
 title
 -----
 Structure from the checkpoint file:  "BDE49_nonexpt_1753_mol1.chk"
 Charge =  0 Multiplicity = 1

                         Standard orientation:
 ---------------------------------------------------------------------
 Center     Atomic      Atomic             Coordinates (Angstroms)
 Number     Number       Type             X           Y           Z
 ---------------------------------------------------------------------
      1          6           0        1.517796   -0.213229   -0.530286
      2         14           0       -0.028560    0.323821    0.347082
      3          6           0       -0.618096    2.013677   -0.182981
      4          6           0        2.636503   -0.547404    0.118239
      5         17           0       -1.562481   -1.045091   -0.082495
      6          1           0       -0.803831    2.044648   -1.259807
      7          1           0        0.137626    2.768008    0.056800
      8          1           0       -1.545909    2.279403    0.329667
      9          1           0        3.542759   -0.844025   -0.402956
     10          1           0        2.694140   -0.542444    1.203364
     11          1           0        1.519249   -0.246660   -1.619277
     12          1           0        0.200754    0.255860    1.805644
 ---------------------------------------------------------------------

 SCF Done:  E(RHF) =  -866.259961377     A.U. after    2 cycles

 The electronic state is 1-A.
 Alpha  occ. eigenvalues -- -103.63859 -69.10541 -11.26426 -11.24100 -11.22831
 Alpha  occ. eigenvalues --  -10.67287  -8.32976  -8.32763  -8.32763  -6.85381
 Alpha  occ. eigenvalues --   -3.96235  -3.96116  -3.96080  -1.12210  -1.04061
 Alpha  occ. eigenvalues --   -0.95175  -0.80017  -0.68894  -0.63157  -0.59073
 Alpha  occ. eigenvalues --   -0.57722  -0.56147  -0.51116  -0.50199  -0.48725
 Alpha  occ. eigenvalues --   -0.44568  -0.43824  -0.39299
 Alpha virt. eigenvalues --    0.03154   0.04401   0.04535   0.05629   0.06295
 Alpha virt. eigenvalues --    0.06839   0.07624   0.08146   0.08720   0.10133
 Alpha virt. eigenvalues --    0.10789   0.12409   0.13917   0.14670   0.15026

 Mulliken charges:
               1
     1  C    0.102472
     2  Si   1.277138
     3  C    0.267726
     4  C    0.603228
     5  Cl  -0.623246
     6  H   -0.168860
     7  H   -0.211872
     8  H   -0.208493
     9  H   -0.243105
    10  H   -0.333734
    11  H   -0.408677
    12  H   -0.052577
 Sum of Mulliken charges =  -0.00000

 Dipole moment (field-independent basis, Debye):
    X=              1.9917    Y=              1.6306    Z=             -0.0455  Tot=              2.5744

 Test job not archived.
 1\1\GINC-SE095\SP\RHF\Aug-CC-pVDZ\C3H7Cl1Si1\OHZDE\08-Apr-2025\0\\#t h
 f aug-cc-pvdz iop(5/13=1,5/36=2,99/5=2) pseudo=read geom=check guess=(
 read,tcheck) scf=(maxcycle=1)\\title\\0,1\C,0,1.517796,-0.213229,-0.53
 0286\Si,0,-0.02856,0.323821,0.347082\C,0,-0.618096,2.013677,-0.182981\
 C,0,2.636503,-0.547404,0.118239\Cl,0,-1.562481,-1.045091,-0.082495\H,0
 ,-0.803831,2.044648,-1.259807\H,0,0.137626,2.768008,0.0568\H,0,-1.5459
 09,2.279403,0.329667\H,0,3.542759,-0.844025,-0.402956\H,0,2.69414,-0.5
 42444,1.203364\H,0,1.519249,-0.24666,-1.619277\H,0,0.200754,0.25586,1.

 Normal termination of Gaussian 16 at Tue Apr  8 23:44:22 2025.
