 Gaussian 16, Revision C.01,

 ----------------------------------------------------------------------
 #t hf aug-cc-pvdz symm=none int=(grid=ultrafine) guess=(read,tcheck) s
 table=(opt,rrhf)
 ----------------------------------------------------------------------
 -----
 title
 -----
 Symbolic Z-matrix:
 Charge =  0 Multiplicity = 1

 SCF Done:  E(RHF) =  -724.702216955     A.U. after   17 cycles

 1\1\GINC-SE453\Stability\RHF\Aug-CC-pVDZ\C10H9P1\OHZDE\08-Apr-2025\0\\
 #t hf aug-cc-pvdz symm=none int=(grid=ultrafine) guess=(read,tcheck) s
 table=(opt,rrhf)\\title\\0,1\C,0,-0.631902,-1.564382,-0.007709\C,0,-1.
 982412,-1.819151,-0.007765\C,0,-2.910696,-0.754881,0.003306\C,0,-2.464
 447,0.54347,0.007346\C,0,-1.077022,0.841276,0.003276\C,0,-0.131426,-0.
 235342,-0.000211\H,0,0.063649,-2.395928,-0.020508\H,0,-2.339165,-2.842
 836,-0.017186\H,0,-3.973695,-0.967583,0.006154\H,0,-3.170965,1.36699,0
 .012925\C,0,1.269582,0.067155,0.012836\C,0,1.673332,1.387435,0.007996\

 Normal termination of Gaussian 16 at Tue Apr  8 23:25:13 2025.
 Gaussian 16:  ES64L-G16RevC.01  3-Jul-2019

 ----------------------------------------------------------------------
 #t hf aug-cc-pvdz iop(5/13=1,5/36=2,99/5=2) pseudo=read geom=check gue
 ss=(read,tcheck) scf=(maxcycle=1)
 ----------------------------------------------------------------------
 -----
 title
 -----
 Structure from the checkpoint file:  "BDE49_nonexpt_1267_mol1.chk"
 Charge =  0 Multiplicity = 1

                         Standard orientation:
 ---------------------------------------------------------------------
 Center     Atomic      Atomic             Coordinates (Angstroms)
 Number     Number       Type             X           Y           Z
 ---------------------------------------------------------------------
      1          6           0       -0.631902   -1.564382   -0.007709
      2          6           0       -1.982412   -1.819151   -0.007765
      3          6           0       -2.910696   -0.754881    0.003306
      4          6           0       -2.464447    0.543470    0.007346
      5          6           0       -1.077022    0.841276    0.003276
      6          6           0       -0.131426   -0.235342   -0.000211
      7          1           0        0.063649   -2.395928   -0.020508
      8          1           0       -2.339165   -2.842836   -0.017186
      9          1           0       -3.973695   -0.967583    0.006154
     10          1           0       -3.170965    1.366990    0.012925
     11          6           0        1.269582    0.067155    0.012836
     12          6           0        1.673332    1.387435    0.007996
     13          6           0       -0.607783    2.180085   -0.000538
     14          6           0        0.737292    2.445595   -0.002819
     15          1           0       -1.331404    2.988316   -0.001236
     16          1           0        1.094271    3.469350   -0.004357
     17          1           0        2.730292    1.628683    0.019360
     18         15           0        2.512866   -1.296256   -0.103459
     19          1           0        2.351650   -1.836741    1.201008
     20          1           0        3.635263   -0.513964    0.261425
 ---------------------------------------------------------------------

 SCF Done:  E(RHF) =  -724.832079443     A.U. after    2 cycles

 The electronic state is 1-A.
 Alpha  occ. eigenvalues --  -81.26139 -11.26132 -11.26035 -11.25829 -11.25324
 Alpha  occ. eigenvalues --  -11.25172 -11.25155 -11.25120 -11.25008 -11.25002
 Alpha  occ. eigenvalues --  -11.24957  -7.76503  -4.90600  -4.90508  -4.90184
 Alpha  occ. eigenvalues --   -1.17095  -1.10777  -1.05112  -1.00931  -0.98516
 Alpha  occ. eigenvalues --   -0.86409  -0.84602  -0.83702  -0.76605  -0.71483
 Alpha  occ. eigenvalues --   -0.69763  -0.68528  -0.62688  -0.61449  -0.59597
 Alpha  occ. eigenvalues --   -0.57590  -0.56456  -0.54578  -0.52262  -0.51276
 Alpha  occ. eigenvalues --   -0.49643  -0.47447  -0.45582  -0.40607  -0.35335
 Alpha  occ. eigenvalues --   -0.32841  -0.29220
 Alpha virt. eigenvalues --    0.03243   0.03635   0.03983   0.05124   0.05286
 Alpha virt. eigenvalues --    0.06225   0.06851   0.07164   0.07723   0.08487
 Alpha virt. eigenvalues --    0.09077   0.09991   0.10108   0.10698   0.11905

 Mulliken charges:
               1
     1  C    0.314243
     2  C    0.569234
     3  C    0.434870
     4  C    0.745336
     5  C   -0.071838
     6  C    0.672852
     7  H   -0.696970
     8  H   -0.450948
     9  H   -0.447844
    10  H   -0.581087
    11  C   -0.640561
    12  C    0.797190
    13  C    0.594444
    14  C    0.318717
    15  H   -0.577132
    16  H   -0.456839
    17  H   -0.590722
    18  P   -0.222035
    19  H    0.201607
    20  H    0.087482
 Sum of Mulliken charges =   0.00000

 Dipole moment (field-independent basis, Debye):
    X=             -0.5411    Y=              0.7541    Z=              0.5027  Tot=              1.0555

 Test job not archived.
 1\1\GINC-SE453\SP\RHF\Aug-CC-pVDZ\C10H9P1\OHZDE\08-Apr-2025\0\\#t hf a
 ug-cc-pvdz iop(5/13=1,5/36=2,99/5=2) pseudo=read geom=check guess=(rea
 d,tcheck) scf=(maxcycle=1)\\title\\0,1\C,0,-0.631902,-1.564382,-0.0077
 09\C,0,-1.982412,-1.819151,-0.007765\C,0,-2.910696,-0.754881,0.003306\
 C,0,-2.464447,0.54347,0.007346\C,0,-1.077022,0.841276,0.003276\C,0,-0.
 131426,-0.235342,-0.000211\H,0,0.063649,-2.395928,-0.020508\H,0,-2.339
 165,-2.842836,-0.017186\H,0,-3.973695,-0.967583,0.006154\H,0,-3.170965
 ,1.36699,0.012925\C,0,1.269582,0.067155,0.012836\C,0,1.673332,1.387435

 Normal termination of Gaussian 16 at Tue Apr  8 23:25:27 2025.
