 Gaussian 16, Revision C.01,

 ----------------------------------------------------------------------
 #t hf aug-cc-pvdz symm=none int=(grid=ultrafine) guess=(read,tcheck) s
 table=(opt,rrhf)
 ----------------------------------------------------------------------
 -----
 title
 -----
 Symbolic Z-matrix:
 Charge =  0 Multiplicity = 1

 SCF Done:  E(RHF) =  -593.569188022     A.U. after   16 cycles
 Normal termination of Gaussian 16 at Wed Apr  9 00:40:40 2025.
 Gaussian 16:  ES64L-G16RevC.01  3-Jul-2019

 ----------------------------------------------------------------------
 #t hf aug-cc-pvdz iop(5/13=1,5/36=2,99/5=2) pseudo=read geom=check gue
 ss=(read,tcheck) scf=(maxcycle=1)
 ----------------------------------------------------------------------
 -----
 title
 -----
 Structure from the checkpoint file:  "BDE49_nonexpt_660_mol1.chk"
 Charge =  0 Multiplicity = 1

                         Standard orientation:
 ---------------------------------------------------------------------
 Center     Atomic      Atomic             Coordinates (Angstroms)
 Number     Number       Type             X           Y           Z
 ---------------------------------------------------------------------
      1          6           0       -3.633863    0.498672    0.000014
      2          6           0       -2.665425    1.501532   -0.000005
      3          6           0       -1.315186    1.167500   -0.000019
      4          6           0       -3.253770   -0.843838    0.000019
      5          6           0       -1.906845   -1.183282    0.000005
      6          6           0       -0.931805   -0.178616   -0.000015
      7          1           0       -4.685503    0.762784    0.000025
      8          1           0       -2.962899    2.543706   -0.000009
      9          1           0       -0.554370    1.936426   -0.000034
     10          1           0       -4.007866   -1.622255    0.000034
     11          1           0       -1.588616   -2.218177    0.000008
     12          6           0        0.495914   -0.585380   -0.000032
     13          8           0        1.347857    0.461229   -0.000014
     14          5           0        2.755466    0.327369    0.000005
     15          8           0        3.417483    1.511733    0.000030
     16          8           0        0.862694   -1.745528    0.000000
     17          1           0        4.370262    1.379622    0.000043
     18          8           0        3.393435   -0.863580    0.000000
     19          1           0        2.745793   -1.589314   -0.000026
 ---------------------------------------------------------------------

 SCF Done:  E(RHF) =  -593.759621919     A.U. after    2 cycles

 The electronic state is 1-A.
 Alpha  occ. eigenvalues --  -20.62043 -20.58805 -20.58028 -20.57970 -11.42215
 Alpha  occ. eigenvalues --  -11.27087 -11.27083 -11.26963 -11.26826 -11.26079
 Alpha  occ. eigenvalues --  -11.26065  -7.70642  -1.43424  -1.35463  -1.33080
 Alpha  occ. eigenvalues --   -1.31691  -1.16648  -1.05095  -1.03094  -0.92130
 Alpha  occ. eigenvalues --   -0.85565  -0.83534  -0.78261  -0.75991  -0.73057
 Alpha  occ. eigenvalues --   -0.72056  -0.69218  -0.67518  -0.65914  -0.64359
 Alpha  occ. eigenvalues --   -0.62309  -0.61259  -0.59531  -0.59185  -0.56166
 Alpha  occ. eigenvalues --   -0.53957  -0.53039  -0.52784  -0.51578  -0.51207
 Alpha  occ. eigenvalues --   -0.48917  -0.36477  -0.35821
 Alpha virt. eigenvalues --    0.02864   0.03869   0.03992   0.05085   0.05471
 Alpha virt. eigenvalues --    0.05917   0.06243   0.06811   0.07509   0.08316
 Alpha virt. eigenvalues --    0.09565   0.09584   0.10355   0.10465   0.11986

 Mulliken charges:
               1
     1  C    0.610827
     2  C    0.487820
     3  C    0.282658
     4  C    0.440891
     5  C    0.169108
     6  C    1.252556
     7  H   -0.435129
     8  H   -0.445520
     9  H   -0.615334
    10  H   -0.431080
    11  H   -0.607546
    12  C    0.206538
    13  O   -0.755066
    14  B    0.742350
    15  O   -0.418691
    16  O   -0.510135
    17  H    0.216317
    18  O   -0.535095
    19  H    0.344533
 Sum of Mulliken charges =  -0.00000

 Dipole moment (field-independent basis, Debye):
    X=             -2.3807    Y=              0.9713    Z=             -0.0001  Tot=              2.5712

 Test job not archived.
 1\1\GINC-SE250\SP\RHF\Aug-CC-pVDZ\C7H7B1O4\OHZDE\09-Apr-2025\0\\#t hf
 aug-cc-pvdz iop(5/13=1,5/36=2,99/5=2) pseudo=read geom=check guess=(re
 ad,tcheck) scf=(maxcycle=1)\\title\\0,1\C,0,-3.633863,0.498672,0.00001
 4\C,0,-2.665425,1.501532,-0.000005\C,0,-1.315186,1.1675,-0.000019\C,0,
 -3.25377,-0.843838,0.000019\C,0,-1.906845,-1.183282,0.000005\C,0,-0.93
 1805,-0.178616,-0.000015\H,0,-4.685503,0.762784,0.000025\H,0,-2.962899
 ,2.543706,-0.000009\H,0,-0.55437,1.936426,-0.000034\H,0,-4.007866,-1.6
 22255,0.000034\H,0,-1.588616,-2.218177,0.000008\C,0,0.495914,-0.58538,

 Normal termination of Gaussian 16 at Wed Apr  9 00:40:52 2025.
