 Gaussian 16, Revision C.01,

 ----------------------------------------------------------------------
 #t hf aug-cc-pvdz symm=none int=(grid=ultrafine) guess=(read,tcheck) s
 table=(opt,rrhf)
 ----------------------------------------------------------------------
 -----
 title
 -----
 Symbolic Z-matrix:
 Charge =  0 Multiplicity = 1

 SCF Done:  E(RHF) =  -623.355535476     A.U. after   14 cycles
 Normal termination of Gaussian 16 at Wed Apr  9 00:28:13 2025.
 Gaussian 16:  ES64L-G16RevC.01  3-Jul-2019

 ----------------------------------------------------------------------
 #t hf aug-cc-pvdz iop(5/13=1,5/36=2,99/5=2) pseudo=read geom=check gue
 ss=(read,tcheck) scf=(maxcycle=1)
 ----------------------------------------------------------------------
 -----
 title
 -----
 Structure from the checkpoint file:  "BDE49_nonexpt_34_mol1.chk"
 Charge =  0 Multiplicity = 1

                         Standard orientation:
 ---------------------------------------------------------------------
 Center     Atomic      Atomic             Coordinates (Angstroms)
 Number     Number       Type             X           Y           Z
 ---------------------------------------------------------------------
      1          5           0        0.061121    0.416260    0.171824
      2          5           0       -0.317464    1.979276   -0.152747
      3          6           0       -1.225001   -0.378668    0.089356
      4          8           0       -2.210258   -0.909445   -0.093841
      5         17           0        1.602615   -0.511717   -0.040001
      6          1           0       -1.439877    2.364094   -0.041998
      7          1           0        0.569928    2.748011   -0.344218
      8          1           0       -0.060721    1.156971    1.185440
 ---------------------------------------------------------------------

 SCF Done:  E(RHF) =  -623.425169937     A.U. after    2 cycles

 The electronic state is 1-A.
 Alpha  occ. eigenvalues -- -103.64793 -20.73781 -11.46401 -10.68136  -8.33843
 Alpha  occ. eigenvalues --   -8.33618  -8.33598  -7.65337  -7.61968  -1.54000
 Alpha  occ. eigenvalues --   -1.13499  -0.92841  -0.83072  -0.73113  -0.72076
 Alpha  occ. eigenvalues --   -0.69976  -0.59248  -0.55294  -0.50115  -0.48994
 Alpha  occ. eigenvalues --   -0.46406  -0.37567
 Alpha virt. eigenvalues --    0.03349   0.03878   0.04305   0.04714   0.05325
 Alpha virt. eigenvalues --    0.06265   0.07216   0.07311   0.08004   0.09661
 Alpha virt. eigenvalues --    0.11358   0.12418   0.12745   0.13304   0.15045

 Mulliken charges:
               1
     1  B    0.271051
     2  B   -0.383470
     3  C    0.235298
     4  O   -0.165624
     5  Cl  -0.508788
     6  H    0.194496
     7  H    0.296979
     8  H    0.060058
 Sum of Mulliken charges =   0.00000

 Dipole moment (field-independent basis, Debye):
    X=             -2.0873    Y=             -0.1313    Z=              0.5658  Tot=              2.1666

 Test job not archived.
 1\1\GINC-SE166\SP\RHF\Aug-CC-pVDZ\C1H3B2Cl1O1\OHZDE\09-Apr-2025\0\\#t
 hf aug-cc-pvdz iop(5/13=1,5/36=2,99/5=2) pseudo=read geom=check guess=
 (read,tcheck) scf=(maxcycle=1)\\title\\0,1\B,0,0.061121,0.41626,0.1718
 24\B,0,-0.317464,1.979276,-0.152747\C,0,-1.225001,-0.378668,0.089356\O
 ,0,-2.210258,-0.909445,-0.093841\Cl,0,1.602615,-0.511717,-0.040001\H,0
 ,-1.439877,2.364094,-0.041998\H,0,0.569928,2.748011,-0.344218\H,0,-0.0
 60721,1.156971,1.18544\\Version=ES64L-G16RevC.01\State=1-A\HF=-623.425
 1699\RMSD=4.031e-03\Dipole=-0.8212185,-0.0516578,0.2226176\Quadrupole=

 Normal termination of Gaussian 16 at Wed Apr  9 00:28:16 2025.
