 Gaussian 16, Revision C.01,

 ----------------------------------------------------------------------
 #t hf aug-cc-pvdz symm=none int=(grid=ultrafine) guess=(read,tcheck) s
 table=opt
 ----------------------------------------------------------------------
 -----
 title
 -----
 Symbolic Z-matrix:
 Charge =  0 Multiplicity = 2

 SCF Done:  E(UHF) =  -912.703220783     A.U. after   17 cycles
 Normal termination of Gaussian 16 at Tue Apr  8 23:51:25 2025.
 Gaussian 16:  ES64L-G16RevC.01  3-Jul-2019

 ----------------------------------------------------------------------
 #t hf aug-cc-pvdz iop(5/13=1,5/36=2,99/5=2) pseudo=read geom=check gue
 ss=(read,tcheck) scf=(maxcycle=1)
 ----------------------------------------------------------------------
 -----
 title
 -----
 Structure from the checkpoint file:  "BDE49_nonexpt_1933_mol2.chk"
 Charge =  0 Multiplicity = 2

                         Standard orientation:
 ---------------------------------------------------------------------
 Center     Atomic      Atomic             Coordinates (Angstroms)
 Number     Number       Type             X           Y           Z
 ---------------------------------------------------------------------
      1         14           0        1.783174   -0.053884   -0.116876
      2         16           0       -0.433644    0.145019    0.066063
      3          1           0        2.337864    1.137960    0.565320
      4          1           0        2.161157   -1.321929    0.551448
      5          8           0       -0.867740   -0.124002    1.424094
      6          8           0       -0.914634   -1.152712   -0.826278
      7          8           0       -0.863281    1.324670   -0.637316
      8          1           0       -1.359904   -1.765609   -0.221516
 ---------------------------------------------------------------------

 SCF Done:  E(UHF) =  -912.871953165     A.U. after    2 cycles

 The electronic state is 2-A.
 Alpha  occ. eigenvalues --  -93.81874 -69.14429 -20.64502 -20.58284 -20.57860
 Alpha  occ. eigenvalues --   -9.08237  -6.89664  -6.42845  -6.42751  -6.42457
 Alpha  occ. eigenvalues --   -4.00929  -4.00111  -3.99991  -1.46810  -1.35475
 Alpha  occ. eigenvalues --   -1.33024  -0.92034  -0.79062  -0.75000  -0.70399
 Alpha  occ. eigenvalues --   -0.67975  -0.65415  -0.59625  -0.55575  -0.54495
 Alpha  occ. eigenvalues --   -0.53124  -0.51566  -0.47216  -0.39008
 Alpha virt. eigenvalues --    0.02572   0.03989   0.05524   0.05933   0.06316
 Alpha virt. eigenvalues --    0.07780   0.09571   0.11404   0.12169   0.12761
 Alpha virt. eigenvalues --    0.13754   0.15418   0.15963   0.17085   0.18138

  Beta  occ. eigenvalues --  -93.81863 -69.13811 -20.64523 -20.58068 -20.57865
  Beta  occ. eigenvalues --   -9.08221  -6.88711  -6.42852  -6.42751  -6.42408
  Beta  occ. eigenvalues --   -3.99679  -3.99571  -3.98673  -1.46687  -1.35480
  Beta  occ. eigenvalues --   -1.32680  -0.91471  -0.77548  -0.74366  -0.70269
  Beta  occ. eigenvalues --   -0.65883  -0.64928  -0.59306  -0.55028  -0.53939
  Beta  occ. eigenvalues --   -0.52290  -0.51195  -0.46022
  Beta virt. eigenvalues --   -0.00873   0.02903   0.04182   0.05747   0.06489
  Beta virt. eigenvalues --    0.07395   0.08301   0.10249   0.11920   0.12755
  Beta virt. eigenvalues --    0.13828   0.14887   0.16664   0.16871   0.18428

 Mulliken charges and spin densities:
               1          2
     1  Si   0.562621   0.927437
     2  S    1.994445  -0.011755
     3  H   -0.064241   0.031715
     4  H   -0.037891   0.038808
     5  O   -0.981147   0.024805
     6  O   -0.718997  -0.009683
     7  O   -0.932958  -0.002417
     8  H    0.178168   0.001089
 Sum of Mulliken charges =  -0.00000   1.00000

 Dipole moment (field-independent basis, Debye):
    X=              3.8434    Y=             -2.7458    Z=             -0.3688  Tot=              4.7379
                          Isotropic Fermi Contact Couplings
        Atom                 a.u.       MegaHertz       Gauss      10(-4) cm-1
     1  Si(29)             0.67441    -599.36961    -213.86998    -199.92818
     2  S(33)              0.02900       9.96232       3.55480       3.32307
     3  H(1)               0.00648      28.96161      10.33422       9.66055
     4  H(1)               0.00881      39.40041      14.05905      13.14256
     5  O(17)              0.02401     -14.55208      -5.19254      -4.85405
     6  O(17)             -0.00733       4.44311       1.58541       1.48206
     7  O(17)             -0.00180       1.09304       0.39002       0.36460
     8  H(1)              -0.00005      -0.23364      -0.08337      -0.07793

 Normal termination of Gaussian 16 at Tue Apr  8 23:51:28 2025.
