 Gaussian 16, Revision C.01,

 ----------------------------------------------------------------------
 #t hf aug-cc-pvdz symm=none int=(grid=ultrafine) guess=(read,tcheck) s
 table=(opt,rrhf)
 ----------------------------------------------------------------------
 -----
 title
 -----
 Symbolic Z-matrix:
 Charge =  0 Multiplicity = 1

 SCF Done:  E(RHF) =  -835.796256574     A.U. after   16 cycles
 Normal termination of Gaussian 16 at Tue Apr  8 23:29:10 2025.
 Gaussian 16:  ES64L-G16RevC.01  3-Jul-2019

 ----------------------------------------------------------------------
 #t hf aug-cc-pvdz iop(5/13=1,5/36=2,99/5=2) pseudo=read geom=check gue
 ss=(read,tcheck) scf=(maxcycle=1)
 ----------------------------------------------------------------------
 -----
 title
 -----
 Structure from the checkpoint file:  "BDE49_nonexpt_1327_mol1.chk"
 Charge =  0 Multiplicity = 1

                         Standard orientation:
 ---------------------------------------------------------------------
 Center     Atomic      Atomic             Coordinates (Angstroms)
 Number     Number       Type             X           Y           Z
 ---------------------------------------------------------------------
      1          6           0       -2.358800   -1.531942   -0.011774
      2          6           0       -0.969370   -1.466022   -0.026916
      3          6           0       -3.095172   -0.352723    0.014898
      4          6           0       -2.443756    0.878897    0.025848
      5          6           0       -1.049937    0.974576    0.010974
      6          6           0       -0.311884   -0.229395   -0.016795
      7          1           0       -2.857022   -2.494212   -0.020999
      8          1           0       -0.372328   -2.369453   -0.048402
      9         15           0        1.484006   -0.321028   -0.015239
     10          8           0        2.032670   -1.683995    0.031725
     11          8           0        2.019936    0.603911    1.203439
     12          1           0       -3.029682    1.791680    0.046807
     13          1           0       -4.179071   -0.386516    0.027472
     14          6           0       -0.395146    2.334507    0.017953
     15          1           0       -1.146775    3.121748    0.092569
     16          1           0        0.183606    2.494111   -0.894882
     17          1           0        0.297986    2.435364    0.856049
     18          1           0        2.294199    0.051896    1.945785
     19          8           0        1.880794    0.577541   -1.283185
     20          1           0        2.826196    0.543768   -1.476787
 ---------------------------------------------------------------------

 SCF Done:  E(RHF) =  -836.010969209     A.U. after    2 cycles

 The electronic state is 1-A.
 Alpha  occ. eigenvalues --  -81.41451 -20.61447 -20.61102 -20.52144 -11.27456
 Alpha  occ. eigenvalues --  -11.26180 -11.26134 -11.25637 -11.24973 -11.24951
 Alpha  occ. eigenvalues --  -11.23692  -7.89807  -5.04485  -5.04346  -5.04176
 Alpha  occ. eigenvalues --   -1.37698  -1.34293  -1.25629  -1.15861  -1.05167
 Alpha  occ. eigenvalues --   -1.02657  -0.94238  -0.87135  -0.82319  -0.80963
 Alpha  occ. eigenvalues --   -0.75806  -0.71146  -0.68428  -0.66116  -0.65389
 Alpha  occ. eigenvalues --   -0.63805  -0.62009  -0.59295  -0.58655  -0.57968
 Alpha  occ. eigenvalues --   -0.57135  -0.55441  -0.54738  -0.50534  -0.50415
 Alpha  occ. eigenvalues --   -0.50030  -0.48506  -0.46929  -0.35880  -0.34142
 Alpha virt. eigenvalues --    0.03015   0.03674   0.04194   0.05000   0.05334
 Alpha virt. eigenvalues --    0.06221   0.07097   0.07737   0.08254   0.08304
 Alpha virt. eigenvalues --    0.09483   0.10121   0.10704   0.11518   0.12414

 Mulliken charges:
               1
     1  C    0.524621
     2  C    0.168633
     3  C    0.377511
     4  C    1.120855
     5  C   -1.006086
     6  C    0.168490
     7  H   -0.448812
     8  H   -0.685589
     9  P    2.286784
    10  O   -0.895193
    11  O   -0.732732
    12  H   -0.591841
    13  H   -0.443820
    14  C    0.670709
    15  H   -0.265616
    16  H    0.116775
    17  H    0.094338
    18  H    0.144982
    19  O   -0.775095
    20  H    0.171088
 Sum of Mulliken charges =  -0.00000

 Dipole moment (field-independent basis, Debye):
    X=             -1.3061    Y=              2.1939    Z=              0.7054  Tot=              2.6489

 Test job not archived.
 1\1\GINC-SE099\SP\RHF\Aug-CC-pVDZ\C7H9O3P1\OHZDE\08-Apr-2025\0\\#t hf
 aug-cc-pvdz iop(5/13=1,5/36=2,99/5=2) pseudo=read geom=check guess=(re
 ad,tcheck) scf=(maxcycle=1)\\title\\0,1\C,0,-2.3588,-1.531942,-0.01177
 4\C,0,-0.96937,-1.466022,-0.026916\C,0,-3.095172,-0.352723,0.014898\C,
 0,-2.443756,0.878897,0.025848\C,0,-1.049937,0.974576,0.010974\C,0,-0.3
 11884,-0.229395,-0.016795\H,0,-2.857022,-2.494212,-0.020999\H,0,-0.372
 328,-2.369453,-0.048402\P,0,1.484006,-0.321028,-0.015239\O,0,2.03267,-
 1.683995,0.031725\O,0,2.019936,0.603911,1.203439\H,0,-3.029682,1.79168

 Normal termination of Gaussian 16 at Tue Apr  8 23:29:25 2025.
