 Gaussian 16, Revision C.01,

 ----------------------------------------------------------------------
 #t hf aug-cc-pvdz symm=none int=(grid=ultrafine) guess=(read,tcheck) s
 table=(opt,rrhf)
 ----------------------------------------------------------------------
 -----
 title
 -----
 Symbolic Z-matrix:
 Charge =  0 Multiplicity = 1

 SCF Done:  E(RHF) =  -793.886213721     A.U. after   14 cycles
 Normal termination of Gaussian 16 at Tue Apr  8 23:38:36 2025.
 Gaussian 16:  ES64L-G16RevC.01  3-Jul-2019

 ----------------------------------------------------------------------
 #t hf aug-cc-pvdz iop(5/13=1,5/36=2,99/5=2) pseudo=read geom=check gue
 ss=(read,tcheck) scf=(maxcycle=1)
 ----------------------------------------------------------------------
 -----
 title
 -----
 Structure from the checkpoint file:  "BDE49_nonexpt_1606_mol1.chk"
 Charge =  0 Multiplicity = 1

                         Standard orientation:
 ---------------------------------------------------------------------
 Center     Atomic      Atomic             Coordinates (Angstroms)
 Number     Number       Type             X           Y           Z
 ---------------------------------------------------------------------
      1          6           0        2.833997   -0.813688   -0.031415
      2          6           0        1.622019    0.067351   -0.014205
      3          1           0        2.806353   -1.464594   -0.907424
      4          1           0        2.823029   -1.455044    0.853183
      5          1           0        3.732120   -0.200554   -0.037595
      6          8           0        0.474315   -0.661101   -0.111810
      7          8           0        1.631449    1.272677    0.072797
      8         15           0       -1.047822   -0.032921    0.115608
      9          8           0       -1.486929   -0.167990    1.498765
     10          8           0       -1.871046   -0.857690   -0.957338
     11          1           0       -2.470892   -1.484181   -0.535522
     12          8           0       -0.971781    1.384500   -0.562935
     13          1           0       -0.117434    1.813044   -0.348869
 ---------------------------------------------------------------------

 SCF Done:  E(RHF) =  -794.108747253     A.U. after    2 cycles

 The electronic state is 1-A.
 Alpha  occ. eigenvalues --  -81.46725 -20.64921 -20.63451 -20.62082 -20.60604
 Alpha  occ. eigenvalues --  -20.54114 -11.44539 -11.27873  -7.94583  -5.09238
 Alpha  occ. eigenvalues --   -5.09194  -5.09160  -1.45961  -1.39964  -1.36472
 Alpha  occ. eigenvalues --   -1.35995  -1.27841  -1.05124  -0.90667  -0.84368
 Alpha  occ. eigenvalues --   -0.76188  -0.74718  -0.74151  -0.70489  -0.68771
 Alpha  occ. eigenvalues --   -0.66546  -0.62520  -0.61586  -0.60628  -0.59783
 Alpha  occ. eigenvalues --   -0.58354  -0.56727  -0.54610  -0.51209  -0.50449
 Alpha  occ. eigenvalues --   -0.50073
 Alpha virt. eigenvalues --    0.02784   0.04154   0.05292   0.05388   0.06309
 Alpha virt. eigenvalues --    0.08433   0.09771   0.10338   0.11619   0.12106
 Alpha virt. eigenvalues --    0.13153   0.13735   0.14336   0.15144   0.16126

 Mulliken charges:
               1
     1  C    0.310965
     2  C    0.323124
     3  H    0.040205
     4  H    0.068699
     5  H   -0.015541
     6  O   -0.935291
     7  O   -0.482438
     8  P    2.377557
     9  O   -0.807544
    10  O   -0.609761
    11  H    0.160913
    12  O   -0.681887
    13  H    0.251000
 Sum of Mulliken charges =  -0.00000

 Dipole moment (field-independent basis, Debye):
    X=              2.7087    Y=             -2.7177    Z=             -1.8870  Tot=              4.2759

 Test job not archived.
 1\1\GINC-SE454\SP\RHF\Aug-CC-pVDZ\C2H5O5P1\OHZDE\08-Apr-2025\0\\#t hf
 aug-cc-pvdz iop(5/13=1,5/36=2,99/5=2) pseudo=read geom=check guess=(re
 ad,tcheck) scf=(maxcycle=1)\\title\\0,1\C,0,2.833997,-0.813688,-0.0314
 15\C,0,1.622019,0.067351,-0.014205\H,0,2.806353,-1.464594,-0.907424\H,
 0,2.823029,-1.455044,0.853183\H,0,3.73212,-0.200554,-0.037595\O,0,0.47
 4315,-0.661101,-0.11181\O,0,1.631449,1.272677,0.072797\P,0,-1.047822,-
 0.032921,0.115608\O,0,-1.486929,-0.16799,1.498765\O,0,-1.871046,-0.857
 69,-0.957338\H,0,-2.470892,-1.484181,-0.535522\O,0,-0.971781,1.3845,-0

 Normal termination of Gaussian 16 at Tue Apr  8 23:38:41 2025.
