 Gaussian 16, Revision C.01,

 ----------------------------------------------------------------------
 #t hf aug-cc-pvdz symm=none int=(grid=ultrafine) guess=(read,tcheck) s
 table=(opt,rrhf)
 ----------------------------------------------------------------------
 -----
 title
 -----
 Symbolic Z-matrix:
 Charge =  0 Multiplicity = 1

 SCF Done:  E(RHF) =  -815.564955800     A.U. after   17 cycles
 Normal termination of Gaussian 16 at Tue Apr  8 23:35:38 2025.
 Gaussian 16:  ES64L-G16RevC.01  3-Jul-2019

 ----------------------------------------------------------------------
 #t hf aug-cc-pvdz iop(5/13=1,5/36=2,99/5=2) pseudo=read geom=check gue
 ss=(read,tcheck) scf=(maxcycle=1)
 ----------------------------------------------------------------------
 -----
 title
 -----
 Structure from the checkpoint file:  "BDE49_nonexpt_1478_mol1.chk"
 Charge =  0 Multiplicity = 1

                         Standard orientation:
 ---------------------------------------------------------------------
 Center     Atomic      Atomic             Coordinates (Angstroms)
 Number     Number       Type             X           Y           Z
 ---------------------------------------------------------------------
      1          6           0       -1.984406    1.203134    0.401227
      2          6           0       -0.635369    1.446830    0.185368
      3          6           0       -2.533268   -0.042062    0.064013
      4          6           0       -1.712744   -1.031517   -0.494761
      5          6           0       -0.366831   -0.776608   -0.720243
      6          6           0        0.191643    0.462277   -0.373878
      7          1           0       -0.224481    2.411347    0.461222
      8          1           0       -2.616003    1.967712    0.836335
      9          1           0       -2.135544   -1.994359   -0.753443
     10          1           0        0.256649   -1.551892   -1.145205
     11         15           0        1.949486    0.813455   -0.760547
     12          6           0        2.835795   -0.528975    0.246419
     13          8           0        2.437415   -1.666534    0.234069
     14          6           0        4.109867   -0.108227    0.949932
     15          1           0        3.851739    0.424177    1.870854
     16          1           0        4.697623    0.573520    0.329130
     17          1           0        4.696253   -0.993309    1.198832
     18          6           0       -3.922101   -0.299232    0.289164
     19          7           0       -5.044148   -0.505165    0.471651
     20          1           0        2.145670    1.875700    0.152930
 ---------------------------------------------------------------------

 SCF Done:  E(RHF) =  -815.724770192     A.U. after    2 cycles

 The electronic state is 1-A.
 Alpha  occ. eigenvalues --  -81.29018 -20.59064 -15.64353 -11.37146 -11.30213
 Alpha  occ. eigenvalues --  -11.29248 -11.28979 -11.28433 -11.28229 -11.27834
 Alpha  occ. eigenvalues --  -11.27254 -11.26715  -7.79463  -4.93569  -4.93472
 Alpha  occ. eigenvalues --   -4.93126  -1.38186  -1.20367  -1.17290  -1.06344
 Alpha  occ. eigenvalues --   -1.04525  -1.02901  -0.90896  -0.86596  -0.83898
 Alpha  occ. eigenvalues --   -0.77347  -0.74860  -0.68428  -0.67723  -0.65701
 Alpha  occ. eigenvalues --   -0.64479  -0.62892  -0.62419  -0.61315  -0.57322
 Alpha  occ. eigenvalues --   -0.56154  -0.54991  -0.54037  -0.53681  -0.51619
 Alpha  occ. eigenvalues --   -0.48711  -0.46845  -0.43384  -0.40159  -0.37183
 Alpha  occ. eigenvalues --   -0.33700
 Alpha virt. eigenvalues --    0.02307   0.03518   0.04126   0.04479   0.05101
 Alpha virt. eigenvalues --    0.05520   0.05933   0.06500   0.07558   0.08177
 Alpha virt. eigenvalues --    0.08336   0.08832   0.09531   0.09981   0.10508

 Mulliken charges:
               1
     1  C    0.205543
     2  C    0.965377
     3  C    2.150070
     4  C    0.226709
     5  C    0.618537
     6  C   -0.628435
     7  H   -0.592614
     8  H   -0.574553
     9  H   -0.578556
    10  H   -0.537455
    11  P    0.195077
    12  C   -0.082600
    13  O   -0.517994
    14  C    0.296782
    15  H    0.046973
    16  H    0.026146
    17  H   -0.064906
    18  C   -1.204026
    19  N   -0.099709
    20  H    0.149633
 Sum of Mulliken charges =  -0.00000

 Dipole moment (field-independent basis, Debye):
    X=              5.5829    Y=              3.3103    Z=              0.2434  Tot=              6.4951

 Test job not archived.
 1\1\GINC-SE333\SP\RHF\Aug-CC-pVDZ\C9H8N1O1P1\OHZDE\08-Apr-2025\0\\#t h
 f aug-cc-pvdz iop(5/13=1,5/36=2,99/5=2) pseudo=read geom=check guess=(
 read,tcheck) scf=(maxcycle=1)\\title\\0,1\C,0,-1.984406,1.203134,0.401
 227\C,0,-0.635369,1.44683,0.185368\C,0,-2.533268,-0.042062,0.064013\C,
 0,-1.712744,-1.031517,-0.494761\C,0,-0.366831,-0.776608,-0.720243\C,0,
 0.191643,0.462277,-0.373878\H,0,-0.224481,2.411347,0.461222\H,0,-2.616
 003,1.967712,0.836335\H,0,-2.135544,-1.994359,-0.753443\H,0,0.256649,-
 1.551892,-1.145205\P,0,1.949486,0.813455,-0.760547\C,0,2.835795,-0.528

 Normal termination of Gaussian 16 at Tue Apr  8 23:35:51 2025.
