 Gaussian 16, Revision C.01,

 ----------------------------------------------------------------------
 #t hf aug-cc-pvdz symm=none int=(grid=ultrafine) guess=(read,tcheck) s
 table=opt
 ----------------------------------------------------------------------
 -----
 title
 -----
 Symbolic Z-matrix:
 Charge =  0 Multiplicity = 2

 SCF Done:  E(UHF) =  -736.470358592     a.u. after    9 cycles
 Normal termination of Gaussian 16 at Tue Apr  8 23:17:39 2025.
 Gaussian 16:  ES64L-G16RevC.01  3-Jul-2019

 ----------------------------------------------------------------------
 #t hf aug-cc-pvdz iop(5/13=1,5/36=2,99/5=2) pseudo=read geom=check gue
 ss=(read,tcheck) scf=(maxcycle=1)
 ----------------------------------------------------------------------
 -----
 title
 -----
 Structure from the checkpoint file:  "BDE49_nonexpt_1063_mol2.chk"
 Charge =  0 Multiplicity = 2

                         Standard orientation:
 ---------------------------------------------------------------------
 Center     Atomic      Atomic             Coordinates (Angstroms)
 Number     Number       Type             X           Y           Z
 ---------------------------------------------------------------------
      1          8           0       -1.484910    1.035794   -0.000004
      2         16           0       -0.481446    0.021425    0.000000
      3          8           0       -0.475336   -0.916023   -1.147426
      4          8           0        0.900398    0.801579   -0.000006
      5          6           0        2.122049    0.012554   -0.000003
      6          1           0        2.923265    0.746791   -0.000009
      7          1           0        2.164515   -0.603821   -0.897961
      8          1           0        2.164518   -0.603809    0.897964
      9          8           0       -0.475334   -0.916010    1.147437
 ---------------------------------------------------------------------

 SCF Done:  E(UHF) =  -736.677655064     A.U. after    2 cycles

 The electronic state is 2-A.
 Alpha  occ. eigenvalues --  -93.89048 -20.75239 -20.66815 -20.62048 -20.60404
 Alpha  occ. eigenvalues --  -11.33981  -9.14751  -6.49506  -6.49369  -6.49301
 Alpha  occ. eigenvalues --   -1.58468  -1.44265  -1.38566  -1.35718  -1.01864
 Alpha  occ. eigenvalues --   -0.90401  -0.83062  -0.81259  -0.77808  -0.72049
 Alpha  occ. eigenvalues --   -0.70631  -0.67696  -0.65613  -0.61207  -0.59843
 Alpha  occ. eigenvalues --   -0.56816  -0.55982  -0.54858  -0.53456
 Alpha virt. eigenvalues --    0.02783   0.04908   0.05581   0.07517   0.10281
 Alpha virt. eigenvalues --    0.10742   0.11114   0.13073   0.14740   0.15364
 Alpha virt. eigenvalues --    0.17125   0.19949   0.20723   0.21754   0.23039

  Beta  occ. eigenvalues --  -93.89154 -20.71491 -20.66846 -20.60730 -20.60255
  Beta  occ. eigenvalues --  -11.33983  -9.14896  -6.49727  -6.49526  -6.49450
  Beta  occ. eigenvalues --   -1.53829  -1.39440  -1.36264  -1.31744  -1.01629
  Beta  occ. eigenvalues --   -0.87284  -0.80116  -0.76365  -0.73249  -0.69763
  Beta  occ. eigenvalues --   -0.66773  -0.64432  -0.59437  -0.56716  -0.56001
  Beta  occ. eigenvalues --   -0.55172  -0.52475  -0.51386
  Beta virt. eigenvalues --   -0.06192   0.02794   0.04936   0.05636   0.07634
  Beta virt. eigenvalues --    0.10355   0.11114   0.11244   0.13083   0.14766
  Beta virt. eigenvalues --    0.15461   0.17208   0.20177   0.20850   0.22352

 Mulliken charges and spin densities:
               1          2
     1  O   -0.798824   0.026660
     2  S    2.589108  -0.225020
     3  O   -0.493098   0.941097
     4  O   -0.885988  -0.004185
     5  C    0.642371  -0.001101
     6  H   -0.190339  -0.000023
     7  H   -0.033816  -0.001282
     8  H   -0.009881  -0.000206
     9  O   -0.819533   0.264061
 Sum of Mulliken charges =   0.00000   1.00000

 Dipole moment (field-independent basis, Debye):
    X=              4.2483    Y=             -0.8237    Z=             -1.8131  Tot=              4.6919
                          Isotropic Fermi Contact Couplings
        Atom                 a.u.       MegaHertz       Gauss      10(-4) cm-1
     1  O(17)              0.00652      -3.95415      -1.41094      -1.31896
     2  S(33)             -0.13542     -46.51468     -16.59760     -15.51563
     3  O(17)              0.22730    -137.78544     -49.16527     -45.96028
     4  O(17)             -0.00546       3.30727       1.18012       1.10319
     5  C(13)             -0.00075      -0.84241      -0.30059      -0.28100
     6  H(1)              -0.00003      -0.15077      -0.05380      -0.05029
     7  H(1)               0.00012       0.51705       0.18450       0.17247
     8  H(1)               0.00001       0.04344       0.01550       0.01449

 Normal termination of Gaussian 16 at Tue Apr  8 23:17:42 2025.
