 Gaussian 16, Revision C.01,

 ----------------------------------------------------------------------
 #t hf aug-cc-pvdz symm=none int=(grid=ultrafine) guess=(read,tcheck) s
 table=(opt,rrhf)
 ----------------------------------------------------------------------
 -----
 title
 -----
 Symbolic Z-matrix:
 Charge =  0 Multiplicity = 1

 SCF Done:  E(RHF) =  -477.790313448     A.U. after   14 cycles
 Normal termination of Gaussian 16 at Wed Apr  9 00:39:15 2025.
 Gaussian 16:  ES64L-G16RevC.01  3-Jul-2019

 ----------------------------------------------------------------------
 #t hf aug-cc-pvdz iop(5/13=1,5/36=2,99/5=2) pseudo=read geom=check gue
 ss=(read,tcheck) scf=(maxcycle=1)
 ----------------------------------------------------------------------
 -----
 title
 -----
 Structure from the checkpoint file:  "BDE49_nonexpt_668_mol1.chk"
 Charge =  0 Multiplicity = 1

                         Standard orientation:
 ---------------------------------------------------------------------
 Center     Atomic      Atomic             Coordinates (Angstroms)
 Number     Number       Type             X           Y           Z
 ---------------------------------------------------------------------
      1          8           0       -0.610309   -0.476958   -0.695782
      2          5           0       -1.668278    0.136395   -0.002067
      3          8           0       -2.818826   -0.579453    0.047957
      4          8           0       -1.589308    1.357399    0.571989
      5          8           0        0.582806    0.336159   -0.667716
      6          6           0        1.572586   -0.260092    0.099035
      7          6           0        2.841143    0.538624   -0.071423
      8          1           0        3.525797   -0.040450   -0.695796
      9          1           0        3.303473    0.670318    0.906951
     10          1           0        2.665471    1.504186   -0.543441
     11          8           0        1.415928   -1.238884    0.758184
     12          1           0       -0.740191    1.778133    0.409101
     13          1           0       -2.737864   -1.451455   -0.349215
 ---------------------------------------------------------------------

 SCF Done:  E(RHF) =  -477.952152915     A.U. after    2 cycles

 The electronic state is 1-A.
 Alpha  occ. eigenvalues --  -20.69919 -20.66352 -20.59490 -20.59119 -20.59012
 Alpha  occ. eigenvalues --  -11.42402 -11.27767  -7.70806  -1.48894  -1.39026
 Alpha  occ. eigenvalues --   -1.35433  -1.33024  -1.24747  -1.03176  -0.84170
 Alpha  occ. eigenvalues --   -0.81529  -0.77871  -0.73182  -0.73025  -0.71056
 Alpha  occ. eigenvalues --   -0.65767  -0.64146  -0.62619  -0.60584  -0.59674
 Alpha  occ. eigenvalues --   -0.57757  -0.56608  -0.54842  -0.53670  -0.51804
 Alpha  occ. eigenvalues --   -0.49298
 Alpha virt. eigenvalues --    0.02711   0.04500   0.04832   0.05103   0.06452
 Alpha virt. eigenvalues --    0.06844   0.07033   0.09509   0.10293   0.11077
 Alpha virt. eigenvalues --    0.12250   0.12539   0.14459   0.14767   0.14889

 Mulliken charges:
               1
     1  O   -0.328159
     2  B    0.852429
     3  O   -0.477568
     4  O   -0.389682
     5  O   -0.415242
     6  C    0.397969
     7  C    0.300787
     8  H    0.075331
     9  H    0.052550
    10  H   -0.061989
    11  O   -0.395361
    12  H    0.221893
    13  H    0.167043
 Sum of Mulliken charges =  -0.00000

 Dipole moment (field-independent basis, Debye):
    X=              3.3458    Y=              1.5331    Z=             -1.6286  Tot=              4.0246

 Test job not archived.
 1\1\GINC-SE070\SP\RHF\Aug-CC-pVDZ\C2H5B1O5\OHZDE\09-Apr-2025\0\\#t hf
 aug-cc-pvdz iop(5/13=1,5/36=2,99/5=2) pseudo=read geom=check guess=(re
 ad,tcheck) scf=(maxcycle=1)\\title\\0,1\O,0,0.610309,-0.476958,0.69578
 2\B,0,1.668278,0.136395,0.002067\O,0,2.818826,-0.579453,-0.047957\O,0,
 1.589308,1.357399,-0.571989\O,0,-0.582806,0.336159,0.667716\C,0,-1.572
 586,-0.260092,-0.099035\C,0,-2.841143,0.538624,0.071423\H,0,-3.525797,
 -0.04045,0.695796\H,0,-3.303473,0.670318,-0.906951\H,0,-2.665471,1.504
 186,0.543441\O,0,-1.415928,-1.238884,-0.758184\H,0,0.740191,1.778133,-

 Normal termination of Gaussian 16 at Wed Apr  9 00:39:19 2025.
