 Gaussian 16, Revision C.01,

 ----------------------------------------------------------------------
 #t hf aug-cc-pvdz symm=none int=(grid=ultrafine) guess=(read,tcheck) s
 table=(opt,rrhf)
 ----------------------------------------------------------------------
 -----
 title
 -----
 Symbolic Z-matrix:
 Charge =  0 Multiplicity = 1

 SCF Done:  E(RHF) =  -763.517995429     A.U. after   16 cycles
 Normal termination of Gaussian 16 at Wed Apr  9 00:02:32 2025.
 Gaussian 16:  ES64L-G16RevC.01  3-Jul-2019

 ----------------------------------------------------------------------
 #t hf aug-cc-pvdz iop(5/13=1,5/36=2,99/5=2) pseudo=read geom=check gue
 ss=(read,tcheck) scf=(maxcycle=1)
 ----------------------------------------------------------------------
 -----
 title
 -----
 Structure from the checkpoint file:  "BDE49_nonexpt_2158_mol1.chk"
 Charge =  0 Multiplicity = 1

                         Standard orientation:
 ---------------------------------------------------------------------
 Center     Atomic      Atomic             Coordinates (Angstroms)
 Number     Number       Type             X           Y           Z
 ---------------------------------------------------------------------
      1          6           0       -2.617251   -0.506566    0.244998
      2         14           0       -1.742465    0.978656   -0.607373
      3          8           0       -3.677463   -0.899926   -0.164441
      4          8           0       -2.030012   -1.088895    1.325763
      5          7           0       -0.193349    1.296978    0.117147
      6          6           0        1.003165    0.562952    0.016725
      7          1           0       -0.074816    2.196949    0.561625
      8          1           0       -1.187607   -0.646991    1.503509
      9          6           0        1.030516   -0.706225   -0.580167
     10          6           0        2.197625    1.087104    0.532982
     11          6           0        3.380985    0.362874    0.452589
     12          6           0        3.404019   -0.897140   -0.143234
     13          6           0        2.221644   -1.422364   -0.657513
     14          1           0        2.219002   -2.400705   -1.124620
     15          1           0        0.125358   -1.140247   -0.991036
     16          1           0        2.192970    2.068650    0.997078
     17          1           0        4.291827    0.789176    0.858017
     18          1           0        4.327797   -1.459286   -0.205138
     19          1           0       -2.550020    2.187823   -0.360996
     20          1           0       -1.660982    0.651375   -2.044098
 ---------------------------------------------------------------------

 SCF Done:  E(RHF) =  -763.689289877     A.U. after    2 cycles

 The electronic state is 1-A.
 Alpha  occ. eigenvalues --  -69.11455 -20.62513 -20.56971 -15.64989 -11.38399
 Alpha  occ. eigenvalues --  -11.31428 -11.26316 -11.26304 -11.25539 -11.25462
 Alpha  occ. eigenvalues --  -11.24767  -6.86523  -3.97393  -3.97292  -3.97242
 Alpha  occ. eigenvalues --   -1.41497  -1.33149  -1.21291  -1.13212  -1.02708
 Alpha  occ. eigenvalues --   -0.99953  -0.85962  -0.84999  -0.83605  -0.78885
 Alpha  occ. eigenvalues --   -0.73217  -0.70085  -0.68425  -0.67366  -0.64510
 Alpha  occ. eigenvalues --   -0.63872  -0.62207  -0.60631  -0.59223  -0.56692
 Alpha  occ. eigenvalues --   -0.55421  -0.52801  -0.51714  -0.50909  -0.49411
 Alpha  occ. eigenvalues --   -0.47262  -0.43056  -0.35909  -0.31760
 Alpha virt. eigenvalues --    0.02327   0.03313   0.03795   0.04529   0.05186
 Alpha virt. eigenvalues --    0.05444   0.06544   0.07263   0.07500   0.08543
 Alpha virt. eigenvalues --    0.09234   0.09542   0.10457   0.10593   0.11642

 Mulliken charges:
               1
     1  C    0.495024
     2  Si   0.188770
     3  O   -0.489309
     4  O   -0.459611
     5  N   -0.654327
     6  C    0.539613
     7  H   -0.129412
     8  H    0.200963
     9  C    0.509406
    10  C    0.597486
    11  C    0.535058
    12  C    0.570611
    13  C    0.364787
    14  H   -0.437386
    15  H   -0.719533
    16  H   -0.615716
    17  H   -0.431150
    18  H   -0.456231
    19  H    0.173460
    20  H    0.217497
 Sum of Mulliken charges =  -0.00000

 Dipole moment (field-independent basis, Debye):
    X=              4.4143    Y=              3.3640    Z=              0.2785  Tot=              5.5569

 Test job not archived.
 1\1\GINC-SE363\SP\RHF\Aug-CC-pVDZ\C7H9N1O2Si1\OHZDE\09-Apr-2025\0\\#t
 hf aug-cc-pvdz iop(5/13=1,5/36=2,99/5=2) pseudo=read geom=check guess=
 (read,tcheck) scf=(maxcycle=1)\\title\\0,1\C,0,-2.617251,-0.506566,0.2
 44998\Si,0,-1.742465,0.978656,-0.607373\O,0,-3.677463,-0.899926,-0.164
 441\O,0,-2.030012,-1.088895,1.325763\N,0,-0.193349,1.296978,0.117147\C
 ,0,1.003165,0.562952,0.016725\H,0,-0.074816,2.196949,0.561625\H,0,-1.1
 87607,-0.646991,1.503509\C,0,1.030516,-0.706225,-0.580167\C,0,2.197625
 ,1.087104,0.532982\C,0,3.380985,0.362874,0.452589\C,0,3.404019,-0.8971

 Normal termination of Gaussian 16 at Wed Apr  9 00:02:45 2025.
