 Gaussian 16, Revision C.01,

 ----------------------------------------------------------------------
 #t hf aug-cc-pvdz symm=none int=(grid=ultrafine) guess=(read,tcheck) s
 table=(opt,rrhf)
 ----------------------------------------------------------------------
 -----
 title
 -----
 Symbolic Z-matrix:
 Charge =  0 Multiplicity = 1

 SCF Done:  E(RHF) =  -254.381829084     A.U. after   12 cycles
 Normal termination of Gaussian 16 at Wed Apr  9 00:26:45 2025.
 Gaussian 16:  ES64L-G16RevC.01  3-Jul-2019

 ----------------------------------------------------------------------
 #t hf aug-cc-pvdz iop(5/13=1,5/36=2,99/5=2) pseudo=read geom=check gue
 ss=(read,tcheck) scf=(maxcycle=1)
 ----------------------------------------------------------------------
 -----
 title
 -----
 Structure from the checkpoint file:  "BDE49_nonexpt_324_mol1.chk"
 Charge =  0 Multiplicity = 1

                         Standard orientation:
 ---------------------------------------------------------------------
 Center     Atomic      Atomic             Coordinates (Angstroms)
 Number     Number       Type             X           Y           Z
 ---------------------------------------------------------------------
      1          6           0       -0.768775   -0.792502    0.000005
      2          5           0        0.611291   -0.022640    0.000013
      3          8           0        0.730668    1.345421   -0.000005
      4          8           0        1.767038   -0.749833   -0.000001
      5          6           0       -2.032997    0.080315   -0.000004
      6          1           0       -0.777468   -1.464546    0.867210
      7          1           0       -0.777460   -1.464552   -0.867196
      8          1           0       -2.079216    0.725593    0.884423
      9          1           0       -2.945229   -0.521776   -0.000007
     10          1           0       -2.079207    0.725588   -0.884435
     11          1           0        2.545041   -0.181734   -0.000009
     12          1           0       -0.113928    1.803040   -0.000010
 ---------------------------------------------------------------------

 SCF Done:  E(RHF) =  -254.469798319     A.U. after    2 cycles

 The electronic state is 1-A.
 Alpha  occ. eigenvalues --  -20.58138 -20.57146 -11.23455 -11.21194  -7.65011
 Alpha  occ. eigenvalues --   -1.34081  -1.30179  -1.01667  -0.85631  -0.77255
 Alpha  occ. eigenvalues --   -0.73444  -0.64673  -0.61681  -0.57725  -0.57465
 Alpha  occ. eigenvalues --   -0.56304  -0.51945  -0.51460  -0.49104  -0.45966
 Alpha virt. eigenvalues --    0.03025   0.04659   0.04942   0.05127   0.06647
 Alpha virt. eigenvalues --    0.07367   0.07368   0.08180   0.08400   0.10005
 Alpha virt. eigenvalues --    0.11212   0.14507   0.15664   0.16958   0.17239

 Mulliken charges:
               1
     1  C    0.243323
     2  B    0.803379
     3  O   -0.445921
     4  O   -0.558623
     5  C    0.233629
     6  H   -0.166913
     7  H   -0.166912
     8  H   -0.090671
     9  H   -0.139732
    10  H   -0.090671
    11  H    0.190552
    12  H    0.188559
 Sum of Mulliken charges =  -0.00000

 Dipole moment (field-independent basis, Debye):
    X=             -1.2146    Y=              1.0114    Z=              0.0000  Tot=              1.5806

 Test job not archived.
 1\1\GINC-SE367\SP\RHF\Aug-CC-pVDZ\C2H7B1O2\OHZDE\09-Apr-2025\0\\#t hf
 aug-cc-pvdz iop(5/13=1,5/36=2,99/5=2) pseudo=read geom=check guess=(re
 ad,tcheck) scf=(maxcycle=1)\\title\\0,1\C,0,-0.768775,-0.792502,0.0000
 05\B,0,0.611291,-0.02264,0.000013\O,0,0.730668,1.345421,-0.000005\O,0,
 1.767038,-0.749833,-0.000001\C,0,-2.032997,0.080316,-0.000004\H,0,-0.7
 77468,-1.464546,0.86721\H,0,-0.77746,-1.464552,-0.867196\H,0,-2.079216
 ,0.725594,0.884423\H,0,-2.945229,-0.521775,-0.000007\H,0,-2.079207,0.7
 25589,-0.884435\H,0,2.545041,-0.181734,-0.000009\H,0,-0.113927,1.80304

 Normal termination of Gaussian 16 at Wed Apr  9 00:26:48 2025.
