 Gaussian 16, Revision C.01,

 ----------------------------------------------------------------------
 #t hf aug-cc-pvdz symm=none int=(grid=ultrafine) guess=(read,tcheck) s
 table=(opt,rrhf)
 ----------------------------------------------------------------------
 -----
 title
 -----
 Symbolic Z-matrix:
 Charge =  0 Multiplicity = 1

 SCF Done:  E(RHF) =  -1375.27083218     A.U. after   14 cycles
 Normal termination of Gaussian 16 at Wed Apr  9 00:49:58 2025.
 Gaussian 16:  ES64L-G16RevC.01  3-Jul-2019

 ----------------------------------------------------------------------
 #t hf aug-cc-pvdz iop(5/13=1,5/36=2,99/5=2) pseudo=read geom=check gue
 ss=(read,tcheck) scf=(maxcycle=1)
 ----------------------------------------------------------------------
 -----
 title
 -----
 Structure from the checkpoint file:  "BDE49_nonexpt_914_mol1.chk"
 Charge =  0 Multiplicity = 1

                         Standard orientation:
 ---------------------------------------------------------------------
 Center     Atomic      Atomic             Coordinates (Angstroms)
 Number     Number       Type             X           Y           Z
 ---------------------------------------------------------------------
      1         16           0       -0.258553   -1.043328   -0.000239
      2          5           0        1.248598   -0.042659   -0.000117
      3         16           0        2.819035   -0.988480    0.000068
      4          6           0       -1.857017   -0.038225    0.000052
      5          6           0       -2.945885   -1.124874   -0.001035
      6          1           0       -2.875984   -1.761128    0.884067
      7          1           0       -2.875630   -1.759733   -0.887108
      8          6           0       -1.976409    0.805095   -1.274459
      9          1           0       -2.949420    1.308208   -1.287985
     10          1           0       -1.905268    0.177072   -2.164553
     11          1           0       -1.204736    1.571923   -1.348089
     12          6           0       -1.976974    0.803129    1.275807
     13          1           0       -1.906532    0.173689    2.164955
     14          1           0       -2.949859    1.306480    1.289539
     15          1           0       -1.205102    1.569597    1.351125
     16          1           0       -3.930907   -0.648027   -0.000849
     17         16           0        1.536796    1.759498    0.000008
     18          1           0        0.265816    2.179986   -0.000152
     19          1           0        2.275887   -2.218566    0.000052
 ---------------------------------------------------------------------

 SCF Done:  E(RHF) =  -1375.38070003     A.U. after    2 cycles

 The electronic state is 1-A.
 Alpha  occ. eigenvalues --  -93.54440 -93.53559 -93.53175 -11.30361 -11.24505
 Alpha  occ. eigenvalues --  -11.24496 -11.24448  -8.84393  -8.83501  -8.83125
 Alpha  occ. eigenvalues --   -7.69587  -6.18596  -6.18340  -6.18078  -6.17689
 Alpha  occ. eigenvalues --   -6.17443  -6.17322  -6.17187  -6.17039  -6.16847
 Alpha  occ. eigenvalues --   -1.11485  -1.00510  -0.95437  -0.95385  -0.94627
 Alpha  occ. eigenvalues --   -0.92585  -0.75882  -0.66450  -0.63604  -0.62733
 Alpha  occ. eigenvalues --   -0.62091  -0.56903  -0.56637  -0.53771  -0.53233
 Alpha  occ. eigenvalues --   -0.52620  -0.50196  -0.49687  -0.48693  -0.44307
 Alpha  occ. eigenvalues --   -0.43222  -0.40872  -0.36945  -0.35525
 Alpha virt. eigenvalues --    0.03047   0.04431   0.04682   0.04852   0.06185
 Alpha virt. eigenvalues --    0.06426   0.06617   0.06722   0.07023   0.08287
 Alpha virt. eigenvalues --    0.08939   0.09290   0.09669   0.09994   0.10185

 Mulliken charges:
               1
     1  S    0.134480
     2  B    0.692193
     3  S   -0.360865
     4  C   -2.335446
     5  C    1.169849
     6  H   -0.041902
     7  H   -0.041927
     8  C    0.802250
     9  H    0.008604
    10  H   -0.030940
    11  H   -0.260725
    12  C    0.801819
    13  H   -0.031010
    14  H    0.008482
    15  H   -0.259945
    16  H   -0.017154
    17  S   -0.199891
    18  H   -0.033814
    19  H   -0.004058
 Sum of Mulliken charges =  -0.00000

 Dipole moment (field-independent basis, Debye):
    X=             -3.5720    Y=              0.4846    Z=              0.0000  Tot=              3.6048

 Test job not archived.
 1\1\GINC-SE177\SP\RHF\Aug-CC-pVDZ\C4H11B1S3\OHZDE\09-Apr-2025\0\\#t hf
  aug-cc-pvdz iop(5/13=1,5/36=2,99/5=2) pseudo=read geom=check guess=(r
 ead,tcheck) scf=(maxcycle=1)\\title\\0,1\S,0,-0.258553,-1.043328,-0.00
 0239\B,0,1.248598,-0.042659,-0.000117\S,0,2.819035,-0.98848,0.000068\C
 ,0,-1.857017,-0.038225,0.000052\C,0,-2.945885,-1.124874,-0.001035\H,0,
 -2.875984,-1.761128,0.884067\H,0,-2.87563,-1.759733,-0.887108\C,0,-1.9
 76409,0.805095,-1.274459\H,0,-2.94942,1.308208,-1.287985\H,0,-1.905268
 ,0.177072,-2.164553\H,0,-1.204736,1.571923,-1.348089\C,0,-1.976974,0.8

 Normal termination of Gaussian 16 at Wed Apr  9 00:50:09 2025.
