 Gaussian 16, Revision C.01,

 ----------------------------------------------------------------------
 #t hf aug-cc-pvdz symm=none int=(grid=ultrafine) guess=(read,tcheck) s
 table=(opt,rrhf)
 ----------------------------------------------------------------------
 -----
 title
 -----
 Symbolic Z-matrix:
 Charge =  0 Multiplicity = 1

 SCF Done:  E(RHF) =  -600.797473301     A.U. after   14 cycles
 Normal termination of Gaussian 16 at Wed Apr  9 00:42:26 2025.
 Gaussian 16:  ES64L-G16RevC.01  3-Jul-2019

 ----------------------------------------------------------------------
 #t hf aug-cc-pvdz iop(5/13=1,5/36=2,99/5=2) pseudo=read geom=check gue
 ss=(read,tcheck) scf=(maxcycle=1)
 ----------------------------------------------------------------------
 -----
 title
 -----
 Structure from the checkpoint file:  "BDE49_nonexpt_718_mol1.chk"
 Charge =  0 Multiplicity = 1

                         Standard orientation:
 ---------------------------------------------------------------------
 Center     Atomic      Atomic             Coordinates (Angstroms)
 Number     Number       Type             X           Y           Z
 ---------------------------------------------------------------------
      1          6           0        0.305416   -0.143303    0.269192
      2          6           0       -0.248958    1.165876   -0.326682
      3          6           0       -1.701932    1.421994    0.106408
      4          6           0       -2.612984    0.232981   -0.224822
      5          6           0       -2.069127   -1.067615    0.380412
      6          6           0       -0.619555   -1.335008   -0.054047
      7          5           0        3.280952    0.698098    0.451749
      8          1           0       -0.202350    1.106842   -1.421698
      9          1           0        0.387582    2.005292   -0.033529
     10          1           0       -2.073526    2.333288   -0.373239
     11          1           0       -1.727581    1.607066    1.187981
     12          1           0       -2.683197    0.123169   -1.314804
     13          1           0       -3.629209    0.422394    0.134993
     14          1           0       -2.701597   -1.914737    0.096347
     15          1           0       -2.109803   -1.002047    1.475337
     16          1           0       -0.241083   -2.242260    0.425612
     17          1           0       -0.597925   -1.522485   -1.135752
     18         15           0        2.066672   -0.509753   -0.223342
     19          1           0        0.359668   -0.035198    1.360627
     20          1           0        4.303697    0.871172   -0.130389
     21          1           0        3.121322    1.143056    1.544739
     22          1           0        2.072006   -0.389302   -1.627602
 ---------------------------------------------------------------------

 SCF Done:  E(RHF) =  -600.895402269     A.U. after    2 cycles

 The electronic state is 1-A.
 Alpha  occ. eigenvalues --  -81.23256 -11.25221 -11.23567 -11.23512 -11.23098
 Alpha  occ. eigenvalues --  -11.23093 -11.22976  -7.74054  -7.61714  -4.88166
 Alpha  occ. eigenvalues --   -4.88156  -4.87857  -1.11016  -1.00612  -1.00192
 Alpha  occ. eigenvalues --   -0.84912  -0.83792  -0.77658  -0.75584  -0.65940
 Alpha  occ. eigenvalues --   -0.64788  -0.61269  -0.60703  -0.58493  -0.53521
 Alpha  occ. eigenvalues --   -0.53266  -0.53136  -0.49430  -0.49154  -0.48880
 Alpha  occ. eigenvalues --   -0.46523  -0.45941  -0.44099  -0.41259  -0.31954
 Alpha virt. eigenvalues --    0.03217   0.03963   0.04190   0.04455   0.05158
 Alpha virt. eigenvalues --    0.05614   0.05750   0.06349   0.06698   0.07267
 Alpha virt. eigenvalues --    0.07942   0.08143   0.09043   0.09117   0.09906

 Mulliken charges:
               1
     1  C   -0.509613
     2  C    0.264333
     3  C    0.338764
     4  C    0.253982
     5  C    0.363980
     6  C    0.330535
     7  B   -0.605300
     8  H   -0.117021
     9  H   -0.186594
    10  H   -0.109868
    11  H   -0.094125
    12  H   -0.101473
    13  H   -0.108465
    14  H   -0.102555
    15  H   -0.096976
    16  H   -0.173716
    17  H   -0.103674
    18  P    0.252309
    19  H   -0.223903
    20  H    0.356859
    21  H    0.294395
    22  H    0.078125
 Sum of Mulliken charges =  -0.00000

 Dipole moment (field-independent basis, Debye):
    X=             -1.7744    Y=              0.5375    Z=             -0.2107  Tot=              1.8660

 Test job not archived.
 1\1\GINC-SE071\SP\RHF\Aug-CC-pVDZ\C6H14B1P1\OHZDE\09-Apr-2025\0\\#t hf
  aug-cc-pvdz iop(5/13=1,5/36=2,99/5=2) pseudo=read geom=check guess=(r
 ead,tcheck) scf=(maxcycle=1)\\title\\0,1\C,0,0.305416,-0.143303,0.2691
 92\C,0,-0.248958,1.165876,-0.326682\C,0,-1.701932,1.421994,0.106408\C,
 0,-2.612984,0.232981,-0.224822\C,0,-2.069127,-1.067615,0.380412\C,0,-0
 .619555,-1.335008,-0.054047\B,0,3.280952,0.698098,0.451749\H,0,-0.2023
 5,1.106842,-1.421698\H,0,0.387582,2.005292,-0.033529\H,0,-2.073526,2.3
 33288,-0.373239\H,0,-1.727581,1.607066,1.187981\H,0,-2.683197,0.123169

 Normal termination of Gaussian 16 at Wed Apr  9 00:42:38 2025.
