 Gaussian 16, Revision C.01,

 ----------------------------------------------------------------------
 #t hf aug-cc-pvdz symm=none int=(grid=ultrafine) guess=(read,tcheck) s
 table=(opt,rrhf)
 ----------------------------------------------------------------------
 -----
 title
 -----
 Symbolic Z-matrix:
 Charge =  0 Multiplicity = 1

 SCF Done:  E(RHF) =  -761.880047044     A.U. after   12 cycles
 Normal termination of Gaussian 16 at Tue Apr  8 23:38:11 2025.
 Gaussian 16:  ES64L-G16RevC.01  3-Jul-2019

 ----------------------------------------------------------------------
 #t hf aug-cc-pvdz iop(5/13=1,5/36=2,99/5=2) pseudo=read geom=check gue
 ss=(read,tcheck) scf=(maxcycle=1)
 ----------------------------------------------------------------------
 -----
 title
 -----
 Structure from the checkpoint file:  "BDE49_nonexpt_1616_mol1.chk"
 Charge =  0 Multiplicity = 1

                         Standard orientation:
 ---------------------------------------------------------------------
 Center     Atomic      Atomic             Coordinates (Angstroms)
 Number     Number       Type             X           Y           Z
 ---------------------------------------------------------------------
      1         15           0       -1.614792   -0.000000    0.253037
      2         15           0        0.454436    0.000000   -0.649440
      3          6           0        1.149845   -1.421014    0.335778
      4          6           0        1.149845    1.421014    0.335778
      5          1           0        0.722896    2.359584   -0.025243
      6          1           0        2.229471    1.462128    0.167140
      7          1           0        0.962073    1.333741    1.409237
      8          1           0        0.722897   -2.359584   -0.025243
      9          1           0        0.962074   -1.333741    1.409237
     10          1           0        2.229471   -1.462128    0.167140
     11          1           0       -2.110839   -1.028333   -0.592774
     12          1           0       -2.110839    1.028333   -0.592774
 ---------------------------------------------------------------------

 SCF Done:  E(RHF) =  -761.948487934     A.U. after    2 cycles

 The electronic state is 1-A.
 Alpha  occ. eigenvalues --  -81.25926 -81.25512 -11.23993 -11.23992  -7.76134
 Alpha  occ. eigenvalues --   -7.75929  -4.90029  -4.90022  -4.89836  -4.89786
 Alpha  occ. eigenvalues --   -4.89697  -4.89507  -0.98595  -0.93686  -0.80286
 Alpha  occ. eigenvalues --   -0.67588  -0.59418  -0.58800  -0.56672  -0.56086
 Alpha  occ. eigenvalues --   -0.51453  -0.45906  -0.42268  -0.39790  -0.30538
 Alpha virt. eigenvalues --    0.03627   0.04695   0.04844   0.05954   0.06745
 Alpha virt. eigenvalues --    0.07191   0.07721   0.08084   0.09280   0.10987
 Alpha virt. eigenvalues --    0.11598   0.11886   0.13109   0.13863   0.15699

 Mulliken charges:
               1
     1  P   -0.234364
     2  P    0.289165
     3  C    0.296809
     4  C    0.296807
     5  H   -0.173970
     6  H   -0.156275
     7  H   -0.151056
     8  H   -0.173971
     9  H   -0.151057
    10  H   -0.156275
    11  H    0.157094
    12  H    0.157094
 Sum of Mulliken charges =   0.00000

 Dipole moment (field-independent basis, Debye):
    X=              0.8006    Y=             -0.0000    Z=              0.4790  Tot=              0.9330

 Test job not archived.
 1\1\GINC-SE072\SP\RHF\Aug-CC-pVDZ\C2H8P2\OHZDE\08-Apr-2025\0\\#t hf au
 g-cc-pvdz iop(5/13=1,5/36=2,99/5=2) pseudo=read geom=check guess=(read
 ,tcheck) scf=(maxcycle=1)\\title\\0,1\P,0,-1.614792,0.,0.253037\P,0,0.
 454436,0.,-0.64944\C,0,1.149845,-1.421014,0.335778\C,0,1.149845,1.4210
 14,0.335778\H,0,0.722896,2.359584,-0.025243\H,0,2.229471,1.462128,0.16
 714\H,0,0.962073,1.333741,1.409237\H,0,0.722897,-2.359584,-0.025243\H,
 0,0.962074,-1.333741,1.409237\H,0,2.229471,-1.462128,0.16714\H,0,-2.11
 0839,-1.028333,-0.592774\H,0,-2.110839,1.028333,-0.592774\\Version=ES6

 Normal termination of Gaussian 16 at Tue Apr  8 23:38:14 2025.
