 Gaussian 16, Revision C.01,

 ----------------------------------------------------------------------
 #t hf aug-cc-pvdz symm=none int=(grid=ultrafine) guess=(read,tcheck) s
 table=opt
 ----------------------------------------------------------------------
 -----
 title
 -----
 Symbolic Z-matrix:
 Charge =  0 Multiplicity = 2

 SCF Done:  E(UHF) =  -985.178065925     A.U. after   18 cycles
 Normal termination of Gaussian 16 at Tue Apr  8 23:54:19 2025.
 Gaussian 16:  ES64L-G16RevC.01  3-Jul-2019

 ----------------------------------------------------------------------
 #t hf aug-cc-pvdz iop(5/13=1,5/36=2,99/5=2) pseudo=read geom=check gue
 ss=(read,tcheck) scf=(maxcycle=1)
 ----------------------------------------------------------------------
 -----
 title
 -----
 Structure from the checkpoint file:  "BDE49_nonexpt_1983_mol2.chk"
 Charge =  0 Multiplicity = 2

                         Standard orientation:
 ---------------------------------------------------------------------
 Center     Atomic      Atomic             Coordinates (Angstroms)
 Number     Number       Type             X           Y           Z
 ---------------------------------------------------------------------
      1         14           0       -1.092985   -0.457504   -0.000000
      2          6           0       -0.000000    1.081893   -0.000000
      3         17           0        0.503343   -1.853693    0.000000
      4          9           0        1.307557    1.208451    0.000000
      5          9           0       -0.558118    2.283380   -0.000000
 ---------------------------------------------------------------------

 SCF Done:  E(UHF) =  -985.299733298     A.U. after    2 cycles

 The electronic state is 2-A".
 Alpha  occ. eigenvalues -- -103.66474 -69.15582 -26.18579 -26.18565 -11.44813
 Alpha  occ. eigenvalues --  -10.69878  -8.35521  -8.35406  -8.35299  -6.89999
 Alpha  occ. eigenvalues --   -4.00438  -4.00274  -3.99999  -1.76250  -1.71217
 Alpha  occ. eigenvalues --   -1.14564  -1.02601  -0.86775  -0.86240  -0.85243
 Alpha  occ. eigenvalues --   -0.78400  -0.74297  -0.70824  -0.56998  -0.50368
 Alpha  occ. eigenvalues --   -0.49477  -0.40018  -0.38527
 Alpha virt. eigenvalues --    0.01367   0.04723   0.05365   0.05753   0.07737
 Alpha virt. eigenvalues --    0.10480   0.11472   0.11705   0.13105   0.13774
 Alpha virt. eigenvalues --    0.16127   0.16908   0.18322   0.19297   0.23613

  Beta  occ. eigenvalues -- -103.66451 -69.15542 -26.18157 -26.18146 -11.42851
  Beta  occ. eigenvalues --  -10.69855  -8.35543  -8.35304  -8.35258  -6.89941
  Beta  occ. eigenvalues --   -4.00316  -4.00126  -4.00015  -1.74935  -1.70149
  Beta  occ. eigenvalues --   -1.14347  -0.98664  -0.86226  -0.84924  -0.79704
  Beta  occ. eigenvalues --   -0.74122  -0.73934  -0.68815  -0.55752  -0.49404
  Beta  occ. eigenvalues --   -0.49167  -0.37771
  Beta virt. eigenvalues --   -0.01674   0.04798   0.05484   0.05925   0.06621
  Beta virt. eigenvalues --    0.10570   0.10863   0.11664   0.13339   0.13993
  Beta virt. eigenvalues --    0.15239   0.16540   0.17586   0.18620   0.20401

 Mulliken charges and spin densities:
               1          2
     1  Si   0.673173   0.060652
     2  C    0.349875   0.888583
     3  Cl  -0.435115   0.007998
     4  F   -0.290216   0.025586
     5  F   -0.297716   0.017180
 Sum of Mulliken charges =  -0.00000   1.00000

 Dipole moment (field-independent basis, Debye):
    X=             -1.4487    Y=             -0.0399    Z=             -0.0000  Tot=              1.4493
                          Isotropic Fermi Contact Couplings
        Atom                 a.u.       MegaHertz       Gauss      10(-4) cm-1
     1  Si(29)             0.01615     -14.34973      -5.12034      -4.78656
     2  C(13)              0.17802     200.13270      71.41232      66.75708
     3  Cl(35)             0.00631       2.76529       0.98672       0.92240
     4  F(19)              0.05234     220.20994      78.57638      73.45413
     5  F(19)              0.04927     207.28116      73.96307      69.14155
 --------------------------------------------------------
       Center         ----  Spin Dipole Couplings  ----
                      3XX-RR        3YY-RR        3ZZ-RR

 Normal termination of Gaussian 16 at Tue Apr  8 23:54:22 2025.
