 Gaussian 16, Revision C.01,

 ----------------------------------------------------------------------
 #t hf aug-cc-pvdz symm=none int=(grid=ultrafine) guess=(read,tcheck) s
 table=(opt,rrhf)
 ----------------------------------------------------------------------
 -----
 title
 -----
 Symbolic Z-matrix:
 Charge =  0 Multiplicity = 1

 SCF Done:  E(RHF) =  -1535.00394899     A.U. after   11 cycles
 Normal termination of Gaussian 16 at Wed Apr  9 00:08:04 2025.
 Gaussian 16:  ES64L-G16RevC.01  3-Jul-2019

 ----------------------------------------------------------------------
 #t hf aug-cc-pvdz iop(5/13=1,5/36=2,99/5=2) pseudo=read geom=check gue
 ss=(read,tcheck) scf=(maxcycle=1)
 ----------------------------------------------------------------------
 -----
 title
 -----
 Structure from the checkpoint file:  "BDE49_nonexpt_2327_mol1.chk"
 Charge =  0 Multiplicity = 1

                         Standard orientation:
 ---------------------------------------------------------------------
 Center     Atomic      Atomic             Coordinates (Angstroms)
 Number     Number       Type             X           Y           Z
 ---------------------------------------------------------------------
      1         14           0        1.363824   -0.125405    0.000002
      2         14           0       -0.904780    0.433200    0.000003
      3          9           0       -1.237864    1.309388   -1.282323
      4          9           0       -1.237871    1.309352    1.282352
      5          9           0        2.270805    1.172543    0.000032
      6          9           0        1.723486   -0.980738    1.283040
      7         17           0       -2.094418   -1.222227   -0.000023
      8          9           0        1.723497   -0.980686   -1.283067
 ---------------------------------------------------------------------

 SCF Done:  E(RHF) =  -1535.29586421     A.U. after    2 cycles

 The electronic state is 1-A.
 Alpha  occ. eigenvalues -- -103.69895 -69.24240 -69.24112 -26.16212 -26.16211
 Alpha  occ. eigenvalues --  -26.16200 -26.16161 -26.16159 -10.73383  -8.39074
 Alpha  occ. eigenvalues --   -8.38833  -8.38828  -6.97874  -6.97813  -4.08893
 Alpha  occ. eigenvalues --   -4.08893  -4.08795  -4.08744  -4.08644  -4.08510
 Alpha  occ. eigenvalues --   -1.70494  -1.69764  -1.68704  -1.68686  -1.68553
 Alpha  occ. eigenvalues --   -1.18688  -0.89858  -0.87471  -0.82805  -0.82751
 Alpha  occ. eigenvalues --   -0.81772  -0.80555  -0.78620  -0.78193  -0.77640
 Alpha  occ. eigenvalues --   -0.77609  -0.76271  -0.75374  -0.75345  -0.74683
 Alpha  occ. eigenvalues --   -0.73913  -0.63897  -0.54739  -0.52715  -0.50293
 Alpha virt. eigenvalues --    0.04629   0.04936   0.05079   0.05199   0.07802
 Alpha virt. eigenvalues --    0.07893   0.08139   0.10308   0.10419   0.11506
 Alpha virt. eigenvalues --    0.14137   0.14527   0.16257   0.19487   0.20023

 Mulliken charges:
               1
     1  Si   2.345633
     2  Si   1.845572
     3  F   -0.742405
     4  F   -0.742404
     5  F   -0.764794
     6  F   -0.754003
     7  Cl  -0.433597
     8  F   -0.754003
 Sum of Mulliken charges =  -0.00000

 Dipole moment (field-independent basis, Debye):
    X=             -0.5173    Y=             -0.5216    Z=             -0.0000  Tot=              0.7346

 Test job not archived.
 1\1\GINC-SE097\SP\RHF\Aug-CC-pVDZ\Cl1F5Si2\OHZDE\09-Apr-2025\0\\#t hf
 aug-cc-pvdz iop(5/13=1,5/36=2,99/5=2) pseudo=read geom=check guess=(re
 ad,tcheck) scf=(maxcycle=1)\\title\\0,1\Si,0,-1.363824,-0.125405,-0.00
 0002\Si,0,0.90478,0.4332,-0.000003\F,0,1.237864,1.309388,1.282323\F,0,
 1.237871,1.309352,-1.282352\F,0,-2.270805,1.172543,-0.000032\F,0,-1.72
 3486,-0.980738,-1.28304\Cl,0,2.094418,-1.222227,0.000023\F,0,-1.723497
 ,-0.980686,1.283067\\Version=ES64L-G16RevC.01\State=1-A\HF=-1535.29586
 42\RMSD=4.415e-03\Dipole=0.203534,-0.2052045,0.0000046\Quadrupole=-0.0

 Normal termination of Gaussian 16 at Wed Apr  9 00:08:07 2025.
