 Gaussian 16, Revision C.01,

 ----------------------------------------------------------------------
 #t hf aug-cc-pvdz symm=none int=(grid=ultrafine) guess=(read,tcheck) s
 table=(opt,rrhf)
 ----------------------------------------------------------------------
 -----
 title
 -----
 Symbolic Z-matrix:
 Charge =  0 Multiplicity = 1

 SCF Done:  E(RHF) =  -566.388272418     A.U. after   14 cycles
 Normal termination of Gaussian 16 at Tue Apr  8 22:31:13 2025.
 Gaussian 16:  ES64L-G16RevC.01  3-Jul-2019

 ----------------------------------------------------------------------
 #t hf aug-cc-pvdz iop(5/13=1,5/36=2,99/5=2) pseudo=read geom=check gue
 ss=(read,tcheck) scf=(maxcycle=1)
 ----------------------------------------------------------------------
 -----
 title
 -----
 Structure from the checkpoint file:  "BDE49_expt_1041_mol1.chk"
 Charge =  0 Multiplicity = 1

                         Standard orientation:
 ---------------------------------------------------------------------
 Center     Atomic      Atomic             Coordinates (Angstroms)
 Number     Number       Type             X           Y           Z
 ---------------------------------------------------------------------
      1          6           0       -0.051875    0.000001   -0.032579
      2          6           0       -0.745552   -1.210076   -0.020901
      3          6           0       -2.136975   -1.206993    0.001778
      4          6           0       -2.833220   -0.000001    0.014269
      5          6           0       -2.136976    1.206992    0.001778
      6          6           0       -0.745553    1.210077   -0.020901
      7          1           0       -0.198821    2.144390   -0.038495
      8          1           0       -3.917097   -0.000001    0.030512
      9          1           0       -2.676580    2.146768    0.006802
     10          1           0       -0.198819   -2.144389   -0.038495
     11          1           0       -2.676578   -2.146769    0.006801
     12          6           0        1.451483    0.000000   -0.002770
     13          9           0        1.972737   -1.087979   -0.611185
     14          9           0        1.927848   -0.000017    1.265543
     15          9           0        1.972738    1.087995   -0.611156
 ---------------------------------------------------------------------

 SCF Done:  E(RHF) =  -566.576257717     A.U. after    2 cycles

 The electronic state is 1-A.
 Alpha  occ. eigenvalues --  -26.16218 -26.16207 -26.15720 -11.52702 -11.27973
 Alpha  occ. eigenvalues --  -11.27184 -11.27174 -11.26886 -11.26518 -11.26503
 Alpha  occ. eigenvalues --   -1.75472  -1.68640  -1.68162  -1.17536  -1.07978
 Alpha  occ. eigenvalues --   -1.03521  -0.99845  -0.89124  -0.88322  -0.87148
 Alpha  occ. eigenvalues --   -0.84423  -0.80900  -0.76769  -0.76679  -0.72433
 Alpha  occ. eigenvalues --   -0.72109  -0.71892  -0.71113  -0.66513  -0.65026
 Alpha  occ. eigenvalues --   -0.61460  -0.60932  -0.53167  -0.52961  -0.52247
 Alpha  occ. eigenvalues --   -0.36936  -0.36204
 Alpha virt. eigenvalues --    0.02923   0.03781   0.04530   0.05940   0.06328
 Alpha virt. eigenvalues --    0.07974   0.09110   0.09172   0.09466   0.11400
 Alpha virt. eigenvalues --    0.12249   0.12759   0.13527   0.13832   0.14054

 Mulliken charges:
               1
     1  C    1.151758
     2  C   -0.099597
     3  C    0.643508
     4  C    0.313253
     5  C    0.643505
     6  C   -0.099570
     7  H   -0.518420
     8  H   -0.433172
     9  H   -0.423256
    10  H   -0.518420
    11  H   -0.423257
    12  C    0.761816
    13  F   -0.330692
    14  F   -0.336764
    15  F   -0.330691
 Sum of Mulliken charges =  -0.00000

 Dipole moment (field-independent basis, Debye):
    X=             -3.4749    Y=              0.0000    Z=             -0.0750  Tot=              3.4757

 Test job not archived.
 1\1\GINC-SE016\SP\RHF\Aug-CC-pVDZ\C7H5F3\OHZDE\08-Apr-2025\0\\#t hf au
 g-cc-pvdz iop(5/13=1,5/36=2,99/5=2) pseudo=read geom=check guess=(read
 ,tcheck) scf=(maxcycle=1)\\title\\0,1\C,0,-0.051875,0.000001,-0.032579
 \C,0,-0.745552,-1.210076,-0.020901\C,0,-2.136975,-1.206993,0.001778\C,
 0,-2.83322,-0.000001,0.014269\C,0,-2.136976,1.206992,0.001778\C,0,-0.7
 45553,1.210077,-0.020901\H,0,-0.198821,2.14439,-0.038495\H,0,-3.917097
 ,-0.000001,0.030512\H,0,-2.67658,2.146768,0.006802\H,0,-0.198819,-2.14
 4389,-0.038495\H,0,-2.676578,-2.146769,0.006801\C,0,1.451483,0.,-0.002

 Normal termination of Gaussian 16 at Tue Apr  8 22:31:20 2025.
