 Gaussian 16, Revision C.01,

 ----------------------------------------------------------------------
 #t hf aug-cc-pvdz symm=none int=(grid=ultrafine) guess=(read,tcheck) s
 table=(opt,rrhf)
 ----------------------------------------------------------------------
 -----
 title
 -----
 Symbolic Z-matrix:
 Charge =  0 Multiplicity = 1

 SCF Done:  E(RHF) =  -2095.29075863     A.U. after   14 cycles
 Normal termination of Gaussian 16 at Tue Apr  8 23:42:41 2025.
 Gaussian 16:  ES64L-G16RevC.01  3-Jul-2019

 ----------------------------------------------------------------------
 #t hf aug-cc-pvdz iop(5/13=1,5/36=2,99/5=2) pseudo=read geom=check gue
 ss=(read,tcheck) scf=(maxcycle=1)
 ----------------------------------------------------------------------
 -----
 title
 -----
 Structure from the checkpoint file:  "BDE49_nonexpt_1702_mol1.chk"
 Charge =  0 Multiplicity = 1

                         Standard orientation:
 ---------------------------------------------------------------------
 Center     Atomic      Atomic             Coordinates (Angstroms)
 Number     Number       Type             X           Y           Z
 ---------------------------------------------------------------------
      1         16           0       -0.700752   -0.986196   -0.921065
      2         15           0       -2.107931    0.284894    0.084530
      3          8           0       -1.993327    1.690327   -0.292563
      4          8           0       -2.063904   -0.097296    1.626587
      5          8           0        0.656810    0.085253   -1.004009
      6          6           0        1.516218    0.096866    0.049277
      7          9           0        0.865914    0.418781    1.212643
      8         17           0        2.714768    1.361279   -0.286775
      9         17           0        2.327887   -1.486200    0.343269
     10          1           0       -1.233445    0.166638    2.044586
     11          8           0       -3.437466   -0.516632   -0.286498
     12          1           0       -3.848138   -0.180685   -1.093484
 ---------------------------------------------------------------------

 SCF Done:  E(RHF) =  -2095.56087618     A.U. after    2 cycles

 The electronic state is 1-A.
 Alpha  occ. eigenvalues -- -103.70183-103.70052 -93.63667 -81.46499 -26.19442
 Alpha  occ. eigenvalues --  -20.67947 -20.65201 -20.64354 -20.55882 -11.54896
 Alpha  occ. eigenvalues --  -10.73527 -10.73388  -8.92873  -8.39252  -8.39103
 Alpha  occ. eigenvalues --   -8.38897  -8.38894  -8.38769  -8.38765  -7.94673
 Alpha  occ. eigenvalues --   -6.27053  -6.26658  -6.26320  -5.09321  -5.09204
 Alpha  occ. eigenvalues --   -5.08854  -1.73955  -1.43668  -1.41518  -1.37928
 Alpha  occ. eigenvalues --   -1.29312  -1.22849  -1.17607  -1.01957  -0.94523
 Alpha  occ. eigenvalues --   -0.88373  -0.83458  -0.82252  -0.79646  -0.75827
 Alpha  occ. eigenvalues --   -0.73088  -0.70123  -0.68387  -0.67806  -0.64835
 Alpha  occ. eigenvalues --   -0.63043  -0.61717  -0.60587  -0.56518  -0.53802
 Alpha  occ. eigenvalues --   -0.53139  -0.52122  -0.51546  -0.50093  -0.48470
 Alpha  occ. eigenvalues --   -0.46872  -0.42432
 Alpha virt. eigenvalues --    0.03029   0.04536   0.05289   0.06462   0.07803
 Alpha virt. eigenvalues --    0.08654   0.09527   0.09709   0.10419   0.11737
 Alpha virt. eigenvalues --    0.12480   0.13131   0.13760   0.14388   0.14713

 Mulliken charges:
               1
     1  S    0.214819
     2  P    2.172612
     3  O   -0.894147
     4  O   -0.680305
     5  O   -0.669753
     6  C    0.428312
     7  F   -0.315913
     8  Cl  -0.003542
     9  Cl   0.020645
    10  H    0.205513
    11  O   -0.642245
    12  H    0.164004
 Sum of Mulliken charges =  -0.00000

 Dipole moment (field-independent basis, Debye):
    X=             -0.5543    Y=             -2.3669    Z=             -0.4028  Tot=              2.4641

 Test job not archived.
 1\1\GINC-SE396\SP\RHF\Aug-CC-pVDZ\C1H2Cl2F1O4P1S1\OHZDE\08-Apr-2025\0\
 \#t hf aug-cc-pvdz iop(5/13=1,5/36=2,99/5=2) pseudo=read geom=check gu
 ess=(read,tcheck) scf=(maxcycle=1)\\title\\0,1\S,0,-0.700752,-0.986196
 ,-0.921065\P,0,-2.107931,0.284894,0.08453\O,0,-1.993327,1.690327,-0.29
 2563\O,0,-2.063904,-0.097296,1.626587\O,0,0.65681,0.085253,-1.004009\C
 ,0,1.516218,0.096866,0.049277\F,0,0.865914,0.418781,1.212643\Cl,0,2.71
 4768,1.361279,-0.286775\Cl,0,2.327887,-1.4862,0.343269\H,0,-1.233445,0
 .166638,2.044586\O,0,-3.437466,-0.516632,-0.286498\H,0,-3.848138,-0.18

 Normal termination of Gaussian 16 at Tue Apr  8 23:42:49 2025.
