 Gaussian 16, Revision C.01,

 ----------------------------------------------------------------------
 #t hf aug-cc-pvdz symm=none int=(grid=ultrafine) guess=(read,tcheck) s
 table=(opt,rrhf)
 ----------------------------------------------------------------------
 -----
 title
 -----
 Symbolic Z-matrix:
 Charge =  0 Multiplicity = 1

 SCF Done:  E(RHF) =  -734.992831449     A.U. after   15 cycles
 Normal termination of Gaussian 16 at Wed Apr  9 00:47:53 2025.
 Gaussian 16:  ES64L-G16RevC.01  3-Jul-2019

 ----------------------------------------------------------------------
 #t hf aug-cc-pvdz iop(5/13=1,5/36=2,99/5=2) pseudo=read geom=check gue
 ss=(read,tcheck) scf=(maxcycle=1)
 ----------------------------------------------------------------------
 -----
 title
 -----
 Structure from the checkpoint file:  "BDE49_nonexpt_833_mol1.chk"
 Charge =  0 Multiplicity = 1

                         Standard orientation:
 ---------------------------------------------------------------------
 Center     Atomic      Atomic             Coordinates (Angstroms)
 Number     Number       Type             X           Y           Z
 ---------------------------------------------------------------------
      1          6           0        2.715873   -1.302712    0.488938
      2          6           0        1.419555   -1.491245    0.015334
      3          6           0        3.235808   -0.014874    0.562126
      4          6           0        2.457788    1.068808    0.161652
      5          6           0        1.155048    0.893885   -0.314652
      6          6           0        0.616352   -0.413288   -0.391890
      7          1           0        3.313583   -2.154573    0.793582
      8          1           0        1.024501   -2.500413   -0.045189
      9          5           0       -2.473207   -0.062645    0.422540
     10          8           0       -2.063783    0.483807    1.610836
     11          8           0       -3.808415   -0.135633    0.174278
     12          1           0        2.870382    2.071353    0.215742
     13          1           0        4.244069    0.148958    0.926403
     14          6           0        0.353234    2.100729   -0.749194
     15          1           0        0.922957    3.021907   -0.614881
     16          1           0       -0.573127    2.200147   -0.174063
     17          1           0        0.069881    2.033206   -1.803926
     18          1           0       -4.335532    0.211801    0.905908
     19          1           0       -1.107879    0.472532    1.722899
     20         14           0       -1.152039   -0.760510   -0.966909
     21          1           0       -1.404861   -0.145134   -2.295263
     22          1           0       -1.273737   -2.232615   -1.121979
 ---------------------------------------------------------------------

 SCF Done:  E(RHF) =  -735.154179355     A.U. after    2 cycles

 The electronic state is 1-A.
 Alpha  occ. eigenvalues --  -69.04850 -20.58889 -20.58313 -11.26232 -11.25238
 Alpha  occ. eigenvalues --  -11.25229 -11.24554 -11.24543 -11.24167 -11.23515
 Alpha  occ. eigenvalues --   -7.66085  -6.80359  -3.91108  -3.91091  -3.91010
 Alpha  occ. eigenvalues --   -1.34835  -1.31086  -1.14737  -1.04502  -1.01064
 Alpha  occ. eigenvalues --   -0.93661  -0.83144  -0.80772  -0.78713  -0.75513
 Alpha  occ. eigenvalues --   -0.71150  -0.67213  -0.64830  -0.62913  -0.62048
 Alpha  occ. eigenvalues --   -0.59610  -0.58859  -0.58177  -0.58143  -0.55678
 Alpha  occ. eigenvalues --   -0.53961  -0.52419  -0.50015  -0.49599  -0.47004
 Alpha  occ. eigenvalues --   -0.45021  -0.41778  -0.34238  -0.33456
 Alpha virt. eigenvalues --    0.03000   0.03664   0.03992   0.04540   0.05523
 Alpha virt. eigenvalues --    0.05654   0.06659   0.06825   0.07198   0.07434
 Alpha virt. eigenvalues --    0.07927   0.08720   0.09269   0.09407   0.09885

 Mulliken charges:
               1
     1  C    0.589606
     2  C    0.502605
     3  C    0.383040
     4  C    1.027938
     5  C   -0.436176
     6  C   -0.295151
     7  H   -0.447445
     8  H   -0.668666
     9  B    1.164014
    10  O   -0.485244
    11  O   -0.488383
    12  H   -0.584483
    13  H   -0.455116
    14  C    0.708890
    15  H   -0.259574
    16  H   -0.005702
    17  H    0.088158
    18  H    0.184159
    19  H    0.221267
    20  Si  -0.991914
    21  H    0.236601
    22  H    0.011577
 Sum of Mulliken charges =  -0.00000

 Dipole moment (field-independent basis, Debye):
    X=              1.4620    Y=              0.8687    Z=              1.0513  Tot=              1.9994

 Test job not archived.
 1\1\GINC-SE072\SP\RHF\Aug-CC-pVDZ\C7H11B1O2Si1\OHZDE\09-Apr-2025\0\\#t
  hf aug-cc-pvdz iop(5/13=1,5/36=2,99/5=2) pseudo=read geom=check guess
 =(read,tcheck) scf=(maxcycle=1)\\title\\0,1\C,0,2.715873,-1.302712,0.4
 88938\C,0,1.419555,-1.491245,0.015334\C,0,3.235808,-0.014874,0.562126\
 C,0,2.457788,1.068808,0.161652\C,0,1.155048,0.893885,-0.314652\C,0,0.6
 16352,-0.413288,-0.39189\H,0,3.313583,-2.154573,0.793582\H,0,1.024501,
 -2.500413,-0.045189\B,0,-2.473207,-0.062645,0.42254\O,0,-2.063783,0.48
 3807,1.610836\O,0,-3.808415,-0.135633,0.174278\H,0,2.870382,2.071353,0

 Normal termination of Gaussian 16 at Wed Apr  9 00:48:09 2025.
