 Gaussian 16, Revision C.01,

 ----------------------------------------------------------------------
 #t hf aug-cc-pvdz symm=none int=(grid=ultrafine) guess=(read,tcheck) s
 table=(opt,rrhf)
 ----------------------------------------------------------------------
 -----
 title
 -----
 Symbolic Z-matrix:
 Charge =  0 Multiplicity = 1

 SCF Done:  E(RHF) =  -729.289557062     A.U. after   13 cycles
 Normal termination of Gaussian 16 at Wed Apr  9 00:35:53 2025.
 Gaussian 16:  ES64L-G16RevC.01  3-Jul-2019

 ----------------------------------------------------------------------
 #t hf aug-cc-pvdz iop(5/13=1,5/36=2,99/5=2) pseudo=read geom=check gue
 ss=(read,tcheck) scf=(maxcycle=1)
 ----------------------------------------------------------------------
 -----
 title
 -----
 Structure from the checkpoint file:  "BDE49_nonexpt_555_mol1.chk"
 Charge =  0 Multiplicity = 1

                         Standard orientation:
 ---------------------------------------------------------------------
 Center     Atomic      Atomic             Coordinates (Angstroms)
 Number     Number       Type             X           Y           Z
 ---------------------------------------------------------------------
      1          7           0        0.253088    0.418903   -0.000003
      2          5           0       -1.031038   -0.213821   -0.000006
      3          8           0       -2.123117    0.616941   -0.000007
      4          6           0        0.534977    1.840230    0.000004
      5          1           0        1.095533    2.139734    0.891284
      6          1           0       -0.429743    2.348638   -0.000004
      7         17           0        1.671835   -0.585645    0.000007
      8          1           0        1.095551    2.139739   -0.891263
      9          1           0       -2.940414    0.110953   -0.000010
     10          8           0       -1.211814   -1.569459   -0.000005
     11          1           0       -0.388968   -2.067542   -0.000003
 ---------------------------------------------------------------------

 SCF Done:  E(RHF) =  -729.401702751     A.U. after    2 cycles

 The electronic state is 1-A.
 Alpha  occ. eigenvalues -- -103.69581 -20.58401 -20.58130 -15.67235 -11.27800
 Alpha  occ. eigenvalues --  -10.72562  -8.38314  -8.37977  -8.37916  -7.68032
 Alpha  occ. eigenvalues --   -1.34965  -1.31236  -1.24446  -1.07490  -0.90838
 Alpha  occ. eigenvalues --   -0.77953  -0.75758  -0.68240  -0.63864  -0.62818
 Alpha  occ. eigenvalues --   -0.59159  -0.58749  -0.57772  -0.53530  -0.53002
 Alpha  occ. eigenvalues --   -0.51450  -0.48117  -0.38240
 Alpha virt. eigenvalues --    0.03636   0.04680   0.05113   0.05286   0.07237
 Alpha virt. eigenvalues --    0.07783   0.07876   0.08915   0.10065   0.11172
 Alpha virt. eigenvalues --    0.13378   0.15225   0.15256   0.16905   0.17477

 Mulliken charges:
               1
     1  N   -0.581787
     2  B    0.684839
     3  O   -0.488519
     4  C    0.729591
     5  H   -0.123591
     6  H   -0.193474
     7  Cl   0.134557
     8  H   -0.123593
     9  H    0.174216
    10  O   -0.375724
    11  H    0.163485
 Sum of Mulliken charges =   0.00000

 Dipole moment (field-independent basis, Debye):
    X=              0.0563    Y=              0.3870    Z=             -0.0000  Tot=              0.3910

 Test job not archived.
 1\1\GINC-SE366\SP\RHF\Aug-CC-pVDZ\C1H5B1Cl1N1O2\OHZDE\09-Apr-2025\0\\#
 t hf aug-cc-pvdz iop(5/13=1,5/36=2,99/5=2) pseudo=read geom=check gues
 s=(read,tcheck) scf=(maxcycle=1)\\title\\0,1\N,0,0.253088,0.418903,-0.
 000003\B,0,-1.031038,-0.213821,-0.000006\O,0,-2.123117,0.616941,-0.000
 007\C,0,0.534977,1.84023,0.000004\H,0,1.095533,2.139734,0.891284\H,0,-
 0.429743,2.348638,-0.000004\Cl,0,1.671835,-0.585645,0.000007\H,0,1.095
 551,2.139739,-0.891263\H,0,-2.940414,0.110953,-0.00001\O,0,-1.211814,-
 1.569459,-0.000005\H,0,-0.388968,-2.067542,-0.000003\\Version=ES64L-G1

 Normal termination of Gaussian 16 at Wed Apr  9 00:35:56 2025.
