 Gaussian 16, Revision C.01,

 ----------------------------------------------------------------------
 #t hf aug-cc-pvdz symm=none int=(grid=ultrafine) guess=(read,tcheck) s
 table=(opt,rrhf)
 ----------------------------------------------------------------------
 -----
 title
 -----
 Symbolic Z-matrix:
 Charge =  0 Multiplicity = 1

 SCF Done:  E(RHF) =  -447.186135598     A.U. after   15 cycles
 Normal termination of Gaussian 16 at Tue Apr  8 23:01:46 2025.
 Gaussian 16:  ES64L-G16RevC.01  3-Jul-2019

 ----------------------------------------------------------------------
 #t hf aug-cc-pvdz iop(5/13=1,5/36=2,99/5=2) pseudo=read geom=check gue
 ss=(read,tcheck) scf=(maxcycle=1)
 ----------------------------------------------------------------------
 -----
 title
 -----
 Structure from the checkpoint file:  "BDE49_expt_330_mol1.chk"
 Charge =  0 Multiplicity = 1

                         Standard orientation:
 ---------------------------------------------------------------------
 Center     Atomic      Atomic             Coordinates (Angstroms)
 Number     Number       Type             X           Y           Z
 ---------------------------------------------------------------------
      1          6           0       -0.075339   -0.888474   -0.000015
      2          7           0        1.234013   -0.150089   -0.000000
      3          7           0       -1.232450    0.096659   -0.000016
      4          1           0       -0.152739   -1.477601    0.908244
      5          1           0       -0.152724   -1.477587   -0.908285
      6          8           0        1.701408    0.119113    1.091109
      7          8           0        1.701450    0.119090   -1.091096
      8          8           0       -0.985027    1.281822   -0.000042
      9          8           0       -2.324511   -0.437519    0.000060
 ---------------------------------------------------------------------

 SCF Done:  E(RHF) =  -447.323185646     A.U. after    2 cycles

 The electronic state is 1-A.
 Alpha  occ. eigenvalues --  -20.66847 -20.66148 -20.66078 -20.66069 -15.96698
 Alpha  occ. eigenvalues --  -15.95845 -11.41841  -1.60577  -1.58874  -1.42105
 Alpha  occ. eigenvalues --   -1.41210  -1.17500  -0.98613  -0.88382  -0.83490
 Alpha  occ. eigenvalues --   -0.81055  -0.80469  -0.77230  -0.77102  -0.73265
 Alpha  occ. eigenvalues --   -0.67415  -0.57413  -0.55682  -0.55651  -0.53574
 Alpha  occ. eigenvalues --   -0.51788  -0.50517
 Alpha virt. eigenvalues --    0.02222   0.03137   0.03732   0.05372   0.07543
 Alpha virt. eigenvalues --    0.08757   0.12721   0.13528   0.13891   0.14219
 Alpha virt. eigenvalues --    0.14793   0.14859   0.18029   0.21149   0.22252

 Mulliken charges:
               1
     1  C    1.449540
     2  N    0.476315
     3  N    0.395464
     4  H   -0.086670
     5  H   -0.086668
     6  O   -0.544596
     7  O   -0.544594
     8  O   -0.503436
     9  O   -0.555354
 Sum of Mulliken charges =   0.00000

 Dipole moment (field-independent basis, Debye):
    X=             -0.3191    Y=             -3.9074    Z=             -0.0001  Tot=              3.9204

 Test job not archived.
 1\1\GINC-SE083\SP\RHF\Aug-CC-pVDZ\C1H2N2O4\OHZDE\08-Apr-2025\0\\#t hf
 aug-cc-pvdz iop(5/13=1,5/36=2,99/5=2) pseudo=read geom=check guess=(re
 ad,tcheck) scf=(maxcycle=1)\\title\\0,1\C,0,-0.075339,-0.888474,-0.000
 015\N,0,1.234013,-0.150089,0.\N,0,-1.23245,0.096659,-0.000016\H,0,-0.1
 52739,-1.477601,0.908244\H,0,-0.152724,-1.477587,-0.908285\O,0,1.70140
 8,0.119113,1.091109\O,0,1.70145,0.11909,-1.091096\O,0,-0.985027,1.2818
 22,-0.000042\O,0,-2.324511,-0.437519,0.00006\\Version=ES64L-G16RevC.01
 \State=1-A\HF=-447.3231856\RMSD=3.534e-03\Dipole=-0.1255389,-1.5372832

 Normal termination of Gaussian 16 at Tue Apr  8 23:01:50 2025.
