 Gaussian 16, Revision C.01,

 ----------------------------------------------------------------------
 #t hf aug-cc-pvdz symm=none int=(grid=ultrafine) guess=(read,tcheck) s
 table=opt
 ----------------------------------------------------------------------
 -----
 title
 -----
 Symbolic Z-matrix:
 Charge =  0 Multiplicity = 2

 SCF Done:  E(UHF) =  -778.822844868     A.U. after   25 cycles
 Normal termination of Gaussian 16 at Wed Apr  9 00:23:20 2025.
 Gaussian 16:  ES64L-G16RevC.01  3-Jul-2019

 ----------------------------------------------------------------------
 #t hf aug-cc-pvdz iop(5/13=1,5/36=2,99/5=2) pseudo=read geom=check gue
 ss=(read,tcheck) scf=(maxcycle=1)
 ----------------------------------------------------------------------
 -----
 title
 -----
 Structure from the checkpoint file:  "BDE49_nonexpt_2678_mol2.chk"
 Charge =  0 Multiplicity = 2

                         Standard orientation:
 ---------------------------------------------------------------------
 Center     Atomic      Atomic             Coordinates (Angstroms)
 Number     Number       Type             X           Y           Z
 ---------------------------------------------------------------------
      1         16           0        1.060509   -1.157669   -1.079767
      2          6           0        0.028146    0.053698   -0.105580
      3          8           0       -1.100213    0.248442   -0.878051
      4          8           0        0.654084    1.266921    0.086618
      5          8           0       -0.235484   -0.495045    1.156990
      6          6           0       -1.893449    1.408862   -0.564111
      7          1           0       -2.817508    1.281854   -1.125717
      8          1           0       -1.385813    2.321984   -0.875061
      9          1           0       -2.110937    1.457829    0.505802
     10          6           0        1.816977    1.276146    0.915961
     11          1           0        2.194208    2.296932    0.883418
     12          1           0        2.573361    0.592414    0.517768
     13          1           0        1.568713    0.999077    1.941788
     14          6           0       -1.172604   -1.577701    1.214045
     15          1           0       -1.100782   -1.975351    2.225330
     16          1           0       -0.921481   -2.355309    0.489918
     17          1           0       -2.189433   -1.225292    1.026671
 ---------------------------------------------------------------------

 SCF Done:  E(UHF) =  -778.964845209     A.U. after    2 cycles

 The electronic state is 2-A.
 Alpha  occ. eigenvalues --  -93.55017 -20.59577 -20.59476 -20.59286 -11.44414
 Alpha  occ. eigenvalues --  -11.29159 -11.29124 -11.28887  -8.84772  -6.20155
 Alpha  occ. eigenvalues --   -6.18474  -6.18015  -1.43243  -1.32988  -1.32746
 Alpha  occ. eigenvalues --   -1.02555  -0.96015  -0.94392  -0.93006  -0.79592
 Alpha  occ. eigenvalues --   -0.73535  -0.73272  -0.69253  -0.65530  -0.64223
 Alpha  occ. eigenvalues --   -0.62198  -0.60721  -0.59687  -0.55253  -0.54448
 Alpha  occ. eigenvalues --   -0.52388  -0.51105  -0.48014  -0.47799  -0.43710
 Alpha  occ. eigenvalues --   -0.43359  -0.38067
 Alpha virt. eigenvalues --    0.03470   0.04541   0.04636   0.05544   0.06208
 Alpha virt. eigenvalues --    0.06294   0.06972   0.07406   0.08989   0.09302
 Alpha virt. eigenvalues --    0.11123   0.12531   0.13190   0.14116   0.14694

  Beta  occ. eigenvalues --  -93.54101 -20.59498 -20.59391 -20.59298 -11.44557
  Beta  occ. eigenvalues --  -11.29151 -11.29128 -11.28881  -8.83752  -6.17910
  Beta  occ. eigenvalues --   -6.17459  -6.16149  -1.43149  -1.32877  -1.32590
  Beta  occ. eigenvalues --   -1.01230  -0.95209  -0.94206  -0.88129  -0.78539
  Beta  occ. eigenvalues --   -0.73479  -0.73079  -0.67177  -0.65402  -0.63926
  Beta  occ. eigenvalues --   -0.62014  -0.60679  -0.59643  -0.55031  -0.54200
  Beta  occ. eigenvalues --   -0.52173  -0.51006  -0.47883  -0.47204  -0.42381
  Beta  occ. eigenvalues --   -0.35743
  Beta virt. eigenvalues --    0.01960   0.03519   0.04553   0.04703   0.05570
  Beta virt. eigenvalues --    0.06216   0.06318   0.07043   0.07423   0.09004
  Beta virt. eigenvalues --    0.09633   0.11201   0.13226   0.13420   0.14445

 Mulliken charges and spin densities:
               1          2
     1  S    0.163904   1.103405
     2  C    0.639328  -0.049900
     3  O   -0.655256  -0.021023
     4  O   -0.644066   0.001662
     5  O   -0.651197   0.001536
     6  C    0.769874  -0.006871
     7  H   -0.226617  -0.000464
     8  H   -0.074006  -0.000264
     9  H   -0.080994  -0.000106
    10  C    0.743822  -0.001074
    11  H   -0.246947   0.000228
    12  H   -0.065967  -0.013507
    13  H   -0.076351   0.000485
    14  C    0.794765   0.000131
    15  H   -0.241668   0.000462
    16  H   -0.048447  -0.014932
    17  H   -0.100178   0.000233
 Sum of Mulliken charges =  -0.00000   1.00000

 Dipole moment (field-independent basis, Debye):
    X=             -0.9165    Y=              0.4887    Z=              1.6401  Tot=              1.9413
                          Isotropic Fermi Contact Couplings
        Atom                 a.u.       MegaHertz       Gauss      10(-4) cm-1
     1  S(33)              0.19048      65.42394      23.34489      21.82308
     2  C(13)             -0.03034     -34.10414     -12.16921     -11.37592
     3  O(17)              0.02742     -16.62257      -5.93135      -5.54469
     4  O(17)             -0.00261       1.58319       0.56492       0.52810
     5  O(17)              0.01439      -8.72349      -3.11276      -2.90984
     6  C(13)              0.00091       1.02313       0.36508       0.34128
     7  H(1)               0.00004       0.16404       0.05853       0.05472
     8  H(1)              -0.00006      -0.28511      -0.10174      -0.09510

 Normal termination of Gaussian 16 at Wed Apr  9 00:23:29 2025.
