 Gaussian 16, Revision C.01,

 ----------------------------------------------------------------------
 #t hf aug-cc-pvdz symm=none int=(grid=ultrafine) guess=(read,tcheck) s
 table=(opt,rrhf)
 ----------------------------------------------------------------------
 -----
 title
 -----
 Symbolic Z-matrix:
 Charge =  0 Multiplicity = 1

 SCF Done:  E(RHF) =  -330.124883489     A.U. after   14 cycles
 Normal termination of Gaussian 16 at Tue Apr  8 23:35:43 2025.
 Gaussian 16:  ES64L-G16RevC.01  3-Jul-2019

 ----------------------------------------------------------------------
 #t hf aug-cc-pvdz iop(5/13=1,5/36=2,99/5=2) pseudo=read geom=check gue
 ss=(read,tcheck) scf=(maxcycle=1)
 ----------------------------------------------------------------------
 -----
 title
 -----
 Structure from the checkpoint file:  "BDE49_nonexpt_150_mol1.chk"
 Charge =  0 Multiplicity = 1

                         Standard orientation:
 ---------------------------------------------------------------------
 Center     Atomic      Atomic             Coordinates (Angstroms)
 Number     Number       Type             X           Y           Z
 ---------------------------------------------------------------------
      1          5           0        0.550459   -1.181206   -0.528372
      2          5           0       -0.599469   -1.147987    0.569819
      3          5           0       -1.789822    0.015649    0.132888
      4          8           0       -1.501118    1.337856   -0.004218
      5          6           0       -3.276953   -0.446941   -0.123802
      6          1           0       -3.759957   -0.681295    0.833475
      7          1           0       -3.336284   -1.363035   -0.721444
      8          1           0       -3.865711    0.332477   -0.617131
      9          5           0        1.764233   -0.050801   -0.149042
     10          8           0        1.382112    1.270458   -0.038939
     11          6           0        3.260632   -0.474721    0.110986
     12          1           0        3.338123   -1.418596    0.659285
     13          1           0        3.847799    0.278896    0.650953
     14          1           0        3.753650   -0.647876   -0.854537
     15          1           0       -0.557537    1.538713    0.088732
     16          1           0        2.104168    1.870444    0.183589
     17          1           0       -0.688239   -1.662070    1.643376
     18          1           0        0.586951   -1.762469   -1.570612
 ---------------------------------------------------------------------

 SCF Done:  E(RHF) =  -330.234603751     A.U. after    2 cycles

 The electronic state is 1-A.
 Alpha  occ. eigenvalues --  -20.60533 -20.56260 -11.21892 -11.19046  -7.63347
 Alpha  occ. eigenvalues --   -7.60771  -7.57417  -7.57087  -1.34452  -1.30410
 Alpha  occ. eigenvalues --   -0.95460  -0.92807  -0.79760  -0.74685  -0.72249
 Alpha  occ. eigenvalues --   -0.65630  -0.62799  -0.58866  -0.58478  -0.56433
 Alpha  occ. eigenvalues --   -0.55055  -0.54768  -0.53578  -0.51866  -0.51522
 Alpha  occ. eigenvalues --   -0.50365  -0.46843  -0.40722  -0.36402
 Alpha virt. eigenvalues --    0.02288   0.03800   0.04313   0.04550   0.05431
 Alpha virt. eigenvalues --    0.05716   0.05839   0.06179   0.06717   0.07230
 Alpha virt. eigenvalues --    0.07865   0.07963   0.08502   0.09029   0.09115

 Mulliken charges:
               1
     1  B    0.078583
     2  B   -0.032069
     3  B    0.470924
     4  O   -0.633355
     5  C    0.422668
     6  H   -0.084755
     7  H   -0.192715
     8  H   -0.367464
     9  B    0.505820
    10  O   -0.649889
    11  C    0.451845
    12  H   -0.226372
    13  H   -0.355127
    14  H   -0.100132
    15  H    0.274589
    16  H    0.154125
    17  H    0.154433
    18  H    0.128892
 Sum of Mulliken charges =  -0.00000

 Dipole moment (field-independent basis, Debye):
    X=              3.3985    Y=             -0.1706    Z=              0.5051  Tot=              3.4401

 Test job not archived.
 1\1\GINC-SE060\SP\RHF\Aug-CC-pVDZ\C2H10B4O2\OHZDE\08-Apr-2025\0\\#t hf
  aug-cc-pvdz iop(5/13=1,5/36=2,99/5=2) pseudo=read geom=check guess=(r
 ead,tcheck) scf=(maxcycle=1)\\title\\0,1\B,0,0.550459,-1.181206,-0.528
 372\B,0,-0.599469,-1.147987,0.569819\B,0,-1.789822,0.015649,0.132888\O
 ,0,-1.501118,1.337856,-0.004218\C,0,-3.276953,-0.446941,-0.123802\H,0,
 -3.759957,-0.681295,0.833475\H,0,-3.336284,-1.363035,-0.721444\H,0,-3.
 865711,0.332477,-0.617131\B,0,1.764233,-0.050801,-0.149042\O,0,1.38211
 2,1.270458,-0.038939\C,0,3.260632,-0.474721,0.110986\H,0,3.338123,-1.4

 Normal termination of Gaussian 16 at Tue Apr  8 23:35:51 2025.
