 Gaussian 16, Revision C.01,

 ----------------------------------------------------------------------
 #t hf aug-cc-pvdz symm=none int=(grid=ultrafine) guess=(read,tcheck) s
 table=(opt,rrhf)
 ----------------------------------------------------------------------
 -----
 title
 -----
 Symbolic Z-matrix:
 Charge =  0 Multiplicity = 1

 SCF Done:  E(RHF) =  -1559.93470795     A.U. after   14 cycles
 Normal termination of Gaussian 16 at Wed Apr  9 00:11:54 2025.
 Gaussian 16:  ES64L-G16RevC.01  3-Jul-2019

 ----------------------------------------------------------------------
 #t hf aug-cc-pvdz iop(5/13=1,5/36=2,99/5=2) pseudo=read geom=check gue
 ss=(read,tcheck) scf=(maxcycle=1)
 ----------------------------------------------------------------------
 -----
 title
 -----
 Structure from the checkpoint file:  "BDE49_nonexpt_2429_mol1.chk"
 Charge =  0 Multiplicity = 1

                         Standard orientation:
 ---------------------------------------------------------------------
 Center     Atomic      Atomic             Coordinates (Angstroms)
 Number     Number       Type             X           Y           Z
 ---------------------------------------------------------------------
      1         14           0        0.533563    1.058038    0.008375
      2         14           0       -0.533563   -1.058038    0.008379
      3         16           0       -2.631306   -0.783872   -0.636398
      4          1           0       -0.523766   -1.689124    1.341761
      5          1           0        0.001228   -1.964030   -1.027113
      6          6           0       -2.973756    0.531838    0.383099
      7          7           0       -3.199522    1.442096    1.064552
      8         16           0        2.631306    0.783870   -0.636402
      9          1           0        0.523767    1.689128    1.341755
     10          1           0       -0.001229    1.964026   -1.027119
     11          6           0        2.973756   -0.531836    0.383099
     12          7           0        3.199523   -1.442092    1.064556
 ---------------------------------------------------------------------

 SCF Done:  E(RHF) =  -1560.06547844     A.U. after    2 cycles

 The electronic state is 1-A.
 Alpha  occ. eigenvalues --  -93.60386 -93.60386 -69.13737 -69.13737 -15.66584
 Alpha  occ. eigenvalues --  -15.66584 -11.33045 -11.33045  -8.90176  -8.90176
 Alpha  occ. eigenvalues --   -6.88814  -6.88811  -6.24393  -6.24389  -6.24057
 Alpha  occ. eigenvalues --   -6.24052  -6.23770  -6.23762  -3.99620  -3.99619
 Alpha  occ. eigenvalues --   -3.99521  -3.99487  -3.99479  -3.99422  -1.21779
 Alpha  occ. eigenvalues --   -1.21689  -1.04556  -1.04222  -0.77962  -0.72797
 Alpha  occ. eigenvalues --   -0.66500  -0.64258  -0.56955  -0.56821  -0.56321
 Alpha  occ. eigenvalues --   -0.56020  -0.54839  -0.54386  -0.52695  -0.51981
 Alpha  occ. eigenvalues --   -0.47010  -0.44921  -0.44332  -0.40803  -0.39110
 Alpha virt. eigenvalues --    0.03101   0.03340   0.04122   0.05767   0.06242
 Alpha virt. eigenvalues --    0.06267   0.06606   0.07207   0.07733   0.08675
 Alpha virt. eigenvalues --    0.08826   0.08972   0.09841   0.10730   0.11454

 Mulliken charges:
               1
     1  Si   0.288735
     2  Si   0.288736
     3  S    0.004613
     4  H    0.177697
     5  H    0.121353
     6  C   -0.431348
     7  N   -0.161051
     8  S    0.004613
     9  H    0.177697
    10  H    0.121353
    11  C   -0.431346
    12  N   -0.161053
 Sum of Mulliken charges =  -0.00000

 Dipole moment (field-independent basis, Debye):
    X=             -0.0000    Y=             -0.0000    Z=             -2.7029  Tot=              2.7029

 Test job not archived.
 1\1\GINC-SE402\SP\RHF\Aug-CC-pVDZ\C2H4N2S2Si2\OHZDE\09-Apr-2025\0\\#t
 hf aug-cc-pvdz iop(5/13=1,5/36=2,99/5=2) pseudo=read geom=check guess=
 (read,tcheck) scf=(maxcycle=1)\\title\\0,1\Si,0,-0.533563,-1.058038,0.
 008375\Si,0,0.533563,1.058038,0.008379\S,0,2.631306,0.783872,-0.636398
 \H,0,0.523766,1.689124,1.341761\H,0,-0.001228,1.96403,-1.027113\C,0,2.
 973756,-0.531838,0.383099\N,0,3.199522,-1.442096,1.064552\S,0,-2.63130
 6,-0.78387,-0.636402\H,0,-0.523767,-1.689128,1.341755\H,0,0.001229,-1.
 964026,-1.027119\C,0,-2.973756,0.531836,0.383099\N,0,-3.199523,1.44209

 Normal termination of Gaussian 16 at Wed Apr  9 00:12:01 2025.
