 Gaussian 16, Revision C.01,

 ----------------------------------------------------------------------
 #t hf aug-cc-pvdz symm=none int=(grid=ultrafine) guess=(read,tcheck) s
 table=(opt,rrhf)
 ----------------------------------------------------------------------
 -----
 title
 -----
 Symbolic Z-matrix:
 Charge =  0 Multiplicity = 1

 SCF Done:  E(RHF) =  -627.083445653     A.U. after   15 cycles
 Normal termination of Gaussian 16 at Tue Apr  8 23:31:47 2025.
 Gaussian 16:  ES64L-G16RevC.01  3-Jul-2019

 ----------------------------------------------------------------------
 #t hf aug-cc-pvdz iop(5/13=1,5/36=2,99/5=2) pseudo=read geom=check gue
 ss=(read,tcheck) scf=(maxcycle=1)
 ----------------------------------------------------------------------
 -----
 title
 -----
 Structure from the checkpoint file:  "BDE49_nonexpt_1427_mol1.chk"
 Charge =  0 Multiplicity = 1

                         Standard orientation:
 ---------------------------------------------------------------------
 Center     Atomic      Atomic             Coordinates (Angstroms)
 Number     Number       Type             X           Y           Z
 ---------------------------------------------------------------------
      1          6           0       -0.237763   -1.200570   -0.001476
      2          6           0        1.152280   -1.203857   -0.004658
      3          6           0        1.867087    0.002165   -0.005826
      4          6           0       -0.968851   -0.006670    0.000023
      5          6           0       -0.246252    1.195788   -0.001945
      6          6           0        1.139870    1.205918   -0.005423
      7          1           0       -0.764952   -2.148862    0.001328
      8          1           0        1.690846   -2.146286   -0.009853
      9          7           0        3.255500    0.012346   -0.066328
     10          1           0        3.716916   -0.826322    0.252077
     11          1           0        3.705489    0.852943    0.263087
     12         15           0       -2.807522   -0.114558    0.005914
     13          1           0        1.673524    2.151399   -0.012030
     14          1           0       -0.775500    2.142491    0.000069
     15          1           0       -3.083153    0.815786   -1.031889
     16          1           0       -3.077058    0.834154    1.028625
 ---------------------------------------------------------------------

 SCF Done:  E(RHF) =  -627.188415393     A.U. after    2 cycles

 The electronic state is 1-A.
 Alpha  occ. eigenvalues --  -81.25102 -15.63895 -11.29934 -11.25415 -11.25271
 Alpha  occ. eigenvalues --  -11.24019 -11.23875 -11.23763  -7.75424  -4.89483
 Alpha  occ. eigenvalues --   -4.89335  -4.89158  -1.20530  -1.12139  -1.01385
 Alpha  occ. eigenvalues --   -0.98894  -0.84151  -0.83510  -0.76711  -0.70678
 Alpha  occ. eigenvalues --   -0.69764  -0.63517  -0.60725  -0.59265  -0.59206
 Alpha  occ. eigenvalues --   -0.54507  -0.51340  -0.49785  -0.47586  -0.44640
 Alpha  occ. eigenvalues --   -0.35096  -0.34707  -0.30044
 Alpha virt. eigenvalues --    0.02903   0.03729   0.04087   0.05684   0.06099
 Alpha virt. eigenvalues --    0.07163   0.07651   0.08769   0.09225   0.09400
 Alpha virt. eigenvalues --    0.10738   0.11993   0.12322   0.12824   0.12987

 Mulliken charges:
               1
     1  C    0.385214
     2  C    0.823306
     3  C    0.103703
     4  C   -0.409576
     5  C    0.921820
     6  C    0.740340
     7  H   -0.497261
     8  H   -0.590321
     9  N   -0.290846
    10  H   -0.035749
    11  H   -0.039925
    12  P   -0.212710
    13  H   -0.593369
    14  H   -0.511593
    15  H    0.104741
    16  H    0.102226
 Sum of Mulliken charges =  -0.00000

 Dipole moment (field-independent basis, Debye):
    X=              2.6239    Y=              0.6413    Z=              0.9169  Tot=              2.8525

 Test job not archived.
 1\1\GINC-SE118\SP\RHF\Aug-CC-pVDZ\C6H8N1P1\OHZDE\08-Apr-2025\0\\#t hf
 aug-cc-pvdz iop(5/13=1,5/36=2,99/5=2) pseudo=read geom=check guess=(re
 ad,tcheck) scf=(maxcycle=1)\\title\\0,1\C,0,-0.237763,-1.20057,-0.0014
 76\C,0,1.15228,-1.203857,-0.004658\C,0,1.867087,0.002165,-0.005826\C,0
 ,-0.968851,-0.00667,0.000023\C,0,-0.246252,1.195788,-0.001945\C,0,1.13
 987,1.205918,-0.005423\H,0,-0.764952,-2.148862,0.001328\H,0,1.690846,-
 2.146286,-0.009853\N,0,3.2555,0.012346,-0.066328\H,0,3.716916,-0.82632
 2,0.252077\H,0,3.705489,0.852943,0.263087\P,0,-2.807522,-0.114558,0.00

 Normal termination of Gaussian 16 at Tue Apr  8 23:31:54 2025.
