 Gaussian 16, Revision C.01,

 ----------------------------------------------------------------------
 #t hf aug-cc-pvdz symm=none int=(grid=ultrafine) guess=(read,tcheck) s
 table=(opt,rrhf)
 ----------------------------------------------------------------------
 -----
 title
 -----
 Symbolic Z-matrix:
 Charge =  0 Multiplicity = 1

 SCF Done:  E(RHF) =  -482.068701615     A.U. after   13 cycles
 Normal termination of Gaussian 16 at Tue Apr  8 23:49:30 2025.
 Gaussian 16:  ES64L-G16RevC.01  3-Jul-2019

 ----------------------------------------------------------------------
 #t hf aug-cc-pvdz iop(5/13=1,5/36=2,99/5=2) pseudo=read geom=check gue
 ss=(read,tcheck) scf=(maxcycle=1)
 ----------------------------------------------------------------------
 -----
 title
 -----
 Structure from the checkpoint file:  "BDE49_nonexpt_1869_mol1.chk"
 Charge =  0 Multiplicity = 1

                         Standard orientation:
 ---------------------------------------------------------------------
 Center     Atomic      Atomic             Coordinates (Angstroms)
 Number     Number       Type             X           Y           Z
 ---------------------------------------------------------------------
      1         14           0       -2.153669   -0.033657   -0.000018
      2          6           0       -0.317080   -0.463334    0.000054
      3          6           0        2.092869    0.397771    0.000127
      4          8           0        2.534381   -0.722038   -0.000135
      5          1           0       -2.498673    0.766320    1.201341
      6          1           0       -2.498600    0.766238   -1.201452
      7          1           0       -2.970468   -1.270080    0.000000
      8          6           0        0.619689    0.748042    0.000055
      9          1           0        0.449368    1.398044   -0.869961
     10          1           0        0.449313    1.398085    0.870029
     11          1           0        2.775977    1.277006   -0.000193
     12          1           0       -0.101706   -1.091514   -0.870497
     13          1           0       -0.101762   -1.091471    0.870648
 ---------------------------------------------------------------------

 SCF Done:  E(RHF) =  -482.153003639     A.U. after    2 cycles

 The electronic state is 1-A.
 Alpha  occ. eigenvalues --  -69.06396 -20.57783 -11.34927 -11.26452 -11.23326
 Alpha  occ. eigenvalues --   -6.81733  -3.92507  -3.92500  -3.92497  -1.36602
 Alpha  occ. eigenvalues --   -1.05732  -0.91086  -0.78209  -0.70981  -0.67433
 Alpha  occ. eigenvalues --   -0.64559  -0.64397  -0.55002  -0.53924  -0.50849
 Alpha  occ. eigenvalues --   -0.48209  -0.47402  -0.46555  -0.42573
 Alpha virt. eigenvalues --    0.03057   0.04021   0.04894   0.05107   0.05950
 Alpha virt. eigenvalues --    0.06444   0.07618   0.08806   0.08999   0.09425
 Alpha virt. eigenvalues --    0.10138   0.11475   0.11493   0.13737   0.15144

 Mulliken charges:
               1
     1  Si   0.338897
     2  C    0.259962
     3  C    0.586190
     4  O   -0.456584
     5  H    0.000871
     6  H    0.000879
     7  H   -0.020176
     8  C   -0.208952
     9  H   -0.050909
    10  H   -0.050861
    11  H   -0.121126
    12  H   -0.139084
    13  H   -0.139109
 Sum of Mulliken charges =  -0.00000

 Dipole moment (field-independent basis, Debye):
    X=             -1.0343    Y=              2.5094    Z=              0.0004  Tot=              2.7142

 Test job not archived.
 1\1\GINC-SE220\SP\RHF\Aug-CC-pVDZ\C3H8O1Si1\OHZDE\08-Apr-2025\0\\#t hf
  aug-cc-pvdz iop(5/13=1,5/36=2,99/5=2) pseudo=read geom=check guess=(r
 ead,tcheck) scf=(maxcycle=1)\\title\\0,1\Si,0,2.153669,-0.033657,0.000
 018\C,0,0.31708,-0.463334,-0.000054\C,0,-2.092869,0.397771,-0.000127\O
 ,0,-2.534381,-0.722038,0.000135\H,0,2.498673,0.76632,-1.201341\H,0,2.4
 986,0.766238,1.201452\H,0,2.970468,-1.27008,0.\C,0,-0.619689,0.748042,
 -0.000055\H,0,-0.449368,1.398044,0.869961\H,0,-0.449313,1.398085,-0.87
 0029\H,0,-2.775977,1.277006,0.000193\H,0,0.101706,-1.091514,0.870497\H

 Normal termination of Gaussian 16 at Tue Apr  8 23:49:34 2025.
