 Gaussian 16, Revision C.01,

 ----------------------------------------------------------------------
 #t hf aug-cc-pvdz symm=none int=(grid=ultrafine) guess=(read,tcheck) s
 table=(opt,rrhf)
 ----------------------------------------------------------------------
 -----
 title
 -----
 Symbolic Z-matrix:
 Charge =  0 Multiplicity = 1

 SCF Done:  E(RHF) =  -1190.23884843     A.U. after   15 cycles
 Normal termination of Gaussian 16 at Wed Apr  9 00:23:10 2025.
 Gaussian 16:  ES64L-G16RevC.01  3-Jul-2019

 ----------------------------------------------------------------------
 #t hf aug-cc-pvdz iop(5/13=1,5/36=2,99/5=2) pseudo=read geom=check gue
 ss=(read,tcheck) scf=(maxcycle=1)
 ----------------------------------------------------------------------
 -----
 title
 -----
 Structure from the checkpoint file:  "BDE49_nonexpt_2464_mol1.chk"
 Charge =  0 Multiplicity = 1

                         Standard orientation:
 ---------------------------------------------------------------------
 Center     Atomic      Atomic             Coordinates (Angstroms)
 Number     Number       Type             X           Y           Z
 ---------------------------------------------------------------------
      1         14           0       -0.955984    2.397519   -0.704281
      2         14           0        0.955984    2.397519    0.704281
      3          6           0        1.963154    0.837478    0.390210
      4          1           0        0.507993    2.444467    2.119703
      5          1           0        1.808081    3.582619    0.433854
      6          6           0        1.454310   -0.414578    0.770008
      7          6           0        3.165763    0.878042   -0.329456
      8          6           0        3.830044   -0.303751   -0.660610
      9          6           0        3.301130   -1.540058   -0.309675
     10          6           0        2.099103   -1.593915    0.399681
     11          1           0        3.586789    1.829784   -0.633778
     12          1           0        4.765282   -0.261942   -1.208038
     13          6           0       -1.963154    0.837478   -0.390210
     14          1           0       -0.507993    2.444467   -2.119703
     15          1           0       -1.808081    3.582619   -0.433854
     16          6           0       -1.454310   -0.414578   -0.770008
     17          6           0       -3.165763    0.878042    0.329456
     18          6           0       -3.830044   -0.303751    0.660610
     19          6           0       -3.301130   -1.540058    0.309675
     20          6           0       -2.099103   -1.593915   -0.399681
     21          1           0       -3.586789    1.829784    0.633778
     22          1           0       -4.765282   -0.261942    1.208038
     23          8           0        1.584122   -2.831934    0.677033
     24          8           0       -1.584122   -2.831934   -0.677034
     25          1           0        3.795265   -2.466185   -0.577435
     26          1           0       -3.795265   -2.466185    0.577435
     27          1           0        0.527555   -0.480465    1.333075
     28          1           0       -0.527555   -0.480465   -1.333075
     29          1           0        0.754590   -2.737365    1.158772
     30          1           0       -0.754590   -2.737365   -1.158772
 ---------------------------------------------------------------------

 SCF Done:  E(RHF) =  -1190.45922492     A.U. after    2 cycles

 The electronic state is 1-A.
 Alpha  occ. eigenvalues --  -69.06417 -69.06417 -20.61207 -20.61207 -11.32115
 Alpha  occ. eigenvalues --  -11.32115 -11.25704 -11.25704 -11.25223 -11.25223
 Alpha  occ. eigenvalues --  -11.24894 -11.24894 -11.24841 -11.24841 -11.24734
 Alpha  occ. eigenvalues --  -11.24733  -6.81801  -6.81801  -3.92557  -3.92547
 Alpha  occ. eigenvalues --   -3.92538  -3.92535  -3.92510  -3.92428  -1.37440
 Alpha  occ. eigenvalues --   -1.37262  -1.14501  -1.14324  -1.02273  -1.01828
 Alpha  occ. eigenvalues --   -1.00884  -1.00739  -0.85992  -0.85607  -0.83590
 Alpha  occ. eigenvalues --   -0.83054  -0.75902  -0.74802  -0.71911  -0.70107
 Alpha  occ. eigenvalues --   -0.68946  -0.66708  -0.66085  -0.64479  -0.61952
 Alpha  occ. eigenvalues --   -0.61217  -0.61179  -0.60688  -0.59054  -0.58978
 Alpha  occ. eigenvalues --   -0.56237  -0.55504  -0.52334  -0.52253  -0.50676
 Alpha  occ. eigenvalues --   -0.50243  -0.48405  -0.48012  -0.45885  -0.45416
 Alpha  occ. eigenvalues --   -0.40828  -0.34916  -0.34835  -0.32609  -0.32394
 Alpha virt. eigenvalues --    0.03015   0.03593   0.03946   0.04355   0.04730
 Alpha virt. eigenvalues --    0.05020   0.05883   0.05948   0.06455   0.06867
 Alpha virt. eigenvalues --    0.07028   0.07788   0.07938   0.08080   0.08510

 Mulliken charges:
               1
     1  Si  -0.456430
     2  Si  -0.456429
     3  C   -0.937310
     4  H    0.227048
     5  H    0.085663
     6  C    1.431289
     7  C    0.937411
     8  C    0.594282
     9  C    1.121003
    10  C   -0.135034
    11  H   -0.637908
    12  H   -0.456973
    13  C   -0.937310
    14  H    0.227048
    15  H    0.085663
    16  C    1.431288
    17  C    0.937411
    18  C    0.594282
    19  C    1.121003
    20  C   -0.135034
    21  H   -0.637908
    22  H   -0.456973
    23  O   -0.567044
    24  O   -0.567044
    25  H   -0.510193
    26  H   -0.510193
    27  H   -0.834248
    28  H   -0.834248
    29  H    0.138443
    30  H    0.138442
 Sum of Mulliken charges =  -0.00000

 Dipole moment (field-independent basis, Debye):
    X=             -0.0000    Y=              0.8615    Z=              0.0000  Tot=              0.8615

 Test job not archived.
 1\1\GINC-SE344\SP\RHF\Aug-CC-pVDZ\C12H14O2Si2\OHZDE\09-Apr-2025\0\\#t
 hf aug-cc-pvdz iop(5/13=1,5/36=2,99/5=2) pseudo=read geom=check guess=
 (read,tcheck) scf=(maxcycle=1)\\title\\0,1\Si,0,0.955984,2.397519,0.70
 4281\Si,0,-0.955984,2.397519,-0.704281\C,0,-1.963154,0.837478,-0.39021
 \H,0,-0.507993,2.444467,-2.119703\H,0,-1.808081,3.582619,-0.433854\C,0
 ,-1.45431,-0.414578,-0.770008\C,0,-3.165763,0.878042,0.329456\C,0,-3.8
 30044,-0.303751,0.66061\C,0,-3.30113,-1.540058,0.309675\C,0,-2.099103,
 -1.593915,-0.399681\H,0,-3.586789,1.829784,0.633778\H,0,-4.765282,-0.2

 Normal termination of Gaussian 16 at Wed Apr  9 00:23:53 2025.
