 Gaussian 16, Revision C.01,

 ----------------------------------------------------------------------
 #t hf aug-cc-pvdz symm=none int=(grid=ultrafine) guess=(read,tcheck) s
 table=(opt,rrhf)
 ----------------------------------------------------------------------
 -----
 title
 -----
 Symbolic Z-matrix:
 Charge =  0 Multiplicity = 1

 SCF Done:  E(RHF) =  -399.667552758     A.U. after   15 cycles
 Normal termination of Gaussian 16 at Tue Apr  8 22:41:30 2025.
 Gaussian 16:  ES64L-G16RevC.01  3-Jul-2019

 ----------------------------------------------------------------------
 #t hf aug-cc-pvdz iop(5/13=1,5/36=2,99/5=2) pseudo=read geom=check gue
 ss=(read,tcheck) scf=(maxcycle=1)
 ----------------------------------------------------------------------
 -----
 title
 -----
 Structure from the checkpoint file:  "BDE49_expt_1404_mol1.chk"
 Charge =  0 Multiplicity = 1

                         Standard orientation:
 ---------------------------------------------------------------------
 Center     Atomic      Atomic             Coordinates (Angstroms)
 Number     Number       Type             X           Y           Z
 ---------------------------------------------------------------------
      1          6           0       -1.709553    1.066150   -0.002872
      2          6           0       -1.650372   -0.339721   -0.007384
      3          6           0       -0.401235   -0.963656   -0.006611
      4          6           0       -0.536044    1.803216    0.003446
      5          6           0        0.718090    1.188970    0.004394
      6          6           0        0.773511   -0.207701   -0.001071
      7          1           0       -2.672443    1.565525   -0.010928
      8          1           0       -0.315934   -2.044497   -0.015445
      9          1           0       -0.590778    2.886515    0.008456
     10          1           0        1.614888    1.791741    0.009928
     11          8           0        1.930158   -0.934787    0.001122
     12          6           0        3.166191   -0.236638    0.003446
     13          1           0        3.940253   -1.002708    0.002889
     14          1           0        3.275578    0.386521    0.898210
     15          1           0        3.277067    0.389408   -0.889029
     16          7           0       -2.821140   -1.096264   -0.074067
     17          1           0       -3.646230   -0.639076    0.284837
     18          1           0       -2.739210   -2.045008    0.260478
 ---------------------------------------------------------------------

 SCF Done:  E(RHF) =  -399.790127139     A.U. after    2 cycles

 The electronic state is 1-A.
 Alpha  occ. eigenvalues --  -20.59584 -15.63049 -11.31010 -11.29338 -11.29129
 Alpha  occ. eigenvalues --  -11.24838 -11.22480 -11.22461 -11.22261  -1.36455
 Alpha  occ. eigenvalues --   -1.19531  -1.11099  -1.01564  -0.97993  -0.93768
 Alpha  occ. eigenvalues --   -0.83337  -0.80462  -0.72437  -0.70119  -0.66654
 Alpha  occ. eigenvalues --   -0.66136  -0.64085  -0.63940  -0.59011  -0.57238
 Alpha  occ. eigenvalues --   -0.54167  -0.53188  -0.52072  -0.50140  -0.48892
 Alpha  occ. eigenvalues --   -0.43458  -0.32189  -0.29549
 Alpha virt. eigenvalues --    0.03353   0.03704   0.03996   0.05218   0.05759
 Alpha virt. eigenvalues --    0.06114   0.07182   0.08350   0.09857   0.10883
 Alpha virt. eigenvalues --    0.11134   0.12153   0.12814   0.13418   0.14087

 Mulliken charges:
               1
     1  C    0.694060
     2  C    0.429210
     3  C    0.619320
     4  C    0.401182
     5  C    0.358998
     6  C    0.639426
     7  H   -0.565076
     8  H   -0.636799
     9  H   -0.447486
    10  H   -0.738398
    11  O   -0.709321
    12  C    0.842155
    13  H   -0.322457
    14  H   -0.085167
    15  H   -0.084801
    16  N   -0.327512
    17  H   -0.035141
    18  H   -0.032192
 Sum of Mulliken charges =  -0.00000

 Dipole moment (field-independent basis, Debye):
    X=             -0.0661    Y=              0.5038    Z=              0.9837  Tot=              1.1072

 Test job not archived.
 1\1\GINC-SE402\SP\RHF\Aug-CC-pVDZ\C7H9N1O1\OHZDE\08-Apr-2025\0\\#t hf
 aug-cc-pvdz iop(5/13=1,5/36=2,99/5=2) pseudo=read geom=check guess=(re
 ad,tcheck) scf=(maxcycle=1)\\title\\0,1\C,0,-1.709553,1.06615,-0.00287
 2\C,0,-1.650372,-0.339721,-0.007384\C,0,-0.401235,-0.963656,-0.006611\
 C,0,-0.536044,1.803216,0.003446\C,0,0.71809,1.18897,0.004394\C,0,0.773
 511,-0.207701,-0.001071\H,0,-2.672443,1.565525,-0.010928\H,0,-0.315934
 ,-2.044497,-0.015445\H,0,-0.590778,2.886515,0.008456\H,0,1.614888,1.79
 1741,0.009928\O,0,1.930158,-0.934787,0.001122\C,0,3.166191,-0.236638,0

 Normal termination of Gaussian 16 at Tue Apr  8 22:41:38 2025.
