 Gaussian 16, Revision C.01,

 ----------------------------------------------------------------------
 #t hf aug-cc-pvdz symm=none int=(grid=ultrafine) guess=(read,tcheck) s
 table=opt
 ----------------------------------------------------------------------
 -----
 title
 -----
 Symbolic Z-matrix:
 Charge =  0 Multiplicity = 2

 SCF Done:  E(UHF) =  -459.472781141     A.U. after   10 cycles
 Normal termination of Gaussian 16 at Tue Apr  8 22:46:26 2025.
 Gaussian 16:  ES64L-G16RevC.01  3-Jul-2019

 ----------------------------------------------------------------------
 #t hf aug-cc-pvdz iop(5/13=1,5/36=2,99/5=2) pseudo=read geom=check gue
 ss=(read,tcheck) scf=(maxcycle=1)
 ----------------------------------------------------------------------
 -----
 title
 -----
 Structure from the checkpoint file:  "BDE49_expt_1610_mol3.chk"
 Charge =  0 Multiplicity = 2

                         Standard orientation:
 ---------------------------------------------------------------------
 Center     Atomic      Atomic             Coordinates (Angstroms)
 Number     Number       Type             X           Y           Z
 ---------------------------------------------------------------------
      1         17           0        0.000000    0.000000    0.000000
 ---------------------------------------------------------------------

 SCF Done:  E(UHF) =  -459.490043324     A.U. after    2 cycles

 Unable to determine electronic state:  an orbital has unidentified symmetry.
 Alpha  occ. eigenvalues -- -103.71787 -10.74795  -8.42343  -8.39805  -8.39805
 Alpha  occ. eigenvalues --   -1.18602  -0.59417  -0.51766  -0.51766
 Alpha virt. eigenvalues --    0.12512   0.13603   0.13603   0.13627   0.41059
 Alpha virt. eigenvalues --    0.42020   0.42020   0.45116   0.45116   0.81474
 Alpha virt. eigenvalues --    0.85794   0.85794   1.07569   1.29821   1.31071

  Beta  occ. eigenvalues -- -103.70657 -10.73649  -8.39197  -8.39197  -8.37445
  Beta  occ. eigenvalues --   -1.06360  -0.49254  -0.49254
  Beta virt. eigenvalues --   -0.05590   0.13739   0.13739   0.14314   0.14966
  Beta virt. eigenvalues --    0.45423   0.45423   0.46962   0.46962   0.47621
  Beta virt. eigenvalues --    0.86724   0.86724   0.89807   1.10098   1.36222

 Mulliken charges and spin densities:
               1          2
     1  Cl  -0.000000   1.000000
 Sum of Mulliken charges =  -0.00000   1.00000

 Dipole moment (field-independent basis, Debye):
    X=              0.0000    Y=             -0.0000    Z=             -0.0000  Tot=              0.0000
                          Isotropic Fermi Contact Couplings
        Atom                 a.u.       MegaHertz       Gauss      10(-4) cm-1
     1  Cl(35)             0.12043      52.80491      18.84210      17.61382
 --------------------------------------------------------
       Center         ----  Spin Dipole Couplings  ----
                      3XX-RR        3YY-RR        3ZZ-RR
 --------------------------------------------------------
     1   Atom        4.425406     -2.614647     -1.810759
 --------------------------------------------------------
                        XY            XZ            YZ

 Normal termination of Gaussian 16 at Tue Apr  8 22:46:27 2025.
