 Gaussian 16, Revision C.01,

 ----------------------------------------------------------------------
 #t hf aug-cc-pvdz symm=none int=(grid=ultrafine) guess=(read,tcheck) s
 table=(opt,rrhf)
 ----------------------------------------------------------------------
 -----
 title
 -----
 Symbolic Z-matrix:
 Charge =  0 Multiplicity = 1

 SCF Done:  E(RHF) =  -896.863792543     A.U. after   16 cycles
 Normal termination of Gaussian 16 at Tue Apr  8 22:44:22 2025.
 Gaussian 16:  ES64L-G16RevC.01  3-Jul-2019

 ----------------------------------------------------------------------
 #t hf aug-cc-pvdz iop(5/13=1,5/36=2,99/5=2) pseudo=read geom=check gue
 ss=(read,tcheck) scf=(maxcycle=1)
 ----------------------------------------------------------------------
 -----
 title
 -----
 Structure from the checkpoint file:  "BDE49_expt_1226_mol1.chk"
 Charge =  0 Multiplicity = 1

                         Standard orientation:
 ---------------------------------------------------------------------
 Center     Atomic      Atomic             Coordinates (Angstroms)
 Number     Number       Type             X           Y           Z
 ---------------------------------------------------------------------
      1          6           0       -1.658016    0.579407    0.482207
      2          6           0       -0.727998    1.718147    0.796099
      3         16           0        0.596537    2.025801   -0.470510
      4          1           0       -0.241832    1.580190    1.762461
      5          1           0       -1.264316    2.669624    0.822553
      6          6           0        1.616044    0.563130   -0.291256
      7          6           0        1.405189   -0.549179   -1.112012
      8          6           0        2.659305    0.544609    0.641210
      9          6           0        3.474412   -0.578593    0.757418
     10          6           0        3.258610   -1.686898   -0.060286
     11          6           0        2.225361   -1.669547   -0.994631
     12          1           0        2.055780   -2.528284   -1.634471
     13          1           0        0.600543   -0.529639   -1.836191
     14          1           0        4.282471   -0.584700    1.480478
     15          1           0        3.897246   -2.558688    0.027403
     16          1           0        2.832032    1.414894    1.263343
     17          6           0       -2.679575    0.727571   -0.464029
     18          6           0       -1.518114   -0.652372    1.128130
     19          6           0       -2.378336   -1.710752    0.839703
     20          6           0       -3.391837   -1.550599   -0.100766
     21          6           0       -3.540176   -0.325910   -0.752554
     22          1           0       -2.795954    1.675753   -0.978864
     23          1           0       -4.329557   -0.192321   -1.483981
     24          1           0       -2.255673   -2.658780    1.351563
     25          1           0       -4.063727   -2.371592   -0.324392
     26          1           0       -0.730818   -0.783355    1.862845
 ---------------------------------------------------------------------

 SCF Done:  E(RHF) =  -897.027971726     A.U. after    2 cycles

 The electronic state is 1-A.
 Alpha  occ. eigenvalues --  -93.53190 -11.27641 -11.27326 -11.25468 -11.25296
 Alpha  occ. eigenvalues --  -11.25261 -11.25117 -11.25000 -11.24891 -11.24679
 Alpha  occ. eigenvalues --  -11.24630 -11.24476 -11.24435 -11.24422  -8.82841
 Alpha  occ. eigenvalues --   -6.17053  -6.16811  -6.16503  -1.15397  -1.14715
 Alpha  occ. eigenvalues --   -1.06620  -1.02795  -1.01603  -1.01095  -0.96578
 Alpha  occ. eigenvalues --   -0.88048  -0.83506  -0.83199  -0.81162  -0.78410
 Alpha  occ. eigenvalues --   -0.70604  -0.69757  -0.65185  -0.64368  -0.63739
 Alpha  occ. eigenvalues --   -0.63308  -0.59742  -0.59339  -0.58783  -0.57714
 Alpha  occ. eigenvalues --   -0.56341  -0.53399  -0.51099  -0.50575  -0.50194
 Alpha  occ. eigenvalues --   -0.49530  -0.48175  -0.44300  -0.35444  -0.34775
 Alpha  occ. eigenvalues --   -0.34428  -0.33826  -0.32329
 Alpha virt. eigenvalues --    0.03179   0.03643   0.03949   0.04535   0.04880
 Alpha virt. eigenvalues --    0.05221   0.05889   0.06258   0.06927   0.07347
 Alpha virt. eigenvalues --    0.07986   0.08603   0.09084   0.09867   0.10493

 Mulliken charges:
               1
     1  C    0.811389
     2  C    0.094146
     3  S    0.201383
     4  H   -0.317995
     5  H   -0.170662
     6  C    0.268511
     7  C    0.617241
     8  C    0.217135
     9  C    0.441221
    10  C    0.603877
    11  C    0.279984
    12  H   -0.485497
    13  H   -0.595010
    14  H   -0.448700
    15  H   -0.452173
    16  H   -0.542917
    17  C    0.459821
    18  C    0.702029
    19  C    0.070981
    20  C    0.717517
    21  C    0.247325
    22  H   -0.628118
    23  H   -0.460969
    24  H   -0.483785
    25  H   -0.450668
    26  H   -0.696064
 Sum of Mulliken charges =  -0.00000

 Dipole moment (field-independent basis, Debye):
    X=             -0.1709    Y=             -1.5094    Z=              0.9695  Tot=              1.8021

 Test job not archived.
 1\1\GINC-SE220\SP\RHF\Aug-CC-pVDZ\C13H12S1\OHZDE\08-Apr-2025\0\\#t hf
 aug-cc-pvdz iop(5/13=1,5/36=2,99/5=2) pseudo=read geom=check guess=(re
 ad,tcheck) scf=(maxcycle=1)\\title\\0,1\C,0,-1.658016,0.579407,0.48220
 7\C,0,-0.727998,1.718147,0.796099\S,0,0.596537,2.025801,-0.47051\H,0,-
 0.241832,1.58019,1.762461\H,0,-1.264316,2.669624,0.822553\C,0,1.616044
 ,0.56313,-0.291256\C,0,1.405189,-0.549179,-1.112012\C,0,2.659305,0.544
 609,0.64121\C,0,3.474412,-0.578593,0.757418\C,0,3.25861,-1.686898,-0.0
 60286\C,0,2.225361,-1.669547,-0.994631\H,0,2.05578,-2.528284,-1.634471

 Normal termination of Gaussian 16 at Tue Apr  8 22:44:52 2025.
