 Gaussian 16, Revision C.01,

 ----------------------------------------------------------------------
 #t hf aug-cc-pvdz symm=none int=(grid=ultrafine) guess=(read,tcheck) s
 table=opt
 ----------------------------------------------------------------------
 -----
 title
 -----
 Symbolic Z-matrix:
 Charge =  0 Multiplicity = 2

 SCF Done:  E(UHF) =  -566.548292849     A.U. after   17 cycles
 Normal termination of Gaussian 16 at Tue Apr  8 23:22:54 2025.
 Gaussian 16:  ES64L-G16RevC.01  3-Jul-2019

 ----------------------------------------------------------------------
 #t hf aug-cc-pvdz iop(5/13=1,5/36=2,99/5=2) pseudo=read geom=check gue
 ss=(read,tcheck) scf=(maxcycle=1)
 ----------------------------------------------------------------------
 -----
 title
 -----
 Structure from the checkpoint file:  "BDE49_nonexpt_1269_mol3.chk"
 Charge =  0 Multiplicity = 2

                         Standard orientation:
 ---------------------------------------------------------------------
 Center     Atomic      Atomic             Coordinates (Angstroms)
 Number     Number       Type             X           Y           Z
 ---------------------------------------------------------------------
      1         15           0       -0.153537   -0.076245    0.313484
      2          8           0       -1.472970   -0.410611   -0.258385
      3          8           0        1.086070   -1.012373   -0.129311
      4          8           0        0.469703    1.373070   -0.120349
      5          1           0       -0.213654    2.049728   -0.210755
      6          1           0        1.854286   -0.506732   -0.427147
 ---------------------------------------------------------------------

 SCF Done:  E(UHF) =  -566.683147124     A.U. after    2 cycles

 The electronic state is 2-A.
 Alpha  occ. eigenvalues --  -81.42822 -20.64124 -20.63466 -20.56685  -7.91445
 Alpha  occ. eigenvalues --   -5.05919  -5.05535  -5.05523  -1.40132  -1.36379
 Alpha  occ. eigenvalues --   -1.29971  -0.86069  -0.79574  -0.69913  -0.66984
 Alpha  occ. eigenvalues --   -0.64067  -0.63132  -0.59736  -0.54628  -0.52309
 Alpha  occ. eigenvalues --   -0.41324
 Alpha virt. eigenvalues --    0.02964   0.04582   0.07899   0.08624   0.09781
 Alpha virt. eigenvalues --    0.13201   0.17013   0.18014   0.18838   0.20228
 Alpha virt. eigenvalues --    0.20856   0.22859   0.23321   0.25003   0.26423

  Beta  occ. eigenvalues --  -81.42281 -20.63554 -20.62903 -20.55375  -7.90612
  Beta  occ. eigenvalues --   -5.05418  -5.05237  -5.03889  -1.38367  -1.34653
  Beta  occ. eigenvalues --   -1.25925  -0.83462  -0.78449  -0.67882  -0.63784
  Beta  occ. eigenvalues --   -0.61695  -0.58969  -0.57449  -0.51026  -0.48639
  Beta virt. eigenvalues --    0.00843   0.04547   0.04812   0.08616   0.09032
  Beta virt. eigenvalues --    0.10095   0.15522   0.17489   0.18503   0.19184
  Beta virt. eigenvalues --    0.20407   0.21246   0.24106   0.25071   0.26190

 Mulliken charges and spin densities:
               1          2
     1  P    1.804548   0.688582
     2  O   -0.804700   0.226243
     3  O   -0.647406   0.038504
     4  O   -0.693293   0.058732
     5  H    0.164184  -0.010228
     6  H    0.176667  -0.001832
 Sum of Mulliken charges =   0.00000   1.00000

 Dipole moment (field-independent basis, Debye):
    X=              2.6912    Y=              2.6798    Z=              0.8825  Tot=              3.8990
                          Isotropic Fermi Contact Couplings
        Atom                 a.u.       MegaHertz       Gauss      10(-4) cm-1
     1  P(31)              1.05599    1912.50546     682.42950     637.94315
     2  O(17)              0.10733     -65.06284     -23.21604     -21.70263
     3  O(17)              0.12487     -75.69785     -27.01087     -25.25008
     4  O(17)              0.09823     -59.54385     -21.24673     -19.86169
     5  H(1)              -0.00275     -12.29370      -4.38670      -4.10074
     6  H(1)              -0.00059      -2.64095      -0.94236      -0.88093
 --------------------------------------------------------
       Center         ----  Spin Dipole Couplings  ----

 Normal termination of Gaussian 16 at Tue Apr  8 23:22:56 2025.
