 Gaussian 16, Revision C.01,

 ----------------------------------------------------------------------
 #t hf aug-cc-pvdz symm=none int=(grid=ultrafine) guess=(read,tcheck) s
 table=(opt,rrhf)
 ----------------------------------------------------------------------
 -----
 title
 -----
 Symbolic Z-matrix:
 Charge =  0 Multiplicity = 1

 SCF Done:  E(RHF) =  -931.614332142     A.U. after   12 cycles
 Normal termination of Gaussian 16 at Wed Apr  9 00:13:14 2025.
 Gaussian 16:  ES64L-G16RevC.01  3-Jul-2019

 ----------------------------------------------------------------------
 #t hf aug-cc-pvdz iop(5/13=1,5/36=2,99/5=2) pseudo=read geom=check gue
 ss=(read,tcheck) scf=(maxcycle=1)
 ----------------------------------------------------------------------
 -----
 title
 -----
 Structure from the checkpoint file:  "BDE49_nonexpt_2453_mol1.chk"
 Charge =  0 Multiplicity = 1

                         Standard orientation:
 ---------------------------------------------------------------------
 Center     Atomic      Atomic             Coordinates (Angstroms)
 Number     Number       Type             X           Y           Z
 ---------------------------------------------------------------------
      1         14           0        1.066108   -1.256054    0.527690
      2         14           0       -1.060315   -1.253121   -0.499292
      3          5           0       -2.075843    0.449431    0.004789
      4          1           0       -1.804516   -2.488643   -0.148946
      5          1           0       -0.809308   -1.287647   -1.967480
      6          5           0        2.064150    0.441716   -0.003104
      7          1           0        1.889648   -2.441875    0.161150
      8          1           0        0.921051   -1.271960    2.008831
      9          8           0       -1.493414    1.663219    0.190635
     10          1           0       -0.528071    1.687150    0.089731
     11          8           0       -3.426655    0.339354    0.158163
     12          1           0       -3.825658    1.188467    0.390867
     13          8           0        3.387389    0.541609   -0.319159
     14          1           0        3.864295   -0.290635   -0.265478
     15          8           0        1.332875    1.606740   -0.072965
     16          1           0        1.868360    2.370489   -0.328077
 ---------------------------------------------------------------------

 SCF Done:  E(RHF) =  -931.775329318     A.U. after    2 cycles

 The electronic state is 1-A.
 Alpha  occ. eigenvalues --  -69.04925 -69.04319 -20.60969 -20.60580 -20.57620
 Alpha  occ. eigenvalues --  -20.57126  -7.68201  -7.65734  -6.80500  -6.79859
 Alpha  occ. eigenvalues --   -3.91260  -3.91235  -3.91206  -3.90614  -3.90603
 Alpha  occ. eigenvalues --   -3.90550  -1.37087  -1.33804  -1.33130  -1.29919
 Alpha  occ. eigenvalues --   -0.81308  -0.78714  -0.77768  -0.74930  -0.71844
 Alpha  occ. eigenvalues --   -0.66622  -0.63469  -0.61831  -0.61453  -0.60415
 Alpha  occ. eigenvalues --   -0.58283  -0.57179  -0.54766  -0.51301  -0.48548
 Alpha  occ. eigenvalues --   -0.47359  -0.43811  -0.41576  -0.37520
 Alpha virt. eigenvalues --    0.02782   0.04021   0.04530   0.04940   0.05504
 Alpha virt. eigenvalues --    0.06323   0.06900   0.07018   0.07800   0.08038
 Alpha virt. eigenvalues --    0.08698   0.09085   0.09752   0.10011   0.10104

 Mulliken charges:
               1
     1  Si  -0.655161
     2  Si  -0.710763
     3  B    1.049542
     4  H    0.110664
     5  H    0.125470
     6  B    1.028639
     7  H    0.102767
     8  H    0.110168
     9  O   -0.464982
    10  H    0.290217
    11  O   -0.514417
    12  H    0.187831
    13  O   -0.470433
    14  H    0.178815
    15  O   -0.547375
    16  H    0.179018
 Sum of Mulliken charges =  -0.00000

 Dipole moment (field-independent basis, Debye):
    X=              2.9011    Y=              0.7375    Z=             -0.1144  Tot=              2.9955

 Test job not archived.
 1\1\GINC-SE331\SP\RHF\Aug-CC-pVDZ\B2H8O4Si2\OHZDE\09-Apr-2025\0\\#t hf
  aug-cc-pvdz iop(5/13=1,5/36=2,99/5=2) pseudo=read geom=check guess=(r
 ead,tcheck) scf=(maxcycle=1)\\title\\0,1\Si,0,1.066108,-1.256054,0.527
 69\Si,0,-1.060315,-1.253121,-0.499292\B,0,-2.075843,0.449431,0.004789\
 H,0,-1.804516,-2.488643,-0.148946\H,0,-0.809308,-1.287647,-1.96748\B,0
 ,2.06415,0.441716,-0.003104\H,0,1.889648,-2.441875,0.16115\H,0,0.92105
 1,-1.27196,2.008831\O,0,-1.493414,1.663219,0.190635\H,0,-0.528071,1.68
 715,0.089731\O,0,-3.426655,0.339354,0.158163\H,0,-3.825658,1.188467,0.

 Normal termination of Gaussian 16 at Wed Apr  9 00:13:21 2025.
