 Gaussian 16, Revision C.01,

 ----------------------------------------------------------------------
 #t hf aug-cc-pvdz symm=none int=(grid=ultrafine) guess=(read,tcheck) s
 table=(opt,rrhf)
 ----------------------------------------------------------------------
 -----
 title
 -----
 Symbolic Z-matrix:
 Charge =  0 Multiplicity = 1

 SCF Done:  E(RHF) =  -879.597350799     A.U. after   14 cycles
 Normal termination of Gaussian 16 at Tue Apr  8 23:52:40 2025.
 Gaussian 16:  ES64L-G16RevC.01  3-Jul-2019

 ----------------------------------------------------------------------
 #t hf aug-cc-pvdz iop(5/13=1,5/36=2,99/5=2) pseudo=read geom=check gue
 ss=(read,tcheck) scf=(maxcycle=1)
 ----------------------------------------------------------------------
 -----
 title
 -----
 Structure from the checkpoint file:  "BDE49_nonexpt_1947_mol1.chk"
 Charge =  0 Multiplicity = 1

                         Standard orientation:
 ---------------------------------------------------------------------
 Center     Atomic      Atomic             Coordinates (Angstroms)
 Number     Number       Type             X           Y           Z
 ---------------------------------------------------------------------
      1         14           0       -2.332447   -0.213220   -0.364727
      2          6           0       -0.976802    0.093516    0.940327
      3          6           0        0.397555    0.117245    0.350715
      4         16           0        1.172037    1.471949   -0.173478
      5          8           0        0.886097   -1.124616    0.276306
      6          6           0        2.185071   -1.343500   -0.299731
      7          1           0        2.341827   -2.418220   -0.237081
      8          1           0        2.945470   -0.803561    0.266066
      9          1           0        2.202101   -1.005436   -1.336695
     10          1           0       -3.634702   -0.286126    0.337486
     11          1           0       -2.081164   -1.492172   -1.064914
     12          1           0       -2.357886    0.894479   -1.342557
     13          1           0       -1.047848   -0.710016    1.679874
     14          1           0       -1.189853    1.048307    1.421339
 ---------------------------------------------------------------------

 SCF Done:  E(RHF) =  -879.700126401     A.U. after    2 cycles

 The electronic state is 1-A.
 Alpha  occ. eigenvalues --  -93.49790 -69.07743 -20.63869 -11.39301 -11.30621
 Alpha  occ. eigenvalues --  -11.25143  -8.79765  -6.83000  -6.13985  -6.13522
 Alpha  occ. eigenvalues --   -6.13385  -3.93789  -3.93767  -3.93752  -1.41029
 Alpha  occ. eigenvalues --   -1.07751  -0.96878  -0.94678  -0.77767  -0.71516
 Alpha  occ. eigenvalues --   -0.69213  -0.67505  -0.64350  -0.57930  -0.56839
 Alpha  occ. eigenvalues --   -0.54427  -0.50250  -0.48547  -0.48123  -0.47298
 Alpha  occ. eigenvalues --   -0.36342  -0.34036
 Alpha virt. eigenvalues --    0.03130   0.04149   0.04735   0.05268   0.06218
 Alpha virt. eigenvalues --    0.06351   0.07169   0.07765   0.08412   0.09121
 Alpha virt. eigenvalues --    0.09315   0.09950   0.10622   0.11381   0.13755

 Mulliken charges:
               1
     1  Si   0.306228
     2  C    0.002586
     3  C    0.110521
     4  S   -0.093133
     5  O   -0.606346
     6  C    0.818595
     7  H   -0.249779
     8  H   -0.069201
     9  H   -0.071736
    10  H   -0.004491
    11  H    0.030368
    12  H    0.043523
    13  H   -0.125881
    14  H   -0.091254
 Sum of Mulliken charges =  -0.00000

 Dipole moment (field-independent basis, Debye):
    X=             -0.3419    Y=             -2.2596    Z=              0.5836  Tot=              2.3586

 Test job not archived.
 1\1\GINC-SE402\SP\RHF\Aug-CC-pVDZ\C3H8O1S1Si1\OHZDE\08-Apr-2025\0\\#t
 hf aug-cc-pvdz iop(5/13=1,5/36=2,99/5=2) pseudo=read geom=check guess=
 (read,tcheck) scf=(maxcycle=1)\\title\\0,1\Si,0,-2.332447,-0.21322,-0.
 364727\C,0,-0.976802,0.093516,0.940327\C,0,0.397555,0.117245,0.350715\
 S,0,1.172037,1.471949,-0.173478\O,0,0.886097,-1.124616,0.276306\C,0,2.
 185071,-1.3435,-0.299731\H,0,2.341827,-2.41822,-0.237081\H,0,2.94547,-
 0.803561,0.266066\H,0,2.202101,-1.005436,-1.336695\H,0,-3.634702,-0.28
 6126,0.337486\H,0,-2.081164,-1.492172,-1.064914\H,0,-2.357886,0.894479

 Normal termination of Gaussian 16 at Tue Apr  8 23:52:45 2025.
