 Gaussian 16, Revision C.01,

 ----------------------------------------------------------------------
 #t hf aug-cc-pvdz symm=none int=(grid=ultrafine) guess=(read,tcheck) s
 table=opt
 ----------------------------------------------------------------------
 -----
 title
 -----
 Symbolic Z-matrix:
 Charge =  0 Multiplicity = 2

 SCF Done:  E(UHF) =  -223.634856379     A.U. after   13 cycles
 Normal termination of Gaussian 16 at Tue Apr  8 23:46:12 2025.
 Gaussian 16:  ES64L-G16RevC.01  3-Jul-2019

 ----------------------------------------------------------------------
 #t hf aug-cc-pvdz iop(5/13=1,5/36=2,99/5=2) pseudo=read geom=check gue
 ss=(read,tcheck) scf=(maxcycle=1)
 ----------------------------------------------------------------------
 -----
 title
 -----
 Structure from the checkpoint file:  "BDE49_nonexpt_17_mol3.chk"
 Charge =  0 Multiplicity = 2

                         Standard orientation:
 ---------------------------------------------------------------------
 Center     Atomic      Atomic             Coordinates (Angstroms)
 Number     Number       Type             X           Y           Z
 ---------------------------------------------------------------------
      1          5           0        0.000000   -0.000000    0.506080
      2          9           0        0.000000    1.142623   -0.140578
      3          9           0       -0.000000   -1.142623   -0.140578
 ---------------------------------------------------------------------

 SCF Done:  E(UHF) =  -223.730636355     A.U. after    2 cycles

 The electronic state is 2-A1.
 Alpha  occ. eigenvalues --  -26.16494 -26.16488  -7.78574  -1.72121  -1.70189
 Alpha  occ. eigenvalues --   -0.90419  -0.85526  -0.81214  -0.79092  -0.74397
 Alpha  occ. eigenvalues --   -0.74255  -0.42743
 Alpha virt. eigenvalues --    0.04490   0.05829   0.05916   0.06271   0.11949
 Alpha virt. eigenvalues --    0.20762   0.22474   0.24997   0.26033   0.27275
 Alpha virt. eigenvalues --    0.27343   0.27677   0.31571   0.33755   0.34795

  Beta  occ. eigenvalues --  -26.16133 -26.16126  -7.76292  -1.70926  -1.69007
  Beta  occ. eigenvalues --   -0.89212  -0.83437  -0.78959  -0.77874  -0.74563
  Beta  occ. eigenvalues --   -0.73413
  Beta virt. eigenvalues --    0.02341   0.05153   0.06017   0.06039   0.12236
  Beta virt. eigenvalues --    0.17071   0.20890   0.23615   0.25923   0.27409
  Beta virt. eigenvalues --    0.27937   0.28282   0.28463   0.32285   0.34313

 Mulliken charges and spin densities:
               1          2
     1  B    0.664914   1.049233
     2  F   -0.332457  -0.024616
     3  F   -0.332457  -0.024616
 Sum of Mulliken charges =  -0.00000   1.00000

 Dipole moment (field-independent basis, Debye):
    X=              0.0000    Y=              0.0000    Z=              0.7824  Tot=              0.7824
                          Isotropic Fermi Contact Couplings
        Atom                 a.u.       MegaHertz       Gauss      10(-4) cm-1
     1  B(11)              0.52651     755.20585     269.47623     251.90956
     2  F(19)              0.10856     456.74346     162.97743     152.35322
     3  F(19)              0.10856     456.74346     162.97743     152.35322
 --------------------------------------------------------
       Center         ----  Spin Dipole Couplings  ----
                      3XX-RR        3YY-RR        3ZZ-RR
 --------------------------------------------------------
     1   Atom       -0.152465     -0.194126      0.346591

 Normal termination of Gaussian 16 at Tue Apr  8 23:46:13 2025.
