 Gaussian 16, Revision C.01,

 ----------------------------------------------------------------------
 #t hf aug-cc-pvdz symm=none int=(grid=ultrafine) guess=(read,tcheck) s
 table=(opt,rrhf)
 ----------------------------------------------------------------------
 -----
 title
 -----
 Symbolic Z-matrix:
 Charge =  0 Multiplicity = 1

 SCF Done:  E(RHF) =  -145.769870200     A.U. after   13 cycles
 Normal termination of Gaussian 16 at Wed Apr  9 00:37:50 2025.
 Gaussian 16:  ES64L-G16RevC.01  3-Jul-2019

 ----------------------------------------------------------------------
 #t hf aug-cc-pvdz iop(5/13=1,5/36=2,99/5=2) pseudo=read geom=check gue
 ss=(read,tcheck) scf=(maxcycle=1)
 ----------------------------------------------------------------------
 -----
 title
 -----
 Structure from the checkpoint file:  "BDE49_nonexpt_61_mol1.chk"
 Charge =  0 Multiplicity = 1

                         Standard orientation:
 ---------------------------------------------------------------------
 Center     Atomic      Atomic             Coordinates (Angstroms)
 Number     Number       Type             X           Y           Z
 ---------------------------------------------------------------------
      1          5           0        1.896272   -0.528780    0.000014
      2          5           0        0.759115    0.689154   -0.000010
      3          7           0       -0.629967    0.605673    0.000001
      4          6           0       -1.447725   -0.600962   -0.000014
      5          1           0       -1.173542    1.457614    0.000022
      6          1           0       -0.798948   -1.478167   -0.000031
      7          1           0       -2.088681   -0.652767   -0.886725
      8          1           0       -2.088672   -0.652795    0.886702
      9          1           0        1.218696    1.805695    0.000063
     10          1           0        2.375270   -0.957588    1.010826
     11          1           0        2.375065   -0.957801   -1.010803
 ---------------------------------------------------------------------

 SCF Done:  E(RHF) =  -145.819104921     A.U. after    2 cycles

 The electronic state is 1-A.
 Alpha  occ. eigenvalues --  -15.62066 -11.27052  -7.59255  -7.57829  -1.15455
 Alpha  occ. eigenvalues --   -0.91431  -0.73347  -0.66132  -0.63016  -0.60025
 Alpha  occ. eigenvalues --   -0.54888  -0.51456  -0.47994  -0.40832  -0.39573
 Alpha virt. eigenvalues --    0.03066   0.04114   0.04536   0.04652   0.05965
 Alpha virt. eigenvalues --    0.06637   0.06853   0.07924   0.08176   0.09413
 Alpha virt. eigenvalues --    0.09969   0.10959   0.12891   0.13912   0.14499

 Mulliken charges:
               1
     1  B   -0.448047
     2  B   -0.059146
     3  N   -0.274367
     4  C    0.818088
     5  H   -0.096668
     6  H   -0.261883
     7  H   -0.132205
     8  H   -0.132203
     9  H    0.197530
    10  H    0.194448
    11  H    0.194452
 Sum of Mulliken charges =  -0.00000

 Dipole moment (field-independent basis, Debye):
    X=             -1.9244    Y=             -0.0795    Z=             -0.0000  Tot=              1.9261

 Test job not archived.
 1\1\GINC-SE247\SP\RHF\Aug-CC-pVDZ\C1H7B2N1\OHZDE\09-Apr-2025\0\\#t hf
 aug-cc-pvdz iop(5/13=1,5/36=2,99/5=2) pseudo=read geom=check guess=(re
 ad,tcheck) scf=(maxcycle=1)\\title\\0,1\B,0,1.896272,-0.52878,0.000014
 \B,0,0.759115,0.689154,-0.00001\N,0,-0.629967,0.605673,0.000001\C,0,-1
 .447725,-0.600962,-0.000014\H,0,-1.173542,1.457614,0.000022\H,0,-0.798
 948,-1.478167,-0.000031\H,0,-2.088681,-0.652767,-0.886725\H,0,-2.08867
 2,-0.652795,0.886702\H,0,1.218696,1.805695,0.000063\H,0,2.37527,-0.957
 588,1.010826\H,0,2.375065,-0.957801,-1.010803\\Version=ES64L-G16RevC.0

 Normal termination of Gaussian 16 at Wed Apr  9 00:37:53 2025.
