 Gaussian 16, Revision C.01,

 ----------------------------------------------------------------------
 #t hf aug-cc-pvdz symm=none int=(grid=ultrafine) guess=(read,tcheck) s
 table=(opt,rrhf)
 ----------------------------------------------------------------------
 -----
 title
 -----
 Symbolic Z-matrix:
 Charge =  0 Multiplicity = 1

 SCF Done:  E(RHF) =  -3335.22221614     A.U. after   11 cycles
 Normal termination of Gaussian 16 at Wed Apr  9 00:07:41 2025.
 Gaussian 16:  ES64L-G16RevC.01  3-Jul-2019

 ----------------------------------------------------------------------
 #t hf aug-cc-pvdz iop(5/13=1,5/36=2,99/5=2) pseudo=read geom=check gue
 ss=(read,tcheck) scf=(maxcycle=1)
 ----------------------------------------------------------------------
 -----
 title
 -----
 Structure from the checkpoint file:  "BDE49_nonexpt_2316_mol1.chk"
 Charge =  0 Multiplicity = 1

                         Standard orientation:
 ---------------------------------------------------------------------
 Center     Atomic      Atomic             Coordinates (Angstroms)
 Number     Number       Type             X           Y           Z
 ---------------------------------------------------------------------
      1         14           0        1.175698   -0.000004    0.000005
      2         14           0       -1.175698    0.000004   -0.000006
      3         17           0       -1.863279    1.932964   -0.110266
      4         17           0        1.863280   -1.932964    0.110266
      5         17           0       -1.863333   -0.870997    1.729090
      6         17           0        1.863333    0.870996   -1.729090
      7         17           0       -1.863269   -1.061951   -1.618880
      8         17           0        1.863268    1.061952    1.618880
 ---------------------------------------------------------------------

 SCF Done:  E(RHF) =  -3335.38353797     A.U. after    2 cycles

 The electronic state is 1-A.
 Alpha  occ. eigenvalues -- -103.69095-103.69095-103.69095-103.69094-103.69094
 Alpha  occ. eigenvalues -- -103.69094 -69.22573 -69.22573 -10.72546 -10.72545
 Alpha  occ. eigenvalues --  -10.72531 -10.72531 -10.72531 -10.72531  -8.38238
 Alpha  occ. eigenvalues --   -8.38235  -8.38228  -8.38228  -8.38228  -8.38228
 Alpha  occ. eigenvalues --   -8.37987  -8.37987  -8.37986  -8.37986  -8.37986
 Alpha  occ. eigenvalues --   -8.37983  -8.37983  -8.37982  -8.37978  -8.37978
 Alpha  occ. eigenvalues --   -8.37977  -8.37976  -6.96488  -6.96486  -4.07317
 Alpha  occ. eigenvalues --   -4.07317  -4.07306  -4.07306  -4.07171  -4.07072
 Alpha  occ. eigenvalues --   -1.20149  -1.19348  -1.16521  -1.16521  -1.16468
 Alpha  occ. eigenvalues --   -1.16468  -0.75990  -0.70097  -0.60843  -0.60843
 Alpha  occ. eigenvalues --   -0.59759  -0.59413  -0.59413  -0.53498  -0.53110
 Alpha  occ. eigenvalues --   -0.53110  -0.52619  -0.52619  -0.50914  -0.50914
 Alpha  occ. eigenvalues --   -0.49734  -0.49734  -0.49155  -0.48762  -0.43823
 Alpha virt. eigenvalues --    0.04696   0.04885   0.05525   0.05525   0.07522
 Alpha virt. eigenvalues --    0.07680   0.07680   0.07935   0.08196   0.08196
 Alpha virt. eigenvalues --    0.11396   0.11396   0.12222   0.14224   0.14578

 Mulliken charges:
               1
     1  Si   1.390759
     2  Si   1.390759
     3  Cl  -0.463587
     4  Cl  -0.463587
     5  Cl  -0.463587
     6  Cl  -0.463586
     7  Cl  -0.463586
     8  Cl  -0.463586
 Sum of Mulliken charges =  -0.00000

 Dipole moment (field-independent basis, Debye):
    X=             -0.0000    Y=              0.0000    Z=             -0.0000  Tot=              0.0000

 Test job not archived.
 1\1\GINC-SE362\SP\RHF\Aug-CC-pVDZ\Cl6Si2\OHZDE\09-Apr-2025\0\\#t hf au
 g-cc-pvdz iop(5/13=1,5/36=2,99/5=2) pseudo=read geom=check guess=(read
 ,tcheck) scf=(maxcycle=1)\\title\\0,1\Si,0,1.175698,-0.000004,0.000005
 \Si,0,-1.175698,0.000004,-0.000006\Cl,0,-1.863279,1.932365,-0.120312\C
 l,0,1.86328,-1.932365,0.120312\Cl,0,-1.863332,-0.861997,1.733595\Cl,0,
 1.863332,0.861996,-1.733595\Cl,0,-1.863269,-1.070352,-1.613337\Cl,0,1.
 863269,1.070353,1.613337\\Version=ES64L-G16RevC.01\State=1-A\HF=-3335.
 383538\RMSD=3.659e-03\Dipole=-0.000001,0.0000004,-0.0000046\Quadrupole

 Normal termination of Gaussian 16 at Wed Apr  9 00:07:46 2025.
