 Gaussian 16, Revision C.01,

 ----------------------------------------------------------------------
 #t hf aug-cc-pvdz symm=none int=(grid=ultrafine) guess=(read,tcheck) s
 table=(opt,rrhf)
 ----------------------------------------------------------------------
 -----
 title
 -----
 Symbolic Z-matrix:
 Charge =  0 Multiplicity = 1

 SCF Done:  E(RHF) =  -586.186787323     A.U. after   13 cycles
 Normal termination of Gaussian 16 at Tue Apr  8 23:36:10 2025.
 Gaussian 16:  ES64L-G16RevC.01  3-Jul-2019

 ----------------------------------------------------------------------
 #t hf aug-cc-pvdz iop(5/13=1,5/36=2,99/5=2) pseudo=read geom=check gue
 ss=(read,tcheck) scf=(maxcycle=1)
 ----------------------------------------------------------------------
 -----
 title
 -----
 Structure from the checkpoint file:  "BDE49_nonexpt_1560_mol1.chk"
 Charge =  0 Multiplicity = 1

                         Standard orientation:
 ---------------------------------------------------------------------
 Center     Atomic      Atomic             Coordinates (Angstroms)
 Number     Number       Type             X           Y           Z
 ---------------------------------------------------------------------
      1         15           0       -0.690038   -0.804697    0.132888
      2          7           0        0.717380    0.140201   -0.395184
      3          8           0        0.804030    1.355329    0.350662
      4          8           0        1.850661   -0.655436   -0.022102
      5          6           0       -2.005390    0.442281   -0.228876
      6          1           0       -1.761306    1.423200    0.176628
      7          1           0       -2.936351    0.082699    0.217989
      8          1           0       -2.152796    0.512681   -1.308483
      9          1           0        2.409794   -0.618457   -0.806874
     10          1           0        1.156572    1.983516   -0.291739
     11          1           0       -0.592189   -0.547422    1.530226
 ---------------------------------------------------------------------

 SCF Done:  E(RHF) =  -586.289461813     A.U. after    2 cycles

 The electronic state is 1-A.
 Alpha  occ. eigenvalues --  -81.27947 -20.61786 -20.61678 -15.73753 -11.23880
 Alpha  occ. eigenvalues --   -7.78023  -4.92125  -4.91869  -4.91603  -1.41128
 Alpha  occ. eigenvalues --   -1.31337  -1.02312  -0.95593  -0.75388  -0.72757
 Alpha  occ. eigenvalues --   -0.72085  -0.64189  -0.62151  -0.58419  -0.56722
 Alpha  occ. eigenvalues --   -0.51697  -0.51121  -0.48021  -0.41492  -0.35438
 Alpha virt. eigenvalues --    0.03291   0.04160   0.05141   0.05638   0.07212
 Alpha virt. eigenvalues --    0.07508   0.10046   0.11385   0.11619   0.13399
 Alpha virt. eigenvalues --    0.15411   0.16211   0.17184   0.17550   0.18063

 Mulliken charges:
               1
     1  P    0.757520
     2  N   -0.210545
     3  O   -0.439748
     4  O   -0.397466
     5  C    0.134168
     6  H   -0.112333
     7  H   -0.146056
     8  H   -0.115714
     9  H    0.195260
    10  H    0.207531
    11  H    0.127383
 Sum of Mulliken charges =  -0.00000

 Dipole moment (field-independent basis, Debye):
    X=             -0.2708    Y=              1.4700    Z=             -1.8656  Tot=              2.3905

 Test job not archived.
 1\1\GINC-SE457\SP\RHF\Aug-CC-pVDZ\C1H6N1O2P1\OHZDE\08-Apr-2025\0\\#t h
 f aug-cc-pvdz iop(5/13=1,5/36=2,99/5=2) pseudo=read geom=check guess=(
 read,tcheck) scf=(maxcycle=1)\\title\\0,1\P,0,-0.690038,-0.804697,0.13
 2888\N,0,0.71738,0.140201,-0.395184\O,0,0.80403,1.355329,0.350662\O,0,
 1.850661,-0.655436,-0.022102\C,0,-2.00539,0.442282,-0.228876\H,0,-1.76
 1306,1.423201,0.176628\H,0,-2.936351,0.0827,0.217989\H,0,-2.152796,0.5
 12682,-1.308483\H,0,2.409794,-0.618457,-0.806874\H,0,1.156573,1.983516
 ,-0.291739\H,0,-0.592189,-0.547422,1.530226\\Version=ES64L-G16RevC.01\

 Normal termination of Gaussian 16 at Tue Apr  8 23:36:14 2025.
