 Gaussian 16, Revision C.01,

 ----------------------------------------------------------------------
 #t hf aug-cc-pvdz symm=none int=(grid=ultrafine) guess=(read,tcheck) s
 table=(opt,rrhf)
 ----------------------------------------------------------------------
 -----
 title
 -----
 Symbolic Z-matrix:
 Charge =  0 Multiplicity = 1

 SCF Done:  E(RHF) =  -203.049375819     A.U. after   14 cycles
 Normal termination of Gaussian 16 at Wed Apr  9 00:34:52 2025.
 Gaussian 16:  ES64L-G16RevC.01  3-Jul-2019

 ----------------------------------------------------------------------
 #t hf aug-cc-pvdz iop(5/13=1,5/36=2,99/5=2) pseudo=read geom=check gue
 ss=(read,tcheck) scf=(maxcycle=1)
 ----------------------------------------------------------------------
 -----
 title
 -----
 Structure from the checkpoint file:  "BDE49_nonexpt_4_mol1.chk"
 Charge =  0 Multiplicity = 1

                         Standard orientation:
 ---------------------------------------------------------------------
 Center     Atomic      Atomic             Coordinates (Angstroms)
 Number     Number       Type             X           Y           Z
 ---------------------------------------------------------------------
      1          5           0       -0.454895   -0.697624    0.861272
      2          5           0        0.454895    0.697624    0.861272
      3          6           0        0.139008    1.875859   -0.018910
      4          6           0       -0.139008   -1.875859   -0.018910
      5          6           0        0.139008   -2.809703   -0.739326
      6          6           0       -0.139008    2.809703   -0.739326
      7          1           0       -0.374573    3.634775   -1.368268
      8          1           0        0.374573   -3.634775   -1.368268
      9          1           0        1.384111    0.788288    1.611323
     10          1           0       -1.384111   -0.788288    1.611323
 ---------------------------------------------------------------------

 SCF Done:  E(RHF) =  -203.112895923     A.U. after    2 cycles

 The electronic state is 1-A.
 Alpha  occ. eigenvalues --  -11.26312 -11.26312 -11.23756 -11.23756  -7.62272
 Alpha  occ. eigenvalues --   -7.62190  -1.03053  -1.02708  -0.80517  -0.76814
 Alpha  occ. eigenvalues --   -0.71818  -0.68451  -0.56257  -0.54621  -0.49806
 Alpha  occ. eigenvalues --   -0.41962  -0.41787  -0.41075  -0.37450
 Alpha virt. eigenvalues --    0.03162   0.03627   0.04414   0.04585   0.04767
 Alpha virt. eigenvalues --    0.04797   0.06541   0.06926   0.07493   0.08026
 Alpha virt. eigenvalues --    0.08559   0.10467   0.11994   0.12480   0.12638

 Mulliken charges:
               1
     1  B   -0.061484
     2  B   -0.061484
     3  C   -0.782833
     4  C   -0.782833
     5  C    1.114079
     6  C    1.114079
     7  H   -0.437953
     8  H   -0.437953
     9  H    0.168191
    10  H    0.168191
 Sum of Mulliken charges =  -0.00000

 Dipole moment (field-independent basis, Debye):
    X=              0.0000    Y=              0.0000    Z=             -0.8171  Tot=              0.8171

 Test job not archived.
 1\1\GINC-SE106\SP\RHF\Aug-CC-pVDZ\C4H4B2\OHZDE\09-Apr-2025\0\\#t hf au
 g-cc-pvdz iop(5/13=1,5/36=2,99/5=2) pseudo=read geom=check guess=(read
 ,tcheck) scf=(maxcycle=1)\\title\\0,1\B,0,-0.454895,-0.697624,0.861272
 \B,0,0.454895,0.697624,0.861272\C,0,0.139008,1.875859,-0.01891\C,0,-0.
 139008,-1.875859,-0.01891\C,0,0.139008,-2.809703,-0.739326\C,0,-0.1390
 08,2.809703,-0.739326\H,0,-0.374573,3.634775,-1.368268\H,0,0.374573,-3
 .634775,-1.368268\H,0,1.384111,0.788288,1.611323\H,0,-1.384111,-0.7882
 88,1.611323\\Version=ES64L-G16RevC.01\State=1-A\HF=-203.1128959\RMSD=9

 Normal termination of Gaussian 16 at Wed Apr  9 00:34:55 2025.
