 Gaussian 16, Revision C.01,

 ----------------------------------------------------------------------
 #t hf aug-cc-pvdz symm=none int=(grid=ultrafine) guess=(read,tcheck) s
 table=opt
 ----------------------------------------------------------------------
 -----
 title
 -----
 Symbolic Z-matrix:
 Charge =  0 Multiplicity = 2

 SCF Done:  E(UHF) =  -627.957178187     A.U. after   25 cycles
 Normal termination of Gaussian 16 at Tue Apr  8 23:21:28 2025.
 Gaussian 16:  ES64L-G16RevC.01  3-Jul-2019

 ----------------------------------------------------------------------
 #t hf aug-cc-pvdz iop(5/13=1,5/36=2,99/5=2) pseudo=read geom=check gue
 ss=(read,tcheck) scf=(maxcycle=1)
 ----------------------------------------------------------------------
 -----
 title
 -----
 Structure from the checkpoint file:  "BDE49_nonexpt_1195_mol2.chk"
 Charge =  0 Multiplicity = 2

                         Standard orientation:
 ---------------------------------------------------------------------
 Center     Atomic      Atomic             Coordinates (Angstroms)
 Number     Number       Type             X           Y           Z
 ---------------------------------------------------------------------
      1         16           0        2.206702   -0.219017    0.311278
      2          6           0        0.568415    0.186350   -0.222527
      3          8           0        0.405938    1.357279   -0.490315
      4          6           0       -0.478179   -0.895982   -0.341962
      5          6           0       -1.911693   -0.368074   -0.489223
      6          1           0       -0.382303   -1.561130    0.523710
      7          1           0       -0.193899   -1.495005   -1.216176
      8          6           0       -2.458465    0.280617    0.785877
      9          1           0       -2.550806   -1.207147   -0.781047
     10          1           0       -1.940875    0.350699   -1.312387
     11          1           0       -2.453811   -0.424977    1.622685
     12          1           0       -3.488664    0.614671    0.640176
     13          1           0       -1.864847    1.151458    1.072135
 ---------------------------------------------------------------------

 SCF Done:  E(UHF) =  -628.047063751     A.U. after    2 cycles

 The electronic state is 2-A.
 Alpha  occ. eigenvalues --  -93.57956 -20.58191 -11.38565 -11.26995 -11.24828
 Alpha  occ. eigenvalues --  -11.23040  -8.87819  -6.23180  -6.21484  -6.21017
 Alpha  occ. eigenvalues --   -1.37973  -1.08640  -1.02732  -0.95824  -0.83961
 Alpha  occ. eigenvalues --   -0.74630  -0.68120  -0.65073  -0.63184  -0.60062
 Alpha  occ. eigenvalues --   -0.57822  -0.55231  -0.51384  -0.49951  -0.49498
 Alpha  occ. eigenvalues --   -0.46165  -0.43361  -0.40582
 Alpha virt. eigenvalues --    0.03216   0.04483   0.04739   0.05533   0.06918
 Alpha virt. eigenvalues --    0.07290   0.07779   0.08098   0.10992   0.11313
 Alpha virt. eigenvalues --    0.11635   0.13051   0.14302   0.14446   0.14572

  Beta  occ. eigenvalues --  -93.57028 -20.57990 -11.38677 -11.26989 -11.24814
  Beta  occ. eigenvalues --  -11.23041  -8.86785  -6.20961  -6.20426  -6.19118
  Beta  occ. eigenvalues --   -1.37397  -1.08344  -0.99434  -0.92463  -0.83082
  Beta  occ. eigenvalues --   -0.73730  -0.66835  -0.64997  -0.61762  -0.59420
  Beta  occ. eigenvalues --   -0.57467  -0.55055  -0.50813  -0.49913  -0.49435
  Beta  occ. eigenvalues --   -0.42302  -0.38270
  Beta virt. eigenvalues --   -0.00174   0.03255   0.04506   0.04867   0.05573
  Beta virt. eigenvalues --    0.06960   0.07370   0.07931   0.08250   0.11159
  Beta virt. eigenvalues --    0.11219   0.11826   0.13660   0.14477   0.14642

 Mulliken charges and spin densities:
               1          2
     1  S    0.229596   1.093789
     2  C   -0.006263  -0.120342
     3  O   -0.518690   0.017937
     4  C   -0.019098   0.007288
     5  C    0.308895  -0.001610
     6  H   -0.041701   0.002101
     7  H    0.059822   0.000438
     8  C    0.349096   0.000151
     9  H   -0.060024   0.000270
    10  H   -0.077488  -0.000336
    11  H   -0.063788  -0.000450
    12  H   -0.073298  -0.000023
    13  H   -0.087060   0.000786
 Sum of Mulliken charges =  -0.00000   1.00000

 Dipole moment (field-independent basis, Debye):
    X=             -1.0773    Y=             -2.9947    Z=              0.2751  Tot=              3.1944
                          Isotropic Fermi Contact Couplings
        Atom                 a.u.       MegaHertz       Gauss      10(-4) cm-1
     1  S(33)              0.21325      73.24498      26.13563      24.43190
     2  C(13)             -0.01875     -21.08398      -7.52329      -7.03286
     3  O(17)              0.03082     -18.68439      -6.66705      -6.23244
     4  C(13)              0.00131       1.47658       0.52688       0.49253
     5  C(13)              0.00266       2.98787       1.06615       0.99665
     6  H(1)               0.00052       2.31864       0.82735       0.77341
     7  H(1)              -0.00023      -1.03999      -0.37109      -0.34690
     8  C(13)             -0.00018      -0.20110      -0.07176      -0.06708

 Normal termination of Gaussian 16 at Tue Apr  8 23:21:32 2025.
