 Gaussian 16, Revision C.01,

 ----------------------------------------------------------------------
 #t hf aug-cc-pvdz symm=none int=(grid=ultrafine) guess=(read,tcheck) s
 table=(opt,rrhf)
 ----------------------------------------------------------------------
 -----
 title
 -----
 Symbolic Z-matrix:
 Charge =  0 Multiplicity = 1

 SCF Done:  E(RHF) =  -554.847876266     A.U. after   12 cycles

 1\1\GINC-SE332\Stability\RHF\Aug-CC-pVDZ\C4H10S1\OHZDE\08-Apr-2025\0\\
 #t hf aug-cc-pvdz symm=none int=(grid=ultrafine) guess=(read,tcheck) s
 table=(opt,rrhf)\\title\\0,1\S,0,1.386919,-1.866802,0.\C,0,-0.234368,-
 0.986188,0.\C,0,0.,0.524846,0.\H,0,0.894785,-3.117333,0.\H,0,-0.796266
 ,-1.283467,0.887561\C,0,-1.311125,1.322151,0.\H,0,0.594718,0.800166,-0
 .878506\H,0,0.594718,0.800166,0.878506\C,0,-1.086102,2.83691,0.\H,0,-1
 .905976,1.040908,0.877061\H,0,-1.905976,1.040908,-0.877061\H,0,-0.5226
 02,3.153039,0.883104\H,0,-2.035662,3.378565,0.\H,0,-0.522602,3.153039,

 Normal termination of Gaussian 16 at Tue Apr  8 22:44:41 2025.
 Gaussian 16:  ES64L-G16RevC.01  3-Jul-2019

 ----------------------------------------------------------------------
 #t hf aug-cc-pvdz iop(5/13=1,5/36=2,99/5=2) pseudo=read geom=check gue
 ss=(read,tcheck) scf=(maxcycle=1)
 ----------------------------------------------------------------------
 -----
 title
 -----
 Structure from the checkpoint file:  "BDE49_expt_1549_mol1.chk"
 Charge =  0 Multiplicity = 1

                         Standard orientation:
 ---------------------------------------------------------------------
 Center     Atomic      Atomic             Coordinates (Angstroms)
 Number     Number       Type             X           Y           Z
 ---------------------------------------------------------------------
      1         16           0        1.386919   -1.866802    0.000000
      2          6           0       -0.234368   -0.986188    0.000000
      3          6           0        0.000000    0.524846    0.000000
      4          1           0        0.894784   -3.117333    0.000000
      5          1           0       -0.796266   -1.283467    0.887561
      6          6           0       -1.311125    1.322151    0.000000
      7          1           0        0.594718    0.800166   -0.878506
      8          1           0        0.594718    0.800166    0.878506
      9          6           0       -1.086102    2.836910    0.000000
     10          1           0       -1.905976    1.040908    0.877061
     11          1           0       -1.905976    1.040908   -0.877061
     12          1           0       -0.522601    3.153039    0.883104
     13          1           0       -2.035661    3.378565    0.000000
     14          1           0       -0.522601    3.153039   -0.883104
     15          1           0       -0.796266   -1.283467   -0.887561
 ---------------------------------------------------------------------

 SCF Done:  E(RHF) =  -554.918780378     A.U. after    2 cycles

 The electronic state is 1-A'.
 Alpha  occ. eigenvalues --  -93.52925 -11.27068 -11.23986 -11.23707 -11.22823
 Alpha  occ. eigenvalues --   -8.82656  -6.16841  -6.16597  -6.16251  -1.08284
 Alpha  occ. eigenvalues --   -1.01463  -0.92540  -0.83257  -0.79866  -0.65892
 Alpha  occ. eigenvalues --   -0.60801  -0.59422  -0.56629  -0.54784  -0.51766
 Alpha  occ. eigenvalues --   -0.48758  -0.47704  -0.47181  -0.44184  -0.35165
 Alpha virt. eigenvalues --    0.03486   0.04153   0.04871   0.04877   0.06184
 Alpha virt. eigenvalues --    0.06769   0.07298   0.07724   0.08956   0.10000
 Alpha virt. eigenvalues --    0.10557   0.11074   0.13744   0.14568   0.15523

 Mulliken charges:
               1
     1  S    0.343774
     2  C    0.047415
     3  C    0.088704
     4  H    0.033854
     5  H   -0.158343
     6  C    0.151706
     7  H   -0.142716
     8  H   -0.142716
     9  C    0.418822
    10  H   -0.139290
    11  H   -0.139290
    12  H   -0.072021
    13  H   -0.059534
    14  H   -0.072021
    15  H   -0.158343
 Sum of Mulliken charges =  -0.00000

 Dipole moment (field-independent basis, Debye):
    X=             -1.8392    Y=              0.3818    Z=             -0.0000  Tot=              1.8784

 Test job not archived.
 1\1\GINC-SE332\SP\RHF\Aug-CC-pVDZ\C4H10S1\OHZDE\08-Apr-2025\0\\#t hf a
 ug-cc-pvdz iop(5/13=1,5/36=2,99/5=2) pseudo=read geom=check guess=(rea
 d,tcheck) scf=(maxcycle=1)\\title\\0,1\S,0,1.386919,-1.866802,0.\C,0,-
 0.234368,-0.986188,0.\C,0,0.,0.524846,0.\H,0,0.894785,-3.117333,0.\H,0
 ,-0.796266,-1.283467,0.887561\C,0,-1.311125,1.322151,0.\H,0,0.594718,0
 .800166,-0.878506\H,0,0.594718,0.800166,0.878506\C,0,-1.086102,2.83691
 ,0.\H,0,-1.905976,1.040908,0.877061\H,0,-1.905976,1.040908,-0.877061\H
 ,0,-0.522602,3.153039,0.883104\H,0,-2.035662,3.378565,0.\H,0,-0.522602

 Normal termination of Gaussian 16 at Tue Apr  8 22:44:44 2025.
