 Gaussian 16, Revision C.01,

 ----------------------------------------------------------------------
 #t hf aug-cc-pvdz symm=none int=(grid=ultrafine) guess=(read,tcheck) s
 table=(opt,rrhf)
 ----------------------------------------------------------------------
 -----
 title
 -----
 Symbolic Z-matrix:
 Charge =  0 Multiplicity = 1

 SCF Done:  E(RHF) =  -743.555099618     A.U. after   13 cycles
 Normal termination of Gaussian 16 at Tue Apr  8 22:46:38 2025.
 Gaussian 16:  ES64L-G16RevC.01  3-Jul-2019

 ----------------------------------------------------------------------
 #t hf aug-cc-pvdz iop(5/13=1,5/36=2,99/5=2) pseudo=read geom=check gue
 ss=(read,tcheck) scf=(maxcycle=1)
 ----------------------------------------------------------------------
 -----
 title
 -----
 Structure from the checkpoint file:  "BDE49_expt_1601_mol1.chk"
 Charge =  0 Multiplicity = 1

                         Standard orientation:
 ---------------------------------------------------------------------
 Center     Atomic      Atomic             Coordinates (Angstroms)
 Number     Number       Type             X           Y           Z
 ---------------------------------------------------------------------
      1         16           0       -1.374459   -0.199625   -0.000000
      2          6           0       -2.662296    1.056139   -0.000000
      3          8           0       -1.457062   -0.915471    1.259733
      4          8           0       -1.457062   -0.915472   -1.259732
      5          1           0       -2.578207    1.661403    0.901873
      6          1           0       -3.605917    0.509697   -0.000000
      7          1           0       -2.578207    1.661403   -0.901874
      8          6           0        0.158782    0.764861   -0.000000
      9          6           0        1.377153   -0.160986   -0.000000
     10          1           0        0.130140    1.395903    0.892057
     11          1           0        0.130140    1.395902   -0.892057
     12          6           0        2.697862    0.620171   -0.000000
     13          1           0        1.329104   -0.810661   -0.878791
     14          1           0        1.329104   -0.810660    0.878791
     15          6           0        3.923123   -0.298096   -0.000000
     16          1           0        2.732656    1.276775   -0.877455
     17          1           0        2.732656    1.276775    0.877454
     18          1           0        3.932225   -0.943811   -0.882978
     19          1           0        3.932225   -0.943811    0.882978
     20          1           0        4.850669    0.280091   -0.000000
 ---------------------------------------------------------------------

 SCF Done:  E(RHF) =  -743.738639133     A.U. after    2 cycles

 The electronic state is 1-A.
 Alpha  occ. eigenvalues --  -93.77296 -20.54996 -20.54994 -11.28631 -11.28618
 Alpha  occ. eigenvalues --  -11.25067 -11.24599 -11.23268  -9.04090  -6.38735
 Alpha  occ. eigenvalues --   -6.38516  -6.38446  -1.41132  -1.29676  -1.09638
 Alpha  occ. eigenvalues --   -1.04406  -1.00518  -0.90510  -0.81794  -0.79889
 Alpha  occ. eigenvalues --   -0.69214  -0.68360  -0.67074  -0.65473  -0.61400
 Alpha  occ. eigenvalues --   -0.61090  -0.60201  -0.59206  -0.56051  -0.52904
 Alpha  occ. eigenvalues --   -0.51212  -0.51183  -0.50207  -0.48813  -0.48598
 Alpha  occ. eigenvalues --   -0.48219  -0.43788
 Alpha virt. eigenvalues --    0.02785   0.03611   0.04360   0.04663   0.05687
 Alpha virt. eigenvalues --    0.05918   0.06536   0.07472   0.08299   0.08798
 Alpha virt. eigenvalues --    0.08930   0.10401   0.10720   0.12103   0.13162

 Mulliken charges:
               1
     1  S    2.454072
     2  C    0.198616
     3  O   -1.164445
     4  O   -1.164445
     5  H   -0.021609
     6  H    0.044486
     7  H   -0.021607
     8  C   -0.321345
     9  C    0.166473
    10  H   -0.126758
    11  H   -0.126760
    12  C    0.267354
    13  H   -0.132571
    14  H   -0.132573
    15  C    0.588007
    16  H   -0.144971
    17  H   -0.144974
    18  H   -0.079233
    19  H   -0.079233
    20  H   -0.058482
 Sum of Mulliken charges =  -0.00000

 Dipole moment (field-independent basis, Debye):
    X=              1.1960    Y=              5.1029    Z=             -0.0000  Tot=              5.2412

 Test job not archived.
 1\1\GINC-SE072\SP\RHF\Aug-CC-pVDZ\C5H12O2S1\OHZDE\08-Apr-2025\0\\#t hf
  aug-cc-pvdz iop(5/13=1,5/36=2,99/5=2) pseudo=read geom=check guess=(r
 ead,tcheck) scf=(maxcycle=1)\\title\\0,1\S,0,-1.374459,-0.199625,0.\C,
 0,-2.662296,1.056139,0.\O,0,-1.457062,-0.915471,1.259733\O,0,-1.457062
 ,-0.915472,-1.259732\H,0,-2.578207,1.661403,0.901873\H,0,-3.605917,0.5
 09697,0.\H,0,-2.578207,1.661403,-0.901874\C,0,0.158782,0.764861,0.\C,0
 ,1.377153,-0.160986,0.\H,0,0.13014,1.395903,0.892057\H,0,0.13014,1.395
 902,-0.892057\C,0,2.697862,0.620171,0.\H,0,1.329104,-0.810661,-0.87879

 Normal termination of Gaussian 16 at Tue Apr  8 22:46:47 2025.
