 Gaussian 16, Revision C.01,

 ----------------------------------------------------------------------
 #t hf aug-cc-pvdz symm=none int=(grid=ultrafine) guess=(read,tcheck) s
 table=(opt,rrhf)
 ----------------------------------------------------------------------
 -----
 title
 -----
 Symbolic Z-matrix:
 Charge =  0 Multiplicity = 1

 SCF Done:  E(RHF) =  -665.738662760     A.U. after   14 cycles
 Normal termination of Gaussian 16 at Tue Apr  8 23:52:00 2025.
 Gaussian 16:  ES64L-G16RevC.01  3-Jul-2019

 ----------------------------------------------------------------------
 #t hf aug-cc-pvdz iop(5/13=1,5/36=2,99/5=2) pseudo=read geom=check gue
 ss=(read,tcheck) scf=(maxcycle=1)
 ----------------------------------------------------------------------
 -----
 title
 -----
 Structure from the checkpoint file:  "BDE49_nonexpt_1925_mol1.chk"
 Charge =  0 Multiplicity = 1

                         Standard orientation:
 ---------------------------------------------------------------------
 Center     Atomic      Atomic             Coordinates (Angstroms)
 Number     Number       Type             X           Y           Z
 ---------------------------------------------------------------------
      1          6           0       -0.452728    1.297889    0.727256
      2         14           0        0.687592    1.036004   -0.762675
      3          6           0        1.355533   -0.730552   -0.875937
      4          1           0        1.824049    1.976666   -0.630796
      5          1           0       -0.015904    1.324137   -2.031307
      6          7           0        2.100179   -1.313478   -0.019913
      7          8           0        2.372663   -0.472416    1.078852
      8          1           0        2.950239   -1.014058    1.626548
      9          1           0        1.120955   -1.365928   -1.728215
     10          6           0       -1.698885    0.467827    0.730255
     11          7           0       -1.906035   -0.368589   -0.204277
     12          1           0       -2.428403    0.576573    1.536768
     13          8           0       -3.114096   -1.058644   -0.032962
     14          1           0       -3.133769   -1.643969   -0.796572
     15          1           0       -0.721708    2.361062    0.779172
     16          1           0        0.127207    1.093433    1.634618
 ---------------------------------------------------------------------

 SCF Done:  E(RHF) =  -665.875079516     A.U. after    2 cycles

 The electronic state is 1-A.
 Alpha  occ. eigenvalues --  -69.07143 -20.61623 -20.61465 -15.70198 -15.69303
 Alpha  occ. eigenvalues --  -11.29726 -11.26962 -11.24226  -6.82378  -3.93181
 Alpha  occ. eigenvalues --   -3.93140  -3.93134  -1.38230  -1.38170  -1.15302
 Alpha  occ. eigenvalues --   -1.13349  -0.97593  -0.81751  -0.78176  -0.73622
 Alpha  occ. eigenvalues --   -0.73196  -0.67912  -0.65661  -0.62366  -0.61533
 Alpha  occ. eigenvalues --   -0.60648  -0.58121  -0.57965  -0.54180  -0.47428
 Alpha  occ. eigenvalues --   -0.46933  -0.44752  -0.41934  -0.40650  -0.39720
 Alpha virt. eigenvalues --    0.03197   0.03793   0.04452   0.04561   0.06003
 Alpha virt. eigenvalues --    0.06735   0.06964   0.07551   0.08550   0.09534
 Alpha virt. eigenvalues --    0.11140   0.11463   0.12027   0.12214   0.13955

 Mulliken charges:
               1
     1  C    0.008770
     2  Si   0.516549
     3  C    0.499998
     4  H    0.050008
     5  H    0.065560
     6  N   -0.194727
     7  O   -0.457317
     8  H    0.182458
     9  H   -0.358070
    10  C    0.451375
    11  N   -0.083602
    12  H   -0.234371
    13  O   -0.509440
    14  H    0.188795
    15  H   -0.119977
    16  H   -0.006009
 Sum of Mulliken charges =  -0.00000

 Dipole moment (field-independent basis, Debye):
    X=             -0.0556    Y=              0.5514    Z=              0.4082  Tot=              0.6883

 Test job not archived.
 1\1\GINC-SE453\SP\RHF\Aug-CC-pVDZ\C3H8N2O2Si1\OHZDE\08-Apr-2025\0\\#t
 hf aug-cc-pvdz iop(5/13=1,5/36=2,99/5=2) pseudo=read geom=check guess=
 (read,tcheck) scf=(maxcycle=1)\\title\\0,1\C,0,-0.452728,1.297889,0.72
 7256\Si,0,0.687592,1.036004,-0.762675\C,0,1.355533,-0.730552,-0.875937
 \H,0,1.824049,1.976666,-0.630796\H,0,-0.015904,1.324137,-2.031307\N,0,
 2.100179,-1.313478,-0.019913\O,0,2.372663,-0.472416,1.078852\H,0,2.950
 239,-1.014058,1.626548\H,0,1.120955,-1.365928,-1.728215\C,0,-1.698885,
 0.467827,0.730255\N,0,-1.906035,-0.368589,-0.204277\H,0,-2.428403,0.57

 Normal termination of Gaussian 16 at Tue Apr  8 23:52:07 2025.
