 Gaussian 16, Revision C.01,

 ----------------------------------------------------------------------
 #t hf aug-cc-pvdz symm=none int=(grid=ultrafine) guess=(read,tcheck) s
 table=(opt,rrhf)
 ----------------------------------------------------------------------
 -----
 title
 -----
 Symbolic Z-matrix:
 Charge =  0 Multiplicity = 1

 SCF Done:  E(RHF) =  -1060.78363254     A.U. after   15 cycles
 Normal termination of Gaussian 16 at Tue Apr  8 23:40:27 2025.
 Gaussian 16:  ES64L-G16RevC.01  3-Jul-2019

 ----------------------------------------------------------------------
 #t hf aug-cc-pvdz iop(5/13=1,5/36=2,99/5=2) pseudo=read geom=check gue
 ss=(read,tcheck) scf=(maxcycle=1)
 ----------------------------------------------------------------------
 -----
 title
 -----
 Structure from the checkpoint file:  "BDE49_nonexpt_1663_mol1.chk"
 Charge =  0 Multiplicity = 1

                         Standard orientation:
 ---------------------------------------------------------------------
 Center     Atomic      Atomic             Coordinates (Angstroms)
 Number     Number       Type             X           Y           Z
 ---------------------------------------------------------------------
      1         14           0       -0.614783   -1.142135   -0.194386
      2          7           0       -1.968231    0.161035    0.014205
      3         15           0        1.348898   -0.010222   -0.039225
      4          8           0       -1.679281    1.353346   -0.147157
      5          8           0       -3.089688   -0.240817    0.272770
      6          8           0        2.533379   -0.763129   -0.463513
      7          8           0        1.085706    1.332371   -0.853668
      8          1           0        0.211007    1.716230   -0.646930
      9          8           0        1.332113    0.414835    1.516846
     10          1           0        2.195643    0.315362    1.939901
     11          1           0       -0.863250   -1.656372   -1.550542
     12          1           0       -0.850137   -2.132074    0.865704
 ---------------------------------------------------------------------

 SCF Done:  E(RHF) =  -1061.00607324     A.U. after    2 cycles

 The electronic state is 1-A.
 Alpha  occ. eigenvalues --  -81.43857 -69.16563 -20.65500 -20.64656 -20.63738
 Alpha  occ. eigenvalues --  -20.62761 -20.54928 -15.91551  -7.92271  -6.91647
 Alpha  occ. eigenvalues --   -5.06915  -5.06810  -5.06413  -4.02483  -4.02304
 Alpha  occ. eigenvalues --   -4.02289  -1.56415  -1.39755  -1.38668  -1.36376
 Alpha  occ. eigenvalues --   -1.28155  -0.97145  -0.86374  -0.83677  -0.78789
 Alpha  occ. eigenvalues --   -0.76114  -0.73827  -0.72494  -0.68737  -0.66827
 Alpha  occ. eigenvalues --   -0.65307  -0.60092  -0.58065  -0.55771  -0.54993
 Alpha  occ. eigenvalues --   -0.54475  -0.51319  -0.51065  -0.50195  -0.45920
 Alpha virt. eigenvalues --    0.02742   0.03324   0.03960   0.04617   0.05120
 Alpha virt. eigenvalues --    0.06325   0.07067   0.08579   0.09056   0.09782
 Alpha virt. eigenvalues --    0.11004   0.11973   0.13418   0.14076   0.15016

 Mulliken charges:
               1
     1  Si   0.554803
     2  N    0.430988
     3  P    1.970866
     4  O   -0.581468
     5  O   -0.551323
     6  O   -0.910062
     7  O   -0.734507
     8  H    0.224622
     9  O   -0.706291
    10  H    0.169245
    11  H    0.028136
    12  H    0.104992
 Sum of Mulliken charges =   0.00000

 Dipole moment (field-independent basis, Debye):
    X=             -0.2759    Y=             -1.7863    Z=              1.5597  Tot=              2.3874

 Test job not archived.
 1\1\GINC-SE070\SP\RHF\Aug-CC-pVDZ\H4N1O5P1Si1\OHZDE\08-Apr-2025\0\\#t
 hf aug-cc-pvdz iop(5/13=1,5/36=2,99/5=2) pseudo=read geom=check guess=
 (read,tcheck) scf=(maxcycle=1)\\title\\0,1\Si,0,-0.614783,-1.142135,-0
 .194386\N,0,-1.968231,0.161035,0.014205\P,0,1.348898,-0.010222,-0.0392
 25\O,0,-1.679281,1.353346,-0.147157\O,0,-3.089688,-0.240817,0.27277\O,
 0,2.533379,-0.763129,-0.463513\O,0,1.085706,1.332371,-0.853668\H,0,0.2
 11007,1.71623,-0.64693\O,0,1.332113,0.414835,1.516846\H,0,2.195643,0.3
 15362,1.939901\H,0,-0.86325,-1.656372,-1.550542\H,0,-0.850137,-2.13207

 Normal termination of Gaussian 16 at Tue Apr  8 23:40:33 2025.
