 Gaussian 16, Revision C.01,

 ----------------------------------------------------------------------
 #t hf aug-cc-pvdz symm=none int=(grid=ultrafine) guess=(read,tcheck) s
 table=(opt,rrhf)
 ----------------------------------------------------------------------
 -----
 title
 -----
 Symbolic Z-matrix:
 Charge =  0 Multiplicity = 1

 SCF Done:  E(RHF) =  -94.0471631346     A.U. after   11 cycles
 Normal termination of Gaussian 16 at Tue Apr  8 23:03:38 2025.
 Gaussian 16:  ES64L-G16RevC.01  3-Jul-2019

 ----------------------------------------------------------------------
 #t hf aug-cc-pvdz iop(5/13=1,5/36=2,99/5=2) pseudo=read geom=check gue
 ss=(read,tcheck) scf=(maxcycle=1)
 ----------------------------------------------------------------------
 -----
 title
 -----
 Structure from the checkpoint file:  "BDE49_expt_402_mol1.chk"
 Charge =  0 Multiplicity = 1

                         Standard orientation:
 ---------------------------------------------------------------------
 Center     Atomic      Atomic             Coordinates (Angstroms)
 Number     Number       Type             X           Y           Z
 ---------------------------------------------------------------------
      1          7           0        0.667856   -0.153911    0.000001
      2          6           0       -0.584861    0.028648   -0.000003
      3          1           0       -1.084311    1.005725    0.000001
      4          1           0       -1.242976   -0.843023    0.000003
      5          1           0        1.161463    0.742792    0.000003
 ---------------------------------------------------------------------

 SCF Done:  E(RHF) =  -94.0768230377     A.U. after    2 cycles

 The electronic state is 1-A.
 Alpha  occ. eigenvalues --  -15.63270 -11.29864  -1.18212  -0.83895  -0.68655
 Alpha  occ. eigenvalues --   -0.60349  -0.45094  -0.42597
 Alpha virt. eigenvalues --    0.03408   0.04658   0.05856   0.08639   0.11487
 Alpha virt. eigenvalues --    0.14622   0.15493   0.16769   0.19815   0.21163
 Alpha virt. eigenvalues --    0.23116   0.25634   0.30853   0.32343   0.33208

 Mulliken charges:
               1
     1  N   -0.294972
     2  C    0.603040
     3  H   -0.147944
     4  H   -0.202356
     5  H    0.042232
 Sum of Mulliken charges =  -0.00000

 Dipole moment (field-independent basis, Debye):
    X=             -1.4406    Y=              1.6685    Z=              0.0000  Tot=              2.2044

 Test job not archived.
 1\1\GINC-SE072\SP\RHF\Aug-CC-pVDZ\C1H3N1\OHZDE\08-Apr-2025\0\\#t hf au
 g-cc-pvdz iop(5/13=1,5/36=2,99/5=2) pseudo=read geom=check guess=(read
 ,tcheck) scf=(maxcycle=1)\\title\\0,1\N,0,0.667856,-0.153911,0.000001\
 C,0,-0.584861,0.028648,-0.000003\H,0,-1.084311,1.005725,0.000001\H,0,-
 1.242976,-0.843023,0.000003\H,0,1.161463,0.742792,0.000003\\Version=ES
 64L-G16RevC.01\State=1-A\HF=-94.076823\RMSD=1.781e-03\Dipole=-0.566771
 ,0.6564363,0.0000019\Quadrupole=0.53433,0.3449855,-0.8793154,1.5911281
 ,-0.0000013,0.0000033\PG=C01 [X(C1H3N1)]\\@

 Normal termination of Gaussian 16 at Tue Apr  8 23:03:39 2025.
