 Gaussian 16, Revision C.01,

 ----------------------------------------------------------------------
 #t hf aug-cc-pvdz symm=none int=(grid=ultrafine) guess=(read,tcheck) s
 table=(opt,rrhf)
 ----------------------------------------------------------------------
 -----
 title
 -----
 Symbolic Z-matrix:
 Charge =  0 Multiplicity = 1

 SCF Done:  E(RHF) =  -514.637408070     A.U. after   13 cycles
 Normal termination of Gaussian 16 at Tue Apr  8 23:34:22 2025.
 Gaussian 16:  ES64L-G16RevC.01  3-Jul-2019

 ----------------------------------------------------------------------
 #t hf aug-cc-pvdz iop(5/13=1,5/36=2,99/5=2) pseudo=read geom=check gue
 ss=(read,tcheck) scf=(maxcycle=1)
 ----------------------------------------------------------------------
 -----
 title
 -----
 Structure from the checkpoint file:  "BDE49_nonexpt_1494_mol1.chk"
 Charge =  0 Multiplicity = 1

                         Standard orientation:
 ---------------------------------------------------------------------
 Center     Atomic      Atomic             Coordinates (Angstroms)
 Number     Number       Type             X           Y           Z
 ---------------------------------------------------------------------
      1          7           0        1.897952    1.055033   -0.107141
      2         15           0        1.437090   -0.583586    0.075855
      3          6           0       -2.783147    0.185006   -0.083408
      4          6           0       -0.386093   -0.683382   -0.322540
      5          6           0       -1.313116    0.355297    0.317670
      6          1           0       -0.687657   -1.696331   -0.023263
      7          1           0       -0.477707   -0.652461   -1.415098
      8          1           0       -0.983110    1.361872    0.034179
      9          1           0       -1.221906    0.297302    1.408451
     10          1           0       -3.161875   -0.797186    0.215161
     11          1           0       -2.909493    0.272585   -1.166849
     12          1           0       -3.414766    0.943232    0.388227
     13          1           0        1.267009   -0.577433    1.485632
     14          1           0        1.284039    1.800531    0.193490
     15          1           0        2.357592    1.274930   -0.978104
 ---------------------------------------------------------------------

 SCF Done:  E(RHF) =  -514.721018471     A.U. after    2 cycles

 The electronic state is 1-A.
 Alpha  occ. eigenvalues --  -81.26624 -15.61240 -11.23834 -11.23310 -11.22823
 Alpha  occ. eigenvalues --   -7.76579  -4.90695  -4.90469  -4.90231  -1.11509
 Alpha  occ. eigenvalues --   -1.05171  -0.93317  -0.81623  -0.74274  -0.66436
 Alpha  occ. eigenvalues --   -0.63978  -0.59343  -0.56265  -0.54936  -0.52101
 Alpha  occ. eigenvalues --   -0.49481  -0.47979  -0.47693  -0.38973  -0.33271
 Alpha virt. eigenvalues --    0.03335   0.04304   0.04633   0.04964   0.06530
 Alpha virt. eigenvalues --    0.06845   0.07239   0.07385   0.08638   0.09749
 Alpha virt. eigenvalues --    0.10951   0.11541   0.12770   0.13651   0.15473

 Mulliken charges:
               1
     1  N   -0.495146
     2  P    0.837478
     3  C    0.442253
     4  C   -0.082659
     5  C   -0.011382
     6  H   -0.107342
     7  H   -0.135252
     8  H   -0.135567
     9  H   -0.124531
    10  H   -0.069142
    11  H   -0.064696
    12  H   -0.078001
    13  H    0.020860
    14  H   -0.031375
    15  H    0.034500
 Sum of Mulliken charges =   0.00000

 Dipole moment (field-independent basis, Debye):
    X=             -1.5285    Y=              1.2484    Z=             -0.4967  Tot=              2.0351

 Test job not archived.
 1\1\GINC-SE220\SP\RHF\Aug-CC-pVDZ\C3H10N1P1\OHZDE\08-Apr-2025\0\\#t hf
  aug-cc-pvdz iop(5/13=1,5/36=2,99/5=2) pseudo=read geom=check guess=(r
 ead,tcheck) scf=(maxcycle=1)\\title\\0,1\N,0,1.897952,1.055033,-0.1071
 41\P,0,1.43709,-0.583586,0.075855\C,0,-2.783147,0.185006,-0.083408\C,0
 ,-0.386093,-0.683382,-0.32254\C,0,-1.313116,0.355297,0.31767\H,0,-0.68
 7657,-1.696331,-0.023263\H,0,-0.477707,-0.652461,-1.415098\H,0,-0.9831
 1,1.361872,0.034179\H,0,-1.221906,0.297302,1.408451\H,0,-3.161875,-0.7
 97186,0.215161\H,0,-2.909493,0.272585,-1.166849\H,0,-3.414766,0.943232

 Normal termination of Gaussian 16 at Tue Apr  8 23:34:27 2025.
