 Gaussian 16, Revision C.01,

 ----------------------------------------------------------------------
 #t hf aug-cc-pvdz symm=none int=(grid=ultrafine) guess=(read,tcheck) s
 table=opt
 ----------------------------------------------------------------------
 -----
 title
 -----
 Symbolic Z-matrix:
 Charge =  0 Multiplicity = 2

 SCF Done:  E(UHF) =  -406.546666032     A.U. after   16 cycles

 1\1\GINC-SE128\Stability\UHF\Aug-CC-pVDZ\C3H7Si1\OHZDE\09-Apr-2025\0\\
 #t hf aug-cc-pvdz symm=none int=(grid=ultrafine) guess=(read,tcheck) s
 table=opt\\title\\0,2\C,0,0.265374,0.044176,-0.570792\C,0,1.393367,-0.
 731554,0.088972\C,0,1.329132,0.753804,0.269492\H,0,2.163819,-1.139305,
 -0.554856\H,0,1.152905,-1.357213,0.941686\H,0,1.041328,1.140093,1.2403
 12\H,0,2.044842,1.371122,-0.261527\Si,0,-1.491607,-0.1022,0.029993\H,0
 ,-1.500509,-0.225405,1.513677\H,0,-2.32171,1.062494,-0.382105\H,0,0.37
 4591,0.180463,-1.643129\\Version=ES64L-G16RevC.01\HF=-406.546666\S2=0.

 Normal termination of Gaussian 16 at Wed Apr  9 00:46:02 2025.
 Gaussian 16:  ES64L-G16RevC.01  3-Jul-2019

 ----------------------------------------------------------------------
 #t hf aug-cc-pvdz iop(5/13=1,5/36=2,99/5=2) pseudo=read geom=check gue
 ss=(read,tcheck) scf=(maxcycle=1)
 ----------------------------------------------------------------------
 -----
 title
 -----
 Structure from the checkpoint file:  "BDE49_nonexpt_846_mol2.chk"
 Charge =  0 Multiplicity = 2

                         Standard orientation:
 ---------------------------------------------------------------------
 Center     Atomic      Atomic             Coordinates (Angstroms)
 Number     Number       Type             X           Y           Z
 ---------------------------------------------------------------------
      1          6           0        0.265374    0.044176   -0.570792
      2          6           0        1.393367   -0.731554    0.088972
      3          6           0        1.329132    0.753804    0.269492
      4          1           0        2.163819   -1.139305   -0.554856
      5          1           0        1.152905   -1.357213    0.941686
      6          1           0        1.041328    1.140093    1.240312
      7          1           0        2.044842    1.371122   -0.261527
      8         14           0       -1.491607   -0.102200    0.029993
      9          1           0       -1.500509   -0.225405    1.513677
     10          1           0       -2.321710    1.062494   -0.382105
     11          1           0        0.374591    0.180463   -1.643129
 ---------------------------------------------------------------------

 SCF Done:  E(UHF) =  -406.604231530     A.U. after    2 cycles

 The electronic state is 2-A.
 Alpha  occ. eigenvalues --  -69.06508 -11.24696 -11.24553 -11.23489  -6.81872
 Alpha  occ. eigenvalues --   -3.93199  -3.92346  -3.92323  -1.12841  -0.82750
 Alpha  occ. eigenvalues --   -0.82469  -0.70417  -0.65749  -0.60396  -0.52386
 Alpha  occ. eigenvalues --   -0.49098  -0.46647  -0.44185  -0.42014  -0.31023
 Alpha virt. eigenvalues --    0.03480   0.04544   0.04918   0.05112   0.06473
 Alpha virt. eigenvalues --    0.06952   0.07843   0.08319   0.09046   0.10336
 Alpha virt. eigenvalues --    0.12320   0.13024   0.13719   0.14982   0.15996

  Beta  occ. eigenvalues --  -69.05955 -11.24584 -11.24506 -11.23467  -6.81041
  Beta  occ. eigenvalues --   -3.91960  -3.91949  -3.91076  -1.12514  -0.82436
  Beta  occ. eigenvalues --   -0.81895  -0.68730  -0.64685  -0.59112  -0.52273
  Beta  occ. eigenvalues --   -0.48340  -0.46119  -0.42563  -0.41631
  Beta virt. eigenvalues --    0.03231   0.03806   0.04586   0.04996   0.06183
  Beta virt. eigenvalues --    0.06637   0.07431   0.08023   0.09259   0.09789
  Beta virt. eigenvalues --    0.10633   0.12687   0.13242   0.13808   0.15459

 Mulliken charges and spin densities:
               1          2
     1  C    0.201195  -0.033659
     2  C    0.645309  -0.012208
     3  C    0.649012   0.049975
     4  H   -0.307884  -0.002668
     5  H   -0.320848   0.000119
     6  H   -0.336195  -0.008684
     7  H   -0.296927  -0.000092
     8  Si   0.117674   0.974353
     9  H   -0.007538   0.006789
    10  H   -0.005207   0.030408
    11  H   -0.338593  -0.004333
 Sum of Mulliken charges =  -0.00000   1.00000

 Dipole moment (field-independent basis, Debye):
    X=              0.9801    Y=              0.0628    Z=             -0.2847  Tot=              1.0225
                          Isotropic Fermi Contact Couplings
        Atom                 a.u.       MegaHertz       Gauss      10(-4) cm-1
     1  C(13)              0.01018      11.44481       4.08379       3.81758
     2  C(13)             -0.00062      -0.70257      -0.25070      -0.23435
     3  C(13)              0.02725      30.62917      10.92925      10.21679
     4  H(1)              -0.00007      -0.29681      -0.10591      -0.09900
     5  H(1)               0.00034       1.52933       0.54570       0.51013
     6  H(1)              -0.00082      -3.67830      -1.31251      -1.22695
     7  H(1)               0.00078       3.46607       1.23678       1.15616
     8  Si(29)             0.52406    -465.74596    -166.18974    -155.35613

 Normal termination of Gaussian 16 at Wed Apr  9 00:46:06 2025.
