 Gaussian 16, Revision C.01,

 ----------------------------------------------------------------------
 #t hf aug-cc-pvdz symm=none int=(grid=ultrafine) guess=(read,tcheck) s
 table=(opt,rrhf)
 ----------------------------------------------------------------------
 -----
 title
 -----
 Symbolic Z-matrix:
 Charge =  0 Multiplicity = 1

 SCF Done:  E(RHF) =  -848.764148609     A.U. after   15 cycles
 Normal termination of Gaussian 16 at Tue Apr  8 23:24:38 2025.
 Gaussian 16:  ES64L-G16RevC.01  3-Jul-2019

 ----------------------------------------------------------------------
 #t hf aug-cc-pvdz iop(5/13=1,5/36=2,99/5=2) pseudo=read geom=check gue
 ss=(read,tcheck) scf=(maxcycle=1)
 ----------------------------------------------------------------------
 -----
 title
 -----
 Structure from the checkpoint file:  "BDE49_nonexpt_1283_mol1.chk"
 Charge =  0 Multiplicity = 1

                         Standard orientation:
 ---------------------------------------------------------------------
 Center     Atomic      Atomic             Coordinates (Angstroms)
 Number     Number       Type             X           Y           Z
 ---------------------------------------------------------------------
      1          6           0       -0.507949    0.539778   -0.553476
      2         15           0        1.067024   -0.125274    0.166961
      3          7           0       -1.666340   -0.336267   -0.071998
      4          8           0        1.140515    0.017676    1.622979
      5          8           0        2.166285    0.694542   -0.657476
      6          8           0       -2.652499    0.200621    0.377319
      7          8           0       -1.526917   -1.554573   -0.197631
      8          1           0       -0.475096    0.357919   -1.630601
      9          6           0       -0.736039    2.004788   -0.223435
     10          1           0       -0.755854    2.159108    0.855403
     11          1           0       -1.675703    2.357264   -0.647731
     12          1           0        0.082259    2.588111   -0.649054
     13          1           0        2.763680    1.172400   -0.069388
     14          8           0        1.222468   -1.560371   -0.492148
     15          1           0        0.384847   -2.052364   -0.421920
 ---------------------------------------------------------------------

 SCF Done:  E(RHF) =  -848.989173955     A.U. after    2 cycles

 The electronic state is 1-A.
 Alpha  occ. eigenvalues --  -81.44344 -20.65658 -20.64148 -20.63953 -20.62568
 Alpha  occ. eigenvalues --  -20.54580 -15.94372 -11.34961 -11.27421  -7.92667
 Alpha  occ. eigenvalues --   -5.07339  -5.07265  -5.06988  -1.58019  -1.40391
 Alpha  occ. eigenvalues --   -1.39518  -1.36566  -1.28070  -1.13420  -0.97979
 Alpha  occ. eigenvalues --   -0.88908  -0.85829  -0.78541  -0.77812  -0.77052
 Alpha  occ. eigenvalues --   -0.75115  -0.70594  -0.68200  -0.65746  -0.63202
 Alpha  occ. eigenvalues --   -0.61463  -0.59839  -0.59291  -0.57277  -0.54614
 Alpha  occ. eigenvalues --   -0.53782  -0.52547  -0.50674  -0.50355  -0.48713
 Alpha virt. eigenvalues --    0.02435   0.03605   0.04332   0.05414   0.06051
 Alpha virt. eigenvalues --    0.06409   0.07484   0.09614   0.09882   0.11369
 Alpha virt. eigenvalues --    0.12563   0.12711   0.13984   0.14170   0.14579

 Mulliken charges:
               1
     1  C    0.033838
     2  P    2.474955
     3  N    0.446543
     4  O   -0.904486
     5  O   -0.714187
     6  O   -0.543999
     7  O   -0.653055
     8  H   -0.226403
     9  C    0.433358
    10  H    0.025862
    11  H    0.001936
    12  H   -0.012027
    13  H    0.167705
    14  O   -0.754892
    15  H    0.224852
 Sum of Mulliken charges =  -0.00000

 Dipole moment (field-independent basis, Debye):
    X=              1.1588    Y=              3.1479    Z=             -3.3276  Tot=              4.7249

 Test job not archived.
 1\1\GINC-SE338\SP\RHF\Aug-CC-pVDZ\C2H6N1O5P1\OHZDE\08-Apr-2025\0\\#t h
 f aug-cc-pvdz iop(5/13=1,5/36=2,99/5=2) pseudo=read geom=check guess=(
 read,tcheck) scf=(maxcycle=1)\\title\\0,1\C,0,-0.507949,0.539778,-0.55
 3476\P,0,1.067024,-0.125274,0.166961\N,0,-1.66634,-0.336267,-0.071998\
 O,0,1.140515,0.017676,1.622979\O,0,2.166285,0.694542,-0.657476\O,0,-2.
 652499,0.200621,0.377319\O,0,-1.526917,-1.554573,-0.197631\H,0,-0.4750
 96,0.357919,-1.630601\C,0,-0.736039,2.004788,-0.223435\H,0,-0.755854,2
 .159108,0.855403\H,0,-1.675703,2.357264,-0.647731\H,0,0.082259,2.58811

 Normal termination of Gaussian 16 at Tue Apr  8 23:24:44 2025.
