 Gaussian 16, Revision C.01,

 ----------------------------------------------------------------------
 #t hf aug-cc-pvdz symm=none int=(grid=ultrafine) guess=(read,tcheck) s
 table=opt
 ----------------------------------------------------------------------
 -----
 title
 -----
 Symbolic Z-matrix:
 Charge =  0 Multiplicity = 2

 SCF Done:  E(UHF) =  -950.594681304     A.U. after   18 cycles
 Normal termination of Gaussian 16 at Tue Apr  8 23:03:16 2025.
 Gaussian 16:  ES64L-G16RevC.01  3-Jul-2019

 ----------------------------------------------------------------------
 #t hf aug-cc-pvdz iop(5/13=1,5/36=2,99/5=2) pseudo=read geom=check gue
 ss=(read,tcheck) scf=(maxcycle=1)
 ----------------------------------------------------------------------
 -----
 title
 -----
 Structure from the checkpoint file:  "BDE49_expt_378_mol2.chk"
 Charge =  0 Multiplicity = 2

                         Standard orientation:
 ---------------------------------------------------------------------
 Center     Atomic      Atomic             Coordinates (Angstroms)
 Number     Number       Type             X           Y           Z
 ---------------------------------------------------------------------
      1         16           0        0.023775   -1.473973   -0.153754
      2          6           0        1.602959   -0.702121    0.359359
      3          6           0        1.640416    0.698029   -0.247224
      4          1           0        2.420433   -1.323463   -0.010602
      5          1           0        1.638826   -0.662920    1.449149
      6         16           0        0.002930    1.488011    0.019067
      7          1           0        1.833821    0.654667   -1.320049
      8          1           0        2.397233    1.322676    0.231041
      9          6           0       -0.905903   -0.020131    0.151710
     10          6           0       -2.394049   -0.009350    0.032679
     11          1           0       -2.740071    0.046356   -1.010322
     12          1           0       -2.816396    0.851855    0.559618
     13          1           0       -2.821655   -0.912349    0.477003
 ---------------------------------------------------------------------

 SCF Done:  E(UHF) =  -950.683902192     A.U. after    2 cycles

 The electronic state is 2-A.
 Alpha  occ. eigenvalues --  -93.54325 -93.54125 -11.28944 -11.28613 -11.28478
 Alpha  occ. eigenvalues --  -11.24370  -8.84081  -8.83886  -6.18161  -6.17999
 Alpha  occ. eigenvalues --   -6.17975  -6.17799  -6.17778  -6.17612  -1.13706
 Alpha  occ. eigenvalues --   -1.04008  -0.97701  -0.92329  -0.81117  -0.73090
 Alpha  occ. eigenvalues --   -0.66116  -0.62710  -0.60400  -0.58808  -0.55884
 Alpha  occ. eigenvalues --   -0.52810  -0.49312  -0.48029  -0.46153  -0.42687
 Alpha  occ. eigenvalues --   -0.36053  -0.27434
 Alpha virt. eigenvalues --    0.03490   0.04311   0.05100   0.05345   0.06716
 Alpha virt. eigenvalues --    0.06788   0.07066   0.08622   0.10765   0.11031
 Alpha virt. eigenvalues --    0.12499   0.13226   0.13294   0.14218   0.14917

  Beta  occ. eigenvalues --  -93.54318 -93.54089 -11.28586 -11.28481 -11.26278
  Beta  occ. eigenvalues --  -11.24672  -8.84075  -8.83844  -6.18291  -6.18092
  Beta  occ. eigenvalues --   -6.18059  -6.17847  -6.17527  -6.17267  -1.12010
  Beta  occ. eigenvalues --   -1.01760  -0.97316  -0.91876  -0.80886  -0.68905
  Beta  occ. eigenvalues --   -0.65742  -0.62418  -0.58426  -0.56798  -0.55595
  Beta  occ. eigenvalues --   -0.51453  -0.48364  -0.47421  -0.42475  -0.39229
  Beta  occ. eigenvalues --   -0.33910
  Beta virt. eigenvalues --    0.03471   0.04331   0.05051   0.05363   0.06667
  Beta virt. eigenvalues --    0.06730   0.07091   0.08724   0.10855   0.11004
  Beta virt. eigenvalues --    0.11205   0.12720   0.13291   0.13693   0.14256

 Mulliken charges and spin densities:
               1          2
     1  S    0.346437  -0.021356
     2  C    0.032224  -0.011242
     3  C   -0.127443  -0.023593
     4  H   -0.046746  -0.001573
     5  H   -0.077230  -0.000559
     6  S    0.378649   0.005610
     7  H   -0.068969  -0.006468
     8  H   -0.024809   0.001521
     9  C   -0.770251   1.200416
    10  C    0.404309  -0.210154
    11  H    0.060425   0.045613
    12  H   -0.057617   0.011738
    13  H   -0.048978   0.010048
 Sum of Mulliken charges =  -0.00000   1.00000

 Dipole moment (field-independent basis, Debye):
    X=              1.3881    Y=             -0.0923    Z=              0.1800  Tot=              1.4028
                          Isotropic Fermi Contact Couplings
        Atom                 a.u.       MegaHertz       Gauss      10(-4) cm-1
     1  S(33)              0.00337       1.15713       0.41289       0.38598
     2  C(13)              0.00278       3.12710       1.11583       1.04309
     3  C(13)             -0.00068      -0.76774      -0.27395      -0.25609
     4  H(1)              -0.00106      -4.74785      -1.69415      -1.58371
     5  H(1)               0.00034       1.52332       0.54356       0.50813
     6  S(33)              0.03068      10.53748       3.76004       3.51493
     7  H(1)               0.00111       4.94402       1.76415       1.64915
     8  H(1)              -0.00068      -3.04320      -1.08589      -1.01510

 Normal termination of Gaussian 16 at Tue Apr  8 23:03:21 2025.
