 Gaussian 16, Revision C.01,

 ----------------------------------------------------------------------
 #t hf aug-cc-pvdz symm=none int=(grid=ultrafine) guess=(read,tcheck) s
 table=(opt,rrhf)
 ----------------------------------------------------------------------
 -----
 title
 -----
 Symbolic Z-matrix:
 Charge =  0 Multiplicity = 1

 SCF Done:  E(RHF) =  -687.617069918     A.U. after   12 cycles
 Normal termination of Gaussian 16 at Tue Apr  8 23:41:10 2025.
 Gaussian 16:  ES64L-G16RevC.01  3-Jul-2019

 ----------------------------------------------------------------------
 #t hf aug-cc-pvdz iop(5/13=1,5/36=2,99/5=2) pseudo=read geom=check gue
 ss=(read,tcheck) scf=(maxcycle=1)
 ----------------------------------------------------------------------
 -----
 title
 -----
 Structure from the checkpoint file:  "BDE49_nonexpt_1673_mol1.chk"
 Charge =  0 Multiplicity = 1

                         Standard orientation:
 ---------------------------------------------------------------------
 Center     Atomic      Atomic             Coordinates (Angstroms)
 Number     Number       Type             X           Y           Z
 ---------------------------------------------------------------------
      1         14           0        1.447355    0.188923   -0.006807
      2         15           0       -0.666829   -0.673443   -0.096284
      3          7           0       -1.692900    0.704711    0.071228
      4          1           0       -2.141760    0.981978   -0.789950
      5          1           0       -1.371114    1.510550    0.591272
      6          1           0       -0.663057   -1.123924    1.249894
      7          1           0        1.763814    0.807814   -1.316874
      8          1           0        2.424804   -0.892631    0.269627
      9          1           0        1.577084    1.239957    1.036994
 ---------------------------------------------------------------------

 SCF Done:  E(RHF) =  -687.681113914     A.U. after    2 cycles

 The electronic state is 1-A.
 Alpha  occ. eigenvalues --  -81.27130 -69.06988 -15.62426  -7.77251  -6.82320
 Alpha  occ. eigenvalues --   -4.91316  -4.91066  -4.90866  -3.93063  -3.93053
 Alpha  occ. eigenvalues --   -3.93045  -1.12120  -0.78677  -0.69091  -0.66836
 Alpha  occ. eigenvalues --   -0.55727  -0.50662  -0.48963  -0.47869  -0.38409
 Alpha  occ. eigenvalues --   -0.33739
 Alpha virt. eigenvalues --    0.03400   0.04524   0.05151   0.05654   0.07132
 Alpha virt. eigenvalues --    0.07652   0.08415   0.09142   0.09427   0.10441
 Alpha virt. eigenvalues --    0.11905   0.13874   0.15339   0.16602   0.16810

 Mulliken charges:
               1
     1  Si   0.242912
     2  P    0.220581
     3  N   -0.493795
     4  H    0.031100
     5  H   -0.000576
     6  H    0.124995
     7  H   -0.079136
     8  H   -0.033697
     9  H   -0.012386
 Sum of Mulliken charges =  -0.00000

 Dipole moment (field-independent basis, Debye):
    X=              0.1373    Y=              1.3587    Z=              0.0247  Tot=              1.3658

 Test job not archived.
 1\1\GINC-SE218\SP\RHF\Aug-CC-pVDZ\H6N1P1Si1\OHZDE\08-Apr-2025\0\\#t hf
  aug-cc-pvdz iop(5/13=1,5/36=2,99/5=2) pseudo=read geom=check guess=(r
 ead,tcheck) scf=(maxcycle=1)\\title\\0,1\Si,0,1.447355,0.188923,-0.006
 807\P,0,-0.666829,-0.673443,-0.096284\N,0,-1.6929,0.704711,0.071228\H,
 0,-2.14176,0.981978,-0.78995\H,0,-1.371114,1.51055,0.591272\H,0,-0.663
 057,-1.123924,1.249894\H,0,1.763814,0.807814,-1.316874\H,0,2.424804,-0
 .892631,0.269627\H,0,1.577084,1.239957,1.036994\\Version=ES64L-G16RevC
 .01\State=1-A\HF=-687.6811139\RMSD=8.213e-03\Dipole=0.0540159,0.534534

 Normal termination of Gaussian 16 at Tue Apr  8 23:41:12 2025.
