 Gaussian 16, Revision C.01,

 ----------------------------------------------------------------------
 #t hf aug-cc-pvdz symm=none int=(grid=ultrafine) guess=(read,tcheck) s
 table=(opt,rrhf)
 ----------------------------------------------------------------------
 -----
 title
 -----
 Symbolic Z-matrix:
 Charge =  0 Multiplicity = 1

 SCF Done:  E(RHF) =  -655.280186265     A.U. after   12 cycles
 Normal termination of Gaussian 16 at Tue Apr  8 22:30:09 2025.
 Gaussian 16:  ES64L-G16RevC.01  3-Jul-2019

 ----------------------------------------------------------------------
 #t hf aug-cc-pvdz iop(5/13=1,5/36=2,99/5=2) pseudo=read geom=check gue
 ss=(read,tcheck) scf=(maxcycle=1)
 ----------------------------------------------------------------------
 -----
 title
 -----
 Structure from the checkpoint file:  "BDE49_expt_1039_mol1.chk"
 Charge =  0 Multiplicity = 1

                         Standard orientation:
 ---------------------------------------------------------------------
 Center     Atomic      Atomic             Coordinates (Angstroms)
 Number     Number       Type             X           Y           Z
 ---------------------------------------------------------------------
      1          6           0       -1.131935    0.122837    0.947535
      2          6           0        0.217403   -0.566053    0.810961
      3         17           0       -2.171147   -0.073837   -0.540906
      4          1           0       -1.044362    1.196530    1.102165
      5          1           0       -1.713519   -0.306372    1.761362
      6          6           0        1.158657   -0.027456   -0.281929
      7          1           0        0.047870   -1.635402    0.649332
      8          1           0        0.714323   -0.473862    1.787694
      9          6           0        2.419885   -0.898713   -0.359684
     10          1           0        2.986495   -0.856219    0.577179
     11          1           0        3.081400   -0.560966   -1.162107
     12          1           0        2.169920   -1.946161   -0.551595
     13          6           0        1.526884    1.446821   -0.065282
     14          1           0        0.633378   -0.109123   -1.240120
     15          1           0        2.023283    1.590239    0.901228
     16          1           0        0.651786    2.100979   -0.095922
     17          1           0        2.213565    1.790978   -0.843423
 ---------------------------------------------------------------------

 SCF Done:  E(RHF) =  -655.360859153     A.U. after    2 cycles

 The electronic state is 1-A.
 Alpha  occ. eigenvalues -- -103.64224 -11.30377 -11.24581 -11.24098 -11.22711
 Alpha  occ. eigenvalues --  -11.22646 -10.67495  -8.33209  -8.32937  -8.32928
 Alpha  occ. eigenvalues --   -1.15573  -1.08098  -0.98485  -0.93084  -0.85761
 Alpha  occ. eigenvalues --   -0.76967  -0.65933  -0.63889  -0.60205  -0.58790
 Alpha  occ. eigenvalues --   -0.56888  -0.54394  -0.52722  -0.51018  -0.47855
 Alpha  occ. eigenvalues --   -0.47294  -0.46935  -0.43937  -0.43614
 Alpha virt. eigenvalues --    0.03397   0.04148   0.04577   0.05218   0.06391
 Alpha virt. eigenvalues --    0.06507   0.07086   0.07344   0.07803   0.09117
 Alpha virt. eigenvalues --    0.09640   0.10898   0.13606   0.14368   0.14816

 Mulliken charges:
               1
     1  C    0.217658
     2  C    0.406525
     3  Cl  -0.166643
     4  H    0.012153
     5  H    0.023639
     6  C   -1.286732
     7  H   -0.130882
     8  H   -0.058141
     9  C    0.782982
    10  H   -0.017933
    11  H   -0.065765
    12  H   -0.081673
    13  C    0.729639
    14  H   -0.140073
    15  H   -0.025214
    16  H   -0.130547
    17  H   -0.068992
 Sum of Mulliken charges =   0.00000

 Dipole moment (field-independent basis, Debye):
    X=              1.6752    Y=              0.1472    Z=              1.7053  Tot=              2.3950

 Test job not archived.
 1\1\GINC-SE059\SP\RHF\Aug-CC-pVDZ\C5H11Cl1\OHZDE\08-Apr-2025\0\\#t hf
 aug-cc-pvdz iop(5/13=1,5/36=2,99/5=2) pseudo=read geom=check guess=(re
 ad,tcheck) scf=(maxcycle=1)\\title\\0,1\C,0,-1.131935,0.122837,0.94753
 5\C,0,0.217403,-0.566053,0.810961\Cl,0,-2.171147,-0.073837,-0.540906\H
 ,0,-1.044362,1.19653,1.102165\H,0,-1.713519,-0.306372,1.761362\C,0,1.1
 58657,-0.027456,-0.281929\H,0,0.04787,-1.635402,0.649332\H,0,0.714323,
 -0.473862,1.787694\C,0,2.419885,-0.898713,-0.359684\H,0,2.986495,-0.85
 6219,0.577179\H,0,3.0814,-0.560966,-1.162107\H,0,2.16992,-1.946161,-0.

 Normal termination of Gaussian 16 at Tue Apr  8 22:30:15 2025.
