 Gaussian 16, Revision C.01,

 ----------------------------------------------------------------------
 #t hf aug-cc-pvdz symm=none int=(grid=ultrafine) guess=(read,tcheck) s
 table=(opt,rrhf)
 ----------------------------------------------------------------------
 -----
 title
 -----
 Symbolic Z-matrix:
 Charge =  0 Multiplicity = 1

 SCF Done:  E(RHF) =  -1183.92226467     A.U. after   14 cycles

 1\1\GINC-SE250\Stability\RHF\Aug-CC-pVDZ\C6Cl1F5\OHZDE\08-Apr-2025\0\\
 #t hf aug-cc-pvdz symm=none int=(grid=ultrafine) guess=(read,tcheck) s
 table=(opt,rrhf)\\title\\0,1\C,0,0.,0.,-1.679817\C,0,0.,1.203595,-0.98
 4396\C,0,0.,1.201519,0.405312\C,0,0.,-1.203595,-0.984396\C,0,0.,-1.201
 519,0.405312\C,0,0.,0.,1.111646\F,0,0.,0.,-3.012396\F,0,0.,2.358475,-1
 .652796\F,0,0.,2.366421,1.052625\Cl,0,0.,0.,2.839569\F,0,0.,-2.358475,
 -1.652796\F,0,0.,-2.366421,1.052625\\Version=ES64L-G16RevC.01\HF=-1183
 .9222647\RMSD=9.755e-09\Dipole=0.,0.,0.1692008\Quadrupole=4.0463119,-3

 Normal termination of Gaussian 16 at Tue Apr  8 22:48:03 2025.
 Gaussian 16:  ES64L-G16RevC.01  3-Jul-2019

 ----------------------------------------------------------------------
 #t hf aug-cc-pvdz iop(5/13=1,5/36=2,99/5=2) pseudo=read geom=check gue
 ss=(read,tcheck) scf=(maxcycle=1)
 ----------------------------------------------------------------------
 -----
 title
 -----
 Structure from the checkpoint file:  "BDE49_expt_1684_mol1.chk"
 Charge =  0 Multiplicity = 1

                         Standard orientation:
 ---------------------------------------------------------------------
 Center     Atomic      Atomic             Coordinates (Angstroms)
 Number     Number       Type             X           Y           Z
 ---------------------------------------------------------------------
      1          6           0        0.000000   -0.000000   -1.679817
      2          6           0        0.000000    1.203595   -0.984396
      3          6           0        0.000000    1.201519    0.405312
      4          6           0       -0.000000   -1.203595   -0.984396
      5          6           0       -0.000000   -1.201519    0.405312
      6          6           0        0.000000    0.000000    1.111646
      7          9           0        0.000000   -0.000000   -3.012396
      8          9           0        0.000000    2.358475   -1.652796
      9          9           0        0.000000    2.366421    1.052625
     10         17           0        0.000000    0.000000    2.839569
     11          9           0       -0.000000   -2.358475   -1.652796
     12          9           0       -0.000000   -2.366421    1.052625
 ---------------------------------------------------------------------

 SCF Done:  E(RHF) =  -1184.18844298     A.U. after    2 cycles

 The electronic state is 1-A1.
 Alpha  occ. eigenvalues -- -103.70890 -26.19028 -26.18752 -26.18750 -26.18663
 Alpha  occ. eigenvalues --  -26.18660 -11.40588 -11.40550 -11.40543 -11.39986
 Alpha  occ. eigenvalues --  -11.39974 -11.36768 -10.74132  -8.39879  -8.39532
 Alpha  occ. eigenvalues --   -8.39520  -1.73711  -1.73263  -1.72957  -1.72281
 Alpha  occ. eigenvalues --   -1.72024  -1.25759  -1.20135  -1.10284  -1.07997
 Alpha  occ. eigenvalues --   -0.96947  -0.95791  -0.88859  -0.88732  -0.86225
 Alpha  occ. eigenvalues --   -0.82869  -0.82344  -0.82332  -0.81280  -0.80830
 Alpha  occ. eigenvalues --   -0.80115  -0.78911  -0.78540  -0.77154  -0.76691
 Alpha  occ. eigenvalues --   -0.71850  -0.69513  -0.64735  -0.62222  -0.59267
 Alpha  occ. eigenvalues --   -0.52278  -0.50992  -0.40174  -0.39373
 Alpha virt. eigenvalues --    0.04690   0.06456   0.06968   0.07053   0.08393
 Alpha virt. eigenvalues --    0.08897   0.09252   0.09376   0.10590   0.11334
 Alpha virt. eigenvalues --    0.12449   0.12506   0.13283   0.14172   0.14494

 Mulliken charges:
               1
     1  C    0.323931
     2  C    0.388536
     3  C    0.340053
     4  C    0.388536
     5  C    0.340053
     6  C   -0.427685
     7  F   -0.230179
     8  F   -0.226694
     9  F   -0.186400
    10  Cl  -0.297056
    11  F   -0.226694
    12  F   -0.186400
 Sum of Mulliken charges =  -0.00000

 Dipole moment (field-independent basis, Debye):
    X=              0.0000    Y=              0.0000    Z=              0.6557  Tot=              0.6557

 Test job not archived.
 1\1\GINC-SE250\SP\RHF\Aug-CC-pVDZ\C6Cl1F5\OHZDE\08-Apr-2025\0\\#t hf a
 ug-cc-pvdz iop(5/13=1,5/36=2,99/5=2) pseudo=read geom=check guess=(rea
 d,tcheck) scf=(maxcycle=1)\\title\\0,1\C,0,0.,0.,-1.679817\C,0,0.,1.20
 3595,-0.984396\C,0,0.,1.201519,0.405312\C,0,0.,-1.203595,-0.984396\C,0
 ,0.,-1.201519,0.405312\C,0,0.,0.,1.111646\F,0,0.,0.,-3.012396\F,0,0.,2
 .358475,-1.652796\F,0,0.,2.366421,1.052625\Cl,0,0.,0.,2.839569\F,0,0.,
 -2.358475,-1.652796\F,0,0.,-2.366421,1.052625\\Version=ES64L-G16RevC.0
 1\State=1-A1\HF=-1184.188443\RMSD=4.019e-02\Dipole=0.,0.,0.2579911\Qua

 Normal termination of Gaussian 16 at Tue Apr  8 22:48:10 2025.
