 Gaussian 16, Revision C.01,

 ----------------------------------------------------------------------
 #t hf aug-cc-pvdz symm=none int=(grid=ultrafine) guess=(read,tcheck) s
 table=(opt,rrhf)
 ----------------------------------------------------------------------
 -----
 title
 -----
 Symbolic Z-matrix:
 Charge =  0 Multiplicity = 1

 SCF Done:  E(RHF) =  -956.437436825     A.U. after   13 cycles

 1\1\GINC-SE331\Stability\RHF\Aug-CC-pVDZ\Cl1F1S1\OHZDE\08-Apr-2025\0\\
 #t hf aug-cc-pvdz symm=none int=(grid=ultrafine) guess=(read,tcheck) s
 table=(opt,rrhf)\\title\\0,1\Cl,0,-0.85103,-1.027503,0.\S,0,0.,0.83364
 1,0.\F,0,1.607502,0.458811,0.\\Version=ES64L-G16RevC.01\HF=-956.437436
 8\RMSD=6.030e-09\Dipole=-0.4190866,0.2668129,0.\Quadrupole=-0.9601448,
 1.9085637,-0.9484189,0.032312,0.,0.\PG=Unknown\\@
 The archive entry for this job was punched.

 Normal termination of Gaussian 16 at Tue Apr  8 22:55:39 2025.
 Gaussian 16:  ES64L-G16RevC.01  3-Jul-2019

 ----------------------------------------------------------------------
 #t hf aug-cc-pvdz iop(5/13=1,5/36=2,99/5=2) pseudo=read geom=check gue
 ss=(read,tcheck) scf=(maxcycle=1)
 ----------------------------------------------------------------------
 -----
 title
 -----
 Structure from the checkpoint file:  "BDE49_expt_1934_mol1.chk"
 Charge =  0 Multiplicity = 1

                         Standard orientation:
 ---------------------------------------------------------------------
 Center     Atomic      Atomic             Coordinates (Angstroms)
 Number     Number       Type             X           Y           Z
 ---------------------------------------------------------------------
      1         17           0       -0.851030   -1.027503    0.000000
      2         16           0        0.000000    0.833641   -0.000000
      3          9           0        1.607502    0.458811   -0.000000
 ---------------------------------------------------------------------

 SCF Done:  E(RHF) =  -956.518296792     A.U. after    2 cycles

 The electronic state is 1-A'.
 Alpha  occ. eigenvalues -- -103.71087 -93.69200 -26.16390 -10.74297  -8.97669
 Alpha  occ. eigenvalues --   -8.40024  -8.39664  -8.39617  -6.31724  -6.31425
 Alpha  occ. eigenvalues --   -6.30846  -1.67746  -1.20220  -0.96404  -0.76886
 Alpha  occ. eigenvalues --   -0.76503  -0.72601  -0.55218  -0.54806  -0.51572
 Alpha  occ. eigenvalues --   -0.40302
 Alpha virt. eigenvalues --    0.03092   0.04736   0.09897   0.10940   0.11449
 Alpha virt. eigenvalues --    0.13112   0.14457   0.15704   0.16530   0.25654
 Alpha virt. eigenvalues --    0.27324   0.27877   0.31380   0.33968   0.39735

 Mulliken charges:
               1
     1  Cl  -0.246365
     2  S    0.781204
     3  F   -0.534839
 Sum of Mulliken charges =  -0.00000

 Dipole moment (field-independent basis, Debye):
    X=             -1.3791    Y=              0.8213    Z=              0.0000  Tot=              1.6051

 Test job not archived.
 1\1\GINC-SE331\SP\RHF\Aug-CC-pVDZ\Cl1F1S1\OHZDE\08-Apr-2025\0\\#t hf a
 ug-cc-pvdz iop(5/13=1,5/36=2,99/5=2) pseudo=read geom=check guess=(rea
 d,tcheck) scf=(maxcycle=1)\\title\\0,1\Cl,0,-0.85103,-1.027503,0.\S,0,
 0.,0.833641,0.\F,0,1.607502,0.458811,0.\\Version=ES64L-G16RevC.01\Stat
 e=1-A'\HF=-956.5182968\RMSD=4.360e-03\Dipole=-0.5425652,0.3231154,0.\Q
 uadrupole=-1.2378483,2.1235072,-0.8856588,-0.0862735,0.,0.\PG=CS [SG(C
 l1F1S1)]\\@

 Normal termination of Gaussian 16 at Tue Apr  8 22:55:41 2025.
