 Gaussian 16, Revision C.01,

 ----------------------------------------------------------------------
 #t hf aug-cc-pvdz symm=none int=(grid=ultrafine) guess=(read,tcheck) s
 table=(opt,rrhf)
 ----------------------------------------------------------------------
 -----
 title
 -----
 Symbolic Z-matrix:
 Charge =  0 Multiplicity = 1

 SCF Done:  E(RHF) =  -468.266206962     A.U. after   12 cycles
 Normal termination of Gaussian 16 at Tue Apr  8 23:53:56 2025.
 Gaussian 16:  ES64L-G16RevC.01  3-Jul-2019

 ----------------------------------------------------------------------
 #t hf aug-cc-pvdz iop(5/13=1,5/36=2,99/5=2) pseudo=read geom=check gue
 ss=(read,tcheck) scf=(maxcycle=1)
 ----------------------------------------------------------------------
 -----
 title
 -----
 Structure from the checkpoint file:  "BDE49_nonexpt_1972_mol1.chk"
 Charge =  0 Multiplicity = 1

                         Standard orientation:
 ---------------------------------------------------------------------
 Center     Atomic      Atomic             Coordinates (Angstroms)
 Number     Number       Type             X           Y           Z
 ---------------------------------------------------------------------
      1         14           0        0.787562   -0.467835    0.185158
      2          6           0       -0.982242   -0.566241   -0.403377
      3          9           0        1.407910    0.972849   -0.213310
      4          6           0       -1.916595    0.503082    0.193320
      5          1           0       -1.579560    1.510458   -0.063497
      6          1           0       -1.953609    0.436555    1.284451
      7          1           0       -2.938484    0.390653   -0.178643
      8          1           0       -1.346987   -1.572478   -0.157229
      9          1           0       -0.985301   -0.507935   -1.498178
     10          1           0        1.627067   -1.502822   -0.457409
     11          1           0        0.872842   -0.581425    1.658421
 ---------------------------------------------------------------------

 SCF Done:  E(RHF) =  -468.360622410     A.U. after    2 cycles

 The electronic state is 1-A.
 Alpha  occ. eigenvalues --  -69.10600 -26.09797 -11.23813 -11.23164  -6.85324
 Alpha  occ. eigenvalues --   -3.96258  -3.96062  -3.96052  -1.62321  -1.02274
 Alpha  occ. eigenvalues --   -0.85781  -0.78523  -0.71184  -0.71131  -0.63739
 Alpha  occ. eigenvalues --   -0.61037  -0.57833  -0.52737  -0.50575  -0.47651
 Alpha  occ. eigenvalues --   -0.44103
 Alpha virt. eigenvalues --    0.03385   0.04826   0.04966   0.05074   0.06679
 Alpha virt. eigenvalues --    0.07479   0.07777   0.08319   0.09945   0.10305
 Alpha virt. eigenvalues --    0.13291   0.14235   0.15427   0.16013   0.16596

 Mulliken charges:
               1
     1  Si   1.152555
     2  C    0.045208
     3  F   -0.804020
     4  C    0.234739
     5  H   -0.092479
     6  H   -0.104074
     7  H   -0.078842
     8  H   -0.152218
     9  H   -0.150209
    10  H   -0.042601
    11  H   -0.008058
 Sum of Mulliken charges =  -0.00000

 Dipole moment (field-independent basis, Debye):
    X=             -1.4883    Y=             -1.4683    Z=              0.1257  Tot=              2.0945

 Test job not archived.
 1\1\GINC-SE060\SP\RHF\Aug-CC-pVDZ\C2H7F1Si1\OHZDE\08-Apr-2025\0\\#t hf
  aug-cc-pvdz iop(5/13=1,5/36=2,99/5=2) pseudo=read geom=check guess=(r
 ead,tcheck) scf=(maxcycle=1)\\title\\0,1\Si,0,0.787562,-0.467835,0.185
 158\C,0,-0.982242,-0.566241,-0.403377\F,0,1.40791,0.972849,-0.21331\C,
 0,-1.916595,0.503082,0.19332\H,0,-1.57956,1.510458,-0.063497\H,0,-1.95
 3609,0.436555,1.284451\H,0,-2.938484,0.390653,-0.178643\H,0,-1.346987,
 -1.572478,-0.157229\H,0,-0.985301,-0.507935,-1.498178\H,0,1.627067,-1.
 502822,-0.457409\H,0,0.872842,-0.581425,1.658421\\Version=ES64L-G16Rev

 Normal termination of Gaussian 16 at Tue Apr  8 23:54:00 2025.
