 Gaussian 16, Revision C.01,

 ----------------------------------------------------------------------
 #t hf aug-cc-pvdz symm=none int=(grid=ultrafine) guess=(read,tcheck) s
 table=(opt,rrhf)
 ----------------------------------------------------------------------
 -----
 title
 -----
 Symbolic Z-matrix:
 Charge =  0 Multiplicity = 1

 SCF Done:  E(RHF) =  -834.758803095     A.U. after   13 cycles
 Normal termination of Gaussian 16 at Tue Apr  8 22:38:27 2025.
 Gaussian 16:  ES64L-G16RevC.01  3-Jul-2019

 ----------------------------------------------------------------------
 #t hf aug-cc-pvdz iop(5/13=1,5/36=2,99/5=2) pseudo=read geom=check gue
 ss=(read,tcheck) scf=(maxcycle=1)
 ----------------------------------------------------------------------
 -----
 title
 -----
 Structure from the checkpoint file:  "BDE49_expt_130_mol1.chk"
 Charge =  0 Multiplicity = 1

                         Standard orientation:
 ---------------------------------------------------------------------
 Center     Atomic      Atomic             Coordinates (Angstroms)
 Number     Number       Type             X           Y           Z
 ---------------------------------------------------------------------
      1          6           0       -0.045300    0.231269    0.000001
      2          6           0        0.966163   -0.904074   -0.000006
      3          9           0        0.097505    1.011839    1.085593
      4         17           0       -1.710683   -0.461850   -0.000001
      5          9           0        0.097503    1.011851   -1.085581
      6          1           0        0.827273   -1.507560   -0.898187
      7          1           0        0.827275   -1.507571    0.898168
      8          9           0        2.238534   -0.367756   -0.000004
 ---------------------------------------------------------------------

 SCF Done:  E(RHF) =  -834.910533066     A.U. after    2 cycles

 The electronic state is 1-A.
 Alpha  occ. eigenvalues -- -103.69740 -26.17837 -26.17827 -26.14294 -11.51684
 Alpha  occ. eigenvalues --  -11.37259 -10.73082  -8.38797  -8.38479  -8.38470
 Alpha  occ. eigenvalues --   -1.75126  -1.70140  -1.67607  -1.21230  -1.07340
 Alpha  occ. eigenvalues --   -0.96268  -0.86882  -0.84625  -0.83407  -0.78823
 Alpha  occ. eigenvalues --   -0.76682  -0.75964  -0.74822  -0.73523  -0.64256
 Alpha  occ. eigenvalues --   -0.59818  -0.56655  -0.50921  -0.50728
 Alpha virt. eigenvalues --    0.03530   0.05127   0.07207   0.08611   0.10403
 Alpha virt. eigenvalues --    0.11591   0.12028   0.12404   0.14395   0.15904
 Alpha virt. eigenvalues --    0.16918   0.17109   0.19461   0.20824   0.22529

 Mulliken charges:
               1
     1  C    0.485414
     2  C    0.784192
     3  F   -0.309828
     4  Cl  -0.155715
     5  F   -0.309826
     6  H   -0.054721
     7  H   -0.054721
     8  F   -0.384796
 Sum of Mulliken charges =  -0.00000

 Dipole moment (field-independent basis, Debye):
    X=             -0.7815    Y=             -2.6354    Z=             -0.0000  Tot=              2.7488

 Test job not archived.
 1\1\GINC-SE461\SP\RHF\Aug-CC-pVDZ\C2H2Cl1F3\OHZDE\08-Apr-2025\0\\#t hf
  aug-cc-pvdz iop(5/13=1,5/36=2,99/5=2) pseudo=read geom=check guess=(r
 ead,tcheck) scf=(maxcycle=1)\\title\\0,1\C,0,-0.0453,0.231269,0.000001
 \C,0,0.966163,-0.904074,-0.000006\F,0,0.097505,1.011839,1.085593\Cl,0,
 -1.710683,-0.46185,-0.000001\F,0,0.097503,1.011851,-1.085581\H,0,0.827
 273,-1.50756,-0.898187\H,0,0.827275,-1.507571,0.898168\F,0,2.238534,-0
 .367756,-0.000004\\Version=ES64L-G16RevC.01\State=1-A\HF=-834.9105331\
 RMSD=6.024e-03\Dipole=-0.3074635,-1.0368359,-0.0000079\Quadrupole=-2.3

 Normal termination of Gaussian 16 at Tue Apr  8 22:38:30 2025.
