 Gaussian 16, Revision C.01,

 ----------------------------------------------------------------------
 #t hf aug-cc-pvdz symm=none int=(grid=ultrafine) guess=(read,tcheck) s
 table=(opt,rrhf)
 ----------------------------------------------------------------------
 -----
 title
 -----
 Symbolic Z-matrix:
 Charge =  0 Multiplicity = 1

 SCF Done:  E(RHF) =  -720.900832134     A.U. after   18 cycles
 Normal termination of Gaussian 16 at Tue Apr  8 23:06:14 2025.
 Gaussian 16:  ES64L-G16RevC.01  3-Jul-2019

 ----------------------------------------------------------------------
 #t hf aug-cc-pvdz iop(5/13=1,5/36=2,99/5=2) pseudo=read geom=check gue
 ss=(read,tcheck) scf=(maxcycle=1)
 ----------------------------------------------------------------------
 -----
 title
 -----
 Structure from the checkpoint file:  "BDE49_expt_1771_mol1.chk"
 Charge =  0 Multiplicity = 1

                         Standard orientation:
 ---------------------------------------------------------------------
 Center     Atomic      Atomic             Coordinates (Angstroms)
 Number     Number       Type             X           Y           Z
 ---------------------------------------------------------------------
      1          6           0       -3.542653    0.848805   -0.808815
      2          6           0       -3.849682   -0.507669   -0.730862
      3          6           0       -2.885762   -1.401770   -0.285791
      4          6           0       -2.273281    1.281968   -0.457030
      5          6           0       -1.305223    0.376826   -0.001465
      6          6           0       -1.601337   -0.993352    0.100712
      7          1           0       -4.280270    1.563514   -1.154485
      8          1           0       -4.833282   -0.866058   -1.011795
      9          1           0       -3.131480   -2.456856   -0.216031
     10          1           0       -2.009921    2.328992   -0.525211
     11          6           0        1.573085   -0.914276    0.394314
     12          6           0        1.211814    0.347652   -0.084656
     13          7           0       -0.029858    0.917540    0.360170
     14          7           0       -0.072464    2.048484    1.135252
     15          8           0        1.000270    2.541581    1.396175
     16          6           0        2.781113   -1.464498   -0.039387
     17          6           0        3.612737   -0.763953   -0.909156
     18          6           0        3.241847    0.499321   -1.365437
     19          6           0        2.036560    1.058443   -0.953792
     20          1           0        3.073597   -2.447077    0.315953
     21          1           0        4.551084   -1.202626   -1.229061
     22          1           0        3.888167    1.048535   -2.039951
     23          1           0        1.735835    2.040186   -1.295992
     24          6           0       -0.657903   -2.079773    0.596775
     25          6           0        0.629709   -1.642547    1.314642
     26          1           0       -0.377919   -2.709711   -0.256652
     27          1           0       -1.229486   -2.725223    1.271538
     28          1           0        0.378803   -1.007148    2.170452
     29          1           0        1.122826   -2.532417    1.713571
 ---------------------------------------------------------------------

 SCF Done:  E(RHF) =  -721.107339658     A.U. after    2 cycles

 The electronic state is 1-A.
 Alpha  occ. eigenvalues --  -20.61051 -15.80159 -15.69766 -11.30071 -11.29145
 Alpha  occ. eigenvalues --  -11.26628 -11.26211 -11.25592 -11.25574 -11.25463
 Alpha  occ. eigenvalues --  -11.25313 -11.25232 -11.25207 -11.25102 -11.25098
 Alpha  occ. eigenvalues --  -11.25044 -11.25012  -1.47120  -1.26244  -1.15965
 Alpha  occ. eigenvalues --   -1.14609  -1.08401  -1.03525  -1.03137  -1.01237
 Alpha  occ. eigenvalues --   -0.98347  -0.90851  -0.89744  -0.84352  -0.83544
 Alpha  occ. eigenvalues --   -0.80738  -0.78782  -0.73392  -0.72747  -0.68743
 Alpha  occ. eigenvalues --   -0.68360  -0.67359  -0.64935  -0.63773  -0.63430
 Alpha  occ. eigenvalues --   -0.61911  -0.61189  -0.59937  -0.59389  -0.56784
 Alpha  occ. eigenvalues --   -0.55842  -0.54572  -0.52779  -0.52036  -0.51351
 Alpha  occ. eigenvalues --   -0.49848  -0.49427  -0.49009  -0.43714  -0.42375
 Alpha  occ. eigenvalues --   -0.34777  -0.34241  -0.33903  -0.32868
 Alpha virt. eigenvalues --    0.02906   0.03237   0.03409   0.04596   0.04785
 Alpha virt. eigenvalues --    0.05161   0.05933   0.06321   0.06723   0.07707
 Alpha virt. eigenvalues --    0.08166   0.08263   0.08758   0.09782   0.10186

 Mulliken charges:
               1
     1  C    0.336446
     2  C    0.200461
     3  C    0.548566
     4  C    0.698885
     5  C    0.528433
     6  C    0.120416
     7  H   -0.436373
     8  H   -0.470250
     9  H   -0.676018
    10  H   -0.670382
    11  C   -0.317455
    12  C    0.078971
    13  N   -0.469503
    14  N   -0.064475
    15  O   -0.512412
    16  C    1.215987
    17  C    0.259808
    18  C    0.457980
    19  C    0.692706
    20  H   -0.592580
    21  H   -0.475861
    22  H   -0.456535
    23  H   -0.640263
    24  C    0.053214
    25  C    0.727425
    26  H    0.053936
    27  H   -0.015877
    28  H   -0.050434
    29  H   -0.124818
 Sum of Mulliken charges =  -0.00000

 Dipole moment (field-independent basis, Debye):
    X=             -0.9132    Y=             -3.3588    Z=             -1.7176  Tot=              3.8815

 Test job not archived.
 1\1\GINC-SE141\SP\RHF\Aug-CC-pVDZ\C14H12N2O1\OHZDE\08-Apr-2025\0\\#t h
 f aug-cc-pvdz iop(5/13=1,5/36=2,99/5=2) pseudo=read geom=check guess=(
 read,tcheck) scf=(maxcycle=1)\\title\\0,1\C,0,-3.542653,0.848805,-0.80
 8815\C,0,-3.849682,-0.507669,-0.730862\C,0,-2.885762,-1.40177,-0.28579
 1\C,0,-2.273281,1.281968,-0.45703\C,0,-1.305223,0.376826,-0.001465\C,0
 ,-1.601337,-0.993352,0.100712\H,0,-4.28027,1.563514,-1.154485\H,0,-4.8
 33282,-0.866058,-1.011795\H,0,-3.13148,-2.456856,-0.216031\H,0,-2.0099
 21,2.328992,-0.525211\C,0,1.573085,-0.914276,0.394314\C,0,1.211814,0.3

 Normal termination of Gaussian 16 at Tue Apr  8 23:06:58 2025.
