 Gaussian 16, Revision C.01,

 ----------------------------------------------------------------------
 #t hf aug-cc-pvdz symm=none int=(grid=ultrafine) guess=(read,tcheck) s
 table=(opt,rrhf)
 ----------------------------------------------------------------------
 -----
 title
 -----
 Symbolic Z-matrix:
 Charge =  0 Multiplicity = 1

 SCF Done:  E(RHF) =  -610.205229138     A.U. after   15 cycles
 Normal termination of Gaussian 16 at Tue Apr  8 23:29:39 2025.
 Gaussian 16:  ES64L-G16RevC.01  3-Jul-2019

 ----------------------------------------------------------------------
 #t hf aug-cc-pvdz iop(5/13=1,5/36=2,99/5=2) pseudo=read geom=check gue
 ss=(read,tcheck) scf=(maxcycle=1)
 ----------------------------------------------------------------------
 -----
 title
 -----
 Structure from the checkpoint file:  "BDE49_nonexpt_1387_mol1.chk"
 Charge =  0 Multiplicity = 1

                         Standard orientation:
 ---------------------------------------------------------------------
 Center     Atomic      Atomic             Coordinates (Angstroms)
 Number     Number       Type             X           Y           Z
 ---------------------------------------------------------------------
      1          6           0        1.258838   -1.131520   -0.220230
      2          6           0        1.701912    0.083397    0.607258
      3         15           0       -0.595209   -1.411931   -0.196218
      4          1           0        1.727831   -2.049034    0.145981
      5          1           0        1.566561   -1.029147   -1.266313
      6          6           0       -1.129559    0.388494   -0.012899
      7          6           0       -0.177493    1.381827   -0.654179
      8          6           0        1.209003    1.434432    0.043384
      9          1           0       -0.650898    2.365756   -0.663143
     10          1           0       -0.043518    1.065040   -1.695872
     11          1           0        1.170270    2.162679    0.857376
     12          1           0        1.932983    1.819825   -0.680374
     13          1           0        2.794520    0.109356    0.679181
     14          1           0        1.331355   -0.044001    1.629636
     15          8           0       -2.167979    0.693004    0.521877
     16          1           0       -0.733338   -1.705314    1.181771
 ---------------------------------------------------------------------

 SCF Done:  E(RHF) =  -610.307704915     A.U. after    2 cycles

 The electronic state is 1-A.
 Alpha  occ. eigenvalues --  -81.26227 -20.57022 -11.34587 -11.25655 -11.25457
 Alpha  occ. eigenvalues --  -11.25381 -11.25222  -7.76660  -4.90645  -4.90608
 Alpha  occ. eigenvalues --   -4.90328  -1.35838  -1.09760  -1.00785  -0.93840
 Alpha  occ. eigenvalues --   -0.82025  -0.81040  -0.70690  -0.67288  -0.65689
 Alpha  occ. eigenvalues --   -0.61712  -0.59328  -0.57978  -0.57336  -0.54043
 Alpha  occ. eigenvalues --   -0.51552  -0.49118  -0.48731  -0.46792  -0.40289
 Alpha  occ. eigenvalues --   -0.34721
 Alpha virt. eigenvalues --    0.02935   0.04073   0.04438   0.04977   0.06249
 Alpha virt. eigenvalues --    0.06607   0.06830   0.07578   0.08045   0.09571
 Alpha virt. eigenvalues --    0.10652   0.11506   0.11745   0.12878   0.13798

 Mulliken charges:
               1
     1  C    0.131209
     2  C    0.205487
     3  P    0.248917
     4  H   -0.133543
     5  H   -0.085306
     6  C    0.224635
     7  C    0.122898
     8  C    0.045898
     9  H   -0.118389
    10  H    0.045807
    11  H   -0.050670
    12  H   -0.071236
    13  H   -0.095120
    14  H   -0.130903
    15  O   -0.519192
    16  H    0.179507
 Sum of Mulliken charges =  -0.00000

 Dipole moment (field-independent basis, Debye):
    X=              4.2352    Y=             -0.0922    Z=             -0.8741  Tot=              4.3254

 Test job not archived.
 1\1\GINC-SE423\SP\RHF\Aug-CC-pVDZ\C5H9O1P1\OHZDE\08-Apr-2025\0\\#t hf
 aug-cc-pvdz iop(5/13=1,5/36=2,99/5=2) pseudo=read geom=check guess=(re
 ad,tcheck) scf=(maxcycle=1)\\title\\0,1\C,0,1.258836,-1.131522,-0.2202
 3\C,0,1.701912,0.083395,0.607258\P,0,-0.595211,-1.41193,-0.196218\H,0,
 1.727828,-2.049036,0.145981\H,0,1.56656,-1.029149,-1.266313\C,0,-1.129
 558,0.388496,-0.012899\C,0,-0.177491,1.381827,-0.654179\C,0,1.209005,1
 .43443,0.043384\H,0,-0.650894,2.365757,-0.663143\H,0,-0.043516,1.06504
 ,-1.695872\H,0,1.170273,2.162677,0.857376\H,0,1.932986,1.819822,-0.680

 Normal termination of Gaussian 16 at Tue Apr  8 23:29:45 2025.
