 Gaussian 16, Revision C.01,

 ----------------------------------------------------------------------
 #t hf aug-cc-pvdz symm=none int=(grid=ultrafine) guess=(read,tcheck) s
 table=(opt,rrhf)
 ----------------------------------------------------------------------
 -----
 title
 -----
 Symbolic Z-matrix:
 Charge =  0 Multiplicity = 1

 SCF Done:  E(RHF) =  -901.203581427     A.U. after   15 cycles
 Normal termination of Gaussian 16 at Tue Apr  8 23:43:50 2025.
 Gaussian 16:  ES64L-G16RevC.01  3-Jul-2019

 ----------------------------------------------------------------------
 #t hf aug-cc-pvdz iop(5/13=1,5/36=2,99/5=2) pseudo=read geom=check gue
 ss=(read,tcheck) scf=(maxcycle=1)
 ----------------------------------------------------------------------
 -----
 title
 -----
 Structure from the checkpoint file:  "BDE49_nonexpt_1697_mol1.chk"
 Charge =  0 Multiplicity = 1

                         Standard orientation:
 ---------------------------------------------------------------------
 Center     Atomic      Atomic             Coordinates (Angstroms)
 Number     Number       Type             X           Y           Z
 ---------------------------------------------------------------------
      1          6           0       -0.515683    0.089494   -0.258707
      2          6           0       -1.308839   -0.874904   -0.901777
      3          6           0       -2.668711   -0.991406   -0.624921
      4          6           0       -3.266315   -0.142257    0.304433
      5          6           0       -2.498573    0.822016    0.953742
      6          6           0       -1.138409    0.934496    0.673945
      7         15           0        2.422368   -1.268135    0.736919
      8          1           0       -3.262178   -1.741928   -1.135474
      9          1           0       -4.325365   -0.230430    0.520104
     10          1           0       -2.958874    1.486884    1.676464
     11          1           0       -0.560162    1.694489    1.190113
     12          1           0       -0.860633   -1.541291   -1.632233
     13         14           0        1.325216    0.209952   -0.624140
     14          6           0        1.948539    1.978656   -0.473980
     15          1           0        1.842577    2.358669    0.545569
     16          1           0        1.394661    2.641815   -1.145170
     17          1           0        3.007782    2.032400   -0.738967
     18          1           0        2.252667   -0.485057    1.910382
     19          1           0        3.715206   -0.744054    0.462698
     20          1           0        1.553713   -0.285366   -2.005734
 ---------------------------------------------------------------------

 SCF Done:  E(RHF) =  -901.325038507     A.U. after    2 cycles

 The electronic state is 1-A.
 Alpha  occ. eigenvalues --  -81.24054 -69.07021 -11.25273 -11.25158 -11.25135
 Alpha  occ. eigenvalues --  -11.24838 -11.24778 -11.23657 -11.22350  -7.74577
 Alpha  occ. eigenvalues --   -6.82214  -4.88528  -4.88451  -4.88223  -3.92946
 Alpha  occ. eigenvalues --   -3.92933  -3.92908  -1.14313  -1.01328  -1.01130
 Alpha  occ. eigenvalues --   -0.94546  -0.82998  -0.82739  -0.78815  -0.71608
 Alpha  occ. eigenvalues --   -0.65580  -0.63247  -0.62380  -0.59553  -0.57286
 Alpha  occ. eigenvalues --   -0.56535  -0.54264  -0.51712  -0.50718  -0.49996
 Alpha  occ. eigenvalues --   -0.46630  -0.45062  -0.42310  -0.35327  -0.34367
 Alpha  occ. eigenvalues --   -0.33225
 Alpha virt. eigenvalues --    0.03022   0.03934   0.04148   0.05145   0.05390
 Alpha virt. eigenvalues --    0.05750   0.06817   0.07214   0.07646   0.07800
 Alpha virt. eigenvalues --    0.08377   0.09363   0.09432   0.10200   0.10537

 Mulliken charges:
               1
     1  C   -0.439781
     2  C    0.200033
     3  C    0.728114
     4  C    0.716562
     5  C    0.581887
     6  C    0.690000
     7  P   -0.649875
     8  H   -0.450262
     9  H   -0.442460
    10  H   -0.464922
    11  H   -0.650743
    12  H   -0.649105
    13  Si   0.815061
    14  C    0.454068
    15  H   -0.247864
    16  H   -0.271931
    17  H   -0.295466
    18  H    0.215068
    19  H    0.144998
    20  H    0.016619
 Sum of Mulliken charges =   0.00000

 Dipole moment (field-independent basis, Debye):
    X=             -0.6534    Y=              1.3382    Z=             -0.0126  Tot=              1.4893

 Test job not archived.
 1\1\GINC-SE118\SP\RHF\Aug-CC-pVDZ\C7H11P1Si1\OHZDE\08-Apr-2025\0\\#t h
 f aug-cc-pvdz iop(5/13=1,5/36=2,99/5=2) pseudo=read geom=check guess=(
 read,tcheck) scf=(maxcycle=1)\\title\\0,1\C,0,0.515683,0.089494,0.2587
 07\C,0,1.308839,-0.874904,0.901777\C,0,2.668711,-0.991406,0.624921\C,0
 ,3.266315,-0.142257,-0.304433\C,0,2.498573,0.822016,-0.953742\C,0,1.13
 8409,0.934496,-0.673945\P,0,-2.422368,-1.268135,-0.736919\H,0,3.262178
 ,-1.741928,1.135474\H,0,4.325365,-0.23043,-0.520104\H,0,2.958874,1.486
 884,-1.676464\H,0,0.560162,1.694489,-1.190113\H,0,0.860633,-1.541291,1

 Normal termination of Gaussian 16 at Tue Apr  8 23:44:02 2025.
