 Gaussian 16, Revision C.01,

 ----------------------------------------------------------------------
 #t hf aug-cc-pvdz symm=none int=(grid=ultrafine) guess=(read,tcheck) s
 table=(opt,rrhf)
 ----------------------------------------------------------------------
 -----
 title
 -----
 Symbolic Z-matrix:
 Charge =  0 Multiplicity = 1

 SCF Done:  E(RHF) =  -1336.24172587     A.U. after   13 cycles
 Normal termination of Gaussian 16 at Wed Apr  9 00:48:15 2025.
 Gaussian 16:  ES64L-G16RevC.01  3-Jul-2019

 ----------------------------------------------------------------------
 #t hf aug-cc-pvdz iop(5/13=1,5/36=2,99/5=2) pseudo=read geom=check gue
 ss=(read,tcheck) scf=(maxcycle=1)
 ----------------------------------------------------------------------
 -----
 title
 -----
 Structure from the checkpoint file:  "BDE49_nonexpt_889_mol1.chk"
 Charge =  0 Multiplicity = 1

                         Standard orientation:
 ---------------------------------------------------------------------
 Center     Atomic      Atomic             Coordinates (Angstroms)
 Number     Number       Type             X           Y           Z
 ---------------------------------------------------------------------
      1          6           0       -1.882133    0.120438   -0.154820
      2         16           0       -0.437610   -1.043670    0.046783
      3          5           0        1.056368   -0.036864   -0.041395
      4         16           0        2.682362   -0.842643    0.146431
      5         16           0        0.999988    1.764537   -0.327617
      6          6           0       -3.031158   -0.674269   -0.778355
      7          1           0       -3.336378   -1.500828   -0.130290
      8          1           0       -2.752664   -1.086757   -1.749738
      9          6           0       -2.269146    0.756351    1.180164
     10          1           0       -1.558607    0.889820   -0.858580
     11          1           0       -3.113464    1.438512    1.034367
     12          1           0       -1.444659    1.325868    1.611449
     13          1           0       -2.570154   -0.008081    1.901213
     14          1           0       -3.897372   -0.020565   -0.917468
     15          1           0        2.326868    1.981411   -0.340206
     16          1           0        2.243370   -2.101757    0.324727
 ---------------------------------------------------------------------

 SCF Done:  E(RHF) =  -1336.34058289     A.U. after    2 cycles

 The electronic state is 1-A.
 Alpha  occ. eigenvalues --  -93.54540 -93.54180 -93.53111 -11.28894 -11.24182
 Alpha  occ. eigenvalues --  -11.23826  -8.84498  -8.84126  -8.83098  -7.69491
 Alpha  occ. eigenvalues --   -6.18696  -6.18448  -6.18318  -6.18181  -6.18069
 Alpha  occ. eigenvalues --   -6.17814  -6.17270  -6.17023  -6.16814  -1.09091
 Alpha  occ. eigenvalues --   -1.00656  -0.95063  -0.94422  -0.93053  -0.79097
 Alpha  occ. eigenvalues --   -0.66584  -0.62809  -0.60819  -0.59148  -0.57284
 Alpha  occ. eigenvalues --   -0.55402  -0.52045  -0.50951  -0.50648  -0.46924
 Alpha  occ. eigenvalues --   -0.44447  -0.44293  -0.41926  -0.37236  -0.35646
 Alpha virt. eigenvalues --    0.03463   0.04508   0.04856   0.04978   0.06013
 Alpha virt. eigenvalues --    0.06562   0.07127   0.07272   0.07660   0.08518
 Alpha virt. eigenvalues --    0.09037   0.09802   0.10325   0.11112   0.12161

 Mulliken charges:
               1
     1  C   -0.880768
     2  S    0.103564
     3  B    0.660164
     4  S   -0.299232
     5  S   -0.184770
     6  C    0.725416
     7  H   -0.009954
     8  H   -0.078427
     9  C    0.396347
    10  H   -0.173110
    11  H   -0.058443
    12  H   -0.125286
    13  H   -0.015986
    14  H   -0.026666
    15  H   -0.036809
    16  H    0.003960
 Sum of Mulliken charges =  -0.00000

 Dipole moment (field-independent basis, Debye):
    X=             -1.4916    Y=              0.4284    Z=             -0.0674  Tot=              1.5534

 Test job not archived.
 1\1\GINC-SE102\SP\RHF\Aug-CC-pVDZ\C3H9B1S3\OHZDE\09-Apr-2025\0\\#t hf
 aug-cc-pvdz iop(5/13=1,5/36=2,99/5=2) pseudo=read geom=check guess=(re
 ad,tcheck) scf=(maxcycle=1)\\title\\0,1\C,0,-1.882133,0.120438,-0.1548
 2\S,0,-0.43761,-1.04367,0.046783\B,0,1.056368,-0.036864,-0.041395\S,0,
 2.682362,-0.842643,0.146431\S,0,0.999988,1.764537,-0.327617\C,0,-3.031
 158,-0.67427,-0.778355\H,0,-3.336378,-1.500829,-0.13029\H,0,-2.752664,
 -1.086757,-1.749738\C,0,-2.269146,0.756351,1.180164\H,0,-1.558607,0.88
 982,-0.85858\H,0,-3.113464,1.438511,1.034367\H,0,-1.444659,1.325868,1.

 Normal termination of Gaussian 16 at Wed Apr  9 00:48:23 2025.
