 Gaussian 16, Revision C.01,

 ----------------------------------------------------------------------
 #t hf aug-cc-pvdz symm=none int=(grid=ultrafine) guess=(read,tcheck) s
 table=(opt,rrhf)
 ----------------------------------------------------------------------
 -----
 title
 -----
 Symbolic Z-matrix:
 Charge =  0 Multiplicity = 1

 SCF Done:  E(RHF) =  -641.260856721     A.U. after   15 cycles
 Normal termination of Gaussian 16 at Tue Apr  8 23:09:45 2025.
 Gaussian 16:  ES64L-G16RevC.01  3-Jul-2019

 ----------------------------------------------------------------------
 #t hf aug-cc-pvdz iop(5/13=1,5/36=2,99/5=2) pseudo=read geom=check gue
 ss=(read,tcheck) scf=(maxcycle=1)
 ----------------------------------------------------------------------
 -----
 title
 -----
 Structure from the checkpoint file:  "BDE49_expt_742_mol1.chk"
 Charge =  0 Multiplicity = 1

                         Standard orientation:
 ---------------------------------------------------------------------
 Center     Atomic      Atomic             Coordinates (Angstroms)
 Number     Number       Type             X           Y           Z
 ---------------------------------------------------------------------
      1          6           0        0.104289    1.519485   -0.020621
      2          6           0       -0.275515    0.175747   -0.033996
      3          6           0        0.674525   -0.838880   -0.024649
      4          6           0        1.457489    1.836110    0.002107
      5          6           0        2.421987    0.831548    0.012380
      6          6           0        2.030716   -0.508578   -0.001692
      7          1           0        1.768950    2.873978    0.008928
      8          1           0        3.477134    1.087997    0.028127
      9          8           0        2.920620   -1.540677    0.002624
     10          1           0        3.818003   -1.191963    0.015782
     11          1           0        0.384699   -1.880844   -0.042672
     12          6           0       -1.738121   -0.177649   -0.002501
     13          9           0       -2.484826    0.700373   -0.708060
     14          9           0       -1.981225   -1.406012   -0.506578
     15          9           0       -2.224991   -0.170861    1.261314
     16          1           0       -0.646581    2.298055   -0.037401
 ---------------------------------------------------------------------

 SCF Done:  E(RHF) =  -641.472368454     A.U. after    2 cycles

 The electronic state is 1-A.
 Alpha  occ. eigenvalues --  -26.16272 -26.16163 -26.15778 -20.62277 -11.52779
 Alpha  occ. eigenvalues --  -11.33607 -11.28584 -11.27283 -11.26770 -11.26549
 Alpha  occ. eigenvalues --  -11.26356  -1.75507  -1.68650  -1.68200  -1.38712
 Alpha  occ. eigenvalues --   -1.17376  -1.07995  -1.03221  -0.99984  -0.90126
 Alpha  occ. eigenvalues --   -0.88325  -0.87180  -0.84593  -0.83368  -0.76817
 Alpha  occ. eigenvalues --   -0.76732  -0.74044  -0.72500  -0.72128  -0.71206
 Alpha  occ. eigenvalues --   -0.71118  -0.68220  -0.63537  -0.62527  -0.61318
 Alpha  occ. eigenvalues --   -0.60337  -0.55115  -0.52678  -0.51487  -0.37444
 Alpha  occ. eigenvalues --   -0.34251
 Alpha virt. eigenvalues --    0.02439   0.03695   0.04756   0.05773   0.06612
 Alpha virt. eigenvalues --    0.07814   0.08851   0.09236   0.10341   0.11030
 Alpha virt. eigenvalues --    0.12405   0.12673   0.12723   0.13660   0.13727

 Mulliken charges:
               1
     1  C   -0.069804
     2  C    1.218969
     3  C    0.176837
     4  C    0.340713
     5  C    0.499057
     6  C    0.566586
     7  H   -0.420093
     8  H   -0.554194
     9  O   -0.591695
    10  H    0.143477
    11  H   -0.501609
    12  C    0.736317
    13  F   -0.340619
    14  F   -0.325252
    15  F   -0.338825
    16  H   -0.539865
 Sum of Mulliken charges =   0.00000

 Dipole moment (field-independent basis, Debye):
    X=              4.2076    Y=              1.9270    Z=             -0.0621  Tot=              4.6283

 Test job not archived.
 1\1\GINC-SE362\SP\RHF\Aug-CC-pVDZ\C7H5F3O1\OHZDE\08-Apr-2025\0\\#t hf
 aug-cc-pvdz iop(5/13=1,5/36=2,99/5=2) pseudo=read geom=check guess=(re
 ad,tcheck) scf=(maxcycle=1)\\title\\0,1\C,0,0.104289,1.519485,-0.02062
 1\C,0,-0.275515,0.175747,-0.033996\C,0,0.674525,-0.83888,-0.024649\C,0
 ,1.457489,1.83611,0.002107\C,0,2.421987,0.831548,0.01238\C,0,2.030716,
 -0.508578,-0.001692\H,0,1.76895,2.873978,0.008928\H,0,3.477134,1.08799
 8,0.028127\O,0,2.92062,-1.540677,0.002624\H,0,3.818003,-1.191962,0.015
 782\H,0,0.384699,-1.880844,-0.042672\C,0,-1.738121,-0.177649,-0.002501

 Normal termination of Gaussian 16 at Tue Apr  8 23:09:52 2025.
