 Gaussian 16, Revision C.01,

 ----------------------------------------------------------------------
 #t hf aug-cc-pvdz symm=none int=(grid=ultrafine) guess=(read,tcheck) s
 table=(opt,rrhf)
 ----------------------------------------------------------------------
 -----
 title
 -----
 Symbolic Z-matrix:
 Charge =  0 Multiplicity = 1

 SCF Done:  E(RHF) =  -799.824183118     A.U. after   16 cycles
 Normal termination of Gaussian 16 at Tue Apr  8 23:33:33 2025.
 Gaussian 16:  ES64L-G16RevC.01  3-Jul-2019

 ----------------------------------------------------------------------
 #t hf aug-cc-pvdz iop(5/13=1,5/36=2,99/5=2) pseudo=read geom=check gue
 ss=(read,tcheck) scf=(maxcycle=1)
 ----------------------------------------------------------------------
 -----
 title
 -----
 Structure from the checkpoint file:  "BDE49_nonexpt_1436_mol1.chk"
 Charge =  0 Multiplicity = 1

                         Standard orientation:
 ---------------------------------------------------------------------
 Center     Atomic      Atomic             Coordinates (Angstroms)
 Number     Number       Type             X           Y           Z
 ---------------------------------------------------------------------
      1          6           0       -0.450078   -1.666431    0.000185
      2          6           0        0.945751   -1.610740    0.000194
      3          6           0        1.605739   -0.385707   -0.000021
      4          6           0       -1.210598   -0.500187   -0.000006
      5          6           0       -0.552155    0.753256   -0.000222
      6          6           0        0.838310    0.792918   -0.000258
      7          1           0        1.508014   -2.537022    0.000375
      8         15           0        3.442051   -0.196464   -0.000116
      9          1           0       -0.939183   -2.631354    0.000364
     10          8           0       -2.567759   -0.451819   -0.000011
     11          6           0       -3.284640   -1.677320    0.000003
     12          1           0       -3.065436   -2.272077   -0.893992
     13          1           0       -4.338019   -1.402554   -0.000117
     14          1           0       -3.065616   -2.271955    0.894124
     15          1           0        1.347206    1.747799   -0.000500
     16          8           0       -1.365003    1.843448   -0.000508
     17          6           0       -0.763723    3.129593    0.000479
     18          1           0       -1.588440    3.840268    0.000965
     19          1           0       -0.149464    3.288105   -0.893177
     20          1           0       -0.149533    3.286741    0.894417
     21          1           0        3.750103   -1.124008   -1.030225
     22          1           0        3.750061   -1.122305    1.031541
 ---------------------------------------------------------------------

 SCF Done:  E(RHF) =  -799.987538410     A.U. after    2 cycles

 The electronic state is 1-A.
 Alpha  occ. eigenvalues --  -81.25513 -20.59986 -20.59686 -11.31355 -11.30956
 Alpha  occ. eigenvalues --  -11.29782 -11.29522 -11.24902 -11.24784 -11.24734
 Alpha  occ. eigenvalues --  -11.24639  -7.75851  -4.89912  -4.89763  -4.89591
 Alpha  occ. eigenvalues --   -1.38115  -1.35758  -1.13968  -1.02993  -1.01607
 Alpha  occ. eigenvalues --   -0.95244  -0.94089  -0.83473  -0.82428  -0.77303
 Alpha  occ. eigenvalues --   -0.72998  -0.69979  -0.68959  -0.67534  -0.65534
 Alpha  occ. eigenvalues --   -0.62886  -0.62185  -0.60188  -0.58070  -0.54643
 Alpha  occ. eigenvalues --   -0.54038  -0.52406  -0.52124  -0.49914  -0.49812
 Alpha  occ. eigenvalues --   -0.47436  -0.46274  -0.35530  -0.34174  -0.30628
 Alpha virt. eigenvalues --    0.03203   0.03968   0.04144   0.05286   0.05600
 Alpha virt. eigenvalues --    0.05905   0.06251   0.07157   0.07326   0.08080
 Alpha virt. eigenvalues --    0.08561   0.09667   0.09809   0.10004   0.10954

 Mulliken charges:
               1
     1  C    0.857224
     2  C    0.642093
     3  C   -0.653979
     4  C    0.500747
     5  C    0.668803
     6  C    0.752292
     7  H   -0.522383
     8  P   -0.248027
     9  H   -0.754006
    10  O   -0.774047
    11  C    0.907735
    12  H   -0.086143
    13  H   -0.306707
    14  H   -0.086164
    15  H   -0.783521
    16  O   -0.787919
    17  C    0.896019
    18  H   -0.319511
    19  H   -0.075890
    20  H   -0.075702
    21  H    0.124479
    22  H    0.124606
 Sum of Mulliken charges =  -0.00000

 Dipole moment (field-independent basis, Debye):
    X=             -0.6379    Y=             -1.0346    Z=              0.0018  Tot=              1.2155

 Test job not archived.
 1\1\GINC-SE365\SP\RHF\Aug-CC-pVDZ\C8H11O2P1\OHZDE\08-Apr-2025\0\\#t hf
  aug-cc-pvdz iop(5/13=1,5/36=2,99/5=2) pseudo=read geom=check guess=(r
 ead,tcheck) scf=(maxcycle=1)\\title\\0,1\C,0,-0.450078,-1.666431,0.000
 185\C,0,0.945751,-1.61074,0.000194\C,0,1.605739,-0.385707,-0.000021\C,
 0,-1.210598,-0.500187,-0.000006\C,0,-0.552155,0.753256,-0.000222\C,0,0
 .83831,0.792918,-0.000258\H,0,1.508014,-2.537022,0.000375\P,0,3.442051
 ,-0.196464,-0.000116\H,0,-0.939183,-2.631354,0.000364\O,0,-2.567759,-0
 .451819,-0.000011\C,0,-3.28464,-1.67732,0.000003\H,0,-3.065436,-2.2720

 Normal termination of Gaussian 16 at Tue Apr  8 23:33:46 2025.
