 Gaussian 16, Revision C.01,

 ----------------------------------------------------------------------
 #t hf aug-cc-pvdz symm=none int=(grid=ultrafine) guess=(read,tcheck) s
 table=(opt,rrhf)
 ----------------------------------------------------------------------
 -----
 title
 -----
 Symbolic Z-matrix:
 Charge =  0 Multiplicity = 1

 SCF Done:  E(RHF) =  -670.137938165     A.U. after   13 cycles
 Normal termination of Gaussian 16 at Tue Apr  8 23:37:07 2025.
 Gaussian 16:  ES64L-G16RevC.01  3-Jul-2019

 ----------------------------------------------------------------------
 #t hf aug-cc-pvdz iop(5/13=1,5/36=2,99/5=2) pseudo=read geom=check gue
 ss=(read,tcheck) scf=(maxcycle=1)
 ----------------------------------------------------------------------
 -----
 title
 -----
 Structure from the checkpoint file:  "BDE49_nonexpt_1569_mol1.chk"
 Charge =  0 Multiplicity = 1

                         Standard orientation:
 ---------------------------------------------------------------------
 Center     Atomic      Atomic             Coordinates (Angstroms)
 Number     Number       Type             X           Y           Z
 ---------------------------------------------------------------------
      1         15           0       -0.637455   -0.024212    0.554092
      2          7           0        1.040868   -0.043751    0.645450
      3          9           0       -0.979432   -1.102248   -0.599752
      4          9           0       -0.765291    1.263950   -0.406847
      5          8           0        1.802722   -0.113353   -0.554852
      6          1           0        2.117694    0.791624   -0.668355
      7          1           0        1.438791   -0.670696    1.337024
 ---------------------------------------------------------------------

 SCF Done:  E(RHF) =  -670.293425283     A.U. after    2 cycles

 The electronic state is 1-A.
 Alpha  occ. eigenvalues --  -81.41860 -26.13893 -26.13319 -20.64200 -15.70515
 Alpha  occ. eigenvalues --   -7.90322  -5.04357  -5.04318  -5.03800  -1.67287
 Alpha  occ. eigenvalues --   -1.65436  -1.39103  -1.10803  -0.88997  -0.79658
 Alpha  occ. eigenvalues --   -0.78203  -0.77177  -0.74259  -0.72798  -0.70585
 Alpha  occ. eigenvalues --   -0.69653  -0.66651  -0.54730  -0.45587  -0.42619
 Alpha virt. eigenvalues --    0.03368   0.04347   0.07226   0.07604   0.09592
 Alpha virt. eigenvalues --    0.13031   0.13653   0.15680   0.16826   0.17784
 Alpha virt. eigenvalues --    0.19403   0.19884   0.21260   0.25151   0.25643

 Mulliken charges:
               1
     1  P    1.563213
     2  N   -0.212229
     3  F   -0.585266
     4  F   -0.580126
     5  O   -0.479516
     6  H    0.201043
     7  H    0.092882
 Sum of Mulliken charges =  -0.00000

 Dipole moment (field-independent basis, Debye):
    X=              1.7303    Y=              0.4222    Z=              2.4324  Tot=              3.0148

 Test job not archived.
 1\1\GINC-SE195\SP\RHF\Aug-CC-pVDZ\F2H2N1O1P1\OHZDE\08-Apr-2025\0\\#t h
 f aug-cc-pvdz iop(5/13=1,5/36=2,99/5=2) pseudo=read geom=check guess=(
 read,tcheck) scf=(maxcycle=1)\\title\\0,1\P,0,-0.637455,-0.024212,0.55
 4092\N,0,1.040868,-0.043751,0.64545\F,0,-0.979432,-1.102248,-0.599752\
 F,0,-0.765291,1.26395,-0.406847\O,0,1.802722,-0.113353,-0.554852\H,0,2
 .117694,0.791623,-0.668355\H,0,1.438791,-0.670696,1.337024\\Version=ES
 64L-G16RevC.01\State=1-A\HF=-670.2934253\RMSD=4.722e-03\Dipole=0.68076
 81,0.166125,0.9569802\Quadrupole=1.1489883,-1.0137231,-0.1352652,1.378

 Normal termination of Gaussian 16 at Tue Apr  8 23:37:09 2025.
