 Gaussian 16, Revision C.01,

 ----------------------------------------------------------------------
 #t hf aug-cc-pvdz symm=none int=(grid=ultrafine) guess=(read,tcheck) s
 table=opt
 ----------------------------------------------------------------------
 -----
 title
 -----
 Symbolic Z-matrix:
 Charge =  0 Multiplicity = 2

 SCF Done:  E(UHF) =  -498.026933032     A.U. after   17 cycles

 1\1\GINC-SE102\Stability\UHF\Aug-CC-pVDZ\C4H10P1\OHZDE\08-Apr-2025\0\\
 #t hf aug-cc-pvdz symm=none int=(grid=ultrafine) guess=(read,tcheck) s
 table=opt\\title\\0,2\C,0,-0.317757,-0.002156,0.\C,0,-0.785656,-0.7532
 43,1.261529\H,0,-0.452958,-0.253756,2.175584\H,0,-0.409414,-1.779371,1
 .280683\H,0,-1.881367,-0.796616,1.285634\C,0,-0.785659,-0.753254,-1.26
 1521\H,0,-0.409417,-1.779382,-1.280668\H,0,-0.452962,-0.253775,-2.1755
 81\H,0,-1.881369,-0.796627,-1.285624\C,0,-0.893428,1.426926,-0.000005\
 H,0,-1.988334,1.39346,-0.000004\H,0,-0.576242,1.987481,-0.883973\H,0,-

 Normal termination of Gaussian 16 at Tue Apr  8 23:34:34 2025.
 Gaussian 16:  ES64L-G16RevC.01  3-Jul-2019

 ----------------------------------------------------------------------
 #t hf aug-cc-pvdz iop(5/13=1,5/36=2,99/5=2) pseudo=read geom=check gue
 ss=(read,tcheck) scf=(maxcycle=1)
 ----------------------------------------------------------------------
 -----
 title
 -----
 Structure from the checkpoint file:  "BDE49_nonexpt_1490_mol2.chk"
 Charge =  0 Multiplicity = 2

                         Standard orientation:
 ---------------------------------------------------------------------
 Center     Atomic      Atomic             Coordinates (Angstroms)
 Number     Number       Type             X           Y           Z
 ---------------------------------------------------------------------
      1          6           0       -0.317757   -0.002156    0.000000
      2          6           0       -0.785656   -0.753243    1.261529
      3          1           0       -0.452958   -0.253756    2.175584
      4          1           0       -0.409414   -1.779371    1.280683
      5          1           0       -1.881367   -0.796616    1.285634
      6          6           0       -0.785659   -0.753254   -1.261521
      7          1           0       -0.409417   -1.779382   -1.280668
      8          1           0       -0.452962   -0.253775   -2.175581
      9          1           0       -1.881369   -0.796627   -1.285624
     10          6           0       -0.893428    1.426926   -0.000005
     11          1           0       -1.988334    1.393460   -0.000004
     12          1           0       -0.576242    1.987481   -0.883973
     13          1           0       -0.576240    1.987488    0.883957
     14         15           0        1.567695    0.136695   -0.000002
     15          1           0        1.807883   -1.268964    0.000004
 ---------------------------------------------------------------------

 SCF Done:  E(UHF) =  -498.094299978     A.U. after    2 cycles

 The electronic state is 2-A.
 Alpha  occ. eigenvalues --  -81.25372 -11.25773 -11.23290 -11.23283 -11.23111
 Alpha  occ. eigenvalues --   -7.75808  -4.90621  -4.89475  -4.89187  -1.08486
 Alpha  occ. eigenvalues --   -0.93625  -0.93501  -0.81415  -0.71253  -0.61376
 Alpha  occ. eigenvalues --   -0.60744  -0.60166  -0.55156  -0.55009  -0.52383
 Alpha  occ. eigenvalues --   -0.48133  -0.48055  -0.44754  -0.37355  -0.33787
 Alpha virt. eigenvalues --    0.03392   0.04825   0.04940   0.05399   0.06894
 Alpha virt. eigenvalues --    0.06964   0.06999   0.07534   0.07695   0.09276
 Alpha virt. eigenvalues --    0.10481   0.11718   0.12299   0.13165   0.14809

  Beta  occ. eigenvalues --  -81.24676 -11.25921 -11.23216 -11.23209 -11.23102
  Beta  occ. eigenvalues --   -7.74974  -4.88970  -4.88819  -4.87456  -1.08268
  Beta  occ. eigenvalues --   -0.93438  -0.93349  -0.78681  -0.68678  -0.61190
  Beta  occ. eigenvalues --   -0.60388  -0.59183  -0.54831  -0.54676  -0.52333
  Beta  occ. eigenvalues --   -0.47960  -0.47691  -0.43818  -0.35466
  Beta virt. eigenvalues --    0.03440   0.03809   0.04834   0.05450   0.06093
  Beta virt. eigenvalues --    0.06938   0.07011   0.07035   0.07731   0.08146
  Beta virt. eigenvalues --    0.09280   0.10615   0.11795   0.13265   0.13312

 Mulliken charges and spin densities:
               1          2
     1  C   -2.648130  -0.138589
     2  C    0.987818   0.007440
     3  H   -0.070862  -0.012838
     4  H   -0.089934  -0.005595
     5  H   -0.007150   0.006906
     6  C    0.987821   0.007440
     7  H   -0.089934  -0.005595
     8  H   -0.070861  -0.012838
     9  H   -0.007153   0.006905
    10  C    0.907349   0.023901
    11  H   -0.009383  -0.001599
    12  H   -0.070255  -0.006060
    13  H   -0.070257  -0.006060
    14  P    0.210455   1.322955
    15  H    0.040478  -0.186371
 Sum of Mulliken charges =  -0.00000   1.00000

 Dipole moment (field-independent basis, Debye):
    X=             -1.2757    Y=             -0.5216    Z=              0.0000  Tot=              1.3782
                          Isotropic Fermi Contact Couplings
        Atom                 a.u.       MegaHertz       Gauss      10(-4) cm-1
     1  C(13)             -0.02776     -31.20433     -11.13448     -10.40865
     2  C(13)              0.01999      22.46788       8.01710       7.49448
     3  H(1)              -0.00013      -0.57515      -0.20523      -0.19185
     4  H(1)              -0.00025      -1.09935      -0.39227      -0.36670
     5  H(1)               0.00211       9.42866       3.36438       3.14506
     6  C(13)              0.01999      22.46784       8.01708       7.49447
     7  H(1)              -0.00025      -1.09935      -0.39227      -0.36670
     8  H(1)              -0.00013      -0.57516      -0.20523      -0.19185

 Normal termination of Gaussian 16 at Tue Apr  8 23:34:39 2025.
