 Gaussian 16, Revision C.01,

 ----------------------------------------------------------------------
 #t hf aug-cc-pvdz symm=none int=(grid=ultrafine) guess=(read,tcheck) s
 table=(opt,rrhf)
 ----------------------------------------------------------------------
 -----
 title
 -----
 Symbolic Z-matrix:
 Charge =  0 Multiplicity = 1

 SCF Done:  E(RHF) =  -1287.84865991     A.U. after   16 cycles
 Normal termination of Gaussian 16 at Wed Apr  9 00:13:07 2025.
 Gaussian 16:  ES64L-G16RevC.01  3-Jul-2019

 ----------------------------------------------------------------------
 #t hf aug-cc-pvdz iop(5/13=1,5/36=2,99/5=2) pseudo=read geom=check gue
 ss=(read,tcheck) scf=(maxcycle=1)
 ----------------------------------------------------------------------
 -----
 title
 -----
 Structure from the checkpoint file:  "BDE49_nonexpt_242_mol1.chk"
 Charge =  0 Multiplicity = 1

                         Standard orientation:
 ---------------------------------------------------------------------
 Center     Atomic      Atomic             Coordinates (Angstroms)
 Number     Number       Type             X           Y           Z
 ---------------------------------------------------------------------
      1         17           0       -3.053354   -1.365233   -0.000082
      2         17           0       -2.808040    1.638382   -0.000056
      3          5           0       -1.991917    0.059322    0.000099
      4          6           0       -0.465517   -0.066422    0.000071
      5          6           0        0.175416   -1.327938    0.000047
      6          6           0        1.550138   -1.443495    0.000025
      7          6           0        2.352916   -0.291298    0.000024
      8          6           0        0.365292    1.069986    0.000068
      9          1           0       -0.084649    2.055535    0.000085
     10          6           0        1.750240    0.973579    0.000046
     11          1           0        2.347235    1.875260    0.000045
     12          1           0       -0.426071   -2.228870    0.000048
     13          8           0        3.687959   -0.506577    0.000001
     14          6           0        4.569453    0.613495   -0.000003
     15          1           0        4.431109    1.228549   -0.894838
     16          1           0        5.574257    0.195962   -0.000024
     17          1           0        4.431139    1.228532    0.894848
     18          1           0        2.038972   -2.409941    0.000007
 ---------------------------------------------------------------------

 SCF Done:  E(RHF) =  -1287.99374903     A.U. after    2 cycles

 The electronic state is 1-A.
 Alpha  occ. eigenvalues -- -103.65911-103.65890 -20.62090 -11.33992 -11.31237
 Alpha  occ. eigenvalues --  -11.27364 -11.26973 -11.25389 -11.24866 -11.23630
 Alpha  occ. eigenvalues --  -10.69394 -10.69356  -8.35078  -8.35057  -8.34861
 Alpha  occ. eigenvalues --   -8.34840  -8.34840  -8.34819  -7.71928  -1.39209
 Alpha  occ. eigenvalues --   -1.17484  -1.15074  -1.13399  -1.03735  -1.02749
 Alpha  occ. eigenvalues --   -0.95965  -0.85288  -0.83218  -0.74908  -0.71232
 Alpha  occ. eigenvalues --   -0.69313  -0.68321  -0.64331  -0.63560  -0.61015
 Alpha  occ. eigenvalues --   -0.60770  -0.56255  -0.55091  -0.54672  -0.53718
 Alpha  occ. eigenvalues --   -0.52383  -0.50112  -0.48570  -0.47188  -0.47038
 Alpha  occ. eigenvalues --   -0.45690  -0.36123  -0.33741
 Alpha virt. eigenvalues --    0.02753   0.03994   0.04149   0.04995   0.05247
 Alpha virt. eigenvalues --    0.05765   0.05976   0.06418   0.07315   0.07832
 Alpha virt. eigenvalues --    0.08148   0.09672   0.09799   0.10464   0.12439

 Mulliken charges:
               1
     1  Cl  -0.356309
     2  Cl  -0.368608
     3  B    0.503174
     4  C   -0.001088
     5  C    0.757043
     6  C    0.771009
     7  C    0.671481
     8  C    0.201958
     9  H   -0.667125
    10  C    0.717994
    11  H   -0.715106
    12  H   -0.679932
    13  O   -0.686423
    14  C    0.893371
    15  H   -0.090085
    16  H   -0.300539
    17  H   -0.090086
    18  H   -0.560730
 Sum of Mulliken charges =   0.00000

 Dipole moment (field-independent basis, Debye):
    X=              4.1038    Y=              1.1590    Z=              0.0003  Tot=              4.2644

 Test job not archived.
 1\1\GINC-SE332\SP\RHF\Aug-CC-pVDZ\C7H7B1Cl2O1\OHZDE\09-Apr-2025\0\\#t
 hf aug-cc-pvdz iop(5/13=1,5/36=2,99/5=2) pseudo=read geom=check guess=
 (read,tcheck) scf=(maxcycle=1)\\title\\0,1\Cl,0,3.053354,-1.365233,0.0
 00082\Cl,0,2.80804,1.638382,0.000056\B,0,1.991917,0.059322,-0.000099\C
 ,0,0.465517,-0.066422,-0.000071\C,0,-0.175416,-1.327938,-0.000047\C,0,
 -1.550138,-1.443495,-0.000025\C,0,-2.352916,-0.291298,-0.000024\C,0,-0
 .365292,1.069986,-0.000068\H,0,0.084649,2.055535,-0.000085\C,0,-1.7502
 4,0.973579,-0.000046\H,0,-2.347235,1.87526,-0.000045\H,0,0.426071,-2.2

 Normal termination of Gaussian 16 at Wed Apr  9 00:13:17 2025.
