 Gaussian 16, Revision C.01,

 ----------------------------------------------------------------------
 #t hf aug-cc-pvdz symm=none int=(grid=ultrafine) guess=(read,tcheck) s
 table=(opt,rrhf)
 ----------------------------------------------------------------------
 -----
 title
 -----
 Symbolic Z-matrix:
 Charge =  0 Multiplicity = 1

 SCF Done:  E(RHF) =  -650.918082951     A.U. after   13 cycles
 Normal termination of Gaussian 16 at Tue Apr  8 22:31:22 2025.
 Gaussian 16:  ES64L-G16RevC.01  3-Jul-2019

 ----------------------------------------------------------------------
 #t hf aug-cc-pvdz iop(5/13=1,5/36=2,99/5=2) pseudo=read geom=check gue
 ss=(read,tcheck) scf=(maxcycle=1)
 ----------------------------------------------------------------------
 -----
 title
 -----
 Structure from the checkpoint file:  "BDE49_expt_1079_mol1.chk"
 Charge =  0 Multiplicity = 1

                         Standard orientation:
 ---------------------------------------------------------------------
 Center     Atomic      Atomic             Coordinates (Angstroms)
 Number     Number       Type             X           Y           Z
 ---------------------------------------------------------------------
      1          6           0        0.958591   -0.748212    0.000030
      2          6           0       -0.066560    0.355950    0.000053
      3          8           0        0.104622    1.522097   -0.000003
      4         17           0       -1.783912   -0.320351   -0.000035
      5          6           0        2.393399   -0.223297    0.000008
      6          1           0        0.751714   -1.377861   -0.870958
      7          1           0        0.751742   -1.377868    0.871019
      8          1           0        2.589302    0.389181   -0.881731
      9          1           0        3.094851   -1.060076   -0.000008
     10          1           0        2.589331    0.389173    0.881746
 ---------------------------------------------------------------------

 SCF Done:  E(RHF) =  -650.997636283     A.U. after    2 cycles

 The electronic state is 1-A.
 Alpha  occ. eigenvalues -- -103.66535 -20.61668 -11.42542 -11.28438 -11.25254
 Alpha  occ. eigenvalues --  -10.69850  -8.35547  -8.35267  -8.35258  -1.42448
 Alpha  occ. eigenvalues --   -1.15769  -1.07368  -0.91786  -0.77716  -0.70184
 Alpha  occ. eigenvalues --   -0.67204  -0.67075  -0.59076  -0.57449  -0.54755
 Alpha  occ. eigenvalues --   -0.52553  -0.47554  -0.47319  -0.46265
 Alpha virt. eigenvalues --    0.02989   0.04778   0.04849   0.05626   0.07479
 Alpha virt. eigenvalues --    0.09086   0.10544   0.11009   0.11761   0.12360
 Alpha virt. eigenvalues --    0.13302   0.15222   0.15559   0.16436   0.16543

 Mulliken charges:
               1
     1  C    0.114355
     2  C   -0.006099
     3  O   -0.346924
     4  Cl  -0.195789
     5  C    0.471704
     6  H    0.043246
     7  H    0.043255
     8  H   -0.045070
     9  H   -0.033611
    10  H   -0.045069
 Sum of Mulliken charges =  -0.00000

 Dipole moment (field-independent basis, Debye):
    X=              2.4221    Y=             -2.4800    Z=              0.0001  Tot=              3.4666

 Test job not archived.
 1\1\GINC-SE343\SP\RHF\Aug-CC-pVDZ\C3H5Cl1O1\OHZDE\08-Apr-2025\0\\#t hf
  aug-cc-pvdz iop(5/13=1,5/36=2,99/5=2) pseudo=read geom=check guess=(r
 ead,tcheck) scf=(maxcycle=1)\\title\\0,1\C,0,-0.958591,-0.748212,-0.00
 003\C,0,0.06656,0.35595,-0.000053\O,0,-0.104622,1.522097,0.000003\Cl,0
 ,1.783912,-0.320351,0.000035\C,0,-2.393399,-0.223297,-0.000008\H,0,-0.
 751714,-1.377861,0.870958\H,0,-0.751742,-1.377868,-0.871019\H,0,-2.589
 302,0.389181,0.881731\H,0,-3.094851,-1.060076,0.000008\H,0,-2.589331,0
 .389173,-0.881746\\Version=ES64L-G16RevC.01\State=1-A\HF=-650.9976363\

 Normal termination of Gaussian 16 at Tue Apr  8 22:31:25 2025.
