 Gaussian 16, Revision C.01,

 ----------------------------------------------------------------------
 #t hf aug-cc-pvdz symm=none int=(grid=ultrafine) guess=(read,tcheck) s
 table=opt
 ----------------------------------------------------------------------
 -----
 title
 -----
 Symbolic Z-matrix:
 Charge =  0 Multiplicity = 2

 SCF Done:  E(UHF) =  -380.914935495     A.U. after   15 cycles
 Normal termination of Gaussian 16 at Tue Apr  8 23:10:43 2025.
 Gaussian 16:  ES64L-G16RevC.01  3-Jul-2019

 ----------------------------------------------------------------------
 #t hf aug-cc-pvdz iop(5/13=1,5/36=2,99/5=2) pseudo=read geom=check gue
 ss=(read,tcheck) scf=(maxcycle=1)
 ----------------------------------------------------------------------
 -----
 title
 -----
 Structure from the checkpoint file:  "BDE49_expt_817_mol2.chk"
 Charge =  0 Multiplicity = 2

                         Standard orientation:
 ---------------------------------------------------------------------
 Center     Atomic      Atomic             Coordinates (Angstroms)
 Number     Number       Type             X           Y           Z
 ---------------------------------------------------------------------
      1         15           0       -0.705109   -0.098768   -0.000001
      2          6           0        1.150432    0.012650    0.000001
      3          1           0       -0.930282    1.308734    0.000003
      4          1           0        1.575866   -0.992435   -0.000002
      5          1           0        1.514233    0.544659    0.884252
      6          1           0        1.514234    0.544663   -0.884247
 ---------------------------------------------------------------------

 SCF Done:  E(UHF) =  -380.947819580     A.U. after    2 cycles

 The electronic state is 2-A.
 Alpha  occ. eigenvalues --  -81.26089 -11.24299  -7.76519  -4.91220  -4.90109
 Alpha  occ. eigenvalues --   -4.89814  -0.96769  -0.74919  -0.58368  -0.58169
 Alpha  occ. eigenvalues --   -0.48464  -0.39115  -0.33994
 Alpha virt. eigenvalues --    0.03496   0.05288   0.05948   0.06338   0.09519
 Alpha virt. eigenvalues --    0.11367   0.12071   0.13337   0.15679   0.16271
 Alpha virt. eigenvalues --    0.17079   0.20230   0.21697   0.24356   0.25223

  Beta  occ. eigenvalues --  -81.25396 -11.24440  -7.75688  -4.89613  -4.89457
  Beta  occ. eigenvalues --   -4.88050  -0.96014  -0.69126  -0.57973  -0.56629
  Beta  occ. eigenvalues --   -0.48069  -0.36654
  Beta virt. eigenvalues --    0.03573   0.04120   0.05349   0.06449   0.06584
  Beta virt. eigenvalues --    0.09610   0.11449   0.13696   0.14371   0.16545
  Beta virt. eigenvalues --    0.17081   0.17232   0.20863   0.23173   0.25859

 Mulliken charges and spin densities:
               1          2
     1  P    0.342924   1.254529
     2  C    0.122641  -0.108582
     3  H   -0.020124  -0.162560
     4  H   -0.168577  -0.000677
     5  H   -0.138432   0.008645
     6  H   -0.138432   0.008645
 Sum of Mulliken charges =  -0.00000   1.00000

 Dipole moment (field-independent basis, Debye):
    X=              1.1405    Y=              0.5316    Z=              0.0000  Tot=              1.2583
                          Isotropic Fermi Contact Couplings
        Atom                 a.u.       MegaHertz       Gauss      10(-4) cm-1
     1  P(31)              0.23130     418.91511     149.47933     139.73504
     2  C(13)             -0.02892     -32.51712     -11.60292     -10.84654
     3  H(1)              -0.01479     -66.12434     -23.59481     -22.05670
     4  H(1)               0.00026       1.17884       0.42064       0.39322
     5  H(1)               0.01144      51.13944      18.24782      17.05828
     6  H(1)               0.01144      51.13952      18.24785      17.05831
 --------------------------------------------------------
       Center         ----  Spin Dipole Couplings  ----

 Normal termination of Gaussian 16 at Tue Apr  8 23:10:45 2025.
