 Gaussian 16, Revision C.01,

 ----------------------------------------------------------------------
 #t hf aug-cc-pvdz symm=none int=(grid=ultrafine) guess=(read,tcheck) s
 table=(opt,rrhf)
 ----------------------------------------------------------------------
 -----
 title
 -----
 Symbolic Z-matrix:
 Charge =  0 Multiplicity = 1

 SCF Done:  E(RHF) =  -1024.15461182     A.U. after   14 cycles
 Normal termination of Gaussian 16 at Wed Apr  9 00:16:56 2025.
 Gaussian 16:  ES64L-G16RevC.01  3-Jul-2019

 ----------------------------------------------------------------------
 #t hf aug-cc-pvdz iop(5/13=1,5/36=2,99/5=2) pseudo=read geom=check gue
 ss=(read,tcheck) scf=(maxcycle=1)
 ----------------------------------------------------------------------
 -----
 title
 -----
 Structure from the checkpoint file:  "BDE49_nonexpt_2582_mol1.chk"
 Charge =  0 Multiplicity = 1

                         Standard orientation:
 ---------------------------------------------------------------------
 Center     Atomic      Atomic             Coordinates (Angstroms)
 Number     Number       Type             X           Y           Z
 ---------------------------------------------------------------------
      1         17           0        1.673838   -0.731835    0.062931
      2         16           0        0.514399    0.920607   -0.279703
      3          6           0       -1.809910   -0.174102    0.095332
      4          7           0       -2.649816   -0.839458   -0.338569
      5          8           0       -0.909682    0.579037    0.650425
 ---------------------------------------------------------------------

 SCF Done:  E(RHF) =  -1024.25109166     A.U. after    2 cycles

 The electronic state is 1-A.
 Alpha  occ. eigenvalues -- -103.72917 -93.70674 -20.72201 -15.65633 -11.36918
 Alpha  occ. eigenvalues --  -10.76092  -8.99293  -8.41822  -8.41459  -8.41408
 Alpha  occ. eigenvalues --   -6.33342  -6.33050  -6.32515  -1.46863  -1.22188
 Alpha  occ. eigenvalues --   -1.20333  -0.99701  -0.81722  -0.72410  -0.71099
 Alpha  occ. eigenvalues --   -0.57396  -0.56890  -0.56491  -0.53367  -0.47280
 Alpha  occ. eigenvalues --   -0.46583  -0.42837
 Alpha virt. eigenvalues --    0.01355   0.02649   0.06136   0.08824   0.08956
 Alpha virt. eigenvalues --    0.09605   0.11652   0.12112   0.12828   0.13274
 Alpha virt. eigenvalues --    0.14865   0.17353   0.18488   0.19691   0.20319

 Mulliken charges:
               1
     1  Cl  -0.234255
     2  S    0.801225
     3  C    0.029373
     4  N   -0.071300
     5  O   -0.525043
 Sum of Mulliken charges =   0.00000

 Dipole moment (field-independent basis, Debye):
    X=              3.1437    Y=              2.0837    Z=             -0.0102  Tot=              3.7715

 Test job not archived.
 1\1\GINC-SE058\SP\RHF\Aug-CC-pVDZ\C1Cl1N1O1S1\OHZDE\09-Apr-2025\0\\#t
 hf aug-cc-pvdz iop(5/13=1,5/36=2,99/5=2) pseudo=read geom=check guess=
 (read,tcheck) scf=(maxcycle=1)\\title\\0,1\Cl,0,1.673838,-0.731835,0.0
 62931\S,0,0.514399,0.920607,-0.279703\C,0,-1.80991,-0.174102,0.095332\
 N,0,-2.649816,-0.839458,-0.338569\O,0,-0.909682,0.579037,0.650425\\Ver
 sion=ES64L-G16RevC.01\State=1-A\HF=-1024.2510917\RMSD=3.191e-03\Dipole
 =1.2368288,0.8197712,-0.0040311\Quadrupole=-3.8213203,2.603209,1.21811
 13,-3.1878998,-1.9817999,-1.8296029\PG=C01 [X(C1Cl1N1O1S1)]\\@

 Normal termination of Gaussian 16 at Wed Apr  9 00:16:58 2025.
