 Gaussian 16, Revision C.01,

 ----------------------------------------------------------------------
 #t hf aug-cc-pvdz symm=none int=(grid=ultrafine) guess=(read,tcheck) s
 table=(opt,rrhf)
 ----------------------------------------------------------------------
 -----
 title
 -----
 Symbolic Z-matrix:
 Charge =  0 Multiplicity = 1

 SCF Done:  E(RHF) =  -662.758471095     A.U. after   14 cycles
 Normal termination of Gaussian 16 at Tue Apr  8 23:18:49 2025.
 Gaussian 16:  ES64L-G16RevC.01  3-Jul-2019

 ----------------------------------------------------------------------
 #t hf aug-cc-pvdz iop(5/13=1,5/36=2,99/5=2) pseudo=read geom=check gue
 ss=(read,tcheck) scf=(maxcycle=1)
 ----------------------------------------------------------------------
 -----
 title
 -----
 Structure from the checkpoint file:  "BDE49_nonexpt_1111_mol1.chk"
 Charge =  0 Multiplicity = 1

                         Standard orientation:
 ---------------------------------------------------------------------
 Center     Atomic      Atomic             Coordinates (Angstroms)
 Number     Number       Type             X           Y           Z
 ---------------------------------------------------------------------
      1          9           0       -1.786838   -0.000001   -0.565750
      2          8           0       -1.125457   -0.000000    0.718200
      3         14           0        0.515488    0.000000    0.399051
      4          9           0        0.931314   -1.271473   -0.442915
      5          9           0        0.931312    1.271473   -0.442914
      6          1           0        1.104730    0.000000    1.731892
 ---------------------------------------------------------------------

 SCF Done:  E(RHF) =  -662.942684702     A.U. after    2 cycles

 The electronic state is 1-A.
 Alpha  occ. eigenvalues --  -69.22759 -26.19992 -26.15430 -26.15429 -20.71323
 Alpha  occ. eigenvalues --   -6.96560  -4.07578  -4.07558  -4.07376  -1.69959
 Alpha  occ. eigenvalues --   -1.69019  -1.67901  -1.31843  -0.87907  -0.81857
 Alpha  occ. eigenvalues --   -0.81745  -0.79480  -0.78984  -0.76664  -0.75747
 Alpha  occ. eigenvalues --   -0.75213  -0.74003  -0.64403  -0.60195  -0.58469
 Alpha virt. eigenvalues --    0.04239   0.05018   0.05490   0.06173   0.07539
 Alpha virt. eigenvalues --    0.10300   0.16934   0.17965   0.19545   0.19742
 Alpha virt. eigenvalues --    0.21011   0.22751   0.23147   0.24569   0.27074

 Mulliken charges:
               1
     1  F   -0.302086
     2  O   -0.353600
     3  Si   2.237065
     4  F   -0.782641
     5  F   -0.782642
     6  H   -0.016096
 Sum of Mulliken charges =   0.00000

 Dipole moment (field-independent basis, Debye):
    X=              1.4377    Y=              0.0000    Z=              2.0949  Tot=              2.5408

 Test job not archived.
 1\1\GINC-SE096\SP\RHF\Aug-CC-pVDZ\F3H1O1Si1\OHZDE\08-Apr-2025\0\\#t hf
  aug-cc-pvdz iop(5/13=1,5/36=2,99/5=2) pseudo=read geom=check guess=(r
 ead,tcheck) scf=(maxcycle=1)\\title\\0,1\F,0,-1.786838,0.,-0.56575\O,0
 ,-1.125457,0.,0.7182\Si,0,0.515488,0.,0.399051\F,0,0.931314,-1.271473,
 -0.442915\F,0,0.931313,1.271473,-0.442914\H,0,1.10473,0.,1.731892\\Ver
 sion=ES64L-G16RevC.01\State=1-A\HF=-662.9426847\RMSD=5.084e-03\Dipole=
 0.5656187,0.0000006,0.8241927\Quadrupole=-0.7139248,-1.081694,1.795618
 8,0.0000029,1.5320622,-0.0000022\PG=C01 [X(F3H1O1Si1)]\\@

 Normal termination of Gaussian 16 at Tue Apr  8 23:18:51 2025.
