 Gaussian 16, Revision C.01,

 ----------------------------------------------------------------------
 #t hf aug-cc-pvdz symm=none int=(grid=ultrafine) guess=(read,tcheck) s
 table=(opt,rrhf)
 ----------------------------------------------------------------------
 -----
 title
 -----
 Symbolic Z-matrix:
 Charge =  0 Multiplicity = 1

 SCF Done:  E(RHF) =  -588.035570498     A.U. after   15 cycles
 Normal termination of Gaussian 16 at Tue Apr  8 23:24:21 2025.
 Gaussian 16:  ES64L-G16RevC.01  3-Jul-2019

 ----------------------------------------------------------------------
 #t hf aug-cc-pvdz iop(5/13=1,5/36=2,99/5=2) pseudo=read geom=check gue
 ss=(read,tcheck) scf=(maxcycle=1)
 ----------------------------------------------------------------------
 -----
 title
 -----
 Structure from the checkpoint file:  "BDE49_nonexpt_1278_mol1.chk"
 Charge =  0 Multiplicity = 1

                         Standard orientation:
 ---------------------------------------------------------------------
 Center     Atomic      Atomic             Coordinates (Angstroms)
 Number     Number       Type             X           Y           Z
 ---------------------------------------------------------------------
      1          6           0       -1.660241    1.160282    0.003899
      2          6           0       -2.279500   -0.085711    0.004831
      3          6           0       -1.471956   -1.220692    0.000850
      4          7           0       -0.138055   -1.176680   -0.009644
      5          6           0        0.455694    0.025578    0.004582
      6          6           0       -0.270511    1.221837    0.007026
      7          1           0       -3.358650   -0.180242    0.006010
      8          1           0       -1.914345   -2.213098   -0.000244
      9          1           0        0.240522    2.176869    0.020295
     10          1           0       -2.248982    2.071014    0.007414
     11         15           0        2.301438   -0.052767   -0.108321
     12          1           0        2.513843   -0.682853    1.142856
     13          1           0        2.571513    1.248802    0.388849
 ---------------------------------------------------------------------

 SCF Done:  E(RHF) =  -588.127523048     A.U. after    2 cycles

 The electronic state is 1-A.
 Alpha  occ. eigenvalues --  -81.26115 -15.63527 -11.29785 -11.29163 -11.27486
 Alpha  occ. eigenvalues --  -11.25744 -11.25557  -7.76505  -4.90549  -4.90451
 Alpha  occ. eigenvalues --   -4.90136  -1.23640  -1.08202  -1.03568  -0.87281
 Alpha  occ. eigenvalues --   -0.86300  -0.78509  -0.70441  -0.67354  -0.64403
 Alpha  occ. eigenvalues --   -0.59031  -0.57029  -0.55494  -0.51124  -0.49802
 Alpha  occ. eigenvalues --   -0.41682  -0.39630  -0.38006  -0.32928
 Alpha virt. eigenvalues --    0.02938   0.03865   0.04404   0.05876   0.06264
 Alpha virt. eigenvalues --    0.07616   0.08153   0.08862   0.09682   0.10477
 Alpha virt. eigenvalues --    0.10972   0.11795   0.12716   0.13361   0.14381

 Mulliken charges:
               1
     1  C   -0.229284
     2  C    0.878244
     3  C    0.526049
     4  N   -0.378785
     5  C   -0.267937
     6  C    0.905961
     7  H   -0.399273
     8  H   -0.356417
     9  H   -0.490508
    10  H   -0.401057
    11  P    0.010476
    12  H    0.141403
    13  H    0.061129
 Sum of Mulliken charges =  -0.00000

 Dipole moment (field-independent basis, Debye):
    X=             -1.8136    Y=              1.8832    Z=              0.5869  Tot=              2.6796

 Test job not archived.
 1\1\GINC-SE219\SP\RHF\Aug-CC-pVDZ\C5H6N1P1\OHZDE\08-Apr-2025\0\\#t hf
 aug-cc-pvdz iop(5/13=1,5/36=2,99/5=2) pseudo=read geom=check guess=(re
 ad,tcheck) scf=(maxcycle=1)\\title\\0,1\C,0,-1.660241,1.160282,0.00389
 9\C,0,-2.2795,-0.085711,0.004831\C,0,-1.471956,-1.220692,0.00085\N,0,-
 0.138055,-1.17668,-0.009644\C,0,0.455694,0.025578,0.004582\C,0,-0.2705
 11,1.221837,0.007026\H,0,-3.35865,-0.180242,0.00601\H,0,-1.914345,-2.2
 13098,-0.000244\H,0,0.240522,2.176869,0.020295\H,0,-2.248982,2.071014,
 0.007414\P,0,2.301438,-0.052767,-0.108321\H,0,2.513843,-0.682853,1.142

 Normal termination of Gaussian 16 at Tue Apr  8 23:24:26 2025.
