 Gaussian 16, Revision C.01,

 ----------------------------------------------------------------------
 #t hf aug-cc-pvdz symm=none int=(grid=ultrafine) guess=(read,tcheck) s
 table=(opt,rrhf)
 ----------------------------------------------------------------------
 -----
 title
 -----
 Symbolic Z-matrix:
 Charge =  0 Multiplicity = 1

 SCF Done:  E(RHF) =  -1510.37518954     A.U. after   14 cycles
 Normal termination of Gaussian 16 at Tue Apr  8 23:48:23 2025.
 Gaussian 16:  ES64L-G16RevC.01  3-Jul-2019

 ----------------------------------------------------------------------
 #t hf aug-cc-pvdz iop(5/13=1,5/36=2,99/5=2) pseudo=read geom=check gue
 ss=(read,tcheck) scf=(maxcycle=1)
 ----------------------------------------------------------------------
 -----
 title
 -----
 Structure from the checkpoint file:  "BDE49_nonexpt_185_mol1.chk"
 Charge =  0 Multiplicity = 1

                         Standard orientation:
 ---------------------------------------------------------------------
 Center     Atomic      Atomic             Coordinates (Angstroms)
 Number     Number       Type             X           Y           Z
 ---------------------------------------------------------------------
      1         17           0        1.577743    1.565622   -0.039394
      2         17           0        1.728780   -1.467208    0.006427
      3          5           0        0.791362    0.001083   -0.011837
      4         15           0       -1.139111   -0.036161    0.126733
      5          8           0       -1.606213    0.133775    1.512295
      6          8           0       -1.722687    1.071317   -0.893347
      7          1           0       -1.919998    1.902040   -0.442722
      8          8           0       -1.509494   -1.386029   -0.642974
      9          1           0       -2.453877   -1.590583   -0.646461
 ---------------------------------------------------------------------

 SCF Done:  E(RHF) =  -1510.55395026     A.U. after    2 cycles

 The electronic state is 1-A.
 Alpha  occ. eigenvalues -- -103.69532-103.69401 -81.42496 -20.62993 -20.62714
 Alpha  occ. eigenvalues --  -20.53822 -10.73009 -10.72877  -8.38699  -8.38573
 Alpha  occ. eigenvalues --   -8.38471  -8.38436  -8.38343  -8.38300  -7.90981
 Alpha  occ. eigenvalues --   -7.76524  -5.05628  -5.05521  -5.05135  -1.39260
 Alpha  occ. eigenvalues --   -1.35848  -1.26977  -1.20736  -1.17138  -0.87427
 Alpha  occ. eigenvalues --   -0.77970  -0.73817  -0.69032  -0.67145  -0.64023
 Alpha  occ. eigenvalues --   -0.61456  -0.59721  -0.59145  -0.56462  -0.55049
 Alpha  occ. eigenvalues --   -0.51731  -0.50274  -0.49848  -0.49170  -0.45286
 Alpha virt. eigenvalues --    0.03105   0.03803   0.04452   0.05088   0.06196
 Alpha virt. eigenvalues --    0.06794   0.08413   0.10043   0.11316   0.12652
 Alpha virt. eigenvalues --    0.13251   0.14311   0.15029   0.15428   0.17287

 Mulliken charges:
               1
     1  Cl  -0.278857
     2  Cl  -0.256641
     3  B    0.492585
     4  P    2.060146
     5  O   -0.925656
     6  O   -0.729954
     7  H    0.158960
     8  O   -0.682569
     9  H    0.161987
 Sum of Mulliken charges =  -0.00000

 Dipole moment (field-independent basis, Debye):
    X=             -0.5138    Y=              0.4689    Z=             -2.2306  Tot=              2.3365

 Test job not archived.
 1\1\GINC-SE345\SP\RHF\Aug-CC-pVDZ\B1Cl2H2O3P1\OHZDE\08-Apr-2025\0\\#t
 hf aug-cc-pvdz iop(5/13=1,5/36=2,99/5=2) pseudo=read geom=check guess=
 (read,tcheck) scf=(maxcycle=1)\\title\\0,1\Cl,0,1.577743,-1.565622,0.0
 39394\Cl,0,1.72878,1.467208,-0.006427\B,0,0.791362,-0.001083,0.011837\
 P,0,-1.139111,0.036161,-0.126733\O,0,-1.606213,-0.133775,-1.512295\O,0
 ,-1.722687,-1.071317,0.893347\H,0,-1.919998,-1.90204,0.442722\O,0,-1.5
 09494,1.386029,0.642974\H,0,-2.453877,1.590584,0.646461\\Version=ES64L
 -G16RevC.01\State=1-A\HF=-1510.5539503\RMSD=4.627e-03\Dipole=-0.202159

 Normal termination of Gaussian 16 at Tue Apr  8 23:48:27 2025.
