 Gaussian 16, Revision C.01,

 ----------------------------------------------------------------------
 #t hf aug-cc-pvdz symm=none int=(grid=ultrafine) guess=(read,tcheck) s
 table=(opt,rrhf)
 ----------------------------------------------------------------------
 -----
 title
 -----
 Symbolic Z-matrix:
 Charge =  0 Multiplicity = 1

 SCF Done:  E(RHF) =  -191.957486384     A.U. after   13 cycles
 Normal termination of Gaussian 16 at Tue Apr  8 22:39:25 2025.
 Gaussian 16:  ES64L-G16RevC.01  3-Jul-2019

 ----------------------------------------------------------------------
 #t hf aug-cc-pvdz iop(5/13=1,5/36=2,99/5=2) pseudo=read geom=check gue
 ss=(read,tcheck) scf=(maxcycle=1)
 ----------------------------------------------------------------------
 -----
 title
 -----
 Structure from the checkpoint file:  "BDE49_expt_1333_mol1.chk"
 Charge =  0 Multiplicity = 1

                         Standard orientation:
 ---------------------------------------------------------------------
 Center     Atomic      Atomic             Coordinates (Angstroms)
 Number     Number       Type             X           Y           Z
 ---------------------------------------------------------------------
      1          6           0        0.593583    0.344962   -0.000001
      2          8           0        1.861704   -0.178099    0.000001
      3          1           0        2.497288    0.540908   -0.000035
      4          6           0       -0.491596   -0.423123   -0.000002
      5          6           0       -1.893548    0.111737    0.000005
      6          1           0        0.524564    1.431461    0.000003
      7          1           0       -0.353123   -1.501096   -0.000007
      8          1           0       -1.906804    1.205387    0.000006
      9          1           0       -2.453089   -0.226667    0.879496
     10          1           0       -2.453098   -0.226666   -0.879479
 ---------------------------------------------------------------------

 SCF Done:  E(RHF) =  -192.020809983     A.U. after    2 cycles

 The electronic state is 1-A.
 Alpha  occ. eigenvalues --  -20.59674 -11.29589 -11.23219 -11.22634  -1.35459
 Alpha  occ. eigenvalues --   -1.05080  -0.92442  -0.77203  -0.74238  -0.64078
 Alpha  occ. eigenvalues --   -0.59213  -0.55919  -0.55243  -0.54315  -0.50457
 Alpha  occ. eigenvalues --   -0.33604
 Alpha virt. eigenvalues --    0.03283   0.04270   0.05179   0.06139   0.06777
 Alpha virt. eigenvalues --    0.07851   0.10929   0.12287   0.12802   0.14213
 Alpha virt. eigenvalues --    0.14839   0.16799   0.17322   0.17945   0.18595

 Mulliken charges:
               1
     1  C    0.857788
     2  O   -0.574996
     3  H    0.175751
     4  C    0.167802
     5  C    0.189340
     6  H   -0.358554
     7  H   -0.349853
     8  H   -0.141961
     9  H    0.017343
    10  H    0.017340
 Sum of Mulliken charges =   0.00000

 Dipole moment (field-independent basis, Debye):
    X=              0.0202    Y=              1.8052    Z=             -0.0001  Tot=              1.8053

 Test job not archived.
 1\1\GINC-SE332\SP\RHF\Aug-CC-pVDZ\C3H6O1\OHZDE\08-Apr-2025\0\\#t hf au
 g-cc-pvdz iop(5/13=1,5/36=2,99/5=2) pseudo=read geom=check guess=(read
 ,tcheck) scf=(maxcycle=1)\\title\\0,1\C,0,0.593583,0.344962,-0.000001\
 O,0,1.861704,-0.178099,0.000001\H,0,2.497288,0.540908,-0.000035\C,0,-0
 .491596,-0.423123,-0.000002\C,0,-1.893548,0.111737,0.000005\H,0,0.5245
 64,1.431461,0.000003\H,0,-0.353123,-1.501096,-0.000007\H,0,-1.906804,1
 .205387,0.000006\H,0,-2.453089,-0.226667,0.879496\H,0,-2.453098,-0.226
 666,-0.879479\\Version=ES64L-G16RevC.01\State=1-A\HF=-192.02081\RMSD=5

 Normal termination of Gaussian 16 at Tue Apr  8 22:39:27 2025.
