 Gaussian 16, Revision C.01,

 ----------------------------------------------------------------------
 #t hf aug-cc-pvdz symm=none int=(grid=ultrafine) guess=(read,tcheck) s
 table=(opt,rrhf)
 ----------------------------------------------------------------------
 -----
 title
 -----
 Symbolic Z-matrix:
 Charge =  0 Multiplicity = 1

 SCF Done:  E(RHF) =  -567.770982988     A.U. after   16 cycles
 Normal termination of Gaussian 16 at Wed Apr  9 00:34:24 2025.
 Gaussian 16:  ES64L-G16RevC.01  3-Jul-2019

 ----------------------------------------------------------------------
 #t hf aug-cc-pvdz iop(5/13=1,5/36=2,99/5=2) pseudo=read geom=check gue
 ss=(read,tcheck) scf=(maxcycle=1)
 ----------------------------------------------------------------------
 -----
 title
 -----
 Structure from the checkpoint file:  "BDE49_nonexpt_431_mol1.chk"
 Charge =  0 Multiplicity = 1

                         Standard orientation:
 ---------------------------------------------------------------------
 Center     Atomic      Atomic             Coordinates (Angstroms)
 Number     Number       Type             X           Y           Z
 ---------------------------------------------------------------------
      1          9           0        2.936344   -0.678110    0.000305
      2          9           0        2.194205    1.444105    0.000217
      3          5           0        1.889399    0.154278   -0.000271
      4          6           0        0.459304   -0.427010   -0.000154
      5          6           0       -0.717063    0.361014   -0.000081
      6          6           0       -1.975596   -0.250898    0.000007
      7          1           0       -2.879080    0.342655    0.000061
      8          6           0       -2.072386   -1.640231    0.000029
      9          6           0        0.315110   -1.823798   -0.000126
     10          1           0        1.212624   -2.431313   -0.000181
     11          6           0       -0.931588   -2.437397   -0.000038
     12          1           0       -1.014112   -3.517362   -0.000021
     13          1           0       -3.055463   -2.098461    0.000099
     14          8           0       -0.544374    1.705395   -0.000104
     15          6           0       -1.684890    2.554988   -0.000038
     16          1           0       -1.292373    3.569940   -0.000074
     17          1           0       -2.297882    2.403017    0.894667
     18          1           0       -2.298000    2.402999   -0.894660
 ---------------------------------------------------------------------

 SCF Done:  E(RHF) =  -567.964582728     A.U. after    2 cycles

 The electronic state is 1-A.
 Alpha  occ. eigenvalues --  -26.12142 -26.11885 -20.60969 -11.33450 -11.30518
 Alpha  occ. eigenvalues --  -11.27045 -11.26620 -11.25051 -11.24483 -11.23408
 Alpha  occ. eigenvalues --   -7.72372  -1.67346  -1.64964  -1.38283  -1.15089
 Alpha  occ. eigenvalues --   -1.03396  -1.02455  -0.95377  -0.87010  -0.84495
 Alpha  occ. eigenvalues --   -0.82924  -0.79637  -0.76892  -0.75147  -0.73183
 Alpha  occ. eigenvalues --   -0.70409  -0.70180  -0.67849  -0.67520  -0.67124
 Alpha  occ. eigenvalues --   -0.63354  -0.59932  -0.58570  -0.54305  -0.54010
 Alpha  occ. eigenvalues --   -0.52713  -0.49246  -0.48768  -0.36250  -0.33131
 Alpha virt. eigenvalues --    0.02851   0.03740   0.04409   0.05163   0.05543
 Alpha virt. eigenvalues --    0.06072   0.06457   0.07000   0.07182   0.07547
 Alpha virt. eigenvalues --    0.08435   0.09890   0.11193   0.11423   0.12558

 Mulliken charges:
               1
     1  F   -0.538823
     2  F   -0.502037
     3  B    0.927548
     4  C   -0.150740
     5  C    0.862618
     6  C    0.397128
     7  H   -0.750075
     8  C    0.519126
     9  C    0.756852
    10  H   -0.610533
    11  C    0.294095
    12  H   -0.439666
    13  H   -0.446802
    14  O   -0.750827
    15  C    0.884849
    16  H   -0.301340
    17  H   -0.075678
    18  H   -0.075695
 Sum of Mulliken charges =  -0.00000

 Dipole moment (field-independent basis, Debye):
    X=             -4.2440    Y=             -0.3682    Z=             -0.0018  Tot=              4.2600

 Test job not archived.
 1\1\GINC-SE105\SP\RHF\Aug-CC-pVDZ\C7H7B1F2O1\OHZDE\09-Apr-2025\0\\#t h
 f aug-cc-pvdz iop(5/13=1,5/36=2,99/5=2) pseudo=read geom=check guess=(
 read,tcheck) scf=(maxcycle=1)\\title\\0,1\F,0,2.936344,-0.678109,0.000
 305\F,0,2.194205,1.444106,0.000217\B,0,1.889399,0.154279,-0.000271\C,0
 ,0.459304,-0.42701,-0.000154\C,0,-0.717063,0.361014,-0.000081\C,0,-1.9
 75596,-0.250898,0.000007\H,0,-2.87908,0.342655,0.000061\C,0,-2.072386,
 -1.640231,0.000029\C,0,0.31511,-1.823798,-0.000126\H,0,1.212624,-2.431
 313,-0.000181\C,0,-0.931588,-2.437397,-0.000038\H,0,-1.014111,-3.51736

 Normal termination of Gaussian 16 at Wed Apr  9 00:34:34 2025.
