 Gaussian 16, Revision C.01,

 ----------------------------------------------------------------------
 #t hf aug-cc-pvdz symm=none int=(grid=ultrafine) guess=(read,tcheck) s
 table=(opt,rrhf)
 ----------------------------------------------------------------------
 -----
 title
 -----
 Symbolic Z-matrix:
 Charge =  0 Multiplicity = 1

 SCF Done:  E(RHF) =  -1189.94082594     A.U. after   15 cycles
 Normal termination of Gaussian 16 at Wed Apr  9 00:10:11 2025.
 Gaussian 16:  ES64L-G16RevC.01  3-Jul-2019

 ----------------------------------------------------------------------
 #t hf aug-cc-pvdz iop(5/13=1,5/36=2,99/5=2) pseudo=read geom=check gue
 ss=(read,tcheck) scf=(maxcycle=1)
 ----------------------------------------------------------------------
 -----
 title
 -----
 Structure from the checkpoint file:  "BDE49_nonexpt_236_mol1.chk"
 Charge =  0 Multiplicity = 1

                         Standard orientation:
 ---------------------------------------------------------------------
 Center     Atomic      Atomic             Coordinates (Angstroms)
 Number     Number       Type             X           Y           Z
 ---------------------------------------------------------------------
      1         17           0        2.076764    1.506411   -0.000280
      2          5           0        1.155519    0.000000    0.000620
      3         17           0        2.076764   -1.506411   -0.000286
      4          6           0       -0.396831    0.000000    0.000378
      5          6           0       -1.136202   -1.194186    0.000263
      6          6           0       -1.136202    1.194186    0.000268
      7          6           0       -2.526602    1.140894    0.000064
      8          6           0       -2.526602   -1.140894    0.000059
      9          7           0       -3.222793    0.000000   -0.000042
     10          1           0       -0.636208   -2.154768    0.000336
     11          1           0       -3.110486   -2.056815   -0.000029
     12          1           0       -0.636208    2.154768    0.000344
     13          1           0       -3.110486    2.056815   -0.000021
 ---------------------------------------------------------------------

 SCF Done:  E(RHF) =  -1190.05167881     A.U. after    2 cycles

 The electronic state is 1-A.
 Alpha  occ. eigenvalues -- -103.67772-103.67771 -15.65303 -11.29745 -11.29732
 Alpha  occ. eigenvalues --  -11.27335 -11.27313 -11.27055 -10.71270 -10.71238
 Alpha  occ. eigenvalues --   -8.36949  -8.36944  -8.36728  -8.36726  -8.36701
 Alpha  occ. eigenvalues --   -8.36698  -7.74352  -1.24690  -1.19225  -1.15373
 Alpha  occ. eigenvalues --   -1.08976  -1.04340  -0.87665  -0.87159  -0.75087
 Alpha  occ. eigenvalues --   -0.68631  -0.68463  -0.66193  -0.61645  -0.58756
 Alpha  occ. eigenvalues --   -0.58515  -0.56259  -0.53239  -0.53180  -0.49079
 Alpha  occ. eigenvalues --   -0.48880  -0.47555  -0.43002  -0.40183  -0.36276
 Alpha virt. eigenvalues --    0.02357   0.03229   0.03718   0.04807   0.05233
 Alpha virt. eigenvalues --    0.06036   0.06541   0.07432   0.08479   0.09368
 Alpha virt. eigenvalues --    0.10046   0.11228   0.13020   0.13509   0.13959

 Mulliken charges:
               1
     1  Cl  -0.315890
     2  B    0.548876
     3  Cl  -0.315890
     4  C   -0.492459
     5  C    0.972943
     6  C    0.972943
     7  C    0.424623
     8  C    0.424623
     9  N   -0.407835
    10  H   -0.578721
    11  H   -0.327247
    12  H   -0.578721
    13  H   -0.327247
 Sum of Mulliken charges =  -0.00000

 Dipole moment (field-independent basis, Debye):
    X=             -0.0831    Y=              0.0000    Z=              0.0016  Tot=              0.0831

 Test job not archived.
 1\1\GINC-SE343\SP\RHF\Aug-CC-pVDZ\C5H4B1Cl2N1\OHZDE\09-Apr-2025\0\\#t
 hf aug-cc-pvdz iop(5/13=1,5/36=2,99/5=2) pseudo=read geom=check guess=
 (read,tcheck) scf=(maxcycle=1)\\title\\0,1\Cl,0,-2.076764,1.506411,0.0
 0028\B,0,-1.155519,0.,-0.00062\Cl,0,-2.076764,-1.506411,0.000286\C,0,0
 .396831,0.,-0.000378\C,0,1.136202,-1.194186,-0.000263\C,0,1.136202,1.1
 94186,-0.000268\C,0,2.526602,1.140894,-0.000064\C,0,2.526602,-1.140894
 ,-0.000059\N,0,3.222793,0.,0.000042\H,0,0.636208,-2.154768,-0.000336\H
 ,0,3.110486,-2.056815,0.000029\H,0,0.636208,2.154768,-0.000344\H,0,3.1

 Normal termination of Gaussian 16 at Wed Apr  9 00:10:22 2025.
