 Gaussian 16, Revision C.01,

 ----------------------------------------------------------------------
 #t hf aug-cc-pvdz symm=none int=(grid=ultrafine) guess=(read,tcheck) s
 table=(opt,rrhf)
 ----------------------------------------------------------------------
 -----
 title
 -----
 Symbolic Z-matrix:
 Charge =  0 Multiplicity = 1

 SCF Done:  E(RHF) =  -1104.60993865     A.U. after   15 cycles
 Normal termination of Gaussian 16 at Wed Apr  9 00:17:13 2025.
 Gaussian 16:  ES64L-G16RevC.01  3-Jul-2019

 ----------------------------------------------------------------------
 #t hf aug-cc-pvdz iop(5/13=1,5/36=2,99/5=2) pseudo=read geom=check gue
 ss=(read,tcheck) scf=(maxcycle=1)
 ----------------------------------------------------------------------
 -----
 title
 -----
 Structure from the checkpoint file:  "BDE49_nonexpt_2567_mol1.chk"
 Charge =  0 Multiplicity = 1

                         Standard orientation:
 ---------------------------------------------------------------------
 Center     Atomic      Atomic             Coordinates (Angstroms)
 Number     Number       Type             X           Y           Z
 ---------------------------------------------------------------------
      1         17           0        2.707018    0.023202   -0.105989
      2         16           0        0.821205   -0.770642    0.409700
      3          6           0       -0.394379    0.240027   -0.546694
      4          8           0       -0.190870    1.616531   -0.505610
      5          7           0       -1.593895   -0.285812    0.062973
      6          6           0       -2.633462   -0.718334   -0.867700
      7          1           0       -2.197450   -1.346751   -1.645526
      8          1           0       -3.151384    0.128332   -1.343970
      9          1           0       -3.371923   -1.316598   -0.330012
     10          6           0       -2.104361    0.450576    1.215840
     11          1           0       -1.297104    0.652423    1.921086
     12          1           0       -2.842833   -0.166809    1.730331
     13          1           0       -2.576295    1.401593    0.931370
     14          1           0       -0.360325   -0.045087   -1.596107
     15          1           0        0.116160    1.863560    0.374836
 ---------------------------------------------------------------------

 SCF Done:  E(RHF) =  -1104.72791353     A.U. after    2 cycles

 The electronic state is 1-A.
 Alpha  occ. eigenvalues -- -103.66354 -93.59071 -20.60535 -15.64601 -11.37897
 Alpha  occ. eigenvalues --  -11.27875 -11.27677 -10.69490  -8.88372  -8.35214
 Alpha  occ. eigenvalues --   -8.34891  -8.34866  -6.22481  -6.22134  -6.21767
 Alpha  occ. eigenvalues --   -1.37177  -1.21875  -1.14643  -1.00399  -0.97613
 Alpha  occ. eigenvalues --   -0.88207  -0.83360  -0.71823  -0.69372  -0.66605
 Alpha  occ. eigenvalues --   -0.63797  -0.60074  -0.58011  -0.56396  -0.55421
 Alpha  occ. eigenvalues --   -0.53874  -0.51011  -0.50020  -0.49398  -0.43661
 Alpha  occ. eigenvalues --   -0.37988  -0.36541
 Alpha virt. eigenvalues --    0.03087   0.03941   0.04443   0.05390   0.06502
 Alpha virt. eigenvalues --    0.06764   0.07282   0.07720   0.08704   0.09505
 Alpha virt. eigenvalues --    0.11860   0.12628   0.13417   0.13837   0.14771

 Mulliken charges:
               1
     1  Cl  -0.372088
     2  S    0.464749
     3  C    0.418877
     4  O   -0.526163
     5  N   -0.574836
     6  C    0.691062
     7  H   -0.214461
     8  H   -0.001774
     9  H   -0.197579
    10  C    0.793290
    11  H   -0.264958
    12  H   -0.199953
    13  H   -0.004241
    14  H   -0.213963
    15  H    0.202037
 Sum of Mulliken charges =  -0.00000

 Dipole moment (field-independent basis, Debye):
    X=             -3.6819    Y=             -0.0250    Z=              0.5692  Tot=              3.7257

 Test job not archived.
 1\1\GINC-SE273\SP\RHF\Aug-CC-pVDZ\C3H8Cl1N1O1S1\OHZDE\09-Apr-2025\0\\#
 t hf aug-cc-pvdz iop(5/13=1,5/36=2,99/5=2) pseudo=read geom=check gues
 s=(read,tcheck) scf=(maxcycle=1)\\title\\0,1\Cl,0,2.707018,0.023202,-0
 .105989\S,0,0.821205,-0.770642,0.4097\C,0,-0.394379,0.240027,-0.546694
 \O,0,-0.19087,1.616531,-0.50561\N,0,-1.593895,-0.285812,0.062973\C,0,-
 2.633462,-0.718334,-0.8677\H,0,-2.19745,-1.346751,-1.645526\H,0,-3.151
 384,0.128332,-1.34397\H,0,-3.371923,-1.316598,-0.330012\C,0,-2.104361,
 0.450576,1.21584\H,0,-1.297104,0.652423,1.921086\H,0,-2.842833,-0.1668

 Normal termination of Gaussian 16 at Wed Apr  9 00:17:20 2025.
