 Gaussian 16, Revision C.01,

 ----------------------------------------------------------------------
 #t hf aug-cc-pvdz symm=none int=(grid=ultrafine) guess=(read,tcheck) s
 table=opt
 ----------------------------------------------------------------------
 -----
 title
 -----
 Symbolic Z-matrix:
 Charge =  0 Multiplicity = 2

 SCF Done:  E(UHF) =  -666.741561691     A.U. after   18 cycles
 Normal termination of Gaussian 16 at Wed Apr  9 00:34:28 2025.
 Gaussian 16:  ES64L-G16RevC.01  3-Jul-2019

 ----------------------------------------------------------------------
 #t hf aug-cc-pvdz iop(5/13=1,5/36=2,99/5=2) pseudo=read geom=check gue
 ss=(read,tcheck) scf=(maxcycle=1)
 ----------------------------------------------------------------------
 -----
 title
 -----
 Structure from the checkpoint file:  "BDE49_nonexpt_480_mol2.chk"
 Charge =  0 Multiplicity = 2

                         Standard orientation:
 ---------------------------------------------------------------------
 Center     Atomic      Atomic             Coordinates (Angstroms)
 Number     Number       Type             X           Y           Z
 ---------------------------------------------------------------------
      1          1           0        2.583485    0.197157    0.923443
      2          5           0        2.346672   -0.144223   -0.198015
      3         15           0       -0.356519   -0.005462   -0.094226
      4          8           0       -1.451711   -0.238105   -1.025767
      5          8           0       -0.387927   -0.909277    1.224416
      6          1           0       -0.920434   -1.703510    1.093648
      7          8           0       -0.153207    1.461216    0.484045
      8          1           0       -0.987078    1.901108    0.689082
      9          8           0        1.110152   -0.262798   -0.720533
 ---------------------------------------------------------------------

 SCF Done:  E(UHF) =  -666.927374596     A.U. after    2 cycles

 The electronic state is 2-A.
 Alpha  occ. eigenvalues --  -81.47234 -20.63960 -20.63686 -20.63057 -20.54663
 Alpha  occ. eigenvalues --   -7.95093  -7.69384  -5.09779  -5.09694  -5.09639
 Alpha  occ. eigenvalues --   -1.41948  -1.37358  -1.37069  -1.28421  -0.90050
 Alpha  occ. eigenvalues --   -0.82105  -0.78952  -0.70908  -0.69013  -0.66530
 Alpha  occ. eigenvalues --   -0.62996  -0.62459  -0.60640  -0.58217  -0.57496
 Alpha  occ. eigenvalues --   -0.51608  -0.51087  -0.35275
 Alpha virt. eigenvalues --    0.02770   0.04008   0.05126   0.05248   0.06071
 Alpha virt. eigenvalues --    0.08495   0.09994   0.10236   0.11293   0.11536
 Alpha virt. eigenvalues --    0.12393   0.14279   0.17975   0.19341   0.20231

  Beta  occ. eigenvalues --  -81.47196 -20.63949 -20.63673 -20.62925 -20.54656
  Beta  occ. eigenvalues --   -7.95036  -7.67410  -5.09731  -5.09616  -5.09602
  Beta  occ. eigenvalues --   -1.41809  -1.37316  -1.36748  -1.28390  -0.89220
  Beta  occ. eigenvalues --   -0.81306  -0.78888  -0.70525  -0.68479  -0.65742
  Beta  occ. eigenvalues --   -0.62944  -0.62185  -0.59561  -0.57488  -0.55299
  Beta  occ. eigenvalues --   -0.51463  -0.51078
  Beta virt. eigenvalues --    0.02716   0.04152   0.04500   0.05762   0.05978
  Beta virt. eigenvalues --    0.08242   0.09329   0.10039   0.10747   0.11391
  Beta virt. eigenvalues --    0.13536   0.13928   0.16534   0.18051   0.19381

 Mulliken charges and spin densities:
               1          2
     1  H    0.263691   0.050283
     2  B   -0.111942   1.061913
     3  P    2.417657   0.019438
     4  O   -0.824559  -0.000133
     5  O   -0.675454   0.004016
     6  H    0.174208  -0.000618
     7  O   -0.647969   0.002418
     8  H    0.177347   0.000293
     9  O   -0.772979  -0.137609
 Sum of Mulliken charges =  -0.00000   1.00000

 Dipole moment (field-independent basis, Debye):
    X=             -0.2293    Y=              0.2057    Z=              2.8979  Tot=              2.9142
                          Isotropic Fermi Contact Couplings
        Atom                 a.u.       MegaHertz       Gauss      10(-4) cm-1
     1  H(1)               0.02814     125.78134      44.88191      41.95614
     2  B(11)              0.34851     499.88704     178.37213     166.74437
     3  P(31)              0.06272     113.58474      40.52986      37.88779
     4  O(17)              0.00032      -0.19153      -0.06834      -0.06389
     5  O(17)              0.00134      -0.80985      -0.28897      -0.27014
     6  H(1)              -0.00009      -0.41096      -0.14664      -0.13708
     7  O(17)              0.00159      -0.96254      -0.34346      -0.32107
     8  H(1)               0.00003       0.14557       0.05194       0.04856

 Normal termination of Gaussian 16 at Wed Apr  9 00:34:31 2025.
