 Gaussian 16, Revision C.01,

 ----------------------------------------------------------------------
 #t hf aug-cc-pvdz symm=none int=(grid=ultrafine) guess=(read,tcheck) s
 table=opt
 ----------------------------------------------------------------------
 -----
 title
 -----
 Symbolic Z-matrix:
 Charge =  0 Multiplicity = 2

 SCF Done:  E(UHF) =  -908.369796227     A.U. after   19 cycles
 Normal termination of Gaussian 16 at Wed Apr  9 00:20:37 2025.
 Gaussian 16:  ES64L-G16RevC.01  3-Jul-2019

 ----------------------------------------------------------------------
 #t hf aug-cc-pvdz iop(5/13=1,5/36=2,99/5=2) pseudo=read geom=check gue
 ss=(read,tcheck) scf=(maxcycle=1)
 ----------------------------------------------------------------------
 -----
 title
 -----
 Structure from the checkpoint file:  "BDE49_nonexpt_2664_mol2.chk"
 Charge =  0 Multiplicity = 2

                         Standard orientation:
 ---------------------------------------------------------------------
 Center     Atomic      Atomic             Coordinates (Angstroms)
 Number     Number       Type             X           Y           Z
 ---------------------------------------------------------------------
      1         16           0       -1.524609   -0.525511   -0.000000
      2          6           0       -0.047260    0.443068   -0.000000
      3          8           0       -0.152221    1.642143   -0.000001
      4         16           0        1.550955   -0.360406    0.000001
      5          1           0        1.079782   -1.620891    0.000002
 ---------------------------------------------------------------------

 SCF Done:  E(UHF) =  -908.442957247     A.U. after    2 cycles

 The electronic state is 2-A.
 Alpha  occ. eigenvalues --  -93.60427 -93.59080 -20.60113 -11.42662  -8.90265
 Alpha  occ. eigenvalues --   -8.88899  -6.25604  -6.23908  -6.23423  -6.23005
 Alpha  occ. eigenvalues --   -6.22859  -6.22436  -1.40380  -1.07546  -1.00151
 Alpha  occ. eigenvalues --   -0.77034  -0.68400  -0.64703  -0.61370  -0.56324
 Alpha  occ. eigenvalues --   -0.47753  -0.44754  -0.43154  -0.41163
 Alpha virt. eigenvalues --    0.03412   0.06713   0.07250   0.08528   0.09715
 Alpha virt. eigenvalues --    0.11254   0.12098   0.12882   0.13577   0.15167
 Alpha virt. eigenvalues --    0.15171   0.15623   0.16770   0.18761   0.24757

  Beta  occ. eigenvalues --  -93.59496 -93.59070 -20.59955 -11.42778  -8.89227
  Beta  occ. eigenvalues --   -8.88891  -6.23388  -6.23012  -6.22832  -6.22783
  Beta  occ. eigenvalues --   -6.22438  -6.21518  -1.39901  -1.05426  -0.94832
  Beta  occ. eigenvalues --   -0.75693  -0.66974  -0.62780  -0.61234  -0.54724
  Beta  occ. eigenvalues --   -0.43672  -0.42165  -0.39831
  Beta virt. eigenvalues --   -0.02174   0.03639   0.06946   0.07595   0.08417
  Beta virt. eigenvalues --    0.09993   0.11909   0.12218   0.13287   0.13655
  Beta virt. eigenvalues --    0.15194   0.15662   0.16060   0.17028   0.19496

 Mulliken charges and spin densities:
               1          2
     1  S    0.264680   1.087558
     2  C   -0.244309  -0.102919
     3  O   -0.405012   0.012932
     4  S    0.303634   0.005387
     5  H    0.081007  -0.002958
 Sum of Mulliken charges =  -0.00000   1.00000

 Dipole moment (field-independent basis, Debye):
    X=              0.1563    Y=             -3.3712    Z=              0.0000  Tot=              3.3748
                          Isotropic Fermi Contact Couplings
        Atom                 a.u.       MegaHertz       Gauss      10(-4) cm-1
     1  S(33)              0.21472      73.75047      26.31600      24.60051
     2  C(13)             -0.02231     -25.08014      -8.94922      -8.36584
     3  O(17)              0.02352     -14.25797      -5.08760      -4.75595
     4  S(33)             -0.01222      -4.19852      -1.49814      -1.40048
     5  H(1)               0.00099       4.42172       1.57778       1.47493
 --------------------------------------------------------
       Center         ----  Spin Dipole Couplings  ----
                      3XX-RR        3YY-RR        3ZZ-RR

 Normal termination of Gaussian 16 at Wed Apr  9 00:20:39 2025.
