 Gaussian 16, Revision C.01,

 ----------------------------------------------------------------------
 #t hf aug-cc-pvdz symm=none int=(grid=ultrafine) guess=(read,tcheck) s
 table=opt
 ----------------------------------------------------------------------
 -----
 title
 -----
 Symbolic Z-matrix:
 Charge =  0 Multiplicity = 2

 SCF Done:  E(UHF) =  -529.512029031     A.U. after   19 cycles
 Normal termination of Gaussian 16 at Tue Apr  8 23:37:07 2025.
 Gaussian 16:  ES64L-G16RevC.01  3-Jul-2019

 ----------------------------------------------------------------------
 #t hf aug-cc-pvdz iop(5/13=1,5/36=2,99/5=2) pseudo=read geom=check gue
 ss=(read,tcheck) scf=(maxcycle=1)
 ----------------------------------------------------------------------
 -----
 title
 -----
 Structure from the checkpoint file:  "BDE49_nonexpt_1575_mol2.chk"
 Charge =  0 Multiplicity = 2

                         Standard orientation:
 ---------------------------------------------------------------------
 Center     Atomic      Atomic             Coordinates (Angstroms)
 Number     Number       Type             X           Y           Z
 ---------------------------------------------------------------------
      1          6           0       -0.476422    0.132500   -0.000009
      2         15           0        1.375431   -0.143454   -0.000003
      3          8           0       -1.053784    1.188155   -0.000002
      4          8           0       -1.113960   -1.065077    0.000006
      5          1           0       -2.066972   -0.878855    0.000011
      6          1           0        1.635990    1.251043    0.000047
 ---------------------------------------------------------------------

 SCF Done:  E(UHF) =  -529.590123313     A.U. after    2 cycles

 The electronic state is 2-A.
 Alpha  occ. eigenvalues --  -81.29847 -20.63868 -20.59094 -11.41309  -7.80316
 Alpha  occ. eigenvalues --   -4.94952  -4.93930  -4.93611  -1.43909  -1.34853
 Alpha  occ. eigenvalues --   -0.92135  -0.80099  -0.73540  -0.67501  -0.66213
 Alpha  occ. eigenvalues --   -0.57925  -0.53619  -0.50353  -0.41840  -0.38793
 Alpha virt. eigenvalues --    0.03527   0.05035   0.07614   0.09382   0.09463
 Alpha virt. eigenvalues --    0.11222   0.11316   0.13304   0.15060   0.15308
 Alpha virt. eigenvalues --    0.17882   0.19002   0.20377   0.20440   0.22065

  Beta  occ. eigenvalues --  -81.29157 -20.63907 -20.58466 -11.41693  -7.79490
  Beta  occ. eigenvalues --   -4.93432  -4.93229  -4.91812  -1.43656  -1.33958
  Beta  occ. eigenvalues --   -0.90477  -0.76959  -0.73067  -0.66091  -0.65420
  Beta  occ. eigenvalues --   -0.57350  -0.50438  -0.49039  -0.40068
  Beta virt. eigenvalues --    0.00228   0.03602   0.05112   0.07803   0.09470
  Beta virt. eigenvalues --    0.11074   0.11368   0.11758   0.13640   0.16577
  Beta virt. eigenvalues --    0.18279   0.18415   0.19753   0.20459   0.21400

 Mulliken charges and spin densities:
               1          2
     1  C    0.341201  -0.184625
     2  P    0.329766   1.203207
     3  O   -0.436085   0.145114
     4  O   -0.424991  -0.005093
     5  H    0.151241  -0.000573
     6  H    0.038868  -0.158031
 Sum of Mulliken charges =  -0.00000   1.00000

 Dipole moment (field-independent basis, Debye):
    X=              0.4721    Y=             -1.0205    Z=              0.0000  Tot=              1.1244
                          Isotropic Fermi Contact Couplings
        Atom                 a.u.       MegaHertz       Gauss      10(-4) cm-1
     1  C(13)             -0.06198     -69.67816     -24.86290     -23.24213
     2  P(31)              0.21764     394.16277     140.64708     131.47855
     3  O(17)              0.05210     -31.58535     -11.27044     -10.53574
     4  O(17)             -0.01355       8.21473       2.93122       2.74014
     5  H(1)              -0.00059      -2.64288      -0.94304      -0.88157
     6  H(1)              -0.01605     -71.73092     -25.59538     -23.92686
 --------------------------------------------------------
       Center         ----  Spin Dipole Couplings  ----

 Normal termination of Gaussian 16 at Tue Apr  8 23:37:10 2025.
