 Gaussian 16, Revision C.01,

 ----------------------------------------------------------------------
 #t hf aug-cc-pvdz symm=none int=(grid=ultrafine) guess=(read,tcheck) s
 table=(opt,rrhf)
 ----------------------------------------------------------------------
 -----
 title
 -----
 Symbolic Z-matrix:
 Charge =  0 Multiplicity = 1

 SCF Done:  E(RHF) =  -912.639107568     A.U. after   12 cycles
 Normal termination of Gaussian 16 at Wed Apr  9 00:14:32 2025.
 Gaussian 16:  ES64L-G16RevC.01  3-Jul-2019

 ----------------------------------------------------------------------
 #t hf aug-cc-pvdz iop(5/13=1,5/36=2,99/5=2) pseudo=read geom=check gue
 ss=(read,tcheck) scf=(maxcycle=1)
 ----------------------------------------------------------------------
 -----
 title
 -----
 Structure from the checkpoint file:  "BDE49_nonexpt_2527_mol1.chk"
 Charge =  0 Multiplicity = 1

                         Standard orientation:
 ---------------------------------------------------------------------
 Center     Atomic      Atomic             Coordinates (Angstroms)
 Number     Number       Type             X           Y           Z
 ---------------------------------------------------------------------
      1         17           0       -1.412168    0.214298   -0.000014
      2          7           0        1.633394    0.604184    0.000017
      3         16           0        0.566766   -0.634259    0.000005
      4          1           0        1.752465    1.137885    0.851827
      5          1           0        1.752385    1.137906   -0.851792
 ---------------------------------------------------------------------

 SCF Done:  E(RHF) =  -912.701283149     A.U. after    2 cycles

 The electronic state is 1-A.
 Alpha  occ. eigenvalues -- -103.65666 -93.63048 -15.68495 -10.68856  -8.91981
 Alpha  occ. eigenvalues --   -8.34560  -8.34255  -8.34227  -6.26078  -6.25762
 Alpha  occ. eigenvalues --   -6.25303  -1.21666  -1.12326  -0.89741  -0.72703
 Alpha  occ. eigenvalues --   -0.63716  -0.55147  -0.49486  -0.45987  -0.43425
 Alpha  occ. eigenvalues --   -0.37662
 Alpha virt. eigenvalues --    0.03218   0.04991   0.05045   0.08756   0.10760
 Alpha virt. eigenvalues --    0.14140   0.14253   0.15599   0.16510   0.16817
 Alpha virt. eigenvalues --    0.17796   0.19810   0.20132   0.23947   0.27088

 Mulliken charges:
               1
     1  Cl  -0.365338
     2  N   -0.513083
     3  S    0.762439
     4  H    0.057989
     5  H    0.057993
 Sum of Mulliken charges =  -0.00000

 Dipole moment (field-independent basis, Debye):
    X=              2.7780    Y=              1.4302    Z=              0.0001  Tot=              3.1245

 Test job not archived.
 1\1\GINC-SE341\SP\RHF\Aug-CC-pVDZ\Cl1H2N1S1\OHZDE\09-Apr-2025\0\\#t hf
  aug-cc-pvdz iop(5/13=1,5/36=2,99/5=2) pseudo=read geom=check guess=(r
 ead,tcheck) scf=(maxcycle=1)\\title\\0,1\Cl,0,-1.412168,0.214298,-0.00
 0014\N,0,1.633394,0.604184,0.000017\S,0,0.566766,-0.634259,0.000005\H,
 0,1.752465,1.137885,0.851827\H,0,1.752385,1.137906,-0.851792\\Version=
 ES64L-G16RevC.01\State=1-A\HF=-912.7012831\RMSD=3.484e-03\Dipole=1.092
 9366,0.5626909,0.0000212\Quadrupole=-0.5088796,1.0220289,-0.5131494,2.
 4930586,0.0001675,0.0000071\PG=C01 [X(Cl1H2N1S1)]\\@

 Normal termination of Gaussian 16 at Wed Apr  9 00:14:34 2025.
