 Gaussian 16, Revision C.01,

 ----------------------------------------------------------------------
 #t hf aug-cc-pvdz symm=none int=(grid=ultrafine) guess=(read,tcheck) s
 table=(opt,rrhf)
 ----------------------------------------------------------------------
 -----
 title
 -----
 Symbolic Z-matrix:
 Charge =  0 Multiplicity = 1

 SCF Done:  E(RHF) =  -1167.48384454     A.U. after   12 cycles

 1\1\GINC-SE250\Stability\RHF\Aug-CC-pVDZ\B2Cl2F2\OHZDE\08-Apr-2025\0\\
 #t hf aug-cc-pvdz symm=none int=(grid=ultrafine) guess=(read,tcheck) s
 table=(opt,rrhf)\\title\\0,1\B,0,0.,0.,1.352966\B,0,0.,0.,-0.34436\Cl,
 0,0.,-1.515982,-1.231857\Cl,0,0.,1.515982,-1.231857\F,0,-1.128283,0.00
 0012,2.046672\F,0,1.128283,-0.000012,2.046672\\Version=ES64L-G16RevC.0
 1\HF=-1167.4838445\RMSD=3.751e-09\Dipole=0.,0.,-0.2169435\Quadrupole=0
 .3567501,1.8553901,-2.2121402,0.0000333,0.,0.\PG=Unknown\\@
 The archive entry for this job was punched.

 Normal termination of Gaussian 16 at Tue Apr  8 23:46:14 2025.
 Gaussian 16:  ES64L-G16RevC.01  3-Jul-2019

 ----------------------------------------------------------------------
 #t hf aug-cc-pvdz iop(5/13=1,5/36=2,99/5=2) pseudo=read geom=check gue
 ss=(read,tcheck) scf=(maxcycle=1)
 ----------------------------------------------------------------------
 -----
 title
 -----
 Structure from the checkpoint file:  "BDE49_nonexpt_17_mol1.chk"
 Charge =  0 Multiplicity = 1

                         Standard orientation:
 ---------------------------------------------------------------------
 Center     Atomic      Atomic             Coordinates (Angstroms)
 Number     Number       Type             X           Y           Z
 ---------------------------------------------------------------------
      1          5           0       -0.000000   -0.000000    1.352966
      2          5           0        0.000000    0.000000   -0.344360
      3         17           0        0.000000    1.515982   -1.231857
      4         17           0       -0.000000   -1.515982   -1.231857
      5          9           0        1.128283   -0.000012    2.046672
      6          9           0       -1.128283    0.000012    2.046672
 ---------------------------------------------------------------------

 SCF Done:  E(RHF) =  -1167.61731542     A.U. after    2 cycles

 The electronic state is 1-A.
 Alpha  occ. eigenvalues -- -103.69070-103.69069 -26.15619 -26.15612 -10.72563
 Alpha  occ. eigenvalues --  -10.72530  -8.38235  -8.38230  -8.38013  -8.38011
 Alpha  occ. eigenvalues --   -8.37976  -8.37972  -7.75645  -7.74630  -1.70926
 Alpha  occ. eigenvalues --   -1.68658  -1.20213  -1.16611  -0.89669  -0.83695
 Alpha  occ. eigenvalues --   -0.81438  -0.78476  -0.73733  -0.73251  -0.71013
 Alpha  occ. eigenvalues --   -0.60449  -0.60032  -0.54497  -0.49891  -0.49017
 Alpha  occ. eigenvalues --   -0.47222
 Alpha virt. eigenvalues --    0.04320   0.04352   0.04696   0.05168   0.06522
 Alpha virt. eigenvalues --    0.07527   0.07767   0.07799   0.11079   0.12137
 Alpha virt. eigenvalues --    0.13293   0.14508   0.15915   0.18115   0.18448

 Mulliken charges:
               1
     1  B    1.176075
     2  B    0.328529
     3  Cl  -0.299796
     4  Cl  -0.299796
     5  F   -0.452506
     6  F   -0.452506
 Sum of Mulliken charges =  -0.00000

 Dipole moment (field-independent basis, Debye):
    X=             -0.0000    Y=             -0.0000    Z=             -0.6817  Tot=              0.6817

 Test job not archived.
 1\1\GINC-SE250\SP\RHF\Aug-CC-pVDZ\B2Cl2F2\OHZDE\08-Apr-2025\0\\#t hf a
 ug-cc-pvdz iop(5/13=1,5/36=2,99/5=2) pseudo=read geom=check guess=(rea
 d,tcheck) scf=(maxcycle=1)\\title\\0,1\B,0,0.,0.,1.352966\B,0,0.,0.,-0
 .34436\Cl,0,0.,-1.515982,-1.231857\Cl,0,0.,1.515982,-1.231857\F,0,-1.1
 28283,0.000012,2.046672\F,0,1.128283,-0.000012,2.046672\\Version=ES64L
 -G16RevC.01\State=1-A\HF=-1167.6173154\RMSD=5.720e-03\Dipole=0.,0.,-0.
 2681888\Quadrupole=0.334637,2.1304325,-2.4650695,0.0000369,0.,0.\PG=C0
 2 [C2(B1B1),X(Cl2F2)]\\@

 Normal termination of Gaussian 16 at Tue Apr  8 23:46:16 2025.
