 Gaussian 16, Revision C.01,

 ----------------------------------------------------------------------
 #t hf aug-cc-pvdz symm=none int=(grid=ultrafine) guess=(read,tcheck) s
 table=(opt,rrhf)
 ----------------------------------------------------------------------
 -----
 title
 -----
 Symbolic Z-matrix:
 Charge =  0 Multiplicity = 1

 SCF Done:  E(RHF) =  -613.290196933     A.U. after   16 cycles
 Normal termination of Gaussian 16 at Wed Apr  9 00:40:38 2025.
 Gaussian 16:  ES64L-G16RevC.01  3-Jul-2019

 ----------------------------------------------------------------------
 #t hf aug-cc-pvdz iop(5/13=1,5/36=2,99/5=2) pseudo=read geom=check gue
 ss=(read,tcheck) scf=(maxcycle=1)
 ----------------------------------------------------------------------
 -----
 title
 -----
 Structure from the checkpoint file:  "BDE49_nonexpt_698_mol1.chk"
 Charge =  0 Multiplicity = 1

                         Standard orientation:
 ---------------------------------------------------------------------
 Center     Atomic      Atomic             Coordinates (Angstroms)
 Number     Number       Type             X           Y           Z
 ---------------------------------------------------------------------
      1          6           0       -1.806198    1.290764   -0.076439
      2          6           0       -2.588172    0.155684    0.128401
      3          6           0       -1.948466   -1.078037    0.196176
      4          7           0       -0.625894   -1.231521    0.080459
      5          6           0        0.119131   -0.135962   -0.103881
      6          6           0       -0.430632    1.148683   -0.201348
      7          1           0       -3.664500    0.222272    0.229563
      8          1           0       -2.518935   -1.989738    0.349176
      9          1           0        0.205416    2.010633   -0.362438
     10          1           0       -2.262040    2.272568   -0.139374
     11          5           0        3.000471    0.758253    0.556431
     12         15           0        1.912710   -0.436579   -0.319686
     13          1           0        2.681346    1.899112    0.657828
     14          1           0        4.096466    0.400400    0.846293
     15          1           0        2.076515   -1.723971    0.211430
 ---------------------------------------------------------------------

 SCF Done:  E(RHF) =  -613.389131294     A.U. after    2 cycles

 The electronic state is 1-A.
 Alpha  occ. eigenvalues --  -81.24758 -15.63679 -11.30528 -11.29268 -11.27587
 Alpha  occ. eigenvalues --  -11.25804 -11.25543  -7.75630  -7.62821  -4.89814
 Alpha  occ. eigenvalues --   -4.89728  -4.89366  -1.23893  -1.08334  -1.03802
 Alpha  occ. eigenvalues --   -0.87566  -0.86502  -0.79761  -0.71533  -0.67746
 Alpha  occ. eigenvalues --   -0.66633  -0.63610  -0.59451  -0.56940  -0.55595
 Alpha  occ. eigenvalues --   -0.52573  -0.49001  -0.47653  -0.41522  -0.39821
 Alpha  occ. eigenvalues --   -0.37968  -0.30835
 Alpha virt. eigenvalues --    0.02889   0.03911   0.04049   0.04453   0.05438
 Alpha virt. eigenvalues --    0.05567   0.06820   0.07604   0.08410   0.08828
 Alpha virt. eigenvalues --    0.09098   0.09859   0.10558   0.11486   0.12016

 Mulliken charges:
               1
     1  C   -0.174517
     2  C    0.883277
     3  C    0.546453
     4  N   -0.483302
     5  C   -0.203133
     6  C    0.896124
     7  H   -0.407430
     8  H   -0.356074
     9  H   -0.523848
    10  H   -0.411074
    11  B   -0.473828
    12  P    0.000489
    13  H    0.264254
    14  H    0.314758
    15  H    0.127850
 Sum of Mulliken charges =  -0.00000

 Dipole moment (field-independent basis, Debye):
    X=             -1.7424    Y=              1.4831    Z=              0.4758  Tot=              2.3371

 Test job not archived.
 1\1\GINC-SE461\SP\RHF\Aug-CC-pVDZ\C5H7B1N1P1\OHZDE\09-Apr-2025\0\\#t h
 f aug-cc-pvdz iop(5/13=1,5/36=2,99/5=2) pseudo=read geom=check guess=(
 read,tcheck) scf=(maxcycle=1)\\title\\0,1\C,0,-1.806198,1.290764,-0.07
 6439\C,0,-2.588172,0.155684,0.128401\C,0,-1.948466,-1.078037,0.196176\
 N,0,-0.625894,-1.231521,0.080459\C,0,0.119131,-0.135962,-0.103881\C,0,
 -0.430632,1.148683,-0.201348\H,0,-3.6645,0.222272,0.229563\H,0,-2.5189
 35,-1.989738,0.349176\H,0,0.205416,2.010633,-0.362438\H,0,-2.26204,2.2
 72568,-0.139374\B,0,3.000471,0.758253,0.556431\P,0,1.91271,-0.436579,-

 Normal termination of Gaussian 16 at Wed Apr  9 00:40:43 2025.
