 Gaussian 16, Revision C.01,

 ----------------------------------------------------------------------
 #t hf aug-cc-pvdz symm=none int=(grid=ultrafine) guess=(read,tcheck) s
 table=(opt,rrhf)
 ----------------------------------------------------------------------
 -----
 title
 -----
 Symbolic Z-matrix:
 Charge =  0 Multiplicity = 1

 SCF Done:  E(RHF) =  -776.062288154     A.U. after   15 cycles
 Normal termination of Gaussian 16 at Tue Apr  8 22:56:01 2025.
 Gaussian 16:  ES64L-G16RevC.01  3-Jul-2019

 ----------------------------------------------------------------------
 #t hf aug-cc-pvdz iop(5/13=1,5/36=2,99/5=2) pseudo=read geom=check gue
 ss=(read,tcheck) scf=(maxcycle=1)
 ----------------------------------------------------------------------
 -----
 title
 -----
 Structure from the checkpoint file:  "BDE49_expt_1917_mol1.chk"
 Charge =  0 Multiplicity = 1

                         Standard orientation:
 ---------------------------------------------------------------------
 Center     Atomic      Atomic             Coordinates (Angstroms)
 Number     Number       Type             X           Y           Z
 ---------------------------------------------------------------------
      1          8           0       -0.535029   -0.048827   -0.943888
      2         16           0        0.784691   -0.211944    0.064478
      3          6           0        1.297229    1.487894    0.223671
      4          1           0        1.593844    1.847331   -0.759486
      5          1           0        2.137200    1.499676    0.917960
      6          1           0        0.455890    2.051873    0.621757
      7          8           0        1.703232   -0.942389   -0.759259
      8          8           0        0.348879   -0.693055    1.345414
      9          8           0       -1.584348    0.686165   -0.246395
     10          6           0       -2.578752   -0.260911    0.151704
     11          1           0       -3.359565    0.362227    0.593441
     12          1           0       -2.183538   -0.955687    0.893926
     13          1           0       -2.971618   -0.791364   -0.718473
 ---------------------------------------------------------------------

 SCF Done:  E(RHF) =  -776.266068187     A.U. after    2 cycles

 The electronic state is 1-A.
 Alpha  occ. eigenvalues --  -93.83291 -20.68709 -20.67965 -20.58451 -20.58237
 Alpha  occ. eigenvalues --  -11.30950 -11.30095  -9.09475  -6.44130  -6.44028
 Alpha  occ. eigenvalues --   -6.43788  -1.49297  -1.42473  -1.33817  -1.24397
 Alpha  occ. eigenvalues --   -1.05101  -0.94818  -0.85356  -0.75908  -0.72954
 Alpha  occ. eigenvalues --   -0.72364  -0.68437  -0.67547  -0.65004  -0.62508
 Alpha  occ. eigenvalues --   -0.61614  -0.57391  -0.56580  -0.54453  -0.53649
 Alpha  occ. eigenvalues --   -0.51858  -0.51390  -0.48677
 Alpha virt. eigenvalues --    0.03115   0.04116   0.05149   0.05570   0.06589
 Alpha virt. eigenvalues --    0.06926   0.08955   0.11379   0.11931   0.12498
 Alpha virt. eigenvalues --    0.14327   0.14817   0.14906   0.15780   0.16170

 Mulliken charges:
               1
     1  O   -0.702389
     2  S    2.564619
     3  C   -0.081541
     4  H    0.022990
     5  H    0.051462
     6  H    0.036085
     7  O   -0.939183
     8  O   -1.009365
     9  O   -0.439401
    10  C    0.829303
    11  H   -0.172556
    12  H   -0.079153
    13  H   -0.080870
 Sum of Mulliken charges =  -0.00000

 Dipole moment (field-independent basis, Debye):
    X=             -1.7540    Y=              3.3597    Z=              0.7600  Tot=              3.8654

 Test job not archived.
 1\1\GINC-SE044\SP\RHF\Aug-CC-pVDZ\C2H6O4S1\OHZDE\08-Apr-2025\0\\#t hf
 aug-cc-pvdz iop(5/13=1,5/36=2,99/5=2) pseudo=read geom=check guess=(re
 ad,tcheck) scf=(maxcycle=1)\\title\\0,1\O,0,-0.535029,-0.048827,-0.943
 888\S,0,0.784691,-0.211944,0.064478\C,0,1.297229,1.487894,0.223671\H,0
 ,1.593844,1.847331,-0.759486\H,0,2.1372,1.499676,0.91796\H,0,0.45589,2
 .051873,0.621757\O,0,1.703232,-0.942389,-0.759259\O,0,0.348879,-0.6930
 55,1.345414\O,0,-1.584348,0.686165,-0.246395\C,0,-2.578752,-0.260911,0
 .151704\H,0,-3.359565,0.362227,0.593441\H,0,-2.183538,-0.955687,0.8939

 Normal termination of Gaussian 16 at Tue Apr  8 22:56:05 2025.
