 Gaussian 16, Revision C.01,

 ----------------------------------------------------------------------
 #t hf aug-cc-pvdz symm=none int=(grid=ultrafine) guess=(read,tcheck) s
 table=(opt,rrhf)
 ----------------------------------------------------------------------
 -----
 title
 -----
 Symbolic Z-matrix:
 Charge =  0 Multiplicity = 1

 SCF Done:  E(RHF) =  -1574.45370105     A.U. after   13 cycles
 Normal termination of Gaussian 16 at Tue Apr  8 23:52:36 2025.
 Gaussian 16:  ES64L-G16RevC.01  3-Jul-2019

 ----------------------------------------------------------------------
 #t hf aug-cc-pvdz iop(5/13=1,5/36=2,99/5=2) pseudo=read geom=check gue
 ss=(read,tcheck) scf=(maxcycle=1)
 ----------------------------------------------------------------------
 -----
 title
 -----
 Structure from the checkpoint file:  "BDE49_nonexpt_1933_mol1.chk"
 Charge =  0 Multiplicity = 1

                         Standard orientation:
 ---------------------------------------------------------------------
 Center     Atomic      Atomic             Coordinates (Angstroms)
 Number     Number       Type             X           Y           Z
 ---------------------------------------------------------------------
      1          6           0       -1.165176    1.420280   -0.371595
      2         14           0        0.667502    1.665417    0.064985
      3         16           0        1.800026   -0.271262   -0.105199
      4          1           0        0.844085    2.138100    1.446446
      5          1           0        1.304863    2.542435   -0.932525
      6          8           0        1.116488   -1.090321   -1.109160
      7          8           0        1.634048   -0.981102    1.326738
      8          8           0        3.202277   -0.001754   -0.251846
      9         16           0       -1.879202   -0.167591    0.099637
     10          8           0       -1.105194   -0.652223    1.234429
     11          8           0       -3.298367   -0.046283    0.199674
     12          8           0       -1.575025   -1.077645   -1.162517
     13          1           0        0.679450   -1.165799    1.464962
     14          1           0       -0.600479   -1.258691   -1.211131
     15          1           0       -1.361880    1.556445   -1.435727
     16          1           0       -1.747012    2.166266    0.178208
 ---------------------------------------------------------------------

 SCF Done:  E(RHF) =  -1574.79152037     A.U. after    2 cycles

 The electronic state is 1-A.
 Alpha  occ. eigenvalues --  -93.86152 -93.83665 -69.16092 -20.65529 -20.65246
 Alpha  occ. eigenvalues --  -20.60822 -20.60353 -20.59706 -20.59202 -11.32388
 Alpha  occ. eigenvalues --   -9.12190  -9.10014  -6.91202  -6.46875  -6.46810
 Alpha  occ. eigenvalues --   -6.46536  -6.44663  -6.44578  -6.44257  -4.02023
 Alpha  occ. eigenvalues --   -4.01922  -4.01892  -1.50423  -1.48653  -1.38104
 Alpha  occ. eigenvalues --   -1.36951  -1.35677  -1.34601  -1.07063  -0.92783
 Alpha  occ. eigenvalues --   -0.90557  -0.82904  -0.79951  -0.76532  -0.74806
 Alpha  occ. eigenvalues --   -0.72878  -0.71465  -0.70158  -0.67340  -0.67226
 Alpha  occ. eigenvalues --   -0.64842  -0.60793  -0.60533  -0.59558  -0.57561
 Alpha  occ. eigenvalues --   -0.57220  -0.55812  -0.54917  -0.54515  -0.53534
 Alpha  occ. eigenvalues --   -0.52954  -0.51031  -0.47660
 Alpha virt. eigenvalues --    0.01606   0.03715   0.04212   0.04657   0.05923
 Alpha virt. eigenvalues --    0.06605   0.06951   0.07252   0.08448   0.09543
 Alpha virt. eigenvalues --    0.10498   0.11449   0.11772   0.12445   0.12576

 Mulliken charges:
               1
     1  C   -0.381622
     2  Si   0.334637
     3  S    2.325691
     4  H    0.208641
     5  H    0.139831
     6  O   -1.139146
     7  O   -0.774080
     8  O   -0.972209
     9  S    2.626659
    10  O   -1.113448
    11  O   -0.921328
    12  O   -0.782700
    13  H    0.234784
    14  H    0.257730
    15  H    0.009934
    16  H   -0.053374
 Sum of Mulliken charges =   0.00000

 Dipole moment (field-independent basis, Debye):
    X=             -0.7962    Y=              5.4483    Z=             -0.3817  Tot=              5.5194

 Test job not archived.
 1\1\GINC-SE457\SP\RHF\Aug-CC-pVDZ\C1H6O6S2Si1\OHZDE\08-Apr-2025\0\\#t
 hf aug-cc-pvdz iop(5/13=1,5/36=2,99/5=2) pseudo=read geom=check guess=
 (read,tcheck) scf=(maxcycle=1)\\title\\0,1\C,0,-1.165176,1.42028,-0.37
 1595\Si,0,0.667502,1.665417,0.064985\S,0,1.800026,-0.271262,-0.105199\
 H,0,0.844085,2.1381,1.446446\H,0,1.304863,2.542435,-0.932525\O,0,1.116
 488,-1.090321,-1.10916\O,0,1.634048,-0.981102,1.326738\O,0,3.202277,-0
 .001754,-0.251846\S,0,-1.879202,-0.167591,0.099637\O,0,-1.105194,-0.65
 2223,1.234429\O,0,-3.298367,-0.046283,0.199674\O,0,-1.575025,-1.077645

 Normal termination of Gaussian 16 at Tue Apr  8 23:52:45 2025.
