 Gaussian 16, Revision C.01,

 ----------------------------------------------------------------------
 #t hf aug-cc-pvdz symm=none int=(grid=ultrafine) guess=(read,tcheck) s
 table=(opt,rrhf)
 ----------------------------------------------------------------------
 -----
 title
 -----
 Symbolic Z-matrix:
 Charge =  0 Multiplicity = 1

 SCF Done:  E(RHF) =  -522.321466077     A.U. after   12 cycles
 Normal termination of Gaussian 16 at Wed Apr  9 00:04:55 2025.
 Gaussian 16:  ES64L-G16RevC.01  3-Jul-2019

 ----------------------------------------------------------------------
 #t hf aug-cc-pvdz iop(5/13=1,5/36=2,99/5=2) pseudo=read geom=check gue
 ss=(read,tcheck) scf=(maxcycle=1)
 ----------------------------------------------------------------------
 -----
 title
 -----
 Structure from the checkpoint file:  "BDE49_nonexpt_2243_mol1.chk"
 Charge =  0 Multiplicity = 1

                         Standard orientation:
 ---------------------------------------------------------------------
 Center     Atomic      Atomic             Coordinates (Angstroms)
 Number     Number       Type             X           Y           Z
 ---------------------------------------------------------------------
      1         14           0        1.627030   -0.452937    0.205955
      2          8           0        0.060943   -0.077028   -0.162258
      3          6           0       -1.062797   -0.937270    0.030282
      4          6           0       -2.328365   -0.236053   -0.446173
      5          1           0       -0.917078   -1.870226   -0.529966
      6          6           0        2.677840    1.019748   -0.244567
      7          1           0        2.592782    1.248752   -1.309880
      8          1           0        3.730315    0.818653   -0.022270
      9          1           0        2.373937    1.904409    0.320793
     10          6           0       -2.645041    1.042188    0.332888
     11          1           0       -3.158971   -0.946949   -0.362299
     12          1           0       -2.213771   -0.006943   -1.510920
     13          1           0       -2.806150    0.827937    1.394436
     14          1           0       -3.547977    1.524215   -0.050682
     15          1           0       -1.820197    1.752838    0.255145
     16          1           0       -1.153319   -1.196565    1.094854
     17          1           0        2.052466   -1.659739   -0.552901
     18          1           0        1.752174   -0.770720    1.653812
 ---------------------------------------------------------------------

 SCF Done:  E(RHF) =  -522.431827009     A.U. after    2 cycles

 The electronic state is 1-A.
 Alpha  occ. eigenvalues --  -69.08046 -20.55445 -11.29028 -11.23003 -11.21928
 Alpha  occ. eigenvalues --  -11.21469  -6.82877  -3.93789  -3.93652  -3.93625
 Alpha  occ. eigenvalues --   -1.30041  -1.04055  -0.94215  -0.91591  -0.80290
 Alpha  occ. eigenvalues --   -0.71750  -0.65466  -0.61940  -0.60577  -0.58266
 Alpha  occ. eigenvalues --   -0.56279  -0.54825  -0.53678  -0.51441  -0.48735
 Alpha  occ. eigenvalues --   -0.47171  -0.46460  -0.44631  -0.43552
 Alpha virt. eigenvalues --    0.03408   0.04358   0.04676   0.04942   0.05843
 Alpha virt. eigenvalues --    0.06180   0.06689   0.07090   0.07349   0.08503
 Alpha virt. eigenvalues --    0.08958   0.09419   0.10206   0.11160   0.11774

 Mulliken charges:
               1
     1  Si   0.956310
     2  O   -0.929788
     3  C    0.740215
     4  C    0.070461
     5  H   -0.204895
     6  C    0.221384
     7  H   -0.171292
     8  H   -0.267736
     9  H   -0.172331
    10  C    0.376624
    11  H   -0.047296
    12  H   -0.087717
    13  H   -0.082946
    14  H   -0.096842
    15  H   -0.055690
    16  H   -0.238377
    17  H    0.003480
    18  H   -0.013563
 Sum of Mulliken charges =  -0.00000

 Dipole moment (field-independent basis, Debye):
    X=             -0.2613    Y=             -0.4268    Z=              0.0938  Tot=              0.5092

 Test job not archived.
 1\1\GINC-SE340\SP\RHF\Aug-CC-pVDZ\C4H12O1Si1\OHZDE\09-Apr-2025\0\\#t h
 f aug-cc-pvdz iop(5/13=1,5/36=2,99/5=2) pseudo=read geom=check guess=(
 read,tcheck) scf=(maxcycle=1)\\title\\0,1\Si,0,1.62703,-0.452937,0.205
 955\O,0,0.060943,-0.077028,-0.162258\C,0,-1.062797,-0.93727,0.030282\C
 ,0,-2.328365,-0.236053,-0.446173\H,0,-0.917078,-1.870226,-0.529966\C,0
 ,2.67784,1.019748,-0.244567\H,0,2.592782,1.248752,-1.30988\H,0,3.73031
 5,0.818653,-0.02227\H,0,2.373937,1.904409,0.320793\C,0,-2.645041,1.042
 188,0.332888\H,0,-3.158971,-0.946949,-0.362299\H,0,-2.213771,-0.006943

 Normal termination of Gaussian 16 at Wed Apr  9 00:05:00 2025.
