 Gaussian 16, Revision C.01,

 ----------------------------------------------------------------------
 #t hf aug-cc-pvdz symm=none int=(grid=ultrafine) guess=(read,tcheck) s
 table=(opt,rrhf)
 ----------------------------------------------------------------------
 -----
 title
 -----
 Symbolic Z-matrix:
 Charge =  0 Multiplicity = 1

 SCF Done:  E(RHF) =  -587.381391119     A.U. after   12 cycles
 Normal termination of Gaussian 16 at Tue Apr  8 23:11:46 2025.
 Gaussian 16:  ES64L-G16RevC.01  3-Jul-2019

 ----------------------------------------------------------------------
 #t hf aug-cc-pvdz iop(5/13=1,5/36=2,99/5=2) pseudo=read geom=check gue
 ss=(read,tcheck) scf=(maxcycle=1)
 ----------------------------------------------------------------------
 -----
 title
 -----
 Structure from the checkpoint file:  "BDE49_expt_840_mol1.chk"
 Charge =  0 Multiplicity = 1

                         Standard orientation:
 ---------------------------------------------------------------------
 Center     Atomic      Atomic             Coordinates (Angstroms)
 Number     Number       Type             X           Y           Z
 ---------------------------------------------------------------------
      1          6           0        1.570500   -0.000000   -0.109085
      2         16           0       -0.191276    0.000000    0.203807
      3          1           0        2.003400    0.902637    0.321921
      4          1           0        1.693048   -0.000000   -1.193103
      5          1           0        2.003400   -0.902638    0.321922
      6          8           0       -0.741662   -1.263928   -0.226595
      7          8           0       -0.741661    1.263928   -0.226595
      8          1           0       -0.195848    0.000000    1.568371
 ---------------------------------------------------------------------

 SCF Done:  E(RHF) =  -587.517769707     A.U. after    2 cycles

 The electronic state is 1-A.
 Alpha  occ. eigenvalues --  -93.79629 -20.57007 -20.57006 -11.30028  -9.06366
 Alpha  occ. eigenvalues --   -6.41027  -6.40803  -6.40701  -1.43244  -1.31996
 Alpha  occ. eigenvalues --   -1.05363  -0.88087  -0.73554  -0.68804  -0.67721
 Alpha  occ. eigenvalues --   -0.62285  -0.61651  -0.53575  -0.52970  -0.50681
 Alpha  occ. eigenvalues --   -0.47374
 Alpha virt. eigenvalues --    0.02634   0.04008   0.05030   0.06067   0.09976
 Alpha virt. eigenvalues --    0.10658   0.11142   0.12988   0.14138   0.14974
 Alpha virt. eigenvalues --    0.15940   0.17877   0.21187   0.21244   0.22617

 Mulliken charges:
               1
     1  C   -0.121854
     2  S    1.822016
     3  H   -0.001049
     4  H    0.026940
     5  H   -0.001050
     6  O   -0.921719
     7  O   -0.921719
     8  H    0.118436
 Sum of Mulliken charges =  -0.00000

 Dipole moment (field-independent basis, Debye):
    X=              4.3855    Y=             -0.0000    Z=              2.2832  Tot=              4.9443

 Test job not archived.
 1\1\GINC-SE329\SP\RHF\Aug-CC-pVDZ\C1H4O2S1\OHZDE\08-Apr-2025\0\\#t hf
 aug-cc-pvdz iop(5/13=1,5/36=2,99/5=2) pseudo=read geom=check guess=(re
 ad,tcheck) scf=(maxcycle=1)\\title\\0,1\C,0,-1.5705,0.,-0.109085\S,0,0
 .191276,0.,0.203807\H,0,-2.0034,-0.902638,0.321921\H,0,-1.693048,0.,-1
 .193103\H,0,-2.0034,0.902637,0.321922\O,0,0.741662,1.263928,-0.226595\
 O,0,0.741662,-1.263928,-0.226595\H,0,0.195848,0.,1.568371\\Version=ES6
 4L-G16RevC.01\State=1-A\HF=-587.5177697\RMSD=6.234e-03\Dipole=-1.72540
 33,-0.0000001,0.8982786\Quadrupole=1.8128412,-4.78069,2.9678488,0.0000

 Normal termination of Gaussian 16 at Tue Apr  8 23:11:49 2025.
