 Gaussian 16, Revision C.01,

 ----------------------------------------------------------------------
 #t hf aug-cc-pvdz symm=none int=(grid=ultrafine) guess=(read,tcheck) s
 table=(opt,rrhf)
 ----------------------------------------------------------------------
 -----
 title
 -----
 Symbolic Z-matrix:
 Charge =  0 Multiplicity = 1

 SCF Done:  E(RHF) =  -844.974784097     A.U. after   12 cycles
 Normal termination of Gaussian 16 at Wed Apr  9 00:14:08 2025.
 Gaussian 16:  ES64L-G16RevC.01  3-Jul-2019

 ----------------------------------------------------------------------
 #t hf aug-cc-pvdz iop(5/13=1,5/36=2,99/5=2) pseudo=read geom=check gue
 ss=(read,tcheck) scf=(maxcycle=1)
 ----------------------------------------------------------------------
 -----
 title
 -----
 Structure from the checkpoint file:  "BDE49_nonexpt_2500_mol1.chk"
 Charge =  0 Multiplicity = 1

                         Standard orientation:
 ---------------------------------------------------------------------
 Center     Atomic      Atomic             Coordinates (Angstroms)
 Number     Number       Type             X           Y           Z
 ---------------------------------------------------------------------
      1          6           0       -0.994737    0.545829   -0.842306
      2          6           0       -1.976572    0.912627    0.273402
      3          6           0       -3.094833   -0.109773    0.485611
      4          1           0       -2.415574    1.884893    0.014980
      5          1           0       -1.427103    1.062464    1.208046
      6          1           0       -2.689763   -1.084690    0.765561
      7          1           0       -3.686613   -0.240842   -0.426043
      8         16           0       -0.000323   -0.992903   -0.535088
      9          1           0       -0.308540    1.369221   -1.047385
     10          1           0       -1.530940    0.339362   -1.771899
     11         14           0        1.640434   -0.254516    0.655957
     12          6           0        2.783457    0.904542   -0.279063
     13          1           0        3.204041    0.410440   -1.158013
     14          1           0        3.608086    1.218368    0.369131
     15          1           0        2.261120    1.805644   -0.611265
     16          1           0       -3.773262    0.213923    1.279013
     17          1           0        2.357635   -1.484526    1.061152
     18          1           0        1.136111    0.436067    1.868867
 ---------------------------------------------------------------------

 SCF Done:  E(RHF) =  -845.068942573     A.U. after    2 cycles

 The electronic state is 1-A.
 Alpha  occ. eigenvalues --  -93.51154 -69.08123 -11.27356 -11.23999 -11.22398
 Alpha  occ. eigenvalues --  -11.22362  -8.81062  -6.83137  -6.15190  -6.14992
 Alpha  occ. eigenvalues --   -6.14751  -3.93954  -3.93889  -3.93854  -1.06938
 Alpha  occ. eigenvalues --   -0.97212  -0.94468  -0.87422  -0.79183  -0.66619
 Alpha  occ. eigenvalues --   -0.63054  -0.61876  -0.57504  -0.57071  -0.56139
 Alpha  occ. eigenvalues --   -0.51914  -0.50231  -0.49549  -0.47919  -0.46819
 Alpha  occ. eigenvalues --   -0.44771  -0.40321  -0.34656
 Alpha virt. eigenvalues --    0.03211   0.04253   0.04537   0.04834   0.05980
 Alpha virt. eigenvalues --    0.06081   0.06543   0.07352   0.07812   0.08344
 Alpha virt. eigenvalues --    0.08765   0.09023   0.10489   0.11101   0.11690

 Mulliken charges:
               1
     1  C    0.164994
     2  C    0.118086
     3  C    0.283475
     4  H   -0.055415
     5  H   -0.146595
     6  H   -0.065116
     7  H   -0.076106
     8  S   -0.199475
     9  H   -0.273617
    10  H   -0.054340
    11  Si   0.808772
    12  C    0.243009
    13  H   -0.165494
    14  H   -0.240780
    15  H   -0.230931
    16  H   -0.079263
    17  H   -0.056106
    18  H    0.024902
 Sum of Mulliken charges =  -0.00000

 Dipole moment (field-independent basis, Debye):
    X=              0.0422    Y=              2.0541    Z=             -0.0338  Tot=              2.0548

 Test job not archived.
 1\1\GINC-SE457\SP\RHF\Aug-CC-pVDZ\C4H12S1Si1\OHZDE\09-Apr-2025\0\\#t h
 f aug-cc-pvdz iop(5/13=1,5/36=2,99/5=2) pseudo=read geom=check guess=(
 read,tcheck) scf=(maxcycle=1)\\title\\0,1\C,0,0.994737,0.545829,0.8423
 06\C,0,1.976572,0.912627,-0.273402\C,0,3.094833,-0.109773,-0.485611\H,
 0,2.415574,1.884893,-0.01498\H,0,1.427103,1.062464,-1.208046\H,0,2.689
 763,-1.08469,-0.765561\H,0,3.686613,-0.240842,0.426043\S,0,0.000323,-0
 .992903,0.535088\H,0,0.30854,1.369221,1.047385\H,0,1.53094,0.339362,1.
 771899\Si,0,-1.640434,-0.254516,-0.655957\C,0,-2.783457,0.904542,0.279

 Normal termination of Gaussian 16 at Wed Apr  9 00:14:14 2025.
