 Gaussian 16, Revision C.01,

 ----------------------------------------------------------------------
 #t hf aug-cc-pvdz symm=none int=(grid=ultrafine) guess=(read,tcheck) s
 table=opt
 ----------------------------------------------------------------------
 -----
 title
 -----
 Symbolic Z-matrix:
 Charge =  0 Multiplicity = 2

 SCF Done:  E(UHF) =  -1888.71232762     A.U. after   19 cycles
 Normal termination of Gaussian 16 at Tue Apr  8 23:13:55 2025.
 Gaussian 16:  ES64L-G16RevC.01  3-Jul-2019

 ----------------------------------------------------------------------
 #t hf aug-cc-pvdz iop(5/13=1,5/36=2,99/5=2) pseudo=read geom=check gue
 ss=(read,tcheck) scf=(maxcycle=1)
 ----------------------------------------------------------------------
 -----
 title
 -----
 Structure from the checkpoint file:  "BDE49_nonexpt_1013_mol2.chk"
 Charge =  0 Multiplicity = 2

                         Standard orientation:
 ---------------------------------------------------------------------
 Center     Atomic      Atomic             Coordinates (Angstroms)
 Number     Number       Type             X           Y           Z
 ---------------------------------------------------------------------
      1         16           0        2.297810    0.000000   -0.464936
      2          8           0        0.714396    0.000000   -0.986474
      3          6           0       -0.331414    0.000000   -0.056555
      4         17           0       -1.814241    0.000000   -1.040310
      5         17           0       -0.283810    1.465191    0.981040
      6         17           0       -0.283810   -1.465191    0.981041
 ---------------------------------------------------------------------

 SCF Done:  E(UHF) =  -1888.82474518     A.U. after    2 cycles

 The electronic state is 2-A.
 Alpha  occ. eigenvalues -- -103.69954-103.69929-103.69928 -93.63828 -20.68194
 Alpha  occ. eigenvalues --  -11.51604 -10.73291 -10.73269 -10.73243  -8.92910
 Alpha  occ. eigenvalues --   -8.39007  -8.38988  -8.38980  -8.38653  -8.38653
 Alpha  occ. eigenvalues --   -8.38631  -8.38631  -8.38625  -8.38622  -6.28117
 Alpha  occ. eigenvalues --   -6.26700  -6.25979  -1.44294  -1.25037  -1.17195
 Alpha  occ. eigenvalues --   -1.16999  -1.00510  -0.84678  -0.72978  -0.72116
 Alpha  occ. eigenvalues --   -0.70034  -0.60527  -0.59346  -0.52414  -0.51717
 Alpha  occ. eigenvalues --   -0.51691  -0.48692  -0.48631  -0.47392  -0.45735
 Alpha  occ. eigenvalues --   -0.41428
 Alpha virt. eigenvalues --    0.05152   0.05781   0.08147   0.08353   0.08723
 Alpha virt. eigenvalues --    0.10501   0.12019   0.12213   0.13377   0.13383
 Alpha virt. eigenvalues --    0.14832   0.16476   0.17308   0.17589   0.18710

  Beta  occ. eigenvalues -- -103.69958-103.69922-103.69921 -93.62933 -20.67695
  Beta  occ. eigenvalues --  -11.51646 -10.73293 -10.73262 -10.73238  -8.91914
  Beta  occ. eigenvalues --   -8.39016  -8.38958  -8.38951  -8.38658  -8.38654
  Beta  occ. eigenvalues --   -8.38628  -8.38627  -8.38620  -8.38618  -6.26283
  Beta  occ. eigenvalues --   -6.25442  -6.24092  -1.43017  -1.24743  -1.17174
  Beta  occ. eigenvalues --   -1.16932  -0.95813  -0.82006  -0.71684  -0.70300
  Beta  occ. eigenvalues --   -0.67682  -0.58672  -0.57529  -0.52353  -0.51527
  Beta  occ. eigenvalues --   -0.51219  -0.48628  -0.48482  -0.47317  -0.39356
  Beta virt. eigenvalues --   -0.00727   0.05509   0.06141   0.08321   0.08426
  Beta virt. eigenvalues --    0.08814   0.10647   0.12717   0.13106   0.13426
  Beta virt. eigenvalues --    0.14386   0.15039   0.16733   0.17522   0.17758

 Mulliken charges and spin densities:
               1          2
     1  S    0.507677   0.980943
     2  O   -0.645048   0.016224
     3  C   -0.272690  -0.001060
     4  Cl   0.155351  -0.002240
     5  Cl   0.127355   0.003067
     6  Cl   0.127355   0.003067
 Sum of Mulliken charges =  -0.00000   1.00000

 Dipole moment (field-independent basis, Debye):
    X=              1.0295    Y=              0.0000    Z=              0.4320  Tot=              1.1165
                          Isotropic Fermi Contact Couplings
        Atom                 a.u.       MegaHertz       Gauss      10(-4) cm-1
     1  S(33)              0.21151      72.64792      25.92259      24.23274
     2  O(17)              0.05433     -32.93440     -11.75181     -10.98573
     3  C(13)             -0.00787      -8.84232      -3.15516      -2.94948
     4  Cl(35)            -0.00158      -0.69274      -0.24719      -0.23107
     5  Cl(35)            -0.00356      -1.55933      -0.55641      -0.52014
     6  Cl(35)            -0.00356      -1.55933      -0.55641      -0.52014
 --------------------------------------------------------
       Center         ----  Spin Dipole Couplings  ----

 Normal termination of Gaussian 16 at Tue Apr  8 23:13:57 2025.
