 Gaussian 16, Revision C.01,

 ----------------------------------------------------------------------
 #t hf aug-cc-pvdz symm=none int=(grid=ultrafine) guess=(read,tcheck) s
 table=(opt,rrhf)
 ----------------------------------------------------------------------
 -----
 title
 -----
 Symbolic Z-matrix:
 Charge =  0 Multiplicity = 1

 SCF Done:  E(RHF) =  -179.433804690     A.U. after   12 cycles
 Normal termination of Gaussian 16 at Wed Apr  9 00:27:00 2025.
 Gaussian 16:  ES64L-G16RevC.01  3-Jul-2019

 ----------------------------------------------------------------------
 #t hf aug-cc-pvdz iop(5/13=1,5/36=2,99/5=2) pseudo=read geom=check gue
 ss=(read,tcheck) scf=(maxcycle=1)
 ----------------------------------------------------------------------
 -----
 title
 -----
 Structure from the checkpoint file:  "BDE49_nonexpt_327_mol1.chk"
 Charge =  0 Multiplicity = 1

                         Standard orientation:
 ---------------------------------------------------------------------
 Center     Atomic      Atomic             Coordinates (Angstroms)
 Number     Number       Type             X           Y           Z
 ---------------------------------------------------------------------
      1          6           0       -0.683513    0.733652    0.000005
      2          5           0        0.878344    0.609910    0.000011
      3          8           0        1.454672   -0.620716   -0.000006
      4          6           0       -1.487627   -0.574161   -0.000003
      5          1           0       -0.961932    1.357127   -0.863235
      6          1           0       -0.961936    1.357119    0.863248
      7          1           0       -1.254620   -1.181957   -0.878158
      8          1           0       -2.565198   -0.386940   -0.000004
      9          1           0       -1.254623   -1.181965    0.878149
     10          1           0        2.415590   -0.589717   -0.000015
     11          1           0        1.580463    1.585567   -0.000003
 ---------------------------------------------------------------------

 SCF Done:  E(RHF) =  -179.496387337     A.U. after    2 cycles

 The electronic state is 1-A.
 Alpha  occ. eigenvalues --  -20.58681 -11.21587 -11.20409  -7.62684  -1.32890
 Alpha  occ. eigenvalues --   -1.00432  -0.84347  -0.76358  -0.65190  -0.59740
 Alpha  occ. eigenvalues --   -0.58097  -0.54990  -0.54226  -0.48536  -0.48067
 Alpha  occ. eigenvalues --   -0.43746
 Alpha virt. eigenvalues --    0.03056   0.04669   0.04981   0.05191   0.06749
 Alpha virt. eigenvalues --    0.07174   0.07404   0.08455   0.08941   0.11315
 Alpha virt. eigenvalues --    0.11985   0.14846   0.14881   0.16058   0.17047

 Mulliken charges:
               1
     1  C    0.249612
     2  B    0.271373
     3  O   -0.498037
     4  C    0.214248
     5  H   -0.156509
     6  H   -0.156509
     7  H   -0.099739
     8  H   -0.076702
     9  H   -0.099736
    10  H    0.192320
    11  H    0.159677
 Sum of Mulliken charges =  -0.00000

 Dipole moment (field-independent basis, Debye):
    X=              1.1031    Y=              0.6171    Z=              0.0000  Tot=              1.2639

 Test job not archived.
 1\1\GINC-SE102\SP\RHF\Aug-CC-pVDZ\C2H7B1O1\OHZDE\09-Apr-2025\0\\#t hf
 aug-cc-pvdz iop(5/13=1,5/36=2,99/5=2) pseudo=read geom=check guess=(re
 ad,tcheck) scf=(maxcycle=1)\\title\\0,1\C,0,-0.683513,0.733652,0.00000
 5\B,0,0.878344,0.60991,0.000011\O,0,1.454672,-0.620716,-0.000006\C,0,-
 1.487627,-0.574161,-0.000003\H,0,-0.961932,1.357127,-0.863235\H,0,-0.9
 61936,1.357119,0.863248\H,0,-1.25462,-1.181957,-0.878158\H,0,-2.565198
 ,-0.38694,-0.000004\H,0,-1.254623,-1.181965,0.878149\H,0,2.41559,-0.58
 9717,-0.000015\H,0,1.580463,1.585567,-0.000003\\Version=ES64L-G16RevC.

 Normal termination of Gaussian 16 at Wed Apr  9 00:27:03 2025.
