 Gaussian 16, Revision C.01,

 ----------------------------------------------------------------------
 #t hf aug-cc-pvdz symm=none int=(grid=ultrafine) guess=(read,tcheck) s
 table=(opt,rrhf)
 ----------------------------------------------------------------------
 -----
 title
 -----
 Symbolic Z-matrix:
 Charge =  0 Multiplicity = 1

 SCF Done:  E(RHF) =  -842.604265144     A.U. after   15 cycles
 Normal termination of Gaussian 16 at Tue Apr  8 23:11:24 2025.
 Gaussian 16:  ES64L-G16RevC.01  3-Jul-2019

 ----------------------------------------------------------------------
 #t hf aug-cc-pvdz iop(5/13=1,5/36=2,99/5=2) pseudo=read geom=check gue
 ss=(read,tcheck) scf=(maxcycle=1)
 ----------------------------------------------------------------------
 -----
 title
 -----
 Structure from the checkpoint file:  "BDE49_expt_774_mol1.chk"
 Charge =  0 Multiplicity = 1

                         Standard orientation:
 ---------------------------------------------------------------------
 Center     Atomic      Atomic             Coordinates (Angstroms)
 Number     Number       Type             X           Y           Z
 ---------------------------------------------------------------------
      1          6           0       -1.417879    0.014044    0.000010
      2          6           0       -0.742668   -1.214441    0.000004
      3          6           0        0.653711   -1.208579   -0.000005
      4          6           0        1.342296   -0.004460   -0.000009
      5          6           0        0.664808    1.209275   -0.000004
      6          6           0       -0.728437    1.235643    0.000005
      7          8           0       -2.786663    0.089507    0.000019
      8          1           0       -3.161181   -0.796586    0.000031
      9          6           0       -1.497039    2.530726    0.000012
     10          1           0        1.221733    2.137993   -0.000008
     11          1           0       -0.819893    3.386158    0.000002
     12          1           0       -2.146784    2.601977    0.877022
     13          1           0       -2.146805    2.601973   -0.876984
     14          6           0       -1.516098   -2.510873    0.000008
     15          1           0       -2.156330   -2.604758    0.885800
     16          1           0       -0.841070   -3.367069   -0.000004
     17          1           0       -2.156352   -2.604750   -0.885768
     18          1           0        1.199061   -2.144087   -0.000009
     19         17           0        3.102868   -0.013819   -0.000021
 ---------------------------------------------------------------------

 SCF Done:  E(RHF) =  -842.737917758     A.U. after    2 cycles

 The electronic state is 1-A.
 Alpha  occ. eigenvalues -- -103.65949 -20.61112 -11.31404 -11.30234 -11.26342
 Alpha  occ. eigenvalues --  -11.25792 -11.25734 -11.25645 -11.25397 -11.23618
 Alpha  occ. eigenvalues --  -10.69202  -8.34939  -8.34641  -8.34619  -1.37400
 Alpha  occ. eigenvalues --   -1.19105  -1.13212  -1.06912  -1.00946  -0.95387
 Alpha  occ. eigenvalues --   -0.94011  -0.83093  -0.80765  -0.75156  -0.70034
 Alpha  occ. eigenvalues --   -0.64023  -0.63018  -0.61328  -0.59822  -0.58616
 Alpha  occ. eigenvalues --   -0.57959  -0.57588  -0.56362  -0.54752  -0.53055
 Alpha  occ. eigenvalues --   -0.51621  -0.50370  -0.46112  -0.45421  -0.34321
 Alpha  occ. eigenvalues --   -0.31648
 Alpha virt. eigenvalues --    0.02854   0.03874   0.04533   0.05053   0.05610
 Alpha virt. eigenvalues --    0.05984   0.06740   0.07732   0.08258   0.09328
 Alpha virt. eigenvalues --    0.10382   0.10639   0.11888   0.12283   0.12895

 Mulliken charges:
               1
     1  C    0.085217
     2  C    0.427123
     3  C    0.956662
     4  C   -1.239210
     5  C    1.080262
     6  C   -0.419144
     7  O   -0.647446
     8  H    0.136106
     9  C    0.581836
    10  H   -0.519275
    11  H   -0.184666
    12  H    0.121417
    13  H    0.121419
    14  C    0.290957
    15  H    0.174857
    16  H   -0.236803
    17  H    0.174855
    18  H   -0.511505
    19  Cl  -0.392661
 Sum of Mulliken charges =  -0.00000

 Dipole moment (field-independent basis, Debye):
    X=             -2.4306    Y=             -1.4962    Z=              0.0000  Tot=              2.8542

 Test job not archived.
 1\1\GINC-SE120\SP\RHF\Aug-CC-pVDZ\C8H9Cl1O1\OHZDE\08-Apr-2025\0\\#t hf
  aug-cc-pvdz iop(5/13=1,5/36=2,99/5=2) pseudo=read geom=check guess=(r
 ead,tcheck) scf=(maxcycle=1)\\title\\0,1\C,0,-1.417879,0.014044,0.0000
 1\C,0,-0.742668,-1.214441,0.000004\C,0,0.653711,-1.208579,-0.000005\C,
 0,1.342296,-0.00446,-0.000009\C,0,0.664808,1.209275,-0.000004\C,0,-0.7
 28437,1.235643,0.000005\O,0,-2.786663,0.089506,0.000019\H,0,-3.161181,
 -0.796587,0.000031\C,0,-1.497039,2.530726,0.000012\H,0,1.221733,2.1379
 93,-0.000008\H,0,-0.819894,3.386158,0.000002\H,0,-2.146784,2.601977,0.

 Normal termination of Gaussian 16 at Tue Apr  8 23:11:36 2025.
