 Gaussian 16, Revision C.01,

 ----------------------------------------------------------------------
 #t hf aug-cc-pvdz symm=none int=(grid=ultrafine) guess=(read,tcheck) s
 table=(opt,rrhf)
 ----------------------------------------------------------------------
 -----
 title
 -----
 Symbolic Z-matrix:
 Charge =  0 Multiplicity = 1

 SCF Done:  E(RHF) =  -825.008571716     A.U. after   13 cycles
 Normal termination of Gaussian 16 at Tue Apr  8 23:14:47 2025.
 Gaussian 16:  ES64L-G16RevC.01  3-Jul-2019

 ----------------------------------------------------------------------
 #t hf aug-cc-pvdz iop(5/13=1,5/36=2,99/5=2) pseudo=read geom=check gue
 ss=(read,tcheck) scf=(maxcycle=1)
 ----------------------------------------------------------------------
 -----
 title
 -----
 Structure from the checkpoint file:  "BDE49_nonexpt_1027_mol1.chk"
 Charge =  0 Multiplicity = 1

                         Standard orientation:
 ---------------------------------------------------------------------
 Center     Atomic      Atomic             Coordinates (Angstroms)
 Number     Number       Type             X           Y           Z
 ---------------------------------------------------------------------
      1         17           0        1.465080   -0.161918    0.000003
      2          8           0        0.010055    0.767936   -0.000006
      3         14           0       -1.400252   -0.161585   -0.000001
      4          1           0       -1.471334   -1.006573    1.209009
      5          1           0       -2.440605    0.884477   -0.000010
      6          1           0       -1.471331   -1.006591   -1.208998
 ---------------------------------------------------------------------

 SCF Done:  E(RHF) =  -825.082740949     A.U. after    2 cycles

 The electronic state is 1-A.
 Alpha  occ. eigenvalues -- -103.72389 -69.11548 -20.64072 -10.75048  -8.40810
 Alpha  occ. eigenvalues --   -8.40393  -8.40368  -6.86387  -3.97299  -3.97147
 Alpha  occ. eigenvalues --   -3.97102  -1.35317  -1.10010  -0.74728  -0.63571
 Alpha  occ. eigenvalues --   -0.62951  -0.62165  -0.49910  -0.49628  -0.47745
 Alpha  occ. eigenvalues --   -0.46085
 Alpha virt. eigenvalues --    0.03823   0.04310   0.05499   0.06191   0.06611
 Alpha virt. eigenvalues --    0.08995   0.09187   0.12850   0.14832   0.15917
 Alpha virt. eigenvalues --    0.16143   0.16920   0.18840   0.19406   0.21538

 Mulliken charges:
               1
     1  Cl   0.270227
     2  O   -0.920635
     3  Si   0.856792
     4  H   -0.065496
     5  H   -0.075392
     6  H   -0.065496
 Sum of Mulliken charges =  -0.00000

 Dipole moment (field-independent basis, Debye):
    X=             -1.0672    Y=             -1.0478    Z=              0.0000  Tot=              1.4956

 Test job not archived.
 1\1\GINC-SE453\SP\RHF\Aug-CC-pVDZ\Cl1H3O1Si1\OHZDE\08-Apr-2025\0\\#t h
 f aug-cc-pvdz iop(5/13=1,5/36=2,99/5=2) pseudo=read geom=check guess=(
 read,tcheck) scf=(maxcycle=1)\\title\\0,1\Cl,0,1.46508,-0.161918,0.000
 003\O,0,0.010055,0.767936,-0.000006\Si,0,-1.400252,-0.161585,-0.000001
 \H,0,-1.471334,-1.006573,1.209009\H,0,-2.440605,0.884477,-0.00001\H,0,
 -1.471331,-1.006591,-1.208998\\Version=ES64L-G16RevC.01\State=1-A\HF=-
 825.0827409\RMSD=4.534e-03\Dipole=-0.4198828,-0.4122423,0.0000021\Quad
 rupole=1.9936743,-1.2185347,-0.7751396,-0.3715942,0.0000079,0.0000034\

 Normal termination of Gaussian 16 at Tue Apr  8 23:14:49 2025.
