 Gaussian 16, Revision C.01,

 ----------------------------------------------------------------------
 #t hf aug-cc-pvdz symm=none int=(grid=ultrafine) guess=(read,tcheck) s
 table=opt
 ----------------------------------------------------------------------
 -----
 title
 -----
 Symbolic Z-matrix:
 Charge =  0 Multiplicity = 2

 SCF Done:  E(UHF) =  -733.730293408     A.U. after   14 cycles
 Normal termination of Gaussian 16 at Tue Apr  8 23:21:50 2025.
 Gaussian 16:  ES64L-G16RevC.01  3-Jul-2019

 ----------------------------------------------------------------------
 #t hf aug-cc-pvdz iop(5/13=1,5/36=2,99/5=2) pseudo=read geom=check gue
 ss=(read,tcheck) scf=(maxcycle=1)
 ----------------------------------------------------------------------
 -----
 title
 -----
 Structure from the checkpoint file:  "BDE49_nonexpt_1216_mol3.chk"
 Charge =  0 Multiplicity = 2

                         Standard orientation:
 ---------------------------------------------------------------------
 Center     Atomic      Atomic             Coordinates (Angstroms)
 Number     Number       Type             X           Y           Z
 ---------------------------------------------------------------------
      1          6           0       -0.327960   -0.004434   -0.000007
      2         16           0        1.484992   -0.043140    0.000038
      3          9           0       -0.854070   -0.600744    1.079708
      4          9           0       -0.854126   -0.603414   -1.078226
      5          9           0       -0.713150    1.283807   -0.001546
 ---------------------------------------------------------------------

 SCF Done:  E(UHF) =  -733.872222910     A.U. after    2 cycles

 The electronic state is 2-A.
 Alpha  occ. eigenvalues --  -93.60980 -26.19036 -26.18531 -26.18520 -11.56863
 Alpha  occ. eigenvalues --   -8.90776  -6.26104  -6.24428  -6.23892  -1.78425
 Alpha  occ. eigenvalues --   -1.71576  -1.71083  -1.10038  -0.98741  -0.90418
 Alpha  occ. eigenvalues --   -0.90048  -0.83210  -0.79586  -0.79118  -0.75086
 Alpha  occ. eigenvalues --   -0.74837  -0.73688  -0.56974  -0.50254  -0.43749
 Alpha virt. eigenvalues --    0.06140   0.08738   0.09760   0.10363   0.10427
 Alpha virt. eigenvalues --    0.11826   0.12475   0.18968   0.23090   0.23332
 Alpha virt. eigenvalues --    0.24469   0.26853   0.28194   0.29539   0.29553

  Beta  occ. eigenvalues --  -93.60058 -26.18899 -26.18513 -26.18502 -11.57002
  Beta  occ. eigenvalues --   -8.89747  -6.23909  -6.23337  -6.22023  -1.78280
  Beta  occ. eigenvalues --   -1.71282  -1.71034  -1.07463  -0.95057  -0.90068
  Beta  occ. eigenvalues --   -0.90036  -0.79559  -0.78994  -0.78961  -0.74900
  Beta  occ. eigenvalues --   -0.74782  -0.73594  -0.55369  -0.41374
  Beta virt. eigenvalues --   -0.03032   0.06416   0.08774   0.10415   0.10708
  Beta virt. eigenvalues --    0.10973   0.12543   0.13115   0.20398   0.23427
  Beta virt. eigenvalues --    0.23614   0.25037   0.28548   0.29944   0.30041

 Mulliken charges and spin densities:
               1          2
     1  C    0.534289  -0.070556
     2  S    0.248841   1.071981
     3  F   -0.255204   0.001041
     4  F   -0.255218   0.001042
     5  F   -0.272709  -0.003508
 Sum of Mulliken charges =  -0.00000   1.00000

 Dipole moment (field-independent basis, Debye):
    X=              1.5731    Y=             -0.1151    Z=              0.0001  Tot=              1.5773
                          Isotropic Fermi Contact Couplings
        Atom                 a.u.       MegaHertz       Gauss      10(-4) cm-1
     1  C(13)             -0.03231     -36.32319     -12.96102     -12.11611
     2  S(33)              0.20428      70.16584      25.03692      23.40480
     3  F(19)              0.00127       5.35303       1.91009       1.78558
     4  F(19)              0.00127       5.34543       1.90738       1.78304
     5  F(19)              0.02482     104.44863      37.26987      34.84031
 --------------------------------------------------------
       Center         ----  Spin Dipole Couplings  ----
                      3XX-RR        3YY-RR        3ZZ-RR

 Normal termination of Gaussian 16 at Tue Apr  8 23:21:53 2025.
