 Gaussian 16, Revision C.01,

 ----------------------------------------------------------------------
 #t hf aug-cc-pvdz symm=none int=(grid=ultrafine) guess=(read,tcheck) s
 table=(opt,rrhf)
 ----------------------------------------------------------------------
 -----
 title
 -----
 Symbolic Z-matrix:
 Charge =  0 Multiplicity = 1

 SCF Done:  E(RHF) =  -1153.01622231     A.U. after   14 cycles
 Normal termination of Gaussian 16 at Wed Apr  9 00:08:33 2025.
 Gaussian 16:  ES64L-G16RevC.01  3-Jul-2019

 ----------------------------------------------------------------------
 #t hf aug-cc-pvdz iop(5/13=1,5/36=2,99/5=2) pseudo=read geom=check gue
 ss=(read,tcheck) scf=(maxcycle=1)
 ----------------------------------------------------------------------
 -----
 title
 -----
 Structure from the checkpoint file:  "BDE49_nonexpt_2347_mol1.chk"
 Charge =  0 Multiplicity = 1

                         Standard orientation:
 ---------------------------------------------------------------------
 Center     Atomic      Atomic             Coordinates (Angstroms)
 Number     Number       Type             X           Y           Z
 ---------------------------------------------------------------------
      1         14           0        0.636165    0.856443    0.675283
      2         14           0        2.232569   -0.534054   -0.369355
      3          6           0       -1.062844    0.604060   -0.192215
      4          8           0       -1.667846    1.319357   -0.901611
      5          1           0        3.561638   -0.184720    0.185124
      6          1           0        2.225948   -0.281846   -1.827687
      7          1           0        0.959619    2.292866    0.528242
      8          1           0        0.434283    0.507846    2.096155
      9          1           0        1.931115   -1.954070   -0.093175
     10         17           0       -1.738533   -1.121927    0.187914
 ---------------------------------------------------------------------

 SCF Done:  E(RHF) =  -1153.11050381     A.U. after    2 cycles

 The electronic state is 1-A.
 Alpha  occ. eigenvalues -- -103.65723 -69.10576 -69.08653 -20.63368 -11.41756
 Alpha  occ. eigenvalues --  -10.69041  -8.34717  -8.34459  -8.34453  -6.85940
 Alpha  occ. eigenvalues --   -6.84066  -3.96748  -3.96654  -3.96618  -3.94819
 Alpha  occ. eigenvalues --   -3.94817  -3.94810  -1.43374  -1.14045  -0.84704
 Alpha  occ. eigenvalues --   -0.75715  -0.71121  -0.67663  -0.62783  -0.61676
 Alpha  occ. eigenvalues --   -0.52775  -0.50718  -0.49915  -0.47175  -0.46843
 Alpha  occ. eigenvalues --   -0.44388  -0.42085
 Alpha virt. eigenvalues --    0.03166   0.03703   0.05515   0.05855   0.06392
 Alpha virt. eigenvalues --    0.06657   0.06939   0.07190   0.08284   0.08455
 Alpha virt. eigenvalues --    0.09193   0.09776   0.10528   0.12543   0.13103

 Mulliken charges:
               1
     1  Si   0.365770
     2  Si  -0.154258
     3  C    0.120075
     4  O   -0.359521
     5  H    0.032326
     6  H    0.076021
     7  H    0.036686
     8  H    0.066429
     9  H    0.057725
    10  Cl  -0.241252
 Sum of Mulliken charges =  -0.00000

 Dipole moment (field-independent basis, Debye):
    X=              3.4409    Y=              0.4588    Z=              1.2125  Tot=              3.6770

 Test job not archived.
 1\1\GINC-SE333\SP\RHF\Aug-CC-pVDZ\C1H5Cl1O1Si2\OHZDE\09-Apr-2025\0\\#t
  hf aug-cc-pvdz iop(5/13=1,5/36=2,99/5=2) pseudo=read geom=check guess
 =(read,tcheck) scf=(maxcycle=1)\\title\\0,1\Si,0,0.636165,0.856443,0.6
 75283\Si,0,2.232569,-0.534054,-0.369355\C,0,-1.062844,0.60406,-0.19221
 5\O,0,-1.667846,1.319357,-0.901611\H,0,3.561638,-0.18472,0.185124\H,0,
 2.225948,-0.281846,-1.827687\H,0,0.959619,2.292866,0.528242\H,0,0.4342
 83,0.507846,2.096155\H,0,1.931115,-1.95407,-0.093175\Cl,0,-1.738533,-1
 .121927,0.187914\\Version=ES64L-G16RevC.01\State=1-A\HF=-1153.1105038\

 Normal termination of Gaussian 16 at Wed Apr  9 00:08:36 2025.
