 Gaussian 16, Revision C.01,

 ----------------------------------------------------------------------
 #t hf aug-cc-pvdz symm=none int=(grid=ultrafine) guess=(read,tcheck) s
 table=(opt,rrhf)
 ----------------------------------------------------------------------
 -----
 title
 -----
 Symbolic Z-matrix:
 Charge =  0 Multiplicity = 1

 SCF Done:  E(RHF) =  -741.015729217     A.U. after   16 cycles
 Normal termination of Gaussian 16 at Tue Apr  8 23:12:39 2025.
 Gaussian 16:  ES64L-G16RevC.01  3-Jul-2019

 ----------------------------------------------------------------------
 #t hf aug-cc-pvdz iop(5/13=1,5/36=2,99/5=2) pseudo=read geom=check gue
 ss=(read,tcheck) scf=(maxcycle=1)
 ----------------------------------------------------------------------
 -----
 title
 -----
 Structure from the checkpoint file:  "BDE49_expt_839_mol1.chk"
 Charge =  0 Multiplicity = 1

                         Standard orientation:
 ---------------------------------------------------------------------
 Center     Atomic      Atomic             Coordinates (Angstroms)
 Number     Number       Type             X           Y           Z
 ---------------------------------------------------------------------
      1          6           0        1.079213    1.239700   -0.000031
      2          6           0        2.439661    0.960266    0.000015
      3          6           0        2.880214   -0.363246    0.000032
      4          6           0        1.956178   -1.406674    0.000004
      5          6           0        0.592970   -1.130003   -0.000041
      6          6           0        0.145146    0.195312   -0.000061
      7          1           0        0.714949    2.259208   -0.000045
      8          1           0        3.157649    1.772228    0.000037
      9          1           0        3.942196   -0.581452    0.000068
     10          1           0        2.297049   -2.435338    0.000018
     11          1           0       -0.115338   -1.950041   -0.000062
     12          6           0       -1.298990    0.571677   -0.000113
     13         16           0       -2.480653   -0.821797    0.000056
     14          1           0       -3.537591    0.005331    0.000142
     15          8           0       -1.691853    1.709578    0.000014
 ---------------------------------------------------------------------

 SCF Done:  E(RHF) =  -741.136477966     A.U. after    2 cycles

 The electronic state is 1-A.
 Alpha  occ. eigenvalues --  -93.55860 -20.58027 -11.38975 -11.27424 -11.27267
 Alpha  occ. eigenvalues --  -11.27096 -11.26738 -11.26320 -11.26155  -8.85729
 Alpha  occ. eigenvalues --   -6.19890  -6.19687  -6.19318  -1.37977  -1.16794
 Alpha  occ. eigenvalues --   -1.05690  -1.03314  -0.99546  -0.88124  -0.84935
 Alpha  occ. eigenvalues --   -0.77894  -0.72234  -0.67308  -0.66893  -0.63814
 Alpha  occ. eigenvalues --   -0.61754  -0.61018  -0.59345  -0.54327  -0.53108
 Alpha  occ. eigenvalues --   -0.51906  -0.51663  -0.42622  -0.39465  -0.36129
 Alpha  occ. eigenvalues --   -0.35923
 Alpha virt. eigenvalues --    0.02992   0.03960   0.04302   0.05067   0.05394
 Alpha virt. eigenvalues --    0.06380   0.07286   0.09109   0.09419   0.10295
 Alpha virt. eigenvalues --    0.10979   0.12129   0.12781   0.13515   0.13585

 Mulliken charges:
               1
     1  C   -0.216926
     2  C    0.701129
     3  C    0.384236
     4  C    0.628571
     5  C    0.267938
     6  C    1.322101
     7  H   -0.602654
     8  H   -0.414738
     9  H   -0.430264
    10  H   -0.427731
    11  H   -0.504401
    12  C   -0.541034
    13  S    0.300239
    14  H    0.044062
    15  O   -0.510528
 Sum of Mulliken charges =   0.00000

 Dipole moment (field-independent basis, Debye):
    X=              2.2987    Y=             -1.9106    Z=             -0.0001  Tot=              2.9891

 Test job not archived.
 1\1\GINC-SE249\SP\RHF\Aug-CC-pVDZ\C7H6O1S1\OHZDE\08-Apr-2025\0\\#t hf
 aug-cc-pvdz iop(5/13=1,5/36=2,99/5=2) pseudo=read geom=check guess=(re
 ad,tcheck) scf=(maxcycle=1)\\title\\0,1\C,0,-1.079213,1.2397,0.000031\
 C,0,-2.439661,0.960266,-0.000015\C,0,-2.880214,-0.363246,-0.000032\C,0
 ,-1.956178,-1.406674,-0.000004\C,0,-0.59297,-1.130003,0.000041\C,0,-0.
 145146,0.195312,0.000061\H,0,-0.714949,2.259208,0.000045\H,0,-3.157649
 ,1.772228,-0.000037\H,0,-3.942196,-0.581452,-0.000068\H,0,-2.297049,-2
 .435338,-0.000018\H,0,0.115338,-1.950041,0.000062\C,0,1.29899,0.571677

 Normal termination of Gaussian 16 at Tue Apr  8 23:12:45 2025.
