 Gaussian 16, Revision C.01,

 ----------------------------------------------------------------------
 #t hf aug-cc-pvdz symm=none int=(grid=ultrafine) guess=(read,tcheck) s
 table=(opt,rrhf)
 ----------------------------------------------------------------------
 -----
 title
 -----
 Symbolic Z-matrix:
 Charge =  0 Multiplicity = 1

 SCF Done:  E(RHF) =  -507.322727006     A.U. after   15 cycles
 Normal termination of Gaussian 16 at Wed Apr  9 00:45:18 2025.
 Gaussian 16:  ES64L-G16RevC.01  3-Jul-2019

 ----------------------------------------------------------------------
 #t hf aug-cc-pvdz iop(5/13=1,5/36=2,99/5=2) pseudo=read geom=check gue
 ss=(read,tcheck) scf=(maxcycle=1)
 ----------------------------------------------------------------------
 -----
 title
 -----
 Structure from the checkpoint file:  "BDE49_nonexpt_824_mol1.chk"
 Charge =  0 Multiplicity = 1

                         Standard orientation:
 ---------------------------------------------------------------------
 Center     Atomic      Atomic             Coordinates (Angstroms)
 Number     Number       Type             X           Y           Z
 ---------------------------------------------------------------------
      1          6           0       -2.009710   -0.189210   -0.400935
      2          5           0        1.220718    0.132594    0.044375
      3          6           0        1.112916    1.668711    0.316413
      4          1           0        0.123001    2.088737    0.118208
      5          1           0        1.884173    2.266519   -0.180565
      6          1           0        1.270905    1.796167    1.401008
      7          6           0        2.539740   -0.524303   -0.486188
      8          1           0        3.439852    0.070176   -0.299162
      9          1           0        2.423510   -0.570016   -1.583100
     10          1           0        2.710154   -1.556987   -0.169524
     11          8           0       -2.233501    0.995760   -0.286020
     12         14           0       -0.435930   -1.011080    0.387476
     13          1           0       -0.742025   -1.057839    1.843945
     14          1           0       -0.366339   -2.416205   -0.096220
     15          1           0       -2.733470   -0.825672   -0.968715
 ---------------------------------------------------------------------

 SCF Done:  E(RHF) =  -507.412499565     A.U. after    2 cycles

 The electronic state is 1-A.
 Alpha  occ. eigenvalues --  -69.05652 -20.58124 -11.33207 -11.21689 -11.20686
 Alpha  occ. eigenvalues --   -7.61887  -6.81210  -3.91981  -3.91955  -3.91883
 Alpha  occ. eigenvalues --   -1.35773  -0.97048  -0.92642  -0.83969  -0.71845
 Alpha  occ. eigenvalues --   -0.66331  -0.62165  -0.58898  -0.57582  -0.56336
 Alpha  occ. eigenvalues --   -0.54866  -0.54566  -0.53380  -0.48277  -0.46576
 Alpha  occ. eigenvalues --   -0.41121  -0.38067
 Alpha virt. eigenvalues --    0.02986   0.04071   0.04427   0.05100   0.05575
 Alpha virt. eigenvalues --    0.06191   0.06518   0.06999   0.07467   0.07602
 Alpha virt. eigenvalues --    0.09195   0.09350   0.09791   0.10157   0.11069

 Mulliken charges:
               1
     1  C    0.286570
     2  B    0.412902
     3  C    0.584079
     4  H   -0.232368
     5  H   -0.322607
     6  H   -0.140457
     7  C    0.547806
     8  H   -0.320360
     9  H   -0.121503
    10  H   -0.302042
    11  O   -0.450179
    12  Si   0.092930
    13  H    0.103037
    14  H    0.105388
    15  H   -0.243195
 Sum of Mulliken charges =  -0.00000

 Dipole moment (field-independent basis, Debye):
    X=              1.9285    Y=             -2.0340    Z=             -0.3834  Tot=              2.8290

 Test job not archived.
 1\1\GINC-SE250\SP\RHF\Aug-CC-pVDZ\C3H9B1O1Si1\OHZDE\09-Apr-2025\0\\#t
 hf aug-cc-pvdz iop(5/13=1,5/36=2,99/5=2) pseudo=read geom=check guess=
 (read,tcheck) scf=(maxcycle=1)\\title\\0,1\C,0,-2.00971,-0.18921,-0.40
 0935\B,0,1.220718,0.132594,0.044375\C,0,1.112916,1.668711,0.316413\H,0
 ,0.123001,2.088737,0.118208\H,0,1.884173,2.266519,-0.180565\H,0,1.2709
 05,1.796167,1.401008\C,0,2.53974,-0.524303,-0.486188\H,0,3.439852,0.07
 0176,-0.299162\H,0,2.42351,-0.570016,-1.5831\H,0,2.710154,-1.556987,-0
 .169524\O,0,-2.233501,0.99576,-0.28602\Si,0,-0.43593,-1.01108,0.387476

 Normal termination of Gaussian 16 at Wed Apr  9 00:45:22 2025.
