 Gaussian 16, Revision C.01,

 ----------------------------------------------------------------------
 #t hf aug-cc-pvdz symm=none int=(grid=ultrafine) guess=(read,tcheck) s
 table=(opt,rrhf)
 ----------------------------------------------------------------------
 -----
 title
 -----
 Symbolic Z-matrix:
 Charge =  0 Multiplicity = 1

 SCF Done:  E(RHF) =  -611.366078149     A.U. after   15 cycles
 Normal termination of Gaussian 16 at Tue Apr  8 23:34:55 2025.
 Gaussian 16:  ES64L-G16RevC.01  3-Jul-2019

 ----------------------------------------------------------------------
 #t hf aug-cc-pvdz iop(5/13=1,5/36=2,99/5=2) pseudo=read geom=check gue
 ss=(read,tcheck) scf=(maxcycle=1)
 ----------------------------------------------------------------------
 -----
 title
 -----
 Structure from the checkpoint file:  "BDE49_nonexpt_1489_mol1.chk"
 Charge =  0 Multiplicity = 1

                         Standard orientation:
 ---------------------------------------------------------------------
 Center     Atomic      Atomic             Coordinates (Angstroms)
 Number     Number       Type             X           Y           Z
 ---------------------------------------------------------------------
      1         15           0       -2.076825   -0.371628    0.092646
      2          6           0       -0.445688    0.605736   -0.071332
      3          6           0        0.897325   -0.160229   -0.012271
      4          6           0        0.812494   -1.543228   -0.678419
      5          1           0        0.542756   -1.466581   -1.735118
      6          1           0        0.087706   -2.196524   -0.184914
      7          6           0        1.982473    0.692684   -0.689944
      8          1           0        1.784164    0.805049   -1.759369
      9          1           0        2.959397    0.215499   -0.573458
     10          6           0        1.222174   -0.326466    1.492417
     11          1           0        1.303573    0.646602    1.981942
     12          1           0        0.455661   -0.908940    2.010602
     13          8           0       -0.490465    1.810682   -0.068855
     14          1           0        2.023043    1.689859   -0.251744
     15          1           0        1.785560   -2.038245   -0.618856
     16          1           0        2.176153   -0.849473    1.605422
     17          1           0       -1.989254   -1.093928   -1.121287
     18          1           0       -2.865331    0.674664   -0.434787
 ---------------------------------------------------------------------

 SCF Done:  E(RHF) =  -611.470119195     A.U. after    2 cycles

 The electronic state is 1-A.
 Alpha  occ. eigenvalues --  -81.26812 -20.57455 -11.35111 -11.26721 -11.24163
 Alpha  occ. eigenvalues --  -11.23955 -11.22882  -7.77270  -4.91254  -4.91235
 Alpha  occ. eigenvalues --   -4.90918  -1.36607  -1.10264  -0.94643  -0.93995
 Alpha  occ. eigenvalues --   -0.88028  -0.80645  -0.70788  -0.66793  -0.63385
 Alpha  occ. eigenvalues --   -0.62051  -0.59650  -0.57091  -0.55214  -0.54604
 Alpha  occ. eigenvalues --   -0.53281  -0.52942  -0.51237  -0.48353  -0.47973
 Alpha  occ. eigenvalues --   -0.41526  -0.35891
 Alpha virt. eigenvalues --    0.03248   0.04267   0.04849   0.04930   0.06385
 Alpha virt. eigenvalues --    0.06721   0.06947   0.07257   0.07602   0.08920
 Alpha virt. eigenvalues --    0.09367   0.09775   0.10448   0.11551   0.12559

 Mulliken charges:
               1
     1  P   -0.101195
     2  C    0.137834
     3  C   -2.851452
     4  C    1.131854
     5  H   -0.048446
     6  H   -0.056270
     7  C    1.187395
     8  H   -0.037918
     9  H   -0.017431
    10  C    0.977889
    11  H   -0.028664
    12  H   -0.036055
    13  O   -0.526104
    14  H   -0.015124
    15  H   -0.019702
    16  H   -0.037208
    17  H    0.185406
    18  H    0.155191
 Sum of Mulliken charges =   0.00000

 Dipole moment (field-independent basis, Debye):
    X=              0.8542    Y=             -2.7392    Z=             -0.4169  Tot=              2.8995

 Test job not archived.
 1\1\GINC-SE159\SP\RHF\Aug-CC-pVDZ\C5H11O1P1\OHZDE\08-Apr-2025\0\\#t hf
  aug-cc-pvdz iop(5/13=1,5/36=2,99/5=2) pseudo=read geom=check guess=(r
 ead,tcheck) scf=(maxcycle=1)\\title\\0,1\P,0,-2.076825,-0.371628,0.092
 646\C,0,-0.445688,0.605736,-0.071332\C,0,0.897325,-0.160229,-0.012271\
 C,0,0.812494,-1.543228,-0.678419\H,0,0.542756,-1.466581,-1.735118\H,0,
 0.087706,-2.196524,-0.184914\C,0,1.982473,0.692684,-0.689944\H,0,1.784
 164,0.805049,-1.759369\H,0,2.959397,0.215499,-0.573458\C,0,1.222174,-0
 .326466,1.492417\H,0,1.303573,0.646602,1.981942\H,0,0.455661,-0.90894,

 Normal termination of Gaussian 16 at Tue Apr  8 23:35:04 2025.
