 Gaussian 16, Revision C.01,

 ----------------------------------------------------------------------
 #t hf aug-cc-pvdz symm=none int=(grid=ultrafine) guess=(read,tcheck) s
 table=(opt,rrhf)
 ----------------------------------------------------------------------
 -----
 title
 -----
 Symbolic Z-matrix:
 Charge =  0 Multiplicity = 1

 SCF Done:  E(RHF) =  -836.076841886     A.U. after   15 cycles
 Normal termination of Gaussian 16 at Tue Apr  8 23:41:13 2025.
 Gaussian 16:  ES64L-G16RevC.01  3-Jul-2019

 ----------------------------------------------------------------------
 #t hf aug-cc-pvdz iop(5/13=1,5/36=2,99/5=2) pseudo=read geom=check gue
 ss=(read,tcheck) scf=(maxcycle=1)
 ----------------------------------------------------------------------
 -----
 title
 -----
 Structure from the checkpoint file:  "BDE49_nonexpt_1671_mol1.chk"
 Charge =  0 Multiplicity = 1

                         Standard orientation:
 ---------------------------------------------------------------------
 Center     Atomic      Atomic             Coordinates (Angstroms)
 Number     Number       Type             X           Y           Z
 ---------------------------------------------------------------------
      1         15           0        0.124817   -1.033315   -0.360546
      2         14           0        1.873905    0.335546    0.195884
      3          7           0       -1.230127    0.210153   -0.007137
      4          8           0       -1.033906    1.352294   -0.403236
      5          8           0       -2.248182   -0.195325    0.518961
      6          1           0        0.004142   -1.665089    0.898977
      7          1           0        2.182914    1.188100   -0.966533
      8          1           0        3.002117   -0.587870    0.461445
      9          1           0        1.571488    1.140119    1.396083
 ---------------------------------------------------------------------

 SCF Done:  E(RHF) =  -836.181424520     A.U. after    2 cycles

 The electronic state is 1-A.
 Alpha  occ. eigenvalues --  -81.32683 -69.10558 -20.62725 -20.62375 -15.90864
 Alpha  occ. eigenvalues --   -7.82904  -6.85824  -4.96921  -4.96632  -4.96390
 Alpha  occ. eigenvalues --   -3.96607  -3.96550  -3.96530  -1.54867  -1.37159
 Alpha  occ. eigenvalues --   -0.96713  -0.83071  -0.75266  -0.74082  -0.72044
 Alpha  occ. eigenvalues --   -0.68886  -0.54754  -0.52335  -0.51276  -0.49960
 Alpha  occ. eigenvalues --   -0.48112  -0.46528  -0.39937
 Alpha virt. eigenvalues --    0.02735   0.03954   0.04677   0.06096   0.06615
 Alpha virt. eigenvalues --    0.06964   0.07483   0.08341   0.08905   0.10125
 Alpha virt. eigenvalues --    0.11292   0.12134   0.13848   0.15215   0.16103

 Mulliken charges:
               1
     1  P    0.167051
     2  Si   0.244661
     3  N    0.419252
     4  O   -0.531491
     5  O   -0.540374
     6  H    0.202402
     7  H    0.009259
     8  H   -0.001413
     9  H    0.030652
 Sum of Mulliken charges =  -0.00000

 Dipole moment (field-independent basis, Debye):
    X=              4.0562    Y=             -2.1335    Z=              0.2129  Tot=              4.5880

 Test job not archived.
 1\1\GINC-SE177\SP\RHF\Aug-CC-pVDZ\H4N1O2P1Si1\OHZDE\08-Apr-2025\0\\#t
 hf aug-cc-pvdz iop(5/13=1,5/36=2,99/5=2) pseudo=read geom=check guess=
 (read,tcheck) scf=(maxcycle=1)\\title\\0,1\P,0,0.124817,-1.033315,-0.3
 60546\Si,0,1.873905,0.335546,0.195884\N,0,-1.230127,0.210153,-0.007137
 \O,0,-1.033906,1.352294,-0.403236\O,0,-2.248182,-0.195325,0.518961\H,0
 ,0.004142,-1.665089,0.898977\H,0,2.182914,1.1881,-0.966533\H,0,3.00211
 7,-0.58787,0.461445\H,0,1.571488,1.140119,1.396083\\Version=ES64L-G16R
 evC.01\State=1-A\HF=-836.1814245\RMSD=7.497e-03\Dipole=1.5958281,-0.83

 Normal termination of Gaussian 16 at Tue Apr  8 23:42:14 2025.
