 Gaussian 16, Revision C.01,

 ----------------------------------------------------------------------
 #t hf aug-cc-pvdz symm=none int=(grid=ultrafine) guess=(read,tcheck) s
 table=(opt,rrhf)
 ----------------------------------------------------------------------
 -----
 title
 -----
 Symbolic Z-matrix:
 Charge =  0 Multiplicity = 1

 SCF Done:  E(RHF) =  -685.788093651     A.U. after   17 cycles
 Normal termination of Gaussian 16 at Tue Apr  8 22:40:12 2025.
 Gaussian 16:  ES64L-G16RevC.01  3-Jul-2019

 ----------------------------------------------------------------------
 #t hf aug-cc-pvdz iop(5/13=1,5/36=2,99/5=2) pseudo=read geom=check gue
 ss=(read,tcheck) scf=(maxcycle=1)
 ----------------------------------------------------------------------
 -----
 title
 -----
 Structure from the checkpoint file:  "BDE49_expt_1106_mol1.chk"
 Charge =  0 Multiplicity = 1

                         Standard orientation:
 ---------------------------------------------------------------------
 Center     Atomic      Atomic             Coordinates (Angstroms)
 Number     Number       Type             X           Y           Z
 ---------------------------------------------------------------------
      1          6           0       -0.561076   -0.530131    0.723163
      2          6           0        0.561075    0.530140    0.723158
      3          8           0       -0.317265   -1.614107    1.219460
      4          8           0        0.317272    1.614113    1.219466
      5          6           0       -1.905324   -0.174361    0.191162
      6          6           0        1.905323    0.174365    0.191161
      7          6           0       -2.187880    1.059639   -0.411106
      8          6           0       -3.458066    1.310491   -0.921376
      9          6           0       -4.452934    0.339192   -0.833130
     10          6           0       -4.178992   -0.891304   -0.232803
     11          6           0       -2.913310   -1.146861    0.274645
     12          6           0        2.187874   -1.059637   -0.411107
     13          6           0        2.913313    1.146860    0.274645
     14          6           0        3.458060   -1.310495   -0.921375
     15          6           0        4.452932   -0.339200   -0.833127
     16          6           0        4.178995    0.891297   -0.232801
     17          1           0        4.953518    1.646464   -0.163331
     18          1           0        2.676148    2.094670    0.742045
     19          1           0        1.426775   -1.825805   -0.463942
     20          1           0        3.672588   -2.267096   -1.383515
     21          1           0        5.441792   -0.539776   -1.230285
     22          1           0       -4.953512   -1.646474   -0.163334
     23          1           0       -2.676141   -2.094669    0.742046
     24          1           0       -1.426784    1.825811   -0.463940
     25          1           0       -3.672598    2.267091   -1.383517
     26          1           0       -5.441794    0.539763   -1.230289
 ---------------------------------------------------------------------

 SCF Done:  E(RHF) =  -685.987420227     A.U. after    2 cycles

 The electronic state is 1-A.
 Alpha  occ. eigenvalues --  -20.58408 -20.58407 -11.36658 -11.36603 -11.26767
 Alpha  occ. eigenvalues --  -11.26767 -11.26744 -11.26744 -11.26584 -11.26583
 Alpha  occ. eigenvalues --  -11.26354 -11.26354 -11.25729 -11.25729 -11.25725
 Alpha  occ. eigenvalues --  -11.25725  -1.38467  -1.36276  -1.16250  -1.16137
 Alpha  occ. eigenvalues --   -1.04871  -1.04322  -1.02774  -1.02696  -0.93704
 Alpha  occ. eigenvalues --   -0.87830  -0.85293  -0.84335  -0.81979  -0.76808
 Alpha  occ. eigenvalues --   -0.73484  -0.71266  -0.69553  -0.67545  -0.66081
 Alpha  occ. eigenvalues --   -0.64583  -0.63525  -0.63056  -0.62673  -0.61053
 Alpha  occ. eigenvalues --   -0.60867  -0.58213  -0.55834  -0.53792  -0.53682
 Alpha  occ. eigenvalues --   -0.51846  -0.51584  -0.51096  -0.51065  -0.50553
 Alpha  occ. eigenvalues --   -0.42209  -0.36073  -0.35681  -0.35473  -0.35425
 Alpha virt. eigenvalues --    0.03075   0.03119   0.03532   0.03901   0.04372
 Alpha virt. eigenvalues --    0.04687   0.05712   0.06222   0.06393   0.07084
 Alpha virt. eigenvalues --    0.07238   0.08401   0.09645   0.09870   0.10210

 Mulliken charges:
               1
     1  C   -0.237003
     2  C   -0.236974
     3  O   -0.531324
     4  O   -0.531326
     5  C    1.317837
     6  C    1.317820
     7  C    0.575395
     8  C    0.224389
     9  C    0.681963
    10  C    0.588571
    11  C   -0.108526
    12  C    0.575416
    13  C   -0.108521
    14  C    0.224382
    15  C    0.681964
    16  C    0.588570
    17  H   -0.425449
    18  H   -0.625784
    19  H   -0.568399
    20  H   -0.456628
    21  H   -0.435056
    22  H   -0.425450
    23  H   -0.625786
    24  H   -0.568398
    25  H   -0.456627
    26  H   -0.435057
 Sum of Mulliken charges =  -0.00000

 Dipole moment (field-independent basis, Debye):
    X=             -0.0000    Y=             -0.0000    Z=             -3.2510  Tot=              3.2510

 Test job not archived.
 1\1\GINC-SE460\SP\RHF\Aug-CC-pVDZ\C14H10O2\OHZDE\08-Apr-2025\0\\#t hf
 aug-cc-pvdz iop(5/13=1,5/36=2,99/5=2) pseudo=read geom=check guess=(re
 ad,tcheck) scf=(maxcycle=1)\\title\\0,1\C,0,-0.561076,-0.530131,0.7231
 63\C,0,0.561075,0.53014,0.723158\O,0,-0.317265,-1.614107,1.21946\O,0,0
 .317272,1.614113,1.219466\C,0,-1.905324,-0.174361,0.191162\C,0,1.90532
 3,0.174365,0.191161\C,0,-2.18788,1.059639,-0.411106\C,0,-3.458066,1.31
 0491,-0.921376\C,0,-4.452934,0.339192,-0.83313\C,0,-4.178992,-0.891304
 ,-0.232803\C,0,-2.91331,-1.146861,0.274645\C,0,2.187874,-1.059637,-0.4

 Normal termination of Gaussian 16 at Tue Apr  8 22:40:39 2025.
