 Gaussian 16, Revision C.01,

 ----------------------------------------------------------------------
 #t hf aug-cc-pvdz symm=none int=(grid=ultrafine) guess=(read,tcheck) s
 table=(opt,rrhf)
 ----------------------------------------------------------------------
 -----
 title
 -----
 Symbolic Z-matrix:
 Charge =  0 Multiplicity = 1

 SCF Done:  E(RHF) =  -912.844833640     A.U. after   16 cycles
 Normal termination of Gaussian 16 at Tue Apr  8 23:12:05 2025.
 Gaussian 16:  ES64L-G16RevC.01  3-Jul-2019

 ----------------------------------------------------------------------
 #t hf aug-cc-pvdz iop(5/13=1,5/36=2,99/5=2) pseudo=read geom=check gue
 ss=(read,tcheck) scf=(maxcycle=1)
 ----------------------------------------------------------------------
 -----
 title
 -----
 Structure from the checkpoint file:  "BDE49_expt_446_mol1.chk"
 Charge =  0 Multiplicity = 1

                         Standard orientation:
 ---------------------------------------------------------------------
 Center     Atomic      Atomic             Coordinates (Angstroms)
 Number     Number       Type             X           Y           Z
 ---------------------------------------------------------------------
      1          6           0       -4.114190   -0.369617   -0.652157
      2          6           0       -2.992786    0.342491   -1.062531
      3          6           0       -4.112377   -1.057058    0.559952
      4          6           0       -2.967950   -1.023986    1.353895
      5          6           0       -1.836337   -0.321230    0.951587
      6          6           0       -1.840867    0.370571   -0.264266
      7          7           0       -0.708594    1.065797   -0.733803
      8         16           0        0.538302    1.648835    0.244926
      9          6           0        1.847351    0.440997    0.027262
     10          6           0        1.727472   -0.674079   -0.800009
     11          6           0        3.031668    0.664405    0.736583
     12          6           0        4.090830   -0.228958    0.613078
     13          6           0        2.794172   -1.563631   -0.914260
     14          6           0        3.977582   -1.347257   -0.212354
     15          1           0        0.807156   -0.839928   -1.345376
     16          1           0        2.695187   -2.431172   -1.557440
     17          1           0        4.803626   -2.042487   -0.305703
     18          1           0        3.126285    1.531886    1.382028
     19          1           0        5.006921   -0.049767    1.164841
     20          1           0       -3.006759    0.881423   -2.005106
     21          1           0       -4.996075   -0.379709   -1.283127
     22          1           0       -4.988505   -1.607885    0.880450
     23          1           0       -2.949129   -1.554677    2.299422
     24          1           0       -0.950065   -0.304927    1.572871
     25          1           0       -0.828733    1.559396   -1.605749
 ---------------------------------------------------------------------

 SCF Done:  E(RHF) =  -913.019082652     A.U. after    2 cycles

 The electronic state is 1-A.
 Alpha  occ. eigenvalues --  -93.57810 -15.66281 -11.29788 -11.28102 -11.25302
 Alpha  occ. eigenvalues --  -11.25178 -11.25139 -11.24958 -11.24796 -11.24726
 Alpha  occ. eigenvalues --  -11.24562 -11.24192 -11.23667 -11.23461  -8.87141
 Alpha  occ. eigenvalues --   -6.21414  -6.21091  -6.20752  -1.22354  -1.15362
 Alpha  occ. eigenvalues --   -1.12816  -1.04199  -1.01688  -1.01177  -0.99530
 Alpha  occ. eigenvalues --   -0.91598  -0.84003  -0.83612  -0.82316  -0.79301
 Alpha  occ. eigenvalues --   -0.72152  -0.70982  -0.67632  -0.65586  -0.63892
 Alpha  occ. eigenvalues --   -0.62839  -0.61114  -0.60250  -0.59691  -0.59164
 Alpha  occ. eigenvalues --   -0.55769  -0.53163  -0.52363  -0.51543  -0.50522
 Alpha  occ. eigenvalues --   -0.49622  -0.48909  -0.42758  -0.41284  -0.34785
 Alpha  occ. eigenvalues --   -0.34386  -0.31192  -0.30080
 Alpha virt. eigenvalues --    0.03226   0.03503   0.03981   0.04272   0.04827
 Alpha virt. eigenvalues --    0.05647   0.05898   0.06161   0.07596   0.07867
 Alpha virt. eigenvalues --    0.08211   0.09615   0.10012   0.10618   0.10962

 Mulliken charges:
               1
     1  C    0.553306
     2  C    0.653315
     3  C    0.629827
     4  C    0.531392
     5  C    0.307715
     6  C    0.277559
     7  N   -0.675822
     8  S    0.659311
     9  C    0.244601
    10  C    0.320938
    11  C   -0.005002
    12  C    0.630685
    13  C    0.585905
    14  C    0.555159
    15  H   -0.681539
    16  H   -0.457856
    17  H   -0.448443
    18  H   -0.515996
    19  H   -0.446503
    20  H   -0.620564
    21  H   -0.446714
    22  H   -0.458391
    23  H   -0.451930
    24  H   -0.623575
    25  H   -0.117378
 Sum of Mulliken charges =  -0.00000

 Dipole moment (field-independent basis, Debye):
    X=              0.2510    Y=             -0.3783    Z=             -0.9354  Tot=              1.0397

 Test job not archived.
 1\1\GINC-SE029\SP\RHF\Aug-CC-pVDZ\C12H11N1S1\OHZDE\08-Apr-2025\0\\#t h
 f aug-cc-pvdz iop(5/13=1,5/36=2,99/5=2) pseudo=read geom=check guess=(
 read,tcheck) scf=(maxcycle=1)\\title\\0,1\C,0,-4.11419,-0.369617,-0.65
 2157\C,0,-2.992786,0.342491,-1.062531\C,0,-4.112377,-1.057058,0.559952
 \C,0,-2.96795,-1.023986,1.353895\C,0,-1.836337,-0.32123,0.951587\C,0,-
 1.840867,0.370571,-0.264266\N,0,-0.708594,1.065797,-0.733803\S,0,0.538
 302,1.648835,0.244926\C,0,1.847351,0.440997,0.027262\C,0,1.727472,-0.6
 74079,-0.800009\C,0,3.031668,0.664405,0.736583\C,0,4.09083,-0.228958,0

 Normal termination of Gaussian 16 at Tue Apr  8 23:12:29 2025.
