 Gaussian 16, Revision C.01,

 ----------------------------------------------------------------------
 #t hf aug-cc-pvdz symm=none int=(grid=ultrafine) guess=(read,tcheck) s
 table=(opt,rrhf)
 ----------------------------------------------------------------------
 -----
 title
 -----
 Symbolic Z-matrix:
 Charge =  0 Multiplicity = 1

 SCF Done:  E(RHF) =  -758.503998746     A.U. after   16 cycles
 Normal termination of Gaussian 16 at Tue Apr  8 23:30:05 2025.
 Gaussian 16:  ES64L-G16RevC.01  3-Jul-2019

 ----------------------------------------------------------------------
 #t hf aug-cc-pvdz iop(5/13=1,5/36=2,99/5=2) pseudo=read geom=check gue
 ss=(read,tcheck) scf=(maxcycle=1)
 ----------------------------------------------------------------------
 -----
 title
 -----
 Structure from the checkpoint file:  "BDE49_nonexpt_1394_mol1.chk"
 Charge =  0 Multiplicity = 1

                         Standard orientation:
 ---------------------------------------------------------------------
 Center     Atomic      Atomic             Coordinates (Angstroms)
 Number     Number       Type             X           Y           Z
 ---------------------------------------------------------------------
      1          6           0       -1.478581   -1.473791   -0.005664
      2          6           0       -2.703900   -0.809896    0.007630
      3          6           0       -2.763329    0.584618    0.015881
      4          6           0       -1.589980    1.336979    0.007723
      5          6           0       -0.355039    0.690353    0.014335
      6          6           0       -0.322129   -0.708084   -0.002314
      7          1           0       -1.412387   -2.554253   -0.016600
      8          1           0       -1.638899    2.419982    0.000566
      9          1           0       -3.620328   -1.388411    0.007276
     10          1           0       -3.724326    1.084815    0.021414
     11          8           0        0.917695   -1.313324   -0.014025
     12         15           0        1.336908    1.361664   -0.108984
     13          6           0        1.975315   -0.415224   -0.005698
     14          8           0        3.104092   -0.788619    0.034508
     15          1           0        1.593880    1.598717    1.266883
 ---------------------------------------------------------------------

 SCF Done:  E(RHF) =  -758.649903538     A.U. after    2 cycles

 The electronic state is 1-A.
 Alpha  occ. eigenvalues --  -81.29777 -20.64794 -20.58598 -11.41520 -11.34004
 Alpha  occ. eigenvalues --  -11.27843 -11.27398 -11.27331 -11.26619 -11.26245
 Alpha  occ. eigenvalues --   -7.80147  -4.94193  -4.94082  -4.93817  -1.44406
 Alpha  occ. eigenvalues --   -1.36615  -1.16664  -1.04755  -1.03366  -0.93325
 Alpha  occ. eigenvalues --   -0.86971  -0.81951  -0.79982  -0.71604  -0.70583
 Alpha  occ. eigenvalues --   -0.68892  -0.68405  -0.63975  -0.62803  -0.59598
 Alpha  occ. eigenvalues --   -0.58259  -0.55731  -0.54432  -0.52504  -0.50117
 Alpha  occ. eigenvalues --   -0.45302  -0.41387  -0.35955  -0.34252
 Alpha virt. eigenvalues --    0.02720   0.03596   0.04238   0.05365   0.05913
 Alpha virt. eigenvalues --    0.06701   0.07809   0.08269   0.09472   0.09688
 Alpha virt. eigenvalues --    0.10087   0.10868   0.11823   0.12374   0.13147

 Mulliken charges:
               1
     1  C    0.794738
     2  C    0.513809
     3  C    0.494355
     4  C    0.795879
     5  C   -0.311337
     6  C    0.151196
     7  H   -0.509437
     8  H   -0.458067
     9  H   -0.422753
    10  H   -0.445180
    11  O   -0.744046
    12  P    0.050437
    13  C    0.290591
    14  O   -0.429753
    15  H    0.229570
 Sum of Mulliken charges =  -0.00000

 Dipole moment (field-independent basis, Debye):
    X=             -4.4410    Y=              2.1573    Z=              0.4124  Tot=              4.9544

 Test job not archived.
 1\1\GINC-SE069\SP\RHF\Aug-CC-pVDZ\C7H5O2P1\OHZDE\08-Apr-2025\0\\#t hf
 aug-cc-pvdz iop(5/13=1,5/36=2,99/5=2) pseudo=read geom=check guess=(re
 ad,tcheck) scf=(maxcycle=1)\\title\\0,1\C,0,-1.478581,-1.473791,-0.005
 664\C,0,-2.7039,-0.809895,0.00763\C,0,-2.763329,0.584619,0.015881\C,0,
 -1.58998,1.336979,0.007723\C,0,-0.355039,0.690353,0.014335\C,0,-0.3221
 29,-0.708084,-0.002314\H,0,-1.412388,-2.554253,-0.0166\H,0,-1.638899,2
 .419982,0.000566\H,0,-3.620328,-1.38841,0.007276\H,0,-3.724326,1.08481
 6,0.021414\O,0,0.917695,-1.313324,-0.014025\P,0,1.336908,1.361664,-0.1

 Normal termination of Gaussian 16 at Tue Apr  8 23:30:13 2025.
