 Gaussian 16, Revision C.01,

 ----------------------------------------------------------------------
 #t hf aug-cc-pvdz symm=none int=(grid=ultrafine) guess=(read,tcheck) s
 table=(opt,rrhf)
 ----------------------------------------------------------------------
 -----
 title
 -----
 Symbolic Z-matrix:
 Charge =  0 Multiplicity = 1

 SCF Done:  E(RHF) =  -842.314103199     A.U. after   18 cycles
 Normal termination of Gaussian 16 at Tue Apr  8 22:49:48 2025.
 Gaussian 16:  ES64L-G16RevC.01  3-Jul-2019

 ----------------------------------------------------------------------
 #t hf aug-cc-pvdz iop(5/13=1,5/36=2,99/5=2) pseudo=read geom=check gue
 ss=(read,tcheck) scf=(maxcycle=1)
 ----------------------------------------------------------------------
 -----
 title
 -----
 Structure from the checkpoint file:  "BDE49_expt_1703_mol1.chk"
 Charge =  0 Multiplicity = 1

                         Standard orientation:
 ---------------------------------------------------------------------
 Center     Atomic      Atomic             Coordinates (Angstroms)
 Number     Number       Type             X           Y           Z
 ---------------------------------------------------------------------
      1          6           0       -2.339256    1.858358    0.000000
      2          6           0       -1.064769    2.468149    0.000000
      3          6           0        0.076388    1.703430    0.000000
      4          6           0       -2.446631    0.490125    0.000000
      5          6           0       -1.292182   -0.335455    0.000000
      6          6           0        0.000000    0.287204    0.000000
      7          1           0       -3.230616    2.475231    0.000000
      8          1           0       -0.987940    3.549407    0.000000
      9          1           0        1.049315    2.176210    0.000000
     10          1           0       -3.421822    0.014961    0.000000
     11          6           0        1.135767   -0.571261    0.000000
     12          6           0        1.017465   -1.938228    0.000000
     13          6           0       -0.263729   -2.531650    0.000000
     14          6           0       -1.391307   -1.750332    0.000000
     15          1           0        1.906755   -2.554948    0.000000
     16          1           0       -0.342913   -3.612445    0.000000
     17          1           0       -2.376078   -2.204395    0.000000
     18         17           0        2.753696    0.121997    0.000000
 ---------------------------------------------------------------------

 SCF Done:  E(RHF) =  -842.441982939     A.U. after    2 cycles

 The electronic state is 1-A'.
 Alpha  occ. eigenvalues -- -103.66677 -11.31655 -11.27048 -11.26702 -11.26176
 Alpha  occ. eigenvalues --  -11.25949 -11.25746 -11.25628 -11.25520 -11.25446
 Alpha  occ. eigenvalues --  -11.25320 -10.69949  -8.35683  -8.35392  -8.35364
 Alpha  occ. eigenvalues --   -1.20432  -1.15621  -1.10996  -1.04174  -1.01863
 Alpha  occ. eigenvalues --   -0.98262  -0.86593  -0.85657  -0.81118  -0.72503
 Alpha  occ. eigenvalues --   -0.71015  -0.69702  -0.63437  -0.62628  -0.60837
 Alpha  occ. eigenvalues --   -0.59618  -0.58153  -0.56460  -0.54214  -0.51239
 Alpha  occ. eigenvalues --   -0.50200  -0.49470  -0.46711  -0.45601  -0.38971
 Alpha  occ. eigenvalues --   -0.33591  -0.30153
 Alpha virt. eigenvalues --    0.03222   0.03499   0.04221   0.05169   0.05581
 Alpha virt. eigenvalues --    0.06060   0.07010   0.07917   0.08753   0.09973
 Alpha virt. eigenvalues --    0.10242   0.11408   0.12033   0.12178   0.12695

 Mulliken charges:
               1
     1  C    0.578047
     2  C    0.530109
     3  C    0.316430
     4  C    0.313227
     5  C   -0.003196
     6  C    1.182584
     7  H   -0.442442
     8  H   -0.432400
     9  H   -0.553169
    10  H   -0.581177
    11  C   -0.812439
    12  C    0.544352
    13  C    0.605641
    14  C    0.672113
    15  H   -0.438131
    16  H   -0.450556
    17  H   -0.568011
    18  Cl  -0.460981
 Sum of Mulliken charges =  -0.00000

 Dipole moment (field-independent basis, Debye):
    X=             -1.9971    Y=             -0.5401    Z=              0.0000  Tot=              2.0688

 Test job not archived.
 1\1\GINC-SE159\SP\RHF\Aug-CC-pVDZ\C10H7Cl1\OHZDE\08-Apr-2025\0\\#t hf
 aug-cc-pvdz iop(5/13=1,5/36=2,99/5=2) pseudo=read geom=check guess=(re
 ad,tcheck) scf=(maxcycle=1)\\title\\0,1\C,0,-2.339257,1.858357,0.\C,0,
 -1.06477,2.468148,0.\C,0,0.076387,1.70343,0.\C,0,-2.446631,0.490124,0.
 \C,0,-1.292182,-0.335456,0.\C,0,0.,0.287204,0.\H,0,-3.230617,2.47523,0
 .\H,0,-0.987941,3.549407,0.\H,0,1.049314,2.17621,0.\H,0,-3.421822,0.01
 496,0.\C,0,1.135767,-0.571261,0.\C,0,1.017466,-1.938228,0.\C,0,-0.2637
 28,-2.53165,0.\C,0,-1.391306,-1.750333,0.\H,0,1.906756,-2.554947,0.\H,

 Normal termination of Gaussian 16 at Tue Apr  8 22:50:00 2025.
