 Gaussian 16, Revision C.01,

 ----------------------------------------------------------------------
 #t hf aug-cc-pvdz symm=none int=(grid=ultrafine) guess=(read,tcheck) s
 table=opt
 ----------------------------------------------------------------------
 -----
 title
 -----
 Symbolic Z-matrix:
 Charge =  0 Multiplicity = 2

 SCF Done:  E(UHF) =  -622.672000520     A.U. after   16 cycles
 Normal termination of Gaussian 16 at Wed Apr  9 00:29:43 2025.
 Gaussian 16:  ES64L-G16RevC.01  3-Jul-2019

 ----------------------------------------------------------------------
 #t hf aug-cc-pvdz iop(5/13=1,5/36=2,99/5=2) pseudo=read geom=check gue
 ss=(read,tcheck) scf=(maxcycle=1)
 ----------------------------------------------------------------------
 -----
 title
 -----
 Structure from the checkpoint file:  "BDE49_nonexpt_363_mol2.chk"
 Charge =  0 Multiplicity = 2

                         Standard orientation:
 ---------------------------------------------------------------------
 Center     Atomic      Atomic             Coordinates (Angstroms)
 Number     Number       Type             X           Y           Z
 ---------------------------------------------------------------------
      1          9           0       -1.859234   -0.639843   -0.000010
      2          5           0       -1.386943    0.575082    0.000001
      3          6           0        0.107407    1.005809    0.000008
      4         17           0        1.316435   -0.375729    0.000001
      5          1           0        0.321992    1.617851    0.878622
      6          1           0        0.321997    1.617865   -0.878595
 ---------------------------------------------------------------------

 SCF Done:  E(UHF) =  -622.753432626     A.U. after    2 cycles

 The electronic state is 2-A.
 Alpha  occ. eigenvalues -- -103.65888 -26.16012 -11.31050 -10.69104  -8.34952
 Alpha  occ. eigenvalues --   -8.34500  -8.34500  -7.72472  -1.70556  -1.16205
 Alpha  occ. eigenvalues --   -0.95715  -0.86664  -0.79168  -0.76215  -0.63328
 Alpha  occ. eigenvalues --   -0.62569  -0.57488  -0.46151  -0.45784  -0.37043
 Alpha virt. eigenvalues --    0.03329   0.04133   0.05369   0.05910   0.06774
 Alpha virt. eigenvalues --    0.08977   0.10720   0.11042   0.13729   0.15560
 Alpha virt. eigenvalues --    0.16388   0.16814   0.17718   0.18544   0.18985

  Beta  occ. eigenvalues -- -103.65799 -26.15693 -11.30785 -10.69010  -8.34608
  Beta  occ. eigenvalues --   -8.34449  -8.34432  -7.70590  -1.69627  -1.15485
  Beta  occ. eigenvalues --   -0.94525  -0.85698  -0.76301  -0.76220  -0.63183
  Beta  occ. eigenvalues --   -0.60119  -0.55837  -0.45619  -0.45278
  Beta virt. eigenvalues --    0.02230   0.04471   0.05095   0.05634   0.07365
  Beta virt. eigenvalues --    0.07514   0.09169   0.13156   0.13644   0.14018
  Beta virt. eigenvalues --    0.16138   0.16446   0.17963   0.18092   0.19050

 Mulliken charges and spin densities:
               1          2
     1  F   -0.310234  -0.037462
     2  B    0.458287   0.986848
     3  C    0.051181   0.018029
     4  Cl  -0.225746   0.061558
     5  H    0.013256  -0.014486
     6  H    0.013256  -0.014486
 Sum of Mulliken charges =  -0.00000   1.00000

 Dipole moment (field-independent basis, Debye):
    X=             -0.4464    Y=              2.4657    Z=              0.0000  Tot=              2.5057
                          Isotropic Fermi Contact Couplings
        Atom                 a.u.       MegaHertz       Gauss      10(-4) cm-1
     1  F(19)              0.07059     297.00386     105.97836      99.06982
     2  B(11)              0.33669     482.93450     172.32304     161.08961
     3  C(13)              0.11155     125.40110      44.74623      41.82931
     4  Cl(35)             0.02685      11.77235       4.20067       3.92683
     5  H(1)              -0.00129      -5.76590      -2.05742      -1.92330
     6  H(1)              -0.00129      -5.76592      -2.05742      -1.92330
 --------------------------------------------------------
       Center         ----  Spin Dipole Couplings  ----

 1\1\GINC-SE092\SP\UHF\Aug-CC-pVDZ\C1H2B1Cl1F1(2)\OHZDE\09-Apr-2025\0\\
 #t hf aug-cc-pvdz iop(5/13=1,5/36=2,99/5=2) pseudo=read geom=check gue
 ss=(read,tcheck) scf=(maxcycle=1)\\title\\0,2\F,0,-1.859234,-0.639843,
 -0.00001\B,0,-1.386943,0.575082,0.000001\C,0,0.107407,1.005809,0.00000
 8\Cl,0,1.316435,-0.375729,0.000001\H,0,0.321992,1.617851,0.878622\H,0,
 0.321997,1.617865,-0.878595\\Version=ES64L-G16RevC.01\State=2-A\HF=-62
 2.7534326\S2=0.755204\S2-1=0.\S2A=0.750013\RMSD=3.457e-03\Dipole=-0.17
 56377,0.9700634,0.000007\Quadrupole=-2.9093132,1.0957849,1.8135283,-0.

 Normal termination of Gaussian 16 at Wed Apr  9 00:29:45 2025.
