 Gaussian 16, Revision C.01,

 ----------------------------------------------------------------------
 #t hf aug-cc-pvdz symm=none int=(grid=ultrafine) guess=(read,tcheck) s
 table=(opt,rrhf)
 ----------------------------------------------------------------------
 -----
 title
 -----
 Symbolic Z-matrix:
 Charge =  0 Multiplicity = 1

 SCF Done:  E(RHF) =  -841.979504687     A.U. after   13 cycles
 Normal termination of Gaussian 16 at Tue Apr  8 23:43:10 2025.
 Gaussian 16:  ES64L-G16RevC.01  3-Jul-2019

 ----------------------------------------------------------------------
 #t hf aug-cc-pvdz iop(5/13=1,5/36=2,99/5=2) pseudo=read geom=check gue
 ss=(read,tcheck) scf=(maxcycle=1)
 ----------------------------------------------------------------------
 -----
 title
 -----
 Structure from the checkpoint file:  "BDE49_nonexpt_1740_mol1.chk"
 Charge =  0 Multiplicity = 1

                         Standard orientation:
 ---------------------------------------------------------------------
 Center     Atomic      Atomic             Coordinates (Angstroms)
 Number     Number       Type             X           Y           Z
 ---------------------------------------------------------------------
      1         14           0       -0.022194    0.814538   -0.000000
      2         17           0       -1.585373   -0.528841   -0.000009
      3          6           0        1.566312   -0.129140    0.000003
      4          7           0        2.572288   -0.697337    0.000018
      5          1           0       -0.070906    1.621481    1.226051
      6          1           0       -0.070925    1.621493   -1.226041
 ---------------------------------------------------------------------

 SCF Done:  E(RHF) =  -842.051018611     A.U. after    2 cycles

 The electronic state is 1-A.
 Alpha  occ. eigenvalues -- -103.68197 -69.16966 -15.67148 -11.28571 -10.71659
 Alpha  occ. eigenvalues --   -8.37354  -8.37110  -8.37106  -6.91654  -4.02541
 Alpha  occ. eigenvalues --   -4.02450  -4.02343  -1.20830  -1.16697  -0.80931
 Alpha  occ. eigenvalues --   -0.64879  -0.57356  -0.57308  -0.56353  -0.50430
 Alpha  occ. eigenvalues --   -0.49976  -0.48731  -0.47924
 Alpha virt. eigenvalues --    0.03361   0.04087   0.05032   0.05316   0.08056
 Alpha virt. eigenvalues --    0.09145   0.09327   0.10846   0.11201   0.12591
 Alpha virt. eigenvalues --    0.13249   0.13806   0.15228   0.18166   0.18218

 Mulliken charges:
               1
     1  Si   0.855737
     2  Cl  -0.461288
     3  C   -0.189435
     4  N   -0.161170
     5  H   -0.021921
     6  H   -0.021922
 Sum of Mulliken charges =  -0.00000

 Dipole moment (field-independent basis, Debye):
    X=             -1.8717    Y=              2.5470    Z=             -0.0000  Tot=              3.1607

 Test job not archived.
 1\1\GINC-SE342\SP\RHF\Aug-CC-pVDZ\C1H2Cl1N1Si1\OHZDE\08-Apr-2025\0\\#t
  hf aug-cc-pvdz iop(5/13=1,5/36=2,99/5=2) pseudo=read geom=check guess
 =(read,tcheck) scf=(maxcycle=1)\\title\\0,1\Si,0,-0.022194,0.814538,0.
 \Cl,0,-1.585373,-0.528841,-0.000009\C,0,1.566312,-0.12914,0.000003\N,0
 ,2.572288,-0.697337,0.000018\H,0,-0.070906,1.621481,1.226051\H,0,-0.07
 0925,1.621493,-1.226041\\Version=ES64L-G16RevC.01\State=1-A\HF=-842.05
 10186\RMSD=4.514e-03\Dipole=-0.7363769,1.0020552,-0.00001\Quadrupole=-
 5.1798884,2.785241,2.3946474,2.0833651,-0.0000618,0.0000117\PG=C01 [X(

 Normal termination of Gaussian 16 at Tue Apr  8 23:43:12 2025.
