 Gaussian 16, Revision C.01,

 ----------------------------------------------------------------------
 #t hf aug-cc-pvdz symm=none int=(grid=ultrafine) guess=(read,tcheck) s
 table=(opt,rrhf)
 ----------------------------------------------------------------------
 -----
 title
 -----
 Symbolic Z-matrix:
 Charge =  0 Multiplicity = 1

 SCF Done:  E(RHF) =  -567.776170271     A.U. after   15 cycles
 Normal termination of Gaussian 16 at Wed Apr  9 00:34:31 2025.
 Gaussian 16:  ES64L-G16RevC.01  3-Jul-2019

 ----------------------------------------------------------------------
 #t hf aug-cc-pvdz iop(5/13=1,5/36=2,99/5=2) pseudo=read geom=check gue
 ss=(read,tcheck) scf=(maxcycle=1)
 ----------------------------------------------------------------------
 -----
 title
 -----
 Structure from the checkpoint file:  "BDE49_nonexpt_433_mol1.chk"
 Charge =  0 Multiplicity = 1

                         Standard orientation:
 ---------------------------------------------------------------------
 Center     Atomic      Atomic             Coordinates (Angstroms)
 Number     Number       Type             X           Y           Z
 ---------------------------------------------------------------------
      1          9           0        3.221916   -1.315568    0.000026
      2          9           0        3.435975    0.934515    0.000029
      3          5           0        2.623791   -0.123171   -0.000022
      4          6           0        1.097222    0.021999   -0.000015
      5          6           0        0.483109    1.290539   -0.000011
      6          6           0       -0.891985    1.423486   -0.000006
      7          6           0       -1.706553    0.280428   -0.000005
      8          6           0        0.263851   -1.105419   -0.000014
      9          1           0        0.709297   -2.094124   -0.000017
     10          6           0       -1.121973   -0.992094   -0.000009
     11          1           0       -1.731560   -1.885214   -0.000008
     12          1           0        1.102553    2.180465   -0.000012
     13          8           0       -3.042374    0.513778    0.000000
     14          6           0       -3.934933   -0.596412    0.000001
     15          1           0       -3.803450   -1.213542   -0.894665
     16          1           0       -4.935649   -0.168870    0.000005
     17          1           0       -3.803444   -1.213544    0.894665
     18          1           0       -1.371142    2.394780   -0.000003
 ---------------------------------------------------------------------

 SCF Done:  E(RHF) =  -567.969816611     A.U. after    2 cycles

 The electronic state is 1-A.
 Alpha  occ. eigenvalues --  -26.12594 -26.12582 -20.61684 -11.33507 -11.30972
 Alpha  occ. eigenvalues --  -11.27036 -11.26693 -11.25215 -11.24712 -11.23044
 Alpha  occ. eigenvalues --   -7.72410  -1.67775  -1.65495  -1.38727  -1.15230
 Alpha  occ. eigenvalues --   -1.03563  -1.02609  -0.95803  -0.86849  -0.85240
 Alpha  occ. eigenvalues --   -0.82810  -0.80287  -0.77231  -0.75629  -0.73900
 Alpha  occ. eigenvalues --   -0.71023  -0.70596  -0.68275  -0.67991  -0.66345
 Alpha  occ. eigenvalues --   -0.63098  -0.60674  -0.59804  -0.54631  -0.54339
 Alpha  occ. eigenvalues --   -0.51753  -0.49929  -0.49096  -0.35876  -0.33715
 Alpha virt. eigenvalues --    0.02828   0.03990   0.04078   0.05100   0.05732
 Alpha virt. eigenvalues --    0.05889   0.06335   0.07288   0.07837   0.07844
 Alpha virt. eigenvalues --    0.08226   0.09788   0.09819   0.10491   0.12670

 Mulliken charges:
               1
     1  F   -0.536520
     2  F   -0.540667
     3  B    0.919028
     4  C    0.406125
     5  C    0.689187
     6  C    0.487851
     7  C    0.473951
     8  C    0.287663
     9  H   -0.576443
    10  C    0.529261
    11  H   -0.723359
    12  H   -0.590837
    13  O   -0.687267
    14  C    0.884102
    15  H   -0.089121
    16  H   -0.297480
    17  H   -0.089120
    18  H   -0.546352
 Sum of Mulliken charges =   0.00000

 Dipole moment (field-independent basis, Debye):
    X=             -3.8475    Y=             -1.1209    Z=             -0.0002  Tot=              4.0074

 Test job not archived.
 1\1\GINC-SE187\SP\RHF\Aug-CC-pVDZ\C7H7B1F2O1\OHZDE\09-Apr-2025\0\\#t h
 f aug-cc-pvdz iop(5/13=1,5/36=2,99/5=2) pseudo=read geom=check guess=(
 read,tcheck) scf=(maxcycle=1)\\title\\0,1\F,0,-3.221916,-1.315568,-0.0
 00026\F,0,-3.435975,0.934515,-0.000029\B,0,-2.623791,-0.123171,0.00002
 2\C,0,-1.097222,0.021999,0.000015\C,0,-0.483109,1.290539,0.000011\C,0,
 0.891985,1.423486,0.000006\C,0,1.706553,0.280428,0.000005\C,0,-0.26385
 1,-1.105419,0.000014\H,0,-0.709297,-2.094124,0.000017\C,0,1.121973,-0.
 992094,0.000009\H,0,1.73156,-1.885214,0.000008\H,0,-1.102553,2.180465,

 Normal termination of Gaussian 16 at Wed Apr  9 00:34:42 2025.
