 Gaussian 16, Revision C.01,

 ----------------------------------------------------------------------
 #t hf aug-cc-pvdz symm=none int=(grid=ultrafine) guess=(read,tcheck) s
 table=(opt,rrhf)
 ----------------------------------------------------------------------
 -----
 title
 -----
 Symbolic Z-matrix:
 Charge =  0 Multiplicity = 1

 SCF Done:  E(RHF) =  -629.683418004     A.U. after   14 cycles
 Normal termination of Gaussian 16 at Tue Apr  8 23:21:19 2025.
 Gaussian 16:  ES64L-G16RevC.01  3-Jul-2019

 ----------------------------------------------------------------------
 #t hf aug-cc-pvdz iop(5/13=1,5/36=2,99/5=2) pseudo=read geom=check gue
 ss=(read,tcheck) scf=(maxcycle=1)
 ----------------------------------------------------------------------
 -----
 title
 -----
 Structure from the checkpoint file:  "BDE49_nonexpt_1208_mol1.chk"
 Charge =  0 Multiplicity = 1

                         Standard orientation:
 ---------------------------------------------------------------------
 Center     Atomic      Atomic             Coordinates (Angstroms)
 Number     Number       Type             X           Y           Z
 ---------------------------------------------------------------------
      1          6           0        2.155480    1.301322   -0.248945
      2          6           0        1.768225    0.117678    0.632655
      3          1           0        2.723456    0.970069   -1.120839
      4          1           0        2.764133    2.017442    0.312110
      5          1           0        1.261326    1.815870   -0.605282
      6          6           0       -2.841169    0.701591   -0.056119
      7          6           0       -1.688051   -0.127578    0.477884
      8          1           0       -3.650108    0.737444    0.678922
      9          1           0       -3.229662    0.266833   -0.979423
     10          1           0       -2.518960    1.723826   -0.266187
     11         16           0        0.685218   -1.092974   -0.193993
     12          1           0        1.296523    0.444401    1.563057
     13          1           0        2.641766   -0.483463    0.910516
     14          8           0       -0.666171   -0.139091   -0.539599
     15          1           0       -2.001568   -1.154755    0.692101
     16          1           0       -1.287938    0.304564    1.402847
 ---------------------------------------------------------------------

 SCF Done:  E(RHF) =  -629.783989835     A.U. after    2 cycles

 The electronic state is 1-A.
 Alpha  occ. eigenvalues --  -93.57128 -20.59311 -11.29246 -11.27100 -11.23221
 Alpha  occ. eigenvalues --  -11.22986  -8.86238  -6.20476  -6.20110  -6.19774
 Alpha  occ. eigenvalues --   -1.32592  -1.05828  -1.01273  -0.91446  -0.84807
 Alpha  occ. eigenvalues --   -0.79864  -0.67023  -0.65111  -0.62074  -0.60631
 Alpha  occ. eigenvalues --   -0.57958  -0.54937  -0.54048  -0.53066  -0.51209
 Alpha  occ. eigenvalues --   -0.48727  -0.48077  -0.42121  -0.34478
 Alpha virt. eigenvalues --    0.03450   0.04294   0.04857   0.05212   0.06072
 Alpha virt. eigenvalues --    0.06256   0.06857   0.07772   0.09408   0.09581
 Alpha virt. eigenvalues --    0.10011   0.11734   0.12547   0.13379   0.15207

 Mulliken charges:
               1
     1  C    0.263439
     2  C   -0.154314
     3  H   -0.060684
     4  H   -0.061771
     5  H   -0.054386
     6  C    0.195655
     7  C    0.688757
     8  H   -0.024296
     9  H   -0.046703
    10  H   -0.076159
    11  S    0.658463
    12  H   -0.099239
    13  H   -0.006118
    14  O   -0.892199
    15  H   -0.148206
    16  H   -0.182238
 Sum of Mulliken charges =  -0.00000

 Dipole moment (field-independent basis, Debye):
    X=              0.1270    Y=              0.9490    Z=              1.9077  Tot=              2.1345

 Test job not archived.
 1\1\GINC-SE069\SP\RHF\Aug-CC-pVDZ\C4H10O1S1\OHZDE\08-Apr-2025\0\\#t hf
  aug-cc-pvdz iop(5/13=1,5/36=2,99/5=2) pseudo=read geom=check guess=(r
 ead,tcheck) scf=(maxcycle=1)\\title\\0,1\C,0,2.15548,1.301322,-0.24894
 5\C,0,1.768225,0.117678,0.632655\H,0,2.723456,0.970069,-1.120839\H,0,2
 .764133,2.017442,0.31211\H,0,1.261326,1.81587,-0.605282\C,0,-2.841169,
 0.701591,-0.056119\C,0,-1.688051,-0.127578,0.477884\H,0,-3.650108,0.73
 7444,0.678922\H,0,-3.229662,0.266833,-0.979423\H,0,-2.51896,1.723826,-
 0.266187\S,0,0.685218,-1.092974,-0.193993\H,0,1.296523,0.444401,1.5630

 Normal termination of Gaussian 16 at Tue Apr  8 23:21:24 2025.
