 Gaussian 16, Revision C.01,

 ----------------------------------------------------------------------
 #t hf aug-cc-pvdz symm=none int=(grid=ultrafine) guess=(read,tcheck) s
 table=(opt,rrhf)
 ----------------------------------------------------------------------
 -----
 title
 -----
 Symbolic Z-matrix:
 Charge =  0 Multiplicity = 1

 SCF Done:  E(RHF) =  -760.192236559     A.U. after   14 cycles
 Normal termination of Gaussian 16 at Tue Apr  8 23:17:14 2025.
 Gaussian 16:  ES64L-G16RevC.01  3-Jul-2019

 ----------------------------------------------------------------------
 #t hf aug-cc-pvdz iop(5/13=1,5/36=2,99/5=2) pseudo=read geom=check gue
 ss=(read,tcheck) scf=(maxcycle=1)
 ----------------------------------------------------------------------
 -----
 title
 -----
 Structure from the checkpoint file:  "BDE49_expt_820_mol1.chk"
 Charge =  0 Multiplicity = 1

                         Standard orientation:
 ---------------------------------------------------------------------
 Center     Atomic      Atomic             Coordinates (Angstroms)
 Number     Number       Type             X           Y           Z
 ---------------------------------------------------------------------
      1         15           0       -0.703901   -1.866453   -0.245999
      2          6           0        0.742354   -0.690424   -0.420129
      3          6           0        1.372544   -0.130266    0.858528
      4          1           0        0.419859    0.128890   -1.071033
      5          1           0        1.491391   -1.246173   -0.994283
      6          6           0        2.494929    0.896279    0.584829
      7          6           0        3.616090    0.334984   -0.166431
      8          7           0        4.487542   -0.131916   -0.759727
      9          6           0       -1.938079   -0.940752    0.829231
     10          1           0       -0.153474   -2.648682    0.801076
     11          6           0       -3.043132   -0.211046    0.050773
     12          1           0       -1.439690   -0.252620    1.516472
     13          1           0       -2.411397   -1.707412    1.449800
     14          6           0       -2.553576    0.903323   -0.900964
     15          1           0       -3.750721    0.224958    0.762602
     16          1           0       -3.603288   -0.927202   -0.557389
     17          6           0       -1.717430    1.902076   -0.238079
     18          1           0       -3.410225    1.412078   -1.352158
     19          1           0       -1.976273    0.474258   -1.726423
     20          7           0       -1.032612    2.657550    0.300786
     21          1           0        2.879368    1.289716    1.530622
     22          1           0        2.091404    1.749148    0.030248
     23          1           0        1.771625   -0.949546    1.463750
     24          1           0        0.623234    0.384892    1.462748
 ---------------------------------------------------------------------

 SCF Done:  E(RHF) =  -760.338395525     A.U. after    2 cycles

 The electronic state is 1-A.
 Alpha  occ. eigenvalues --  -81.26461 -15.65200 -15.63312 -11.30501 -11.30312
 Alpha  occ. eigenvalues --  -11.28835 -11.28350 -11.27617 -11.26409 -11.26086
 Alpha  occ. eigenvalues --  -11.25546  -7.76739  -4.90756  -4.90736  -4.90419
 Alpha  occ. eigenvalues --   -1.20962  -1.19023  -1.10460  -1.09029  -1.00138
 Alpha  occ. eigenvalues --   -0.98025  -0.87243  -0.85307  -0.74363  -0.70595
 Alpha  occ. eigenvalues --   -0.70206  -0.67283  -0.64798  -0.64319  -0.61244
 Alpha  occ. eigenvalues --   -0.59302  -0.57756  -0.56319  -0.55152  -0.54599
 Alpha  occ. eigenvalues --   -0.53161  -0.52996  -0.51601  -0.47777  -0.47445
 Alpha  occ. eigenvalues --   -0.47044  -0.45779  -0.45294  -0.44543  -0.34741
 Alpha virt. eigenvalues --    0.02459   0.03286   0.04053   0.04364   0.05382
 Alpha virt. eigenvalues --    0.05530   0.06178   0.06546   0.07373   0.07808
 Alpha virt. eigenvalues --    0.08680   0.08927   0.09632   0.09955   0.10778

 Mulliken charges:
               1
     1  P    0.368976
     2  C    0.322490
     3  C    0.045287
     4  H   -0.239019
     5  H   -0.190357
     6  C    0.546698
     7  C   -0.215221
     8  N   -0.222223
     9  C    0.252524
    10  H    0.144345
    11  C    0.122830
    12  H   -0.241825
    13  H   -0.129848
    14  C    0.355856
    15  H   -0.060757
    16  H   -0.085043
    17  C   -0.257206
    18  H    0.002112
    19  H    0.029435
    20  N   -0.225381
    21  H   -0.007722
    22  H    0.000034
    23  H   -0.171749
    24  H   -0.144240
 Sum of Mulliken charges =  -0.00000

 Dipole moment (field-independent basis, Debye):
    X=             -5.5990    Y=             -0.5832    Z=              1.3328  Tot=              5.7849

 Test job not archived.
 1\1\GINC-SE453\SP\RHF\Aug-CC-pVDZ\C8H13N2P1\OHZDE\08-Apr-2025\0\\#t hf
  aug-cc-pvdz iop(5/13=1,5/36=2,99/5=2) pseudo=read geom=check guess=(r
 ead,tcheck) scf=(maxcycle=1)\\title\\0,1\P,0,-0.703901,-1.866453,-0.24
 5999\C,0,0.742354,-0.690424,-0.420129\C,0,1.372544,-0.130266,0.858528\
 H,0,0.419859,0.12889,-1.071033\H,0,1.491391,-1.246173,-0.994283\C,0,2.
 494929,0.896279,0.584829\C,0,3.61609,0.334984,-0.166431\N,0,4.487542,-
 0.131916,-0.759727\C,0,-1.938079,-0.940752,0.829231\H,0,-0.153474,-2.6
 48682,0.801076\C,0,-3.043132,-0.211046,0.050773\H,0,-1.43969,-0.25262,

 Normal termination of Gaussian 16 at Tue Apr  8 23:17:30 2025.
