 Gaussian 16, Revision C.01,

 ----------------------------------------------------------------------
 #t hf aug-cc-pvdz symm=none int=(grid=ultrafine) guess=(read,tcheck) s
 table=(opt,rrhf)
 ----------------------------------------------------------------------
 -----
 title
 -----
 Symbolic Z-matrix:
 Charge =  0 Multiplicity = 1

 SCF Done:  E(RHF) =  -492.909020146     A.U. after   14 cycles
 Normal termination of Gaussian 16 at Wed Apr  9 00:27:18 2025.
 Gaussian 16:  ES64L-G16RevC.01  3-Jul-2019

 ----------------------------------------------------------------------
 #t hf aug-cc-pvdz iop(5/13=1,5/36=2,99/5=2) pseudo=read geom=check gue
 ss=(read,tcheck) scf=(maxcycle=1)
 ----------------------------------------------------------------------
 -----
 title
 -----
 Structure from the checkpoint file:  "BDE49_nonexpt_313_mol1.chk"
 Charge =  0 Multiplicity = 1

                         Standard orientation:
 ---------------------------------------------------------------------
 Center     Atomic      Atomic             Coordinates (Angstroms)
 Number     Number       Type             X           Y           Z
 ---------------------------------------------------------------------
      1          6           0       -0.271663   -0.000044    0.591695
      2          5           0        2.145730   -0.000003   -0.048037
      3          9           0        2.576863   -1.126973   -0.603749
      4          9           0        2.576796    1.127052   -0.603631
      5          6           0       -0.927593    1.202653    0.307252
      6          6           0       -0.927660   -1.202694    0.307215
      7          6           0       -2.210929    1.203394   -0.233507
      8          6           0       -2.857989    0.000046   -0.505488
      9          6           0       -2.210997   -1.203346   -0.233545
     10          1           0       -2.705993   -2.145680   -0.440374
     11          1           0       -0.430999   -2.144652    0.515797
     12          1           0       -2.705872    2.145761   -0.440307
     13          1           0       -3.857798    0.000081   -0.924250
     14          1           0       -0.430878    2.144577    0.515863
     15          6           0        1.144806   -0.000092    1.154262
     16          1           0        1.296050   -0.885672    1.776223
     17          1           0        1.296057    0.885393    1.776357
 ---------------------------------------------------------------------

 SCF Done:  E(RHF) =  -493.078470039     A.U. after    2 cycles

 The electronic state is 1-A.
 Alpha  occ. eigenvalues --  -26.13461 -26.13453 -11.26740 -11.25201 -11.25187
 Alpha  occ. eigenvalues --  -11.24899 -11.24898 -11.24795 -11.23957  -7.73638
 Alpha  occ. eigenvalues --   -1.68780  -1.66461  -1.15379  -1.05231  -1.01617
 Alpha  occ. eigenvalues --   -0.95081  -0.87075  -0.83794  -0.81623  -0.81390
 Alpha  occ. eigenvalues --   -0.76911  -0.76490  -0.71783  -0.71232  -0.70493
 Alpha  occ. eigenvalues --   -0.64915  -0.64274  -0.59740  -0.58527  -0.56870
 Alpha  occ. eigenvalues --   -0.55833  -0.50194  -0.49989  -0.49400  -0.34727
 Alpha  occ. eigenvalues --   -0.33671
 Alpha virt. eigenvalues --    0.03112   0.03730   0.04051   0.05311   0.05668
 Alpha virt. eigenvalues --    0.05707   0.06965   0.07722   0.07772   0.08268
 Alpha virt. eigenvalues --    0.09284   0.10254   0.10637   0.11710   0.13446

 Mulliken charges:
               1
     1  C    0.301364
     2  B    1.165967
     3  F   -0.416003
     4  F   -0.416020
     5  C    0.445135
     6  C    0.445181
     7  C    0.275503
     8  C    0.563016
     9  C    0.275508
    10  H   -0.446005
    11  H   -0.572062
    12  H   -0.446009
    13  H   -0.432115
    14  H   -0.572075
    15  C    0.439586
    16  H   -0.305517
    17  H   -0.305453
 Sum of Mulliken charges =   0.00000

 Dipole moment (field-independent basis, Debye):
    X=             -1.2961    Y=             -0.0001    Z=              1.5349  Tot=              2.0089

 Test job not archived.
 1\1\GINC-SE184\SP\RHF\Aug-CC-pVDZ\C7H7B1F2\OHZDE\09-Apr-2025\0\\#t hf
 aug-cc-pvdz iop(5/13=1,5/36=2,99/5=2) pseudo=read geom=check guess=(re
 ad,tcheck) scf=(maxcycle=1)\\title\\0,1\C,0,-0.271663,-0.000044,0.5916
 95\B,0,2.14573,-0.000003,-0.048037\F,0,2.576863,-1.126973,-0.603749\F,
 0,2.576796,1.127052,-0.603631\C,0,-0.927593,1.202653,0.307252\C,0,-0.9
 2766,-1.202694,0.307215\C,0,-2.210929,1.203394,-0.233507\C,0,-2.857989
 ,0.000046,-0.505488\C,0,-2.210997,-1.203346,-0.233545\H,0,-2.705993,-2
 .14568,-0.440374\H,0,-0.430999,-2.144652,0.515797\H,0,-2.705872,2.1457

 Normal termination of Gaussian 16 at Wed Apr  9 00:27:27 2025.
