 Gaussian 16, Revision C.01,

 ----------------------------------------------------------------------
 #t hf aug-cc-pvdz symm=none int=(grid=ultrafine) guess=(read,tcheck) s
 table=(opt,rrhf)
 ----------------------------------------------------------------------
 -----
 title
 -----
 Symbolic Z-matrix:
 Charge =  0 Multiplicity = 1

 SCF Done:  E(RHF) =  -870.737741443     A.U. after   11 cycles
 Normal termination of Gaussian 16 at Tue Apr  8 23:09:19 2025.
 Gaussian 16:  ES64L-G16RevC.01  3-Jul-2019

 ----------------------------------------------------------------------
 #t hf aug-cc-pvdz iop(5/13=1,5/36=2,99/5=2) pseudo=read geom=check gue
 ss=(read,tcheck) scf=(maxcycle=1)
 ----------------------------------------------------------------------
 -----
 title
 -----
 Structure from the checkpoint file:  "BDE49_expt_455_mol1.chk"
 Charge =  0 Multiplicity = 1

                         Standard orientation:
 ---------------------------------------------------------------------
 Center     Atomic      Atomic             Coordinates (Angstroms)
 Number     Number       Type             X           Y           Z
 ---------------------------------------------------------------------
      1          7           0       -0.000001   -0.000001    0.758081
      2         14           0        1.605305    0.008752    0.076777
      3          6           0        1.675345    1.151490   -1.417172
      4          1           0        0.993321    0.833200   -2.211495
      5          1           0        2.683623    1.163722   -1.843714
      6          1           0        1.414149    2.177622   -1.143279
      7          6           0        2.151955   -1.712091   -0.461191
      8          1           0        1.491922   -2.116938   -1.234267
      9          1           0        2.139106   -2.409758    0.381936
     10          1           0        3.168901   -1.697572   -0.867565
     11          6           0        2.775758    0.627991    1.414757
     12          1           0        2.525910    1.647546    1.723042
     13          1           0        3.810844    0.631010    1.059186
     14          1           0        2.740298   -0.010311    2.303939
     15         14           0       -1.605306   -0.008752    0.076776
     16          6           0       -2.151973    1.712099   -0.461150
     17          1           0       -2.139132    2.409745    0.381993
     18          1           0       -3.168918    1.697580   -0.867526
     19          1           0       -1.491941    2.116972   -1.234215
     20          6           0       -2.775755   -0.628035    1.414738
     21          1           0       -2.740302    0.010244    2.303936
     22          1           0       -2.525899   -1.647596    1.722998
     23          1           0       -3.810841   -0.631054    1.059166
     24          6           0       -1.675329   -1.151454   -1.417202
     25          1           0       -0.993306   -0.833137   -2.211514
     26          1           0       -2.683606   -1.163684   -1.843746
     27          1           0       -1.414124   -2.177590   -1.143333
     28          1           0        0.000000    0.000005    1.771476
 ---------------------------------------------------------------------

 SCF Done:  E(RHF) =  -870.894462209     A.U. after    2 cycles

 The electronic state is 1-A.
 Alpha  occ. eigenvalues --  -69.05538 -69.05538 -15.57159 -11.20458 -11.20457
 Alpha  occ. eigenvalues --  -11.20369 -11.20369 -11.19996 -11.19995  -6.80481
 Alpha  occ. eigenvalues --   -6.80469  -3.91360  -3.91344  -3.91269  -3.91261
 Alpha  occ. eigenvalues --   -3.91215  -3.91215  -1.07473  -0.95597  -0.94398
 Alpha  occ. eigenvalues --   -0.91612  -0.91411  -0.91277  -0.90936  -0.65551
 Alpha  occ. eigenvalues --   -0.64193  -0.58058  -0.57023  -0.56304  -0.56263
 Alpha  occ. eigenvalues --   -0.55692  -0.55585  -0.54190  -0.54125  -0.53475
 Alpha  occ. eigenvalues --   -0.53222  -0.52856  -0.52555  -0.52356  -0.47262
 Alpha  occ. eigenvalues --   -0.45812  -0.42508  -0.42365  -0.42359  -0.36372
 Alpha virt. eigenvalues --    0.02752   0.03638   0.04190   0.04237   0.05902
 Alpha virt. eigenvalues --    0.05924   0.06210   0.06565   0.06567   0.07740
 Alpha virt. eigenvalues --    0.07761   0.07892   0.08099   0.08576   0.08908

 Mulliken charges:
               1
     1  N   -0.804614
     2  Si   1.423351
     3  C    0.625365
     4  H   -0.323794
     5  H   -0.264831
     6  H   -0.257377
     7  C    0.604111
     8  H   -0.324579
     9  H   -0.324667
    10  H   -0.231393
    11  C    0.541988
    12  H   -0.307825
    13  H   -0.346622
    14  H   -0.290140
    15  Si   1.423339
    16  C    0.604111
    17  H   -0.324672
    18  H   -0.231397
    19  H   -0.324573
    20  C    0.541992
    21  H   -0.290144
    22  H   -0.307823
    23  H   -0.346620
    24  C    0.625373
    25  H   -0.323797
    26  H   -0.264835
    27  H   -0.257373
    28  H   -0.242554
 Sum of Mulliken charges =  -0.00000

 Dipole moment (field-independent basis, Debye):
    X=             -0.0000    Y=              0.0000    Z=              0.4732  Tot=              0.4732

 Test job not archived.
 1\1\GINC-SE177\SP\RHF\Aug-CC-pVDZ\C6H19N1Si2\OHZDE\08-Apr-2025\0\\#t h
 f aug-cc-pvdz iop(5/13=1,5/36=2,99/5=2) pseudo=read geom=check guess=(
 read,tcheck) scf=(maxcycle=1)\\title\\0,1\N,0,-0.000001,-0.000001,0.75
 8081\Si,0,1.605305,0.008752,0.076777\C,0,1.675345,1.15149,-1.417172\H,
 0,0.993321,0.8332,-2.211495\H,0,2.683623,1.163722,-1.843714\H,0,1.4141
 49,2.177622,-1.143279\C,0,2.151955,-1.712091,-0.461191\H,0,1.491922,-2
 .116938,-1.234267\H,0,2.139106,-2.409758,0.381936\H,0,3.168901,-1.6975
 72,-0.867565\C,0,2.775758,0.627991,1.414757\H,0,2.52591,1.647546,1.723

 Normal termination of Gaussian 16 at Tue Apr  8 23:09:41 2025.
