 Gaussian 16, Revision C.01,

 ----------------------------------------------------------------------
 #t hf aug-cc-pvdz symm=none int=(grid=ultrafine) guess=(read,tcheck) s
 table=(opt,rrhf)
 ----------------------------------------------------------------------
 -----
 title
 -----
 Symbolic Z-matrix:
 Charge =  0 Multiplicity = 1

 SCF Done:  E(RHF) =  -794.680132139     A.U. after   15 cycles
 Normal termination of Gaussian 16 at Tue Apr  8 23:24:41 2025.
 Gaussian 16:  ES64L-G16RevC.01  3-Jul-2019

 ----------------------------------------------------------------------
 #t hf aug-cc-pvdz iop(5/13=1,5/36=2,99/5=2) pseudo=read geom=check gue
 ss=(read,tcheck) scf=(maxcycle=1)
 ----------------------------------------------------------------------
 -----
 title
 -----
 Structure from the checkpoint file:  "BDE49_nonexpt_1275_mol1.chk"
 Charge =  0 Multiplicity = 1

                         Standard orientation:
 ---------------------------------------------------------------------
 Center     Atomic      Atomic             Coordinates (Angstroms)
 Number     Number       Type             X           Y           Z
 ---------------------------------------------------------------------
      1          8           0       -1.255166   -1.062935    0.050504
      2          6           0       -2.574643   -0.755121    0.061105
      3          6           0       -0.573147    0.123565   -0.021723
      4          6           0       -2.759866    0.591918   -0.000187
      5          6           0       -1.454078    1.166158   -0.053422
      6          1           0       -3.705189    1.110063   -0.009049
      7          1           0       -3.249577   -1.593119    0.113378
      8          1           0       -1.186583    2.208598   -0.113136
      9         15           0        1.202350    0.142359   -0.033313
     10          8           0        1.719181   -0.727122    1.224911
     11          8           0        1.742286    1.504596   -0.076510
     12          1           0        1.936877   -0.157231    1.972504
     13          8           0        1.531338   -0.872218   -1.220547
     14          1           0        2.438512   -1.201366   -1.205500
 ---------------------------------------------------------------------

 SCF Done:  E(RHF) =  -794.889068501     A.U. after    2 cycles

 The electronic state is 1-A.
 Alpha  occ. eigenvalues --  -81.42543 -20.65646 -20.61833 -20.61812 -20.52582
 Alpha  occ. eigenvalues --  -11.32490 -11.30849 -11.26943 -11.25656  -7.90826
 Alpha  occ. eigenvalues --   -5.05504  -5.05385  -5.05212  -1.43845  -1.38433
 Alpha  occ. eigenvalues --   -1.34760  -1.26178  -1.09852  -1.02977  -0.86983
 Alpha  occ. eigenvalues --   -0.83221  -0.79478  -0.77572  -0.75514  -0.68266
 Alpha  occ. eigenvalues --   -0.66772  -0.66016  -0.63480  -0.60236  -0.59755
 Alpha  occ. eigenvalues --   -0.59667  -0.58468  -0.57028  -0.53521  -0.49169
 Alpha  occ. eigenvalues --   -0.48593  -0.42345  -0.34721
 Alpha virt. eigenvalues --    0.02935   0.03842   0.04363   0.05117   0.05999
 Alpha virt. eigenvalues --    0.08425   0.08581   0.09833   0.10172   0.11913
 Alpha virt. eigenvalues --    0.12576   0.13002   0.13091   0.13731   0.14487

 Mulliken charges:
               1
     1  O   -0.541480
     2  C    0.655515
     3  C   -0.161277
     4  C    0.496436
     5  C    0.536469
     6  H   -0.303792
     7  H   -0.355631
     8  H   -0.390677
     9  P    2.078327
    10  O   -0.719448
    11  O   -0.901378
    12  H    0.155255
    13  O   -0.710883
    14  H    0.162562
 Sum of Mulliken charges =  -0.00000

 Dipole moment (field-independent basis, Debye):
    X=             -1.9329    Y=             -1.4231    Z=              1.2675  Tot=              2.7143

 Test job not archived.
 1\1\GINC-SE184\SP\RHF\Aug-CC-pVDZ\C4H5O4P1\OHZDE\08-Apr-2025\0\\#t hf
 aug-cc-pvdz iop(5/13=1,5/36=2,99/5=2) pseudo=read geom=check guess=(re
 ad,tcheck) scf=(maxcycle=1)\\title\\0,1\O,0,-1.255166,-1.062935,0.0505
 04\C,0,-2.574643,-0.755121,0.061105\C,0,-0.573147,0.123565,-0.021723\C
 ,0,-2.759866,0.591918,-0.000187\C,0,-1.454078,1.166158,-0.053422\H,0,-
 3.705189,1.110063,-0.009049\H,0,-3.249577,-1.593119,0.113378\H,0,-1.18
 6583,2.208598,-0.113136\P,0,1.20235,0.142359,-0.033313\O,0,1.719181,-0
 .727122,1.224911\O,0,1.742286,1.504596,-0.07651\H,0,1.936877,-0.157231

 Normal termination of Gaussian 16 at Tue Apr  8 23:24:47 2025.
