 Gaussian 16, Revision C.01,

 ----------------------------------------------------------------------
 #t hf aug-cc-pvdz symm=none int=(grid=ultrafine) guess=(read,tcheck) s
 table=(opt,rrhf)
 ----------------------------------------------------------------------
 -----
 title
 -----
 Symbolic Z-matrix:
 Charge =  0 Multiplicity = 1

 SCF Done:  E(RHF) =  -699.917646392     A.U. after   16 cycles
 Normal termination of Gaussian 16 at Tue Apr  8 23:32:40 2025.
 Gaussian 16:  ES64L-G16RevC.01  3-Jul-2019

 ----------------------------------------------------------------------
 #t hf aug-cc-pvdz iop(5/13=1,5/36=2,99/5=2) pseudo=read geom=check gue
 ss=(read,tcheck) scf=(maxcycle=1)
 ----------------------------------------------------------------------
 -----
 title
 -----
 Structure from the checkpoint file:  "BDE49_nonexpt_1456_mol1.chk"
 Charge =  0 Multiplicity = 1

                         Standard orientation:
 ---------------------------------------------------------------------
 Center     Atomic      Atomic             Coordinates (Angstroms)
 Number     Number       Type             X           Y           Z
 ---------------------------------------------------------------------
      1          6           0       -1.475961   -0.476270    0.026371
      2         15           0       -0.945426    1.305113   -0.240640
      3          6           0        0.844140    0.774384    0.040067
      4          7           0        0.948988   -0.591246   -0.067037
      5          6           0       -0.257311   -1.396497   -0.115404
      6          1           0       -0.284908   -2.131136    0.698542
      7          1           0       -0.341263   -1.948773   -1.061488
      8          8           0       -2.584367   -0.885582    0.241360
      9          6           0        2.247067   -1.247472   -0.003197
     10          1           0        3.012970   -0.475294    0.026599
     11          1           0        2.399040   -1.881693   -0.881780
     12          1           0        2.326071   -1.867450    0.896300
     13          8           0        1.769917    1.536590    0.212581
     14          1           0       -1.205449    1.733441    1.082137
 ---------------------------------------------------------------------

 SCF Done:  E(RHF) =  -700.047985571     A.U. after    2 cycles

 The electronic state is 1-A.
 Alpha  occ. eigenvalues --  -81.29269 -20.59952 -20.55894 -15.67868 -11.38630
 Alpha  occ. eigenvalues --  -11.37744 -11.31544 -11.28839  -7.79798  -4.93747
 Alpha  occ. eigenvalues --   -4.93710  -4.93439  -1.39058  -1.36920  -1.24725
 Alpha  occ. eigenvalues --   -1.03424  -0.96899  -0.89004  -0.77900  -0.75489
 Alpha  occ. eigenvalues --   -0.69699  -0.69363  -0.67044  -0.64006  -0.63454
 Alpha  occ. eigenvalues --   -0.61010  -0.58283  -0.56829  -0.56214  -0.54965
 Alpha  occ. eigenvalues --   -0.47367  -0.41171  -0.40075  -0.38653
 Alpha virt. eigenvalues --    0.02758   0.04187   0.04406   0.05009   0.06792
 Alpha virt. eigenvalues --    0.07098   0.07641   0.07686   0.08796   0.09423
 Alpha virt. eigenvalues --    0.11187   0.11921   0.12231   0.12906   0.13722

 Mulliken charges:
               1
     1  C   -0.060515
     2  P    0.240900
     3  C    0.148920
     4  N   -0.384930
     5  C    0.657707
     6  H   -0.114850
     7  H   -0.078901
     8  O   -0.470087
     9  C    0.730167
    10  H   -0.229494
    11  H   -0.089464
    12  H   -0.074523
    13  O   -0.502276
    14  H    0.227346
 Sum of Mulliken charges =   0.00000

 Dipole moment (field-independent basis, Debye):
    X=              0.9362    Y=             -2.6591    Z=             -0.4373  Tot=              2.8528

 Test job not archived.
 1\1\GINC-SE454\SP\RHF\Aug-CC-pVDZ\C4H6N1O2P1\OHZDE\08-Apr-2025\0\\#t h
 f aug-cc-pvdz iop(5/13=1,5/36=2,99/5=2) pseudo=read geom=check guess=(
 read,tcheck) scf=(maxcycle=1)\\title\\0,1\C,0,-1.475961,-0.47627,0.026
 371\P,0,-0.945426,1.305113,-0.24064\C,0,0.84414,0.774384,0.040067\N,0,
 0.948988,-0.591246,-0.067037\C,0,-0.257311,-1.396497,-0.115404\H,0,-0.
 284908,-2.131136,0.698542\H,0,-0.341263,-1.948773,-1.061488\O,0,-2.584
 367,-0.885582,0.24136\C,0,2.247067,-1.247472,-0.003197\H,0,3.01297,-0.
 475294,0.026599\H,0,2.39904,-1.881693,-0.88178\H,0,2.326071,-1.86745,0

 Normal termination of Gaussian 16 at Tue Apr  8 23:32:45 2025.
