 Gaussian 16, Revision C.01,

 ----------------------------------------------------------------------
 #t hf aug-cc-pvdz symm=none int=(grid=ultrafine) guess=(read,tcheck) s
 table=(opt,rrhf)
 ----------------------------------------------------------------------
 -----
 title
 -----
 Symbolic Z-matrix:
 Charge =  0 Multiplicity = 1

 SCF Done:  E(RHF) =  -507.517654001     A.U. after   13 cycles
 Normal termination of Gaussian 16 at Tue Apr  8 23:37:07 2025.
 Gaussian 16:  ES64L-G16RevC.01  3-Jul-2019

 ----------------------------------------------------------------------
 #t hf aug-cc-pvdz iop(5/13=1,5/36=2,99/5=2) pseudo=read geom=check gue
 ss=(read,tcheck) scf=(maxcycle=1)
 ----------------------------------------------------------------------
 -----
 title
 -----
 Structure from the checkpoint file:  "BDE49_nonexpt_1582_mol1.chk"
 Charge =  0 Multiplicity = 1

                         Standard orientation:
 ---------------------------------------------------------------------
 Center     Atomic      Atomic             Coordinates (Angstroms)
 Number     Number       Type             X           Y           Z
 ---------------------------------------------------------------------
      1          7           0        0.388781    0.003226   -0.303055
      2         15           0       -1.313724   -0.167939   -0.022612
      3          7           0        1.077007   -1.187778    0.047911
      4          7           0        1.081567    1.189233    0.083346
      5          1           0        0.680321    1.573951    0.940514
      6          1           0        0.963834    1.880530   -0.650906
      7          1           0        1.426405   -1.114529    1.004248
      8          1           0        1.888150   -1.262145   -0.559276
      9          1           0       -1.672158    1.109515   -0.530313
     10          1           0       -1.412178    0.298994    1.337490
 ---------------------------------------------------------------------

 SCF Done:  E(RHF) =  -507.594285298     A.U. after    2 cycles

 The electronic state is 1-A.
 Alpha  occ. eigenvalues --  -81.28008 -15.67457 -15.65148 -15.64386  -7.78020
 Alpha  occ. eigenvalues --   -4.92107  -4.91846  -4.91635  -1.27602  -1.11942
 Alpha  occ. eigenvalues --   -0.94474  -0.77805  -0.70281  -0.66529  -0.64164
 Alpha  occ. eigenvalues --   -0.59435  -0.51621  -0.44191  -0.42075  -0.38621
 Alpha  occ. eigenvalues --   -0.35089
 Alpha virt. eigenvalues --    0.03263   0.04474   0.04731   0.05525   0.08078
 Alpha virt. eigenvalues --    0.08672   0.09124   0.11248   0.11938   0.15061
 Alpha virt. eigenvalues --    0.16407   0.17572   0.18797   0.18941   0.19376

 Mulliken charges:
               1
     1  N   -0.602701
     2  P    0.465365
     3  N   -0.078512
     4  N   -0.063729
     5  H    0.053525
     6  H    0.063606
     7  H    0.074623
     8  H    0.093176
     9  H   -0.014239
    10  H    0.008886
 Sum of Mulliken charges =  -0.00000

 Dipole moment (field-independent basis, Debye):
    X=              0.5403    Y=              1.8471    Z=              0.8107  Tot=              2.0883

 Test job not archived.
 1\1\GINC-SE340\SP\RHF\Aug-CC-pVDZ\H6N3P1\OHZDE\08-Apr-2025\0\\#t hf au
 g-cc-pvdz iop(5/13=1,5/36=2,99/5=2) pseudo=read geom=check guess=(read
 ,tcheck) scf=(maxcycle=1)\\title\\0,1\N,0,0.388781,0.003226,-0.303055\
 P,0,-1.313724,-0.167939,-0.022612\N,0,1.077007,-1.187778,0.047911\N,0,
 1.081567,1.189233,0.083346\H,0,0.680321,1.573951,0.940514\H,0,0.963834
 ,1.88053,-0.650906\H,0,1.426405,-1.114529,1.004248\H,0,1.88815,-1.2621
 45,-0.559276\H,0,-1.672158,1.109515,-0.530313\H,0,-1.412178,0.298994,1
 .33749\\Version=ES64L-G16RevC.01\State=1-A\HF=-507.5942853\RMSD=7.479e

 Normal termination of Gaussian 16 at Tue Apr  8 23:37:09 2025.
