 Gaussian 16, Revision C.01,

 ----------------------------------------------------------------------
 #t hf aug-cc-pvdz symm=none int=(grid=ultrafine) guess=(read,tcheck) s
 table=(opt,rrhf)
 ----------------------------------------------------------------------
 -----
 title
 -----
 Symbolic Z-matrix:
 Charge =  0 Multiplicity = 1

 SCF Done:  E(RHF) =  -65.4478017649     A.U. after   11 cycles
 Normal termination of Gaussian 16 at Wed Apr  9 00:25:55 2025.
 Gaussian 16:  ES64L-G16RevC.01  3-Jul-2019

 ----------------------------------------------------------------------
 #t hf aug-cc-pvdz iop(5/13=1,5/36=2,99/5=2) pseudo=read geom=check gue
 ss=(read,tcheck) scf=(maxcycle=1)
 ----------------------------------------------------------------------
 -----
 title
 -----
 Structure from the checkpoint file:  "BDE49_nonexpt_310_mol1.chk"
 Charge =  0 Multiplicity = 1

                         Standard orientation:
 ---------------------------------------------------------------------
 Center     Atomic      Atomic             Coordinates (Angstroms)
 Number     Number       Type             X           Y           Z
 ---------------------------------------------------------------------
      1          6           0        0.682140    0.000005   -0.016388
      2          5           0       -0.872035    0.000002   -0.020890
      3          1           0        1.145809   -0.896006   -0.436242
      4          1           0        0.948246   -0.000098    1.057062
      5          1           0        1.145824    0.896074   -0.436095
      6          1           0       -1.486263   -1.024300    0.009024
      7          1           0       -1.486283    1.024292    0.009026
 ---------------------------------------------------------------------

 SCF Done:  E(RHF) =  -65.4717364573     A.U. after    2 cycles

 The electronic state is 1-A.
 Alpha  occ. eigenvalues --  -11.20926  -7.61228  -0.94676  -0.66273  -0.57428
 Alpha  occ. eigenvalues --   -0.54780  -0.47873  -0.46224
 Alpha virt. eigenvalues --    0.03582   0.04566   0.04753   0.05465   0.07271
 Alpha virt. eigenvalues --    0.08273   0.08563   0.11773   0.12421   0.12670
 Alpha virt. eigenvalues --    0.16373   0.16551   0.17824   0.18793   0.24330

 Mulliken charges:
               1
     1  C    0.369961
     2  B   -0.171184
     3  H   -0.223376
     4  H   -0.177974
     5  H   -0.223393
     6  H    0.212979
     7  H    0.212987
 Sum of Mulliken charges =  -0.00000

 Dipole moment (field-independent basis, Debye):
    X=              0.5117    Y=             -0.0000    Z=              0.0511  Tot=              0.5143

 Test job not archived.
 1\1\GINC-SE103\SP\RHF\Aug-CC-pVDZ\C1H5B1\OHZDE\09-Apr-2025\0\\#t hf au
 g-cc-pvdz iop(5/13=1,5/36=2,99/5=2) pseudo=read geom=check guess=(read
 ,tcheck) scf=(maxcycle=1)\\title\\0,1\C,0,0.68214,0.000005,-0.016388\B
 ,0,-0.872035,0.000002,-0.02089\H,0,1.145809,-0.896006,-0.436242\H,0,0.
 948246,-0.000098,1.057062\H,0,1.145824,0.896074,-0.436095\H,0,-1.48626
 3,-1.0243,0.009024\H,0,-1.486283,1.024292,0.009026\\Version=ES64L-G16R
 evC.01\State=1-A\HF=-65.4717365\RMSD=2.097e-03\Dipole=0.2013295,-0.000
 0059,0.020092\Quadrupole=-0.9544616,-0.3287383,1.2831999,-0.0000163,0.

 Normal termination of Gaussian 16 at Wed Apr  9 00:25:57 2025.
