 Gaussian 16, Revision C.01,

 ----------------------------------------------------------------------
 #t hf aug-cc-pvdz symm=none int=(grid=ultrafine) guess=(read,tcheck) s
 table=opt
 ----------------------------------------------------------------------
 -----
 title
 -----
 Symbolic Z-matrix:
 Charge =  0 Multiplicity = 2

 SCF Done:  E(UHF) =  -498.490517110     A.U. after   15 cycles

 1\1\GINC-SE072\Stability\UHF\Aug-CC-pVDZ\C1H2Cl1\OHZDE\08-Apr-2025\0\\
 #t hf aug-cc-pvdz symm=none int=(grid=ultrafine) guess=(read,tcheck) s
 table=opt\\title\\0,2\C,0,0.,0.,-1.122869\Cl,0,0.,0.,0.587038\H,0,0.,0
 .95559,-1.621219\H,0,0.,-0.95559,-1.621219\\Version=ES64L-G16RevC.01\H
 F=-498.4905171\S2=0.766722\S2-1=0.\S2A=0.750202\RMSD=2.969e-09\Dipole=
 0.,0.,-0.5957451\Quadrupole=-1.3926887,0.1750719,1.2176168,0.,0.,0.\PG
 =Unknown\\@
 The archive entry for this job was punched.

 Normal termination of Gaussian 16 at Tue Apr  8 22:27:14 2025.
 Gaussian 16:  ES64L-G16RevC.01  3-Jul-2019

 ----------------------------------------------------------------------
 #t hf aug-cc-pvdz iop(5/13=1,5/36=2,99/5=2) pseudo=read geom=check gue
 ss=(read,tcheck) scf=(maxcycle=1)
 ----------------------------------------------------------------------
 -----
 title
 -----
 Structure from the checkpoint file:  "BDE49_expt_1013_mol3.chk"
 Charge =  0 Multiplicity = 2

                         Standard orientation:
 ---------------------------------------------------------------------
 Center     Atomic      Atomic             Coordinates (Angstroms)
 Number     Number       Type             X           Y           Z
 ---------------------------------------------------------------------
      1          6           0        0.000000   -0.000000   -1.122869
      2         17           0        0.000000    0.000000    0.587038
      3          1           0        0.000000    0.955590   -1.621219
      4          1           0       -0.000000   -0.955590   -1.621219
 ---------------------------------------------------------------------

 SCF Done:  E(UHF) =  -498.523978947     A.U. after    2 cycles

 The electronic state is 2-B1.
 Alpha  occ. eigenvalues -- -103.67294 -11.31102 -10.70583  -8.36217  -8.36157
 Alpha  occ. eigenvalues --   -8.35992  -1.19344  -0.92051  -0.65651  -0.59475
 Alpha  occ. eigenvalues --   -0.55197  -0.46523  -0.37341
 Alpha virt. eigenvalues --    0.03648   0.05195   0.07540   0.11206   0.13767
 Alpha virt. eigenvalues --    0.16193   0.16336   0.16643   0.17873   0.22839
 Alpha virt. eigenvalues --    0.25409   0.29720   0.31001   0.32649   0.42450

  Beta  occ. eigenvalues -- -103.67249 -11.28434 -10.70534  -8.36430  -8.35961
  Beta  occ. eigenvalues --   -8.35743  -1.17593  -0.84231  -0.64186  -0.58341
  Beta  occ. eigenvalues --   -0.48695  -0.46362
  Beta virt. eigenvalues --    0.03800   0.05231   0.06799   0.07725   0.13946
  Beta virt. eigenvalues --    0.14912   0.16330   0.16835   0.18051   0.18771
  Beta virt. eigenvalues --    0.25404   0.26153   0.30182   0.31230   0.33939

 Mulliken charges and spin densities:
               1          2
     1  C    0.241520   1.252643
     2  Cl  -0.120877  -0.023970
     3  H   -0.060321  -0.114337
     4  H   -0.060321  -0.114337
 Sum of Mulliken charges =   0.00000   1.00000

 Dipole moment (field-independent basis, Debye):
    X=              0.0000    Y=              0.0000    Z=             -1.5679  Tot=              1.5679
                          Isotropic Fermi Contact Couplings
        Atom                 a.u.       MegaHertz       Gauss      10(-4) cm-1
     1  C(13)              0.23735     266.83183      95.21223      89.00552
     2  Cl(35)             0.03417      14.98067       5.34547       4.99701
     3  H(1)              -0.02746    -122.76143     -43.80433     -40.94880
     4  H(1)              -0.02746    -122.76143     -43.80433     -40.94880
 --------------------------------------------------------
       Center         ----  Spin Dipole Couplings  ----
                      3XX-RR        3YY-RR        3ZZ-RR
 --------------------------------------------------------

 Normal termination of Gaussian 16 at Tue Apr  8 22:27:15 2025.
