 Gaussian 16, Revision C.01,

 ----------------------------------------------------------------------
 #t hf aug-cc-pvdz symm=none int=(grid=ultrafine) guess=(read,tcheck) s
 table=(opt,rrhf)
 ----------------------------------------------------------------------
 -----
 title
 -----
 Symbolic Z-matrix:
 Charge =  0 Multiplicity = 1

 SCF Done:  E(RHF) =  -528.013087922     A.U. after   11 cycles
 Normal termination of Gaussian 16 at Tue Apr  8 23:55:19 2025.
 Gaussian 16:  ES64L-G16RevC.01  3-Jul-2019

 ----------------------------------------------------------------------
 #t hf aug-cc-pvdz iop(5/13=1,5/36=2,99/5=2) pseudo=read geom=check gue
 ss=(read,tcheck) scf=(maxcycle=1)
 ----------------------------------------------------------------------
 -----
 title
 -----
 Structure from the checkpoint file:  "BDE49_nonexpt_2017_mol1.chk"
 Charge =  0 Multiplicity = 1

                         Standard orientation:
 ---------------------------------------------------------------------
 Center     Atomic      Atomic             Coordinates (Angstroms)
 Number     Number       Type             X           Y           Z
 ---------------------------------------------------------------------
      1         14           0       -1.340883   -0.000000   -0.039642
      2          6           0        0.525174   -0.000000    0.396939
      3          9           0        1.123900   -1.112703   -0.158873
      4          9           0        1.123900    1.112703   -0.158873
      5          1           0        0.771397    0.000000    1.463457
      6          1           0       -1.461087   -0.000000   -1.510936
      7          1           0       -1.959596    1.211425    0.540272
      8          1           0       -1.959597   -1.211424    0.540272
 ---------------------------------------------------------------------

 SCF Done:  E(RHF) =  -528.121360774     A.U. after    2 cycles

 The electronic state is 1-A.
 Alpha  occ. eigenvalues --  -69.08696 -26.13440 -26.13433 -11.40774  -6.84098
 Alpha  occ. eigenvalues --   -3.94886  -3.94858  -3.94848  -1.69043  -1.64909
 Alpha  occ. eigenvalues --   -0.98918  -0.81236  -0.80587  -0.80096  -0.72813
 Alpha  occ. eigenvalues --   -0.70688  -0.69339  -0.63220  -0.50475  -0.50420
 Alpha  occ. eigenvalues --   -0.48398
 Alpha virt. eigenvalues --    0.03251   0.04433   0.05856   0.06101   0.07132
 Alpha virt. eigenvalues --    0.08780   0.08783   0.11115   0.11404   0.14719
 Alpha virt. eigenvalues --    0.15597   0.17105   0.17731   0.18310   0.20965

 Mulliken charges:
               1
     1  Si   0.634410
     2  C    0.632551
     3  F   -0.403656
     4  F   -0.403656
     5  H   -0.238183
     6  H   -0.085660
     7  H   -0.067903
     8  H   -0.067903
 Sum of Mulliken charges =  -0.00000

 Dipole moment (field-independent basis, Debye):
    X=             -2.0876    Y=             -0.0000    Z=              1.5701  Tot=              2.6122

 Test job not archived.
 1\1\GINC-SE362\SP\RHF\Aug-CC-pVDZ\C1H4F2Si1\OHZDE\08-Apr-2025\0\\#t hf
  aug-cc-pvdz iop(5/13=1,5/36=2,99/5=2) pseudo=read geom=check guess=(r
 ead,tcheck) scf=(maxcycle=1)\\title\\0,1\Si,0,1.340883,0.,-0.039642\C,
 0,-0.525174,0.,0.396939\F,0,-1.1239,1.112703,-0.158873\F,0,-1.1239,-1.
 112703,-0.158873\H,0,-0.771397,0.,1.463457\H,0,1.461087,0.,-1.510936\H
 ,0,1.959596,-1.211425,0.540272\H,0,1.959597,1.211424,0.540272\\Version
 =ES64L-G16RevC.01\State=1-A\HF=-528.1213608\RMSD=5.446e-03\Dipole=0.82
 13378,0.0000005,0.6177276\Quadrupole=-0.31996,-1.7037311,2.0236911,0.0

 Normal termination of Gaussian 16 at Tue Apr  8 23:55:21 2025.
