 Gaussian 16, Revision C.01,

 ----------------------------------------------------------------------
 #t hf aug-cc-pvdz symm=none int=(grid=ultrafine) guess=(read,tcheck) s
 table=(opt,rrhf)
 ----------------------------------------------------------------------
 -----
 title
 -----
 Symbolic Z-matrix:
 Charge =  0 Multiplicity = 1

 SCF Done:  E(RHF) =  -1076.30525206     A.U. after   13 cycles
 Normal termination of Gaussian 16 at Wed Apr  9 00:00:29 2025.
 Gaussian 16:  ES64L-G16RevC.01  3-Jul-2019

 ----------------------------------------------------------------------
 #t hf aug-cc-pvdz iop(5/13=1,5/36=2,99/5=2) pseudo=read geom=check gue
 ss=(read,tcheck) scf=(maxcycle=1)
 ----------------------------------------------------------------------
 -----
 title
 -----
 Structure from the checkpoint file:  "BDE49_nonexpt_214_mol1.chk"
 Charge =  0 Multiplicity = 1

                         Standard orientation:
 ---------------------------------------------------------------------
 Center     Atomic      Atomic             Coordinates (Angstroms)
 Number     Number       Type             X           Y           Z
 ---------------------------------------------------------------------
      1         17           0        1.640074   -1.079114   -0.000002
      2         17           0        0.643336    1.771341    0.000019
      3          5           0        0.285509    0.049508   -0.000006
      4          6           0       -1.205037   -0.482576   -0.000049
      5          6           0       -2.347624    0.505046    0.000025
      6          7           0       -1.485869   -1.732758   -0.000033
      7          1           0       -2.302410    1.157170    0.877620
      8          1           0       -3.292455   -0.037885    0.000032
      9          1           0       -2.302457    1.157227   -0.877529
     10          1           0       -0.631142   -2.297433   -0.000007
 ---------------------------------------------------------------------

 SCF Done:  E(RHF) =  -1076.38639324     A.U. after    2 cycles

 The electronic state is 1-A.
 Alpha  occ. eigenvalues -- -103.68532-103.68445 -15.64585 -11.29960 -11.24393
 Alpha  occ. eigenvalues --  -10.72020 -10.71923  -8.37708  -8.37617  -8.37490
 Alpha  occ. eigenvalues --   -8.37454  -8.37395  -8.37368  -7.74898  -1.21075
 Alpha  occ. eigenvalues --   -1.18443  -1.16043  -0.99119  -0.80265  -0.72893
 Alpha  occ. eigenvalues --   -0.65922  -0.61301  -0.59393  -0.56551  -0.55277
 Alpha  occ. eigenvalues --   -0.54053  -0.51026  -0.49513  -0.48297  -0.43930
 Alpha  occ. eigenvalues --   -0.42291
 Alpha virt. eigenvalues --    0.03446   0.03489   0.04852   0.04881   0.05105
 Alpha virt. eigenvalues --    0.07050   0.07479   0.07676   0.08407   0.12894
 Alpha virt. eigenvalues --    0.13170   0.13488   0.15024   0.16018   0.16229

 Mulliken charges:
               1
     1  Cl  -0.317345
     2  Cl  -0.281265
     3  B    0.567113
     4  C    0.251500
     5  C    0.216238
     6  N   -0.410369
     7  H    0.001817
     8  H   -0.059461
     9  H    0.001825
    10  H    0.029948
 Sum of Mulliken charges =  -0.00000

 Dipole moment (field-independent basis, Debye):
    X=              0.1214    Y=              0.9232    Z=              0.0001  Tot=              0.9311

 Test job not archived.
 1\1\GINC-SE368\SP\RHF\Aug-CC-pVDZ\C2H4B1Cl2N1\OHZDE\09-Apr-2025\0\\#t
 hf aug-cc-pvdz iop(5/13=1,5/36=2,99/5=2) pseudo=read geom=check guess=
 (read,tcheck) scf=(maxcycle=1)\\title\\0,1\Cl,0,1.640075,-1.079112,-0.
 000002\Cl,0,0.643334,1.771342,0.000019\B,0,0.285509,0.049509,-0.000006
 \C,0,-1.205036,-0.482577,-0.000049\C,0,-2.347624,0.505044,0.000025\N,0
 ,-1.485867,-1.732759,-0.000033\H,0,-2.302411,1.157168,0.87762\H,0,-3.2
 92455,-0.037888,0.000032\H,0,-2.302458,1.157225,-0.877529\H,0,-0.63114
 ,-2.297433,-0.000007\\Version=ES64L-G16RevC.01\State=1-A\HF=-1076.3863

 Normal termination of Gaussian 16 at Wed Apr  9 00:00:32 2025.
