 Gaussian 16, Revision C.01,

 ----------------------------------------------------------------------
 #t hf aug-cc-pvdz symm=none int=(grid=ultrafine) guess=(read,tcheck) s
 table=(opt,rrhf)
 ----------------------------------------------------------------------
 -----
 title
 -----
 Symbolic Z-matrix:
 Charge =  0 Multiplicity = 1

 SCF Done:  E(RHF) =  -1327.42091926     A.U. after   15 cycles
 Normal termination of Gaussian 16 at Wed Apr  9 00:51:51 2025.
 Gaussian 16:  ES64L-G16RevC.01  3-Jul-2019

 ----------------------------------------------------------------------
 #t hf aug-cc-pvdz iop(5/13=1,5/36=2,99/5=2) pseudo=read geom=check gue
 ss=(read,tcheck) scf=(maxcycle=1)
 ----------------------------------------------------------------------
 -----
 title
 -----
 Structure from the checkpoint file:  "BDE49_nonexpt_959_mol1.chk"
 Charge =  0 Multiplicity = 1

                         Standard orientation:
 ---------------------------------------------------------------------
 Center     Atomic      Atomic             Coordinates (Angstroms)
 Number     Number       Type             X           Y           Z
 ---------------------------------------------------------------------
      1          9           0        0.154765    1.866956   -0.482825
      2          7           0        0.013080    0.476847   -0.666835
      3         16           0        1.514866   -0.269460   -0.133000
      4         16           0       -1.530288    0.010907    0.156581
      5          8           0        1.184995   -1.671655   -0.159286
      6          8           0        2.533479    0.295441   -0.967369
      7          8           0       -1.280037   -0.400541    1.515316
      8          8           0       -2.420654    1.094042   -0.143817
      9          6           0        1.762210    0.295290    1.542131
     10          1           0        2.731735   -0.101158    1.845307
     11          1           0        0.955332   -0.089090    2.160846
     12          1           0        1.781915    1.383719    1.524678
     13          6           0       -1.908592   -1.414154   -0.842996
     14          1           0       -1.102738   -2.135956   -0.728293
     15          1           0       -2.019511   -1.085026   -1.873666
     16          1           0       -2.848386   -1.801291   -0.446469
 ---------------------------------------------------------------------

 SCF Done:  E(RHF) =  -1327.74696225     A.U. after    2 cycles

 The electronic state is 1-A.
 Alpha  occ. eigenvalues --  -93.84594 -93.84180 -26.19354 -20.60711 -20.60313
 Alpha  occ. eigenvalues --  -20.60262 -20.59770 -15.79717 -11.31428 -11.31011
 Alpha  occ. eigenvalues --   -9.10993  -9.10584  -6.45615  -6.45472  -6.45293
 Alpha  occ. eigenvalues --   -6.45223  -6.45069  -6.44893  -1.70952  -1.47522
 Alpha  occ. eigenvalues --   -1.46883  -1.35657  -1.35343  -1.18764  -1.07585
 Alpha  occ. eigenvalues --   -1.05161  -0.91172  -0.85374  -0.80475  -0.80253
 Alpha  occ. eigenvalues --   -0.78356  -0.72819  -0.71924  -0.71234  -0.70259
 Alpha  occ. eigenvalues --   -0.70049  -0.65167  -0.64015  -0.63497  -0.63311
 Alpha  occ. eigenvalues --   -0.60267  -0.57138  -0.55756  -0.55285  -0.54224
 Alpha  occ. eigenvalues --   -0.53643  -0.53118  -0.49676  -0.48809
 Alpha virt. eigenvalues --    0.03055   0.03581   0.05227   0.05454   0.06322
 Alpha virt. eigenvalues --    0.06517   0.08594   0.10147   0.10843   0.11375
 Alpha virt. eigenvalues --    0.11868   0.12323   0.13095   0.13802   0.14358

 Mulliken charges:
               1
     1  F   -0.436391
     2  N   -0.973425
     3  S    2.590403
     4  S    2.652430
     5  O   -1.057267
     6  O   -0.989081
     7  O   -1.081801
     8  O   -0.984500
     9  C   -0.032928
    10  H    0.053350
    11  H    0.045403
    12  H    0.067093
    13  C    0.051182
    14  H    0.014361
    15  H    0.013949
    16  H    0.067222
 Sum of Mulliken charges =  -0.00000

 Dipole moment (field-independent basis, Debye):
    X=             -0.5308    Y=             -2.2492    Z=              1.2541  Tot=              2.6293

 Test job not archived.
 1\1\GINC-SE102\SP\RHF\Aug-CC-pVDZ\C2H6F1N1O4S2\OHZDE\09-Apr-2025\0\\#t
  hf aug-cc-pvdz iop(5/13=1,5/36=2,99/5=2) pseudo=read geom=check guess
 =(read,tcheck) scf=(maxcycle=1)\\title\\0,1\F,0,0.154765,1.866956,-0.4
 82825\N,0,0.01308,0.476847,-0.666835\S,0,1.514866,-0.26946,-0.133\S,0,
 -1.530288,0.010907,0.156581\O,0,1.184995,-1.671655,-0.159286\O,0,2.533
 479,0.295441,-0.967369\O,0,-1.280037,-0.400541,1.515316\O,0,-2.420654,
 1.094042,-0.143817\C,0,1.76221,0.29529,1.542131\H,0,2.731735,-0.101158
 ,1.845307\H,0,0.955332,-0.08909,2.160846\H,0,1.781915,1.383719,1.52467

 Normal termination of Gaussian 16 at Wed Apr  9 00:52:01 2025.
