 Gaussian 16, Revision C.01,

 ----------------------------------------------------------------------
 #t hf aug-cc-pvdz symm=none int=(grid=ultrafine) guess=(read,tcheck) s
 table=(opt,rrhf)
 ----------------------------------------------------------------------
 -----
 title
 -----
 Symbolic Z-matrix:
 Charge =  0 Multiplicity = 1

 SCF Done:  E(RHF) =  -1030.29438401     A.U. after   15 cycles
 Normal termination of Gaussian 16 at Tue Apr  8 23:20:06 2025.
 Gaussian 16:  ES64L-G16RevC.01  3-Jul-2019

 ----------------------------------------------------------------------
 #t hf aug-cc-pvdz iop(5/13=1,5/36=2,99/5=2) pseudo=read geom=check gue
 ss=(read,tcheck) scf=(maxcycle=1)
 ----------------------------------------------------------------------
 -----
 title
 -----
 Structure from the checkpoint file:  "BDE49_nonexpt_114_mol1.chk"
 Charge =  0 Multiplicity = 1

                         Standard orientation:
 ---------------------------------------------------------------------
 Center     Atomic      Atomic             Coordinates (Angstroms)
 Number     Number       Type             X           Y           Z
 ---------------------------------------------------------------------
      1          5           0       -0.653143    1.563366    0.538431
      2          5           0        0.653143    1.563366   -0.538433
      3          7           0        1.768859    0.728435   -0.337661
      4          6           0        2.693107    0.002600   -0.127188
      5         16           0        3.915890   -0.951498    0.143746
      6          7           0       -1.768858    0.728433    0.337661
      7          6           0       -2.693106    0.002598    0.127187
      8         16           0       -3.915893   -0.951495   -0.143747
      9          1           0        0.680251    2.292501   -1.487465
     10          1           0       -0.680223    2.292455    1.487500
 ---------------------------------------------------------------------

 SCF Done:  E(RHF) =  -1030.40674174     A.U. after    2 cycles

 The electronic state is 1-A.
 Alpha  occ. eigenvalues --  -93.55165 -93.55165 -15.68314 -15.68314 -11.41117
 Alpha  occ. eigenvalues --  -11.41117  -8.85083  -8.85083  -7.66899  -7.66828
 Alpha  occ. eigenvalues --   -6.19398  -6.19397  -6.18721  -6.18720  -6.18661
 Alpha  occ. eigenvalues --   -6.18661  -1.26333  -1.26075  -1.04545  -1.04270
 Alpha  occ. eigenvalues --   -0.88660  -0.85868  -0.64477  -0.62306  -0.61765
 Alpha  occ. eigenvalues --   -0.60753  -0.60431  -0.58662  -0.58571  -0.54764
 Alpha  occ. eigenvalues --   -0.47542  -0.38783  -0.38722  -0.37805  -0.35251
 Alpha virt. eigenvalues --    0.02247   0.02353   0.03675   0.03972   0.05166
 Alpha virt. eigenvalues --    0.05264   0.06849   0.07321   0.07477   0.07731
 Alpha virt. eigenvalues --    0.08367   0.09703   0.10661   0.11437   0.11973

 Mulliken charges:
               1
     1  B    0.206183
     2  B    0.206183
     3  N   -0.173597
     4  C   -0.366843
     5  S    0.265444
     6  N   -0.173593
     7  C   -0.366843
     8  S    0.265444
     9  H    0.068813
    10  H    0.068809
 Sum of Mulliken charges =   0.00000

 Dipole moment (field-independent basis, Debye):
    X=             -0.0000    Y=              1.9519    Z=             -0.0000  Tot=              1.9519

 Test job not archived.
 1\1\GINC-SE099\SP\RHF\Aug-CC-pVDZ\C2H2B2N2S2\OHZDE\08-Apr-2025\0\\#t h
 f aug-cc-pvdz iop(5/13=1,5/36=2,99/5=2) pseudo=read geom=check guess=(
 read,tcheck) scf=(maxcycle=1)\\title\\0,1\B,0,0.653143,1.563366,-0.538
 431\B,0,-0.653143,1.563366,0.538433\N,0,-1.768859,0.728435,0.337661\C,
 0,-2.693107,0.0026,0.127188\S,0,-3.91589,-0.951498,-0.143746\N,0,1.768
 858,0.728433,-0.337661\C,0,2.693106,0.002598,-0.127187\S,0,3.915893,-0
 .951495,0.143747\H,0,-0.680251,2.292501,1.487465\H,0,0.680223,2.292455
 ,-1.4875\\Version=ES64L-G16RevC.01\State=1-A\HF=-1030.4067417\RMSD=8.2

 Normal termination of Gaussian 16 at Tue Apr  8 23:20:11 2025.
