 Gaussian 16, Revision C.01,

 ----------------------------------------------------------------------
 #t hf aug-cc-pvdz symm=none int=(grid=ultrafine) guess=(read,tcheck) s
 table=(opt,rrhf)
 ----------------------------------------------------------------------
 -----
 title
 -----
 Symbolic Z-matrix:
 Charge =  0 Multiplicity = 1

 SCF Done:  E(RHF) =  -394.564769293     A.U. after   12 cycles
 Normal termination of Gaussian 16 at Wed Apr  9 00:42:57 2025.
 Gaussian 16:  ES64L-G16RevC.01  3-Jul-2019

 ----------------------------------------------------------------------
 #t hf aug-cc-pvdz iop(5/13=1,5/36=2,99/5=2) pseudo=read geom=check gue
 ss=(read,tcheck) scf=(maxcycle=1)
 ----------------------------------------------------------------------
 -----
 title
 -----
 Structure from the checkpoint file:  "BDE49_nonexpt_775_mol1.chk"
 Charge =  0 Multiplicity = 1

                         Standard orientation:
 ---------------------------------------------------------------------
 Center     Atomic      Atomic             Coordinates (Angstroms)
 Number     Number       Type             X           Y           Z
 ---------------------------------------------------------------------
      1          5           0        1.884511    1.058163   -0.160031
      2         14           0        0.739036   -0.573470    0.146202
      3          6           0       -1.878376    0.646087    0.238374
      4          6           0       -1.053695   -0.455204   -0.450337
      5          1           0       -1.530714   -1.430235   -0.299676
      6          1           0       -1.042413   -0.291948   -1.534509
      7          1           0       -1.440202    1.635925    0.078664
      8          1           0       -2.902864    0.678095   -0.144026
      9          1           0       -1.937310    0.484247    1.318801
     10          1           0        1.486732    2.062983   -0.665662
     11          1           0        3.029815    1.039259    0.174067
     12          1           0        0.752429   -0.854748    1.611616
     13          1           0        1.407886   -1.731121   -0.514162
 ---------------------------------------------------------------------

 SCF Done:  E(RHF) =  -394.621711633     A.U. after    2 cycles

 The electronic state is 1-A.
 Alpha  occ. eigenvalues --  -69.04125 -11.23133 -11.22102  -7.62235  -6.79608
 Alpha  occ. eigenvalues --   -3.90395  -3.90364  -3.90324  -1.01204  -0.84365
 Alpha  occ. eigenvalues --   -0.71716  -0.63563  -0.60609  -0.57446  -0.51906
 Alpha  occ. eigenvalues --   -0.49907  -0.49755  -0.46091  -0.42481  -0.40137
 Alpha virt. eigenvalues --    0.03237   0.03413   0.04373   0.04786   0.05608
 Alpha virt. eigenvalues --    0.06280   0.06494   0.07268   0.08349   0.08837
 Alpha virt. eigenvalues --    0.09225   0.09844   0.10317   0.11601   0.12731

 Mulliken charges:
               1
     1  B   -0.666441
     2  Si   0.133043
     3  C    0.251089
     4  C    0.131250
     5  H   -0.223420
     6  H   -0.160399
     7  H   -0.126256
     8  H   -0.089398
     9  H   -0.095645
    10  H    0.383405
    11  H    0.393286
    12  H    0.073230
    13  H   -0.003745
 Sum of Mulliken charges =  -0.00000

 Dipole moment (field-independent basis, Debye):
    X=             -0.5833    Y=              0.3603    Z=             -0.3693  Tot=              0.7788

 Test job not archived.
 1\1\GINC-SE366\SP\RHF\Aug-CC-pVDZ\C2H9B1Si1\OHZDE\09-Apr-2025\0\\#t hf
  aug-cc-pvdz iop(5/13=1,5/36=2,99/5=2) pseudo=read geom=check guess=(r
 ead,tcheck) scf=(maxcycle=1)\\title\\0,1\B,0,1.884511,1.058163,-0.1600
 31\Si,0,0.739036,-0.57347,0.146202\C,0,-1.878376,0.646087,0.238374\C,0
 ,-1.053695,-0.455204,-0.450337\H,0,-1.530714,-1.430235,-0.299676\H,0,-
 1.042413,-0.291948,-1.534509\H,0,-1.440202,1.635925,0.078664\H,0,-2.90
 2864,0.678094,-0.144026\H,0,-1.93731,0.484247,1.318801\H,0,1.486732,2.
 062983,-0.665662\H,0,3.029815,1.039259,0.174067\H,0,0.752429,-0.854748

 Normal termination of Gaussian 16 at Wed Apr  9 00:43:00 2025.
