 Gaussian 16, Revision C.01,

 ----------------------------------------------------------------------
 #t hf aug-cc-pvdz symm=none int=(grid=ultrafine) guess=(read,tcheck) s
 table=(opt,rrhf)
 ----------------------------------------------------------------------
 -----
 title
 -----
 Symbolic Z-matrix:
 Charge =  0 Multiplicity = 1

 SCF Done:  E(RHF) =  -921.575273777     A.U. after   17 cycles
 Normal termination of Gaussian 16 at Tue Apr  8 23:31:19 2025.
 Gaussian 16:  ES64L-G16RevC.01  3-Jul-2019

 ----------------------------------------------------------------------
 #t hf aug-cc-pvdz iop(5/13=1,5/36=2,99/5=2) pseudo=read geom=check gue
 ss=(read,tcheck) scf=(maxcycle=1)
 ----------------------------------------------------------------------
 -----
 title
 -----
 Structure from the checkpoint file:  "BDE49_nonexpt_1382_mol1.chk"
 Charge =  0 Multiplicity = 1

                         Standard orientation:
 ---------------------------------------------------------------------
 Center     Atomic      Atomic             Coordinates (Angstroms)
 Number     Number       Type             X           Y           Z
 ---------------------------------------------------------------------
      1          6           0       -0.709852   -0.210966   -0.389971
      2          6           0       -1.442361    0.893753   -0.838783
      3          1           0       -1.002278    1.583603   -1.549920
      4          6           0       -2.735867    1.109935   -0.369969
      5          1           0       -3.297857    1.968984   -0.718473
      6          6           0       -3.311099    0.215954    0.530904
      7          1           0       -4.321914    0.379927    0.886843
      8          6           0       -2.589167   -0.894514    0.967976
      9          1           0       -3.036875   -1.594072    1.664873
     10          6           0       -1.290741   -1.108033    0.515719
     11          1           0       -0.728212   -1.971013    0.851245
     12         15           0        0.984543   -0.486124   -1.046326
     13          9           0        1.109236   -2.093917   -0.802594
     14          6           0        1.903982   -0.003016    0.552932
     15          8           0        2.411597   -0.817819    1.276612
     16          6           0        2.004113    1.489237    0.833973
     17          9           0        1.426951    2.205960   -0.214498
     18          1           0        3.054169    1.778384    0.925610
     19          1           0        1.472306    1.726121    1.758962
 ---------------------------------------------------------------------

 SCF Done:  E(RHF) =  -921.785579414     A.U. after    2 cycles

 The electronic state is 1-A.
 Alpha  occ. eigenvalues --  -81.34234 -26.14001 -26.12010 -20.59731 -11.36808
 Alpha  occ. eigenvalues --  -11.35618 -11.26936 -11.26755 -11.26496 -11.26471
 Alpha  occ. eigenvalues --  -11.26042 -11.25986  -7.83712  -4.97863  -4.97585
 Alpha  occ. eigenvalues --   -4.97309  -1.67177  -1.64233  -1.38691  -1.16084
 Alpha  occ. eigenvalues --   -1.04126  -1.03008  -1.02796  -0.89650  -0.84719
 Alpha  occ. eigenvalues --   -0.83416  -0.80868  -0.77922  -0.76980  -0.75111
 Alpha  occ. eigenvalues --   -0.74429  -0.71597  -0.71423  -0.67611  -0.64685
 Alpha  occ. eigenvalues --   -0.64518  -0.63252  -0.61919  -0.60863  -0.59594
 Alpha  occ. eigenvalues --   -0.54358  -0.52872  -0.52442  -0.51490  -0.44155
 Alpha  occ. eigenvalues --   -0.39591  -0.35684  -0.34328
 Alpha virt. eigenvalues --    0.02997   0.03879   0.04092   0.05004   0.05339
 Alpha virt. eigenvalues --    0.06287   0.06675   0.07221   0.07905   0.08354
 Alpha virt. eigenvalues --    0.09261   0.09856   0.10518   0.10965   0.11465

 Mulliken charges:
               1
     1  C    0.327933
     2  C    0.235863
     3  H   -0.545971
     4  C    0.537875
     5  H   -0.441488
     6  C    0.614986
     7  H   -0.436351
     8  C    0.587254
     9  H   -0.438259
    10  C    0.226836
    11  H   -0.576599
    12  P    0.823049
    13  F   -0.655626
    14  C    0.049919
    15  O   -0.528701
    16  C    0.656242
    17  F   -0.377367
    18  H   -0.036928
    19  H   -0.022667
 Sum of Mulliken charges =   0.00000

 Dipole moment (field-independent basis, Debye):
    X=             -2.1544    Y=              2.9675    Z=              0.7244  Tot=              3.7380

 Test job not archived.
 1\1\GINC-SE334\SP\RHF\Aug-CC-pVDZ\C8H7F2O1P1\OHZDE\08-Apr-2025\0\\#t h
 f aug-cc-pvdz iop(5/13=1,5/36=2,99/5=2) pseudo=read geom=check guess=(
 read,tcheck) scf=(maxcycle=1)\\title\\0,1\C,0,-0.709852,-0.210966,-0.3
 89971\C,0,-1.442361,0.893753,-0.838783\H,0,-1.002278,1.583603,-1.54992
 \C,0,-2.735867,1.109935,-0.369969\H,0,-3.297857,1.968984,-0.718473\C,0
 ,-3.311099,0.215954,0.530904\H,0,-4.321914,0.379927,0.886843\C,0,-2.58
 9167,-0.894514,0.967976\H,0,-3.036875,-1.594072,1.664873\C,0,-1.290741
 ,-1.108033,0.515719\H,0,-0.728212,-1.971013,0.851245\P,0,0.984543,-0.4

 Normal termination of Gaussian 16 at Tue Apr  8 23:31:32 2025.
