 Gaussian 16, Revision C.01,

 ----------------------------------------------------------------------
 #t hf aug-cc-pvdz symm=none int=(grid=ultrafine) guess=(read,tcheck) s
 table=(opt,rrhf)
 ----------------------------------------------------------------------
 -----
 title
 -----
 Symbolic Z-matrix:
 Charge =  0 Multiplicity = 1

 SCF Done:  E(RHF) =  -767.734948436     A.U. after   15 cycles

 1\1\GINC-SE109\Stability\RHF\Aug-CC-pVDZ\C8H9Cl1\OHZDE\08-Apr-2025\0\\
 #t hf aug-cc-pvdz symm=none int=(grid=ultrafine) guess=(read,tcheck) s
 table=(opt,rrhf)\\title\\0,1\C,0,-0.517135,-2.560825,1.20422\C,0,-0.51
 7135,-1.168097,1.202175\C,0,-0.5164,-3.261428,0.\C,0,-0.517135,-2.5608
 25,-1.20422\C,0,-0.517135,-1.168097,-1.202175\C,0,-0.517467,-0.452762,
 0.\H,0,-0.525931,-0.629157,2.144483\H,0,-0.523008,-3.098526,2.145781\H
 ,0,-0.519968,-4.345466,0.\H,0,-0.523008,-3.098526,-2.145781\H,0,-0.525
 931,-0.629157,-2.144483\C,0,-0.483023,1.061487,0.\C,0,0.957862,1.57062

 Normal termination of Gaussian 16 at Tue Apr  8 22:48:56 2025.
 Gaussian 16:  ES64L-G16RevC.01  3-Jul-2019

 ----------------------------------------------------------------------
 #t hf aug-cc-pvdz iop(5/13=1,5/36=2,99/5=2) pseudo=read geom=check gue
 ss=(read,tcheck) scf=(maxcycle=1)
 ----------------------------------------------------------------------
 -----
 title
 -----
 Structure from the checkpoint file:  "BDE49_expt_1702_mol1.chk"
 Charge =  0 Multiplicity = 1

                         Standard orientation:
 ---------------------------------------------------------------------
 Center     Atomic      Atomic             Coordinates (Angstroms)
 Number     Number       Type             X           Y           Z
 ---------------------------------------------------------------------
      1          6           0       -0.517135   -2.560825    1.204220
      2          6           0       -0.517135   -1.168097    1.202175
      3          6           0       -0.516400   -3.261428    0.000000
      4          6           0       -0.517135   -2.560825   -1.204220
      5          6           0       -0.517135   -1.168097   -1.202175
      6          6           0       -0.517467   -0.452762    0.000000
      7          1           0       -0.525931   -0.629157    2.144483
      8          1           0       -0.523008   -3.098526    2.145781
      9          1           0       -0.519968   -4.345466    0.000000
     10          1           0       -0.523008   -3.098526   -2.145781
     11          1           0       -0.525931   -0.629157   -2.144483
     12          6           0       -0.483023    1.061487   -0.000000
     13          6           0        0.957862    1.570629   -0.000000
     14          1           0        1.499344    1.248654    0.887831
     15         17           0        1.022545    3.390321   -0.000000
     16          1           0        1.499344    1.248654   -0.887831
     17          1           0       -0.999344    1.453788    0.879675
     18          1           0       -0.999344    1.453788   -0.879675
 ---------------------------------------------------------------------

 SCF Done:  E(RHF) =  -767.844115173     A.U. after    2 cycles

 The electronic state is 1-A'.
 Alpha  occ. eigenvalues -- -103.64581 -11.30816 -11.26159 -11.25704 -11.25367
 Alpha  occ. eigenvalues --  -11.25349 -11.25139 -11.25136 -11.25064 -10.67848
 Alpha  occ. eigenvalues --   -8.33565  -8.33285  -8.33278  -1.16470  -1.14904
 Alpha  occ. eigenvalues --   -1.05978  -1.01796  -0.97665  -0.86558  -0.83890
 Alpha  occ. eigenvalues --   -0.80571  -0.70996  -0.67120  -0.64919  -0.62589
 Alpha  occ. eigenvalues --   -0.60155  -0.59863  -0.58250  -0.54197  -0.53384
 Alpha  occ. eigenvalues --   -0.50567  -0.49918  -0.49448  -0.44440  -0.44397
 Alpha  occ. eigenvalues --   -0.34881  -0.34142
 Alpha virt. eigenvalues --    0.03097   0.03786   0.04189   0.05093   0.05645
 Alpha virt. eigenvalues --    0.05795   0.07126   0.07614   0.08830   0.08935
 Alpha virt. eigenvalues --    0.09831   0.10060   0.11074   0.12106   0.13368

 Mulliken charges:
               1
     1  C    0.248529
     2  C    0.385075
     3  C    0.560152
     4  C    0.248529
     5  C    0.385075
     6  C    0.888160
     7  H   -0.600566
     8  H   -0.439614
     9  H   -0.435469
    10  H   -0.439614
    11  H   -0.600566
    12  C    0.169690
    13  C    0.068745
    14  H   -0.014821
    15  Cl  -0.164176
    16  H   -0.014821
    17  H   -0.122153
    18  H   -0.122153
 Sum of Mulliken charges =  -0.00000

 Dipole moment (field-independent basis, Debye):
    X=             -0.3542    Y=             -2.5619    Z=             -0.0000  Tot=              2.5863

 Test job not archived.
 1\1\GINC-SE109\SP\RHF\Aug-CC-pVDZ\C8H9Cl1\OHZDE\08-Apr-2025\0\\#t hf a
 ug-cc-pvdz iop(5/13=1,5/36=2,99/5=2) pseudo=read geom=check guess=(rea
 d,tcheck) scf=(maxcycle=1)\\title\\0,1\C,0,-0.517135,-2.560825,1.20422
 \C,0,-0.517135,-1.168097,1.202175\C,0,-0.5164,-3.261428,0.\C,0,-0.5171
 35,-2.560825,-1.20422\C,0,-0.517135,-1.168097,-1.202175\C,0,-0.517467,
 -0.452762,0.\H,0,-0.525931,-0.629157,2.144483\H,0,-0.523008,-3.098526,
 2.145781\H,0,-0.519968,-4.345466,0.\H,0,-0.523008,-3.098526,-2.145781\
 H,0,-0.525931,-0.629157,-2.144483\C,0,-0.483023,1.061487,0.\C,0,0.9578

 Normal termination of Gaussian 16 at Tue Apr  8 22:49:03 2025.
