 Gaussian 16, Revision C.01,

 ----------------------------------------------------------------------
 #t hf aug-cc-pvdz symm=none int=(grid=ultrafine) guess=(read,tcheck) s
 table=(opt,rrhf)
 ----------------------------------------------------------------------
 -----
 title
 -----
 Symbolic Z-matrix:
 Charge =  0 Multiplicity = 1

 SCF Done:  E(RHF) =  -723.453906492     A.U. after   16 cycles
 Normal termination of Gaussian 16 at Tue Apr  8 23:15:50 2025.
 Gaussian 16:  ES64L-G16RevC.01  3-Jul-2019

 ----------------------------------------------------------------------
 #t hf aug-cc-pvdz iop(5/13=1,5/36=2,99/5=2) pseudo=read geom=check gue
 ss=(read,tcheck) scf=(maxcycle=1)
 ----------------------------------------------------------------------
 -----
 title
 -----
 Structure from the checkpoint file:  "BDE49_nonexpt_1049_mol1.chk"
 Charge =  0 Multiplicity = 1

                         Standard orientation:
 ---------------------------------------------------------------------
 Center     Atomic      Atomic             Coordinates (Angstroms)
 Number     Number       Type             X           Y           Z
 ---------------------------------------------------------------------
      1         17           0        1.855321   -0.327648   -0.044003
      2          8           0        0.426508    0.560414    0.615487
      3          8           0       -0.463644    0.886437   -0.371979
      4          8           0       -1.293846   -0.248541   -0.673389
      5          6           0       -2.240720   -0.423286    0.385309
      6          1           0       -2.839198   -1.275253    0.059214
      7          1           0       -2.871360    0.462508    0.492145
      8          1           0       -1.737730   -0.664009    1.323886
 ---------------------------------------------------------------------

 SCF Done:  E(RHF) =  -723.557637730     A.U. after    2 cycles

 The electronic state is 1-A.
 Alpha  occ. eigenvalues -- -103.72563 -20.73693 -20.73393 -20.67132 -11.31057
 Alpha  occ. eigenvalues --  -10.75218  -8.40954  -8.40542  -8.40520  -1.53369
 Alpha  occ. eigenvalues --   -1.36265  -1.19550  -1.08108  -0.93731  -0.75864
 Alpha  occ. eigenvalues --   -0.74989  -0.74210  -0.64448  -0.63339  -0.61158
 Alpha  occ. eigenvalues --   -0.55420  -0.51726  -0.50664  -0.49529  -0.47865
 Alpha virt. eigenvalues --    0.01938   0.03521   0.05517   0.05915   0.08833
 Alpha virt. eigenvalues --    0.12607   0.12944   0.13613   0.14650   0.14964
 Alpha virt. eigenvalues --    0.16368   0.17180   0.18326   0.20834   0.22487

 Mulliken charges:
               1
     1  Cl   0.296617
     2  O   -0.272414
     3  O   -0.179319
     4  O   -0.369172
     5  C    0.816550
     6  H   -0.148475
     7  H   -0.068821
     8  H   -0.074966
 Sum of Mulliken charges =   0.00000

 Dipole moment (field-independent basis, Debye):
    X=             -1.5579    Y=             -1.0013    Z=              1.0614  Tot=              2.1345

 Test job not archived.
 1\1\GINC-SE343\SP\RHF\Aug-CC-pVDZ\C1H3Cl1O3\OHZDE\08-Apr-2025\0\\#t hf
  aug-cc-pvdz iop(5/13=1,5/36=2,99/5=2) pseudo=read geom=check guess=(r
 ead,tcheck) scf=(maxcycle=1)\\title\\0,1\Cl,0,1.855321,-0.327648,-0.04
 4003\O,0,0.426508,0.560414,0.615487\O,0,-0.463644,0.886437,-0.371979\O
 ,0,-1.293846,-0.248541,-0.673389\C,0,-2.24072,-0.423286,0.385309\H,0,-
 2.839198,-1.275253,0.059214\H,0,-2.87136,0.462508,0.492145\H,0,-1.7377
 3,-0.664009,1.323886\\Version=ES64L-G16RevC.01\State=1-A\HF=-723.55763
 77\RMSD=2.419e-03\Dipole=-0.6129212,-0.3939478,0.4175837\Quadrupole=4.

 Normal termination of Gaussian 16 at Tue Apr  8 23:15:52 2025.
