 Gaussian 16, Revision C.01,

 ----------------------------------------------------------------------
 #t hf aug-cc-pvdz symm=none int=(grid=ultrafine) guess=(read,tcheck) s
 table=(opt,rrhf)
 ----------------------------------------------------------------------
 -----
 title
 -----
 Symbolic Z-matrix:
 Charge =  0 Multiplicity = 1

 SCF Done:  E(RHF) =  -408.240985064     A.U. after   13 cycles
 Normal termination of Gaussian 16 at Wed Apr  9 00:43:51 2025.
 Gaussian 16:  ES64L-G16RevC.01  3-Jul-2019

 ----------------------------------------------------------------------
 #t hf aug-cc-pvdz iop(5/13=1,5/36=2,99/5=2) pseudo=read geom=check gue
 ss=(read,tcheck) scf=(maxcycle=1)
 ----------------------------------------------------------------------
 -----
 title
 -----
 Structure from the checkpoint file:  "BDE49_nonexpt_801_mol1.chk"
 Charge =  0 Multiplicity = 1

                         Standard orientation:
 ---------------------------------------------------------------------
 Center     Atomic      Atomic             Coordinates (Angstroms)
 Number     Number       Type             X           Y           Z
 ---------------------------------------------------------------------
      1          5           0        1.903214    0.920705   -0.000480
      2          6           0       -1.204431    0.049220    0.000086
      3          7           0       -2.285777    0.457545    0.000189
      4         14           0        0.548188   -0.568912   -0.000036
      5          1           0        0.688856   -1.417584   -1.205849
      6          1           0        0.689167   -1.417194    1.206015
      7          1           0        1.600822    2.069276    0.000367
      8          1           0        3.057475    0.628608    0.000538
 ---------------------------------------------------------------------

 SCF Done:  E(RHF) =  -408.298408898     A.U. after    2 cycles

 The electronic state is 1-A.
 Alpha  occ. eigenvalues --  -69.10127 -15.65026 -11.26844  -7.65595  -6.85494
 Alpha  occ. eigenvalues --   -3.96350  -3.96242  -3.96188  -1.18946  -0.80183
 Alpha  occ. eigenvalues --   -0.70284  -0.61034  -0.54459  -0.52746  -0.52010
 Alpha  occ. eigenvalues --   -0.49112  -0.46555  -0.43663
 Alpha virt. eigenvalues --    0.01082   0.03222   0.03855   0.04935   0.06291
 Alpha virt. eigenvalues --    0.06587   0.06694   0.07524   0.08368   0.09650
 Alpha virt. eigenvalues --    0.11926   0.12239   0.12811   0.13255   0.14008

 Mulliken charges:
               1
     1  B   -0.542134
     2  C   -0.207246
     3  N   -0.182069
     4  Si   0.223746
     5  H    0.028530
     6  H    0.028580
     7  H    0.361959
     8  H    0.288634
 Sum of Mulliken charges =  -0.00000

 Dipole moment (field-independent basis, Debye):
    X=              3.8871    Y=             -0.6983    Z=             -0.0015  Tot=              3.9493

 Test job not archived.
 1\1\GINC-SE339\SP\RHF\Aug-CC-pVDZ\C1H4B1N1Si1\OHZDE\09-Apr-2025\0\\#t
 hf aug-cc-pvdz iop(5/13=1,5/36=2,99/5=2) pseudo=read geom=check guess=
 (read,tcheck) scf=(maxcycle=1)\\title\\0,1\B,0,1.903214,0.920705,-0.00
 048\C,0,-1.204431,0.04922,0.000086\N,0,-2.285777,0.457545,0.000189\Si,
 0,0.548188,-0.568912,-0.000036\H,0,0.688856,-1.417584,-1.205849\H,0,0.
 689167,-1.417194,1.206015\H,0,1.600822,2.069276,0.000367\H,0,3.057475,
 0.628607,0.000538\\Version=ES64L-G16RevC.01\State=1-A\HF=-408.2984089\
 RMSD=5.716e-03\Dipole=1.5292974,-0.2747345,-0.0005766\Quadrupole=-4.14

 Normal termination of Gaussian 16 at Wed Apr  9 00:43:53 2025.
