 Gaussian 16, Revision C.01,

 ----------------------------------------------------------------------
 #t hf aug-cc-pvdz symm=none int=(grid=ultrafine) guess=(read,tcheck) s
 table=opt
 ----------------------------------------------------------------------
 -----
 title
 -----
 Symbolic Z-matrix:
 Charge =  0 Multiplicity = 2

 SCF Done:  E(UHF) =  -1026.99680838     A.U. after   19 cycles
 Normal termination of Gaussian 16 at Tue Apr  8 23:29:17 2025.
 Gaussian 16:  ES64L-G16RevC.01  3-Jul-2019

 ----------------------------------------------------------------------
 #t hf aug-cc-pvdz iop(5/13=1,5/36=2,99/5=2) pseudo=read geom=check gue
 ss=(read,tcheck) scf=(maxcycle=1)
 ----------------------------------------------------------------------
 -----
 title
 -----
 Structure from the checkpoint file:  "BDE49_nonexpt_1371_mol2.chk"
 Charge =  0 Multiplicity = 2

                         Standard orientation:
 ---------------------------------------------------------------------
 Center     Atomic      Atomic             Coordinates (Angstroms)
 Number     Number       Type             X           Y           Z
 ---------------------------------------------------------------------
      1          9           0       -2.093839    0.723983    0.208293
      2         16           0        0.721916   -0.113604    0.121849
      3          8           0        1.446558   -1.231233   -0.465090
      4         15           0       -1.393406   -0.662675   -0.267420
      5          6           0        1.029819    1.365004   -0.857086
      6          1           0        2.048429    1.677727   -0.619946
      7          1           0        0.934780    1.116474   -1.912962
      8          8           0        0.893088    0.247183    1.517125
      9          1           0        0.315690    2.130101   -0.553784
 ---------------------------------------------------------------------

 SCF Done:  E(UHF) =  -1027.18677508     A.U. after    2 cycles

 The electronic state is 2-A.
 Alpha  occ. eigenvalues --  -93.79004 -81.39269 -26.17052 -20.57483 -20.57409
 Alpha  occ. eigenvalues --  -11.30317  -9.05905  -7.88825  -6.40512  -6.40235
 Alpha  occ. eigenvalues --   -6.40151  -5.03333  -5.02407  -5.01968  -1.69462
 Alpha  occ. eigenvalues --   -1.42861  -1.31833  -1.05220  -0.92449  -0.84189
 Alpha  occ. eigenvalues --   -0.79174  -0.77958  -0.73406  -0.68853  -0.67757
 Alpha  occ. eigenvalues --   -0.63046  -0.62334  -0.58887  -0.53741  -0.51479
 Alpha  occ. eigenvalues --   -0.50892  -0.41907  -0.41069
 Alpha virt. eigenvalues --    0.02915   0.04545   0.05359   0.05638   0.06676
 Alpha virt. eigenvalues --    0.08594   0.09621   0.11065   0.12382   0.12485
 Alpha virt. eigenvalues --    0.13777   0.14906   0.15632   0.16144   0.17006

  Beta  occ. eigenvalues --  -93.79036 -81.38548 -26.16605 -20.57511 -20.57370
  Beta  occ. eigenvalues --  -11.30316  -9.05945  -7.87962  -6.40531  -6.40301
  Beta  occ. eigenvalues --   -6.40219  -5.02016  -5.01589  -4.99948  -1.68260
  Beta  occ. eigenvalues --   -1.42840  -1.31805  -1.05104  -0.89594  -0.83719
  Beta  occ. eigenvalues --   -0.77571  -0.75147  -0.72424  -0.68633  -0.67732
  Beta  occ. eigenvalues --   -0.62447  -0.61946  -0.55370  -0.53639  -0.51066
  Beta  occ. eigenvalues --   -0.50568  -0.41164
  Beta virt. eigenvalues --   -0.00276   0.03107   0.04911   0.05489   0.05874
  Beta virt. eigenvalues --    0.07348   0.09087   0.11050   0.11528   0.12506
  Beta virt. eigenvalues --    0.13015   0.14909   0.15046   0.15729   0.16267

 Mulliken charges and spin densities:
               1          2
     1  F   -0.644465   0.012130
     2  S    1.975318  -0.049973
     3  O   -1.071374  -0.001114
     4  P    0.945509   1.049928
     5  C   -0.117864  -0.003509
     6  H    0.021340   0.002029
     7  H   -0.027574  -0.003971
     8  O   -1.075533  -0.002519
     9  H   -0.005356  -0.003001
 Sum of Mulliken charges =  -0.00000   1.00000

 Dipole moment (field-independent basis, Debye):
    X=             -1.9613    Y=              1.8587    Z=             -3.3343  Tot=              4.2917
                          Isotropic Fermi Contact Couplings
        Atom                 a.u.       MegaHertz       Gauss      10(-4) cm-1
     1  F(19)              0.04823     202.93295      72.41152      67.69115
     2  S(33)             -0.03206     -11.01262      -3.92958      -3.67341
     3  O(17)             -0.00236       1.43218       0.51104       0.47773
     4  P(31)              0.25097     454.53114     162.18801     151.61527
     5  C(13)              0.00144       1.62042       0.57820       0.54051
     6  H(1)               0.00133       5.93526       2.11785       1.97979
     7  H(1)               0.00034       1.50252       0.53614       0.50119
     8  O(17)              0.00534      -3.23740      -1.15519      -1.07988

 Normal termination of Gaussian 16 at Tue Apr  8 23:29:24 2025.
