 Gaussian 16, Revision C.01,

 ----------------------------------------------------------------------
 #t hf aug-cc-pvdz symm=none int=(grid=ultrafine) guess=(read,tcheck) s
 table=(opt,rrhf)
 ----------------------------------------------------------------------
 -----
 title
 -----
 Symbolic Z-matrix:
 Charge =  0 Multiplicity = 1

 SCF Done:  E(RHF) =  -640.030182902     A.U. after   14 cycles
 Normal termination of Gaussian 16 at Tue Apr  8 23:35:57 2025.
 Gaussian 16:  ES64L-G16RevC.01  3-Jul-2019

 ----------------------------------------------------------------------
 #t hf aug-cc-pvdz iop(5/13=1,5/36=2,99/5=2) pseudo=read geom=check gue
 ss=(read,tcheck) scf=(maxcycle=1)
 ----------------------------------------------------------------------
 -----
 title
 -----
 Structure from the checkpoint file:  "BDE49_nonexpt_1534_mol1.chk"
 Charge =  0 Multiplicity = 1

                         Standard orientation:
 ---------------------------------------------------------------------
 Center     Atomic      Atomic             Coordinates (Angstroms)
 Number     Number       Type             X           Y           Z
 ---------------------------------------------------------------------
      1          7           0       -0.133475    0.419696    0.000137
      2         15           0       -1.778772   -0.159741   -0.000000
      3          7           0        0.956185   -0.456698    0.000335
      4          8           0        0.705974   -1.651729   -0.000253
      5          8           0        2.067114    0.054363   -0.000236
      6          6           0        0.206636    1.845301    0.000053
      7          1           0       -0.729595    2.400688   -0.000127
      8          1           0        0.787142    2.105880   -0.886483
      9          1           0        0.786899    2.106038    0.886701
     10          1           0       -1.673296   -1.125085    1.030813
     11          1           0       -1.673064   -1.125275   -1.030612
 ---------------------------------------------------------------------

 SCF Done:  E(RHF) =  -640.148416902     A.U. after    2 cycles

 The electronic state is 1-A.
 Alpha  occ. eigenvalues --  -81.31236 -20.61902 -20.61819 -15.95342 -15.71374
 Alpha  occ. eigenvalues --  -11.29847  -7.81261  -4.95473  -4.95062  -4.94925
 Alpha  occ. eigenvalues --   -1.56904  -1.37765  -1.24120  -0.99739  -0.89818
 Alpha  occ. eigenvalues --   -0.81021  -0.75770  -0.75620  -0.74222  -0.62379
 Alpha  occ. eigenvalues --   -0.62347  -0.57904  -0.55393  -0.53128  -0.51846
 Alpha  occ. eigenvalues --   -0.48473  -0.42696  -0.39530
 Alpha virt. eigenvalues --    0.03038   0.04024   0.05092   0.05815   0.07506
 Alpha virt. eigenvalues --    0.07789   0.09061   0.10034   0.10070   0.13032
 Alpha virt. eigenvalues --    0.13516   0.15221   0.15948   0.16328   0.16989

 Mulliken charges:
               1
     1  N   -0.451559
     2  P    0.345932
     3  N    0.475717
     4  O   -0.523487
     5  O   -0.519607
     6  C    0.895862
     7  H   -0.221413
     8  H   -0.077195
     9  H   -0.077229
    10  H    0.076448
    11  H    0.076531
 Sum of Mulliken charges =  -0.00000

 Dipole moment (field-independent basis, Debye):
    X=             -3.0656    Y=              2.5340    Z=              0.0015  Tot=              3.9773

 Test job not archived.
 1\1\GINC-SE009\SP\RHF\Aug-CC-pVDZ\C1H5N2O2P1\OHZDE\08-Apr-2025\0\\#t h
 f aug-cc-pvdz iop(5/13=1,5/36=2,99/5=2) pseudo=read geom=check guess=(
 read,tcheck) scf=(maxcycle=1)\\title\\0,1\N,0,-0.133475,0.419696,0.000
 137\P,0,-1.778772,-0.159741,0.\N,0,0.956185,-0.456698,0.000335\O,0,0.7
 05974,-1.651729,-0.000253\O,0,2.067114,0.054363,-0.000236\C,0,0.206636
 ,1.845301,0.000053\H,0,-0.729595,2.400688,-0.000127\H,0,0.787142,2.105
 88,-0.886483\H,0,0.786899,2.106038,0.886701\H,0,-1.673296,-1.125085,1.
 030813\H,0,-1.673064,-1.125275,-1.030612\\Version=ES64L-G16RevC.01\Sta

 Normal termination of Gaussian 16 at Tue Apr  8 23:36:01 2025.
