 Gaussian 16, Revision C.01,

 ----------------------------------------------------------------------
 #t hf aug-cc-pvdz symm=none int=(grid=ultrafine) guess=(read,tcheck) s
 table=(opt,rrhf)
 ----------------------------------------------------------------------
 -----
 title
 -----
 Symbolic Z-matrix:
 Charge =  0 Multiplicity = 1

 SCF Done:  E(RHF) =  -588.059942156     A.U. after   10 cycles

 1\1\GINC-SE096\Stability\RHF\Aug-CC-pVDZ\F3H1Si1\OHZDE\08-Apr-2025\0\\
 #t hf aug-cc-pvdz symm=none int=(grid=ultrafine) guess=(read,tcheck) s
 table=(opt,rrhf)\\title\\0,1\Si,0,0.,0.000044,0.324849\F,0,-1.281447,0
 .738583,-0.234359\F,0,1.28043,0.740344,-0.234359\F,0,0.001017,-1.47900
 3,-0.234318\H,0,0.,0.000061,1.779438\\Version=ES64L-G16RevC.01\HF=-588
 .0599422\RMSD=2.285e-09\Dipole=0.0000003,0.0001792,0.646042\Quadrupole
 =-0.9934781,-0.9929034,1.9863815,0.0000011,-0.0000001,0.0000213\PG=Unk
 nown\\@

 Normal termination of Gaussian 16 at Tue Apr  8 23:10:43 2025.
 Gaussian 16:  ES64L-G16RevC.01  3-Jul-2019

 ----------------------------------------------------------------------
 #t hf aug-cc-pvdz iop(5/13=1,5/36=2,99/5=2) pseudo=read geom=check gue
 ss=(read,tcheck) scf=(maxcycle=1)
 ----------------------------------------------------------------------
 -----
 title
 -----
 Structure from the checkpoint file:  "BDE49_expt_814_mol1.chk"
 Charge =  0 Multiplicity = 1

                         Standard orientation:
 ---------------------------------------------------------------------
 Center     Atomic      Atomic             Coordinates (Angstroms)
 Number     Number       Type             X           Y           Z
 ---------------------------------------------------------------------
      1         14           0        0.000000   -0.000044    0.324849
      2          9           0        1.282054   -0.737529   -0.234359
      3          9           0       -1.279821   -0.741397   -0.234359
      4          9           0       -0.002233    1.479001   -0.234318
      5          1           0        0.000000   -0.000061    1.779438
 ---------------------------------------------------------------------

 SCF Done:  E(RHF) =  -588.222707335     A.U. after    2 cycles

 The electronic state is 1-A.
 Alpha  occ. eigenvalues --  -69.22377 -26.14744 -26.14742 -26.14741  -6.96035
 Alpha  occ. eigenvalues --   -4.07073  -4.07073  -4.06829  -1.69104  -1.67300
 Alpha  occ. eigenvalues --   -1.67299  -0.88268  -0.81379  -0.81378  -0.78754
 Alpha  occ. eigenvalues --   -0.76266  -0.76265  -0.73945  -0.73944  -0.72548
 Alpha  occ. eigenvalues --   -0.58160
 Alpha virt. eigenvalues --    0.04836   0.05623   0.05623   0.05887   0.10828
 Alpha virt. eigenvalues --    0.17311   0.17312   0.20382   0.20383   0.23735
 Alpha virt. eigenvalues --    0.24565   0.25462   0.25462   0.28429   0.32331

 Mulliken charges:
               1
     1  Si   2.330537
     2  F   -0.760831
     3  F   -0.760831
     4  F   -0.760839
     5  H   -0.048036
 Sum of Mulliken charges =  -0.00000

 Dipole moment (field-independent basis, Debye):
    X=             -0.0000    Y=             -0.0005    Z=              1.8003  Tot=              1.8003

 Test job not archived.
 1\1\GINC-SE096\SP\RHF\Aug-CC-pVDZ\F3H1Si1\OHZDE\08-Apr-2025\0\\#t hf a
 ug-cc-pvdz iop(5/13=1,5/36=2,99/5=2) pseudo=read geom=check guess=(rea
 d,tcheck) scf=(maxcycle=1)\\title\\0,1\Si,0,0.,0.000044,0.324849\F,0,-
 1.281447,0.738583,-0.234359\F,0,1.28043,0.740344,-0.234359\F,0,0.00101
 7,-1.479003,-0.234318\H,0,0.,0.000061,1.779438\\Version=ES64L-G16RevC.
 01\State=1-A\HF=-588.2227073\RMSD=5.798e-03\Dipole=0.0000003,0.0001917
 ,0.7082746\Quadrupole=-1.0988433,-1.0981632,2.1970065,0.0000012,-0.000
 0002,0.0000261\PG=C01 [X(F3H1Si1)]\\@

 Normal termination of Gaussian 16 at Tue Apr  8 23:10:45 2025.
