 Gaussian 16, Revision C.01,

 ----------------------------------------------------------------------
 #t hf aug-cc-pvdz symm=none int=(grid=ultrafine) guess=(read,tcheck) s
 table=(opt,rrhf)
 ----------------------------------------------------------------------
 -----
 title
 -----
 Symbolic Z-matrix:
 Charge =  0 Multiplicity = 1

 SCF Done:  E(RHF) =  -756.470603169     A.U. after   11 cycles
 Normal termination of Gaussian 16 at Wed Apr  9 00:12:38 2025.
 Gaussian 16:  ES64L-G16RevC.01  3-Jul-2019

 ----------------------------------------------------------------------
 #t hf aug-cc-pvdz iop(5/13=1,5/36=2,99/5=2) pseudo=read geom=check gue
 ss=(read,tcheck) scf=(maxcycle=1)
 ----------------------------------------------------------------------
 -----
 title
 -----
 Structure from the checkpoint file:  "BDE49_nonexpt_2455_mol1.chk"
 Charge =  0 Multiplicity = 1

                         Standard orientation:
 ---------------------------------------------------------------------
 Center     Atomic      Atomic             Coordinates (Angstroms)
 Number     Number       Type             X           Y           Z
 ---------------------------------------------------------------------
      1         14           0       -2.164807    0.001712   -0.546320
      2         14           0       -0.361924   -0.003087    0.978245
      3          5           0        1.415829    0.000035   -0.009320
      4          1           0       -0.498157   -1.207650    1.836787
      5          1           0       -0.498179    1.196055    1.844343
      6          1           0       -2.114048    1.204908   -1.414334
      7          1           0       -3.468354   -0.000440    0.163442
      8          8           0        1.962854    1.209558   -0.330689
      9          8           0        1.962923   -1.207432   -0.338212
     10          1           0       -2.114149   -1.196068   -1.421798
     11          1           0        2.790851    1.177524   -0.825136
     12          1           0        2.790917   -1.172273   -0.832452
 ---------------------------------------------------------------------

 SCF Done:  E(RHF) =  -756.572652071     A.U. after    2 cycles

 The electronic state is 1-A.
 Alpha  occ. eigenvalues --  -69.05260 -69.04011 -20.59968 -20.59967  -7.67371
 Alpha  occ. eigenvalues --   -6.80662  -6.79589  -3.91419  -3.91418  -3.91389
 Alpha  occ. eigenvalues --   -3.90350  -3.90329  -3.90295  -1.36036  -1.32306
 Alpha  occ. eigenvalues --   -0.80693  -0.76932  -0.72115  -0.67192  -0.63871
 Alpha  occ. eigenvalues --   -0.60413  -0.56764  -0.53937  -0.48496  -0.47866
 Alpha  occ. eigenvalues --   -0.45888  -0.42819  -0.37881
 Alpha virt. eigenvalues --    0.02049   0.04447   0.05104   0.05616   0.06389
 Alpha virt. eigenvalues --    0.07151   0.07335   0.08113   0.08907   0.09064
 Alpha virt. eigenvalues --    0.09488   0.09731   0.10318   0.11300   0.11303

 Mulliken charges:
               1
     1  Si  -0.046558
     2  Si  -0.560489
     3  B    1.003820
     4  H    0.076497
     5  H    0.076500
     6  H    0.017525
     7  H    0.025270
     8  O   -0.469331
     9  O   -0.469334
    10  H    0.017511
    11  H    0.164295
    12  H    0.164293
 Sum of Mulliken charges =  -0.00000

 Dipole moment (field-independent basis, Debye):
    X=              3.1272    Y=              0.0046    Z=             -1.4466  Tot=              3.4456

 Test job not archived.
 1\1\GINC-SE362\SP\RHF\Aug-CC-pVDZ\B1H7O2Si2\OHZDE\09-Apr-2025\0\\#t hf
  aug-cc-pvdz iop(5/13=1,5/36=2,99/5=2) pseudo=read geom=check guess=(r
 ead,tcheck) scf=(maxcycle=1)\\title\\0,1\Si,0,2.164807,0.001712,0.5463
 2\Si,0,0.361924,-0.003087,-0.978245\B,0,-1.415829,0.000035,0.00932\H,0
 ,0.498157,-1.20765,-1.836787\H,0,0.498179,1.196055,-1.844343\H,0,2.114
 048,1.204908,1.414334\H,0,3.468354,-0.00044,-0.163442\O,0,-1.962854,1.
 209558,0.330689\O,0,-1.962923,-1.207432,0.338212\H,0,2.114149,-1.19606
 8,1.421798\H,0,-2.790851,1.177524,0.825136\H,0,-2.790917,-1.172273,0.8

 Normal termination of Gaussian 16 at Wed Apr  9 00:12:42 2025.
