 Gaussian 16, Revision C.01,

 ----------------------------------------------------------------------
 #t hf aug-cc-pvdz symm=none int=(grid=ultrafine) guess=(read,tcheck) s
 table=(opt,rrhf)
 ----------------------------------------------------------------------
 -----
 title
 -----
 Symbolic Z-matrix:
 Charge =  0 Multiplicity = 1

 SCF Done:  E(RHF) =  -1258.64552272     A.U. after   15 cycles
 Normal termination of Gaussian 16 at Tue Apr  8 23:40:34 2025.
 Gaussian 16:  ES64L-G16RevC.01  3-Jul-2019

 ----------------------------------------------------------------------
 #t hf aug-cc-pvdz iop(5/13=1,5/36=2,99/5=2) pseudo=read geom=check gue
 ss=(read,tcheck) scf=(maxcycle=1)
 ----------------------------------------------------------------------
 -----
 title
 -----
 Structure from the checkpoint file:  "BDE49_nonexpt_1662_mol1.chk"
 Charge =  0 Multiplicity = 1

                         Standard orientation:
 ---------------------------------------------------------------------
 Center     Atomic      Atomic             Coordinates (Angstroms)
 Number     Number       Type             X           Y           Z
 ---------------------------------------------------------------------
      1         14           0        0.587890   -0.684266   -0.073856
      2         15           0       -1.476227    0.209562    0.171294
      3          7           0        1.779596    0.742578    0.074765
      4          8           0       -1.718573    0.519896    1.583378
      5          8           0       -1.502662    1.364341   -0.920166
      6          8           0        2.941430    0.547978    0.371160
      7          8           0        1.286614    1.850994   -0.182414
      8          9           0        0.978843   -1.727034    1.044473
      9          9           0        0.920800   -1.296313   -1.495719
     10          1           0       -0.762487    1.982624   -0.790994
     11          8           0       -2.482330   -0.820642   -0.518174
     12          1           0       -3.074367   -1.234770    0.123154
 ---------------------------------------------------------------------

 SCF Done:  E(RHF) =  -1258.96142138     A.U. after    2 cycles

 The electronic state is 1-A.
 Alpha  occ. eigenvalues --  -81.46188 -69.26374 -26.18662 -26.18593 -20.66979
 Alpha  occ. eigenvalues --  -20.65855 -20.65728 -20.64874 -20.56729 -15.92808
 Alpha  occ. eigenvalues --   -7.94529  -7.00221  -5.09190  -5.09089  -5.08696
 Alpha  occ. eigenvalues --   -4.11180  -4.11127  -4.10926  -1.72198  -1.70973
 Alpha  occ. eigenvalues --   -1.57751  -1.42031  -1.40166  -1.38469  -1.30007
 Alpha  occ. eigenvalues --   -0.99439  -0.90018  -0.88806  -0.84199  -0.83655
 Alpha  occ. eigenvalues --   -0.81404  -0.79267  -0.78669  -0.77767  -0.77190
 Alpha  occ. eigenvalues --   -0.76751  -0.74433  -0.73720  -0.70257  -0.66770
 Alpha  occ. eigenvalues --   -0.63109  -0.61580  -0.57033  -0.56182  -0.53377
 Alpha  occ. eigenvalues --   -0.52690  -0.51135  -0.48343
 Alpha virt. eigenvalues --    0.01971   0.02594   0.04535   0.04835   0.05817
 Alpha virt. eigenvalues --    0.06861   0.08392   0.09290   0.09787   0.10447
 Alpha virt. eigenvalues --    0.12406   0.13289   0.14035   0.14949   0.16121

 Mulliken charges:
               1
     1  Si   2.152100
     2  P    2.041458
     3  N    0.438726
     4  O   -0.927010
     5  O   -0.738951
     6  O   -0.503173
     7  O   -0.595237
     8  F   -0.784945
     9  F   -0.772279
    10  H    0.219778
    11  O   -0.679912
    12  H    0.149445
 Sum of Mulliken charges =  -0.00000

 Dipole moment (field-independent basis, Debye):
    X=             -2.0443    Y=             -2.1143    Z=             -1.4260  Tot=              3.2685

 Test job not archived.
 1\1\GINC-SE461\SP\RHF\Aug-CC-pVDZ\F2H2N1O5P1Si1\OHZDE\08-Apr-2025\0\\#
 t hf aug-cc-pvdz iop(5/13=1,5/36=2,99/5=2) pseudo=read geom=check gues
 s=(read,tcheck) scf=(maxcycle=1)\\title\\0,1\Si,0,0.58789,-0.684266,-0
 .073856\P,0,-1.476227,0.209562,0.171294\N,0,1.779596,0.742578,0.074765
 \O,0,-1.718573,0.519896,1.583378\O,0,-1.502662,1.364341,-0.920166\O,0,
 2.94143,0.547978,0.37116\O,0,1.286614,1.850994,-0.182414\F,0,0.978843,
 -1.727034,1.044473\F,0,0.9208,-1.296313,-1.495719\H,0,-0.762487,1.9826
 24,-0.790994\O,0,-2.48233,-0.820642,-0.518174\H,0,-3.074367,-1.23477,0

 Normal termination of Gaussian 16 at Tue Apr  8 23:40:41 2025.
