 Gaussian 16, Revision C.01,

 ----------------------------------------------------------------------
 #t hf aug-cc-pvdz symm=none int=(grid=ultrafine) guess=(read,tcheck) s
 table=(opt,rrhf)
 ----------------------------------------------------------------------
 -----
 title
 -----
 Symbolic Z-matrix:
 Charge =  0 Multiplicity = 1

 SCF Done:  E(RHF) =  -1750.69023019     A.U. after   16 cycles
 Normal termination of Gaussian 16 at Wed Apr  9 00:51:42 2025.
 Gaussian 16:  ES64L-G16RevC.01  3-Jul-2019

 ----------------------------------------------------------------------
 #t hf aug-cc-pvdz iop(5/13=1,5/36=2,99/5=2) pseudo=read geom=check gue
 ss=(read,tcheck) scf=(maxcycle=1)
 ----------------------------------------------------------------------
 -----
 title
 -----
 Structure from the checkpoint file:  "BDE49_nonexpt_931_mol1.chk"
 Charge =  0 Multiplicity = 1

                         Standard orientation:
 ---------------------------------------------------------------------
 Center     Atomic      Atomic             Coordinates (Angstroms)
 Number     Number       Type             X           Y           Z
 ---------------------------------------------------------------------
      1         17           0       -1.701458    1.446484   -1.164929
      2         17           0       -1.701458   -1.446484   -1.164929
      3         16           0       -0.618044    0.000000    1.167358
      4          8           0       -0.854076   -1.263782    1.805675
      5          8           0       -0.854076    1.263782    1.805675
      6          7           0       -1.844945    0.000000   -0.159273
      7          6           0        1.610358   -1.220105    0.144458
      8          6           0        2.878266   -1.210613   -0.427547
      9          6           0        3.507296   -0.000000   -0.715532
     10          6           0        2.878266    1.210613   -0.427547
     11          6           0        1.610359    1.220105    0.144458
     12          6           0        0.989107   -0.000000    0.416447
     13          1           0        1.113222   -2.147509    0.393910
     14          1           0        3.376698   -2.148352   -0.641674
     15          1           0        4.496365   -0.000000   -1.158922
     16          1           0        3.376699    2.148352   -0.641674
     17          1           0        1.113223    2.147509    0.393910
 ---------------------------------------------------------------------

 SCF Done:  E(RHF) =  -1750.93425473     A.U. after    2 cycles

 The electronic state is 1-A.
 Alpha  occ. eigenvalues -- -103.71892-103.71891 -93.83288 -20.59145 -20.59144
 Alpha  occ. eigenvalues --  -15.78811 -11.30947 -11.29408 -11.29401 -11.28922
 Alpha  occ. eigenvalues --  -11.27949 -11.27943 -10.74850 -10.74838  -9.09631
 Alpha  occ. eigenvalues --   -8.40595  -8.40587  -8.40196  -8.40194  -8.40167
 Alpha  occ. eigenvalues --   -8.40167  -6.44280  -6.44068  -6.43980  -1.46242
 Alpha  occ. eigenvalues --   -1.34573  -1.29418  -1.18928  -1.16763  -1.07315
 Alpha  occ. eigenvalues --   -1.05309  -1.02216  -0.91377  -0.87246  -0.82319
 Alpha  occ. eigenvalues --   -0.76192  -0.73041  -0.70512  -0.69871  -0.66828
 Alpha  occ. eigenvalues --   -0.66038  -0.63741  -0.63503  -0.61295  -0.57299
 Alpha  occ. eigenvalues --   -0.56124  -0.54998  -0.54680  -0.54047  -0.53410
 Alpha  occ. eigenvalues --   -0.52457  -0.50602  -0.48751  -0.47941  -0.42725
 Alpha  occ. eigenvalues --   -0.38950  -0.37714
 Alpha virt. eigenvalues --    0.02411   0.03468   0.03795   0.04624   0.05391
 Alpha virt. eigenvalues --    0.06046   0.06600   0.08069   0.08527   0.08844
 Alpha virt. eigenvalues --    0.09725   0.10412   0.11151   0.12233   0.13036

 Mulliken charges:
               1
     1  Cl   0.218370
     2  Cl   0.218370
     3  S    2.847779
     4  O   -0.992317
     5  O   -0.992317
     6  N   -1.089376
     7  C   -0.135071
     8  C    0.785425
     9  C    0.419090
    10  C    0.785421
    11  C   -0.135065
    12  C    0.484092
    13  H   -0.556949
    14  H   -0.434281
    15  H   -0.431940
    16  H   -0.434280
    17  H   -0.556949
 Sum of Mulliken charges =  -0.00000

 Dipole moment (field-independent basis, Debye):
    X=              4.9576    Y=             -0.0000    Z=             -3.5395  Tot=              6.0914

 Test job not archived.
 1\1\GINC-SE162\SP\RHF\Aug-CC-pVDZ\C6H5Cl2N1O2S1\OHZDE\09-Apr-2025\0\\#
 t hf aug-cc-pvdz iop(5/13=1,5/36=2,99/5=2) pseudo=read geom=check gues
 s=(read,tcheck) scf=(maxcycle=1)\\title\\0,1\Cl,0,-1.701458,1.446484,-
 1.164929\Cl,0,-1.701458,-1.446484,-1.164929\S,0,-0.618044,0.,1.167358\
 O,0,-0.854076,-1.263782,1.805675\O,0,-0.854076,1.263782,1.805675\N,0,-
 1.844945,0.,-0.159273\C,0,1.610358,-1.220105,0.144458\C,0,2.878266,-1.
 210613,-0.427547\C,0,3.507296,0.,-0.715532\C,0,2.878266,1.210613,-0.42
 7547\C,0,1.610359,1.220105,0.144458\C,0,0.989107,0.,0.416447\H,0,1.113

 Normal termination of Gaussian 16 at Wed Apr  9 00:51:55 2025.
