 Gaussian 16, Revision C.01,

 ----------------------------------------------------------------------
 #t hf aug-cc-pvdz symm=none int=(grid=ultrafine) guess=(read,tcheck) s
 table=(opt,rrhf)
 ----------------------------------------------------------------------
 -----
 title
 -----
 Symbolic Z-matrix:
 Charge =  0 Multiplicity = 1

 SCF Done:  E(RHF) =  -595.695127299     A.U. after   13 cycles
 Normal termination of Gaussian 16 at Wed Apr  9 00:40:10 2025.
 Gaussian 16:  ES64L-G16RevC.01  3-Jul-2019

 ----------------------------------------------------------------------
 #t hf aug-cc-pvdz iop(5/13=1,5/36=2,99/5=2) pseudo=read geom=check gue
 ss=(read,tcheck) scf=(maxcycle=1)
 ----------------------------------------------------------------------
 -----
 title
 -----
 Structure from the checkpoint file:  "BDE49_nonexpt_690_mol1.chk"
 Charge =  0 Multiplicity = 1

                         Standard orientation:
 ---------------------------------------------------------------------
 Center     Atomic      Atomic             Coordinates (Angstroms)
 Number     Number       Type             X           Y           Z
 ---------------------------------------------------------------------
      1         15           0        0.762392   -0.032099   -0.619009
      2          5           0       -1.095638    0.012601   -0.055919
      3          8           0       -1.755280   -1.174263    0.058729
      4          8           0       -1.807184    1.166486    0.152884
      5          6           0        1.387818   -1.469516    0.387708
      6          1           0        1.262903   -1.325111    1.463641
      7          1           0        2.444890   -1.637452    0.170737
      8          6           0        1.463019    1.419210    0.329517
      9          1           0        2.549314    1.426261    0.214753
     10          1           0        1.226369    1.402755    1.396784
     11          1           0        1.097864    2.355638   -0.102892
     12          1           0        0.831249   -2.360277    0.091523
     13          1           0       -2.689354   -1.047993    0.266043
     14          1           0       -1.286238    1.968709    0.067883
 ---------------------------------------------------------------------

 SCF Done:  E(RHF) =  -595.805247639     A.U. after    2 cycles

 The electronic state is 1-A.
 Alpha  occ. eigenvalues --  -81.23219 -20.59156 -20.58312 -11.24140 -11.23219
 Alpha  occ. eigenvalues --   -7.73709  -7.66838  -4.87740  -4.87693  -4.87388
 Alpha  occ. eigenvalues --   -1.35060  -1.31278  -0.97752  -0.93291  -0.79388
 Alpha  occ. eigenvalues --   -0.76180  -0.70125  -0.62725  -0.60017  -0.59028
 Alpha  occ. eigenvalues --   -0.58298  -0.57660  -0.55746  -0.55431  -0.52693
 Alpha  occ. eigenvalues --   -0.45725  -0.43318  -0.31755
 Alpha virt. eigenvalues --    0.03013   0.04519   0.04680   0.05525   0.06324
 Alpha virt. eigenvalues --    0.06937   0.07285   0.07605   0.08409   0.08949
 Alpha virt. eigenvalues --    0.09428   0.10747   0.12107   0.12458   0.13395

 Mulliken charges:
               1
     1  P    0.157627
     2  B    1.024782
     3  O   -0.535753
     4  O   -0.512475
     5  C    0.303547
     6  H   -0.184143
     7  H   -0.166214
     8  C    0.292808
     9  H   -0.198728
    10  H   -0.179658
    11  H   -0.217715
    12  H   -0.184477
    13  H    0.193186
    14  H    0.207214
 Sum of Mulliken charges =  -0.00000

 Dipole moment (field-independent basis, Debye):
    X=              0.2298    Y=              1.3419    Z=              1.3275  Tot=              1.9015

 Test job not archived.
 1\1\GINC-SE072\SP\RHF\Aug-CC-pVDZ\C2H8B1O2P1\OHZDE\09-Apr-2025\0\\#t h
 f aug-cc-pvdz iop(5/13=1,5/36=2,99/5=2) pseudo=read geom=check guess=(
 read,tcheck) scf=(maxcycle=1)\\title\\0,1\P,0,0.762392,-0.032099,-0.61
 9009\B,0,-1.095638,0.012601,-0.055919\O,0,-1.75528,-1.174263,0.058729\
 O,0,-1.807184,1.166486,0.152884\C,0,1.387818,-1.469515,0.387708\H,0,1.
 262903,-1.325111,1.463641\H,0,2.44489,-1.637451,0.170737\C,0,1.463019,
 1.419211,0.329517\H,0,2.549314,1.426262,0.214753\H,0,1.226369,1.402755
 ,1.396784\H,0,1.097863,2.355638,-0.102892\H,0,0.831249,-2.360277,0.091

 Normal termination of Gaussian 16 at Wed Apr  9 00:40:14 2025.
