 Gaussian 16, Revision C.01,

 ----------------------------------------------------------------------
 #t hf aug-cc-pvdz symm=none int=(grid=ultrafine) guess=(read,tcheck) s
 table=(opt,rrhf)
 ----------------------------------------------------------------------
 -----
 title
 -----
 Symbolic Z-matrix:
 Charge =  0 Multiplicity = 1

 SCF Done:  E(RHF) =  -907.698611784     A.U. after   15 cycles
 Normal termination of Gaussian 16 at Tue Apr  8 23:32:22 2025.
 Gaussian 16:  ES64L-G16RevC.01  3-Jul-2019

 ----------------------------------------------------------------------
 #t hf aug-cc-pvdz iop(5/13=1,5/36=2,99/5=2) pseudo=read geom=check gue
 ss=(read,tcheck) scf=(maxcycle=1)
 ----------------------------------------------------------------------
 -----
 title
 -----
 Structure from the checkpoint file:  "BDE49_nonexpt_1424_mol1.chk"
 Charge =  0 Multiplicity = 1

                         Standard orientation:
 ---------------------------------------------------------------------
 Center     Atomic      Atomic             Coordinates (Angstroms)
 Number     Number       Type             X           Y           Z
 ---------------------------------------------------------------------
      1          6           0        0.104475   -1.209624   -0.018522
      2          6           0       -1.286141   -1.205007    0.013603
      3          6           0       -2.002319   -0.001672    0.009631
      4          6           0        0.800568   -0.002416   -0.033836
      5          6           0        0.102725    1.205085   -0.020600
      6          6           0       -1.287552    1.202792   -0.003800
      7          1           0        0.646866   -2.146567   -0.029531
      8          1           0       -1.818060   -2.149812    0.044638
      9         15           0       -3.849656   -0.089337    0.070425
     10          6           0        2.304072    0.001186   -0.004279
     11          9           0        2.826766   -1.102168   -0.581578
     12          9           0        2.821173    1.072895   -0.643955
     13          9           0        2.779598    0.039497    1.263104
     14          1           0       -1.817820    2.147737   -0.007377
     15          1           0        0.645390    2.142033   -0.037556
     16          1           0       -4.088895    0.024695   -1.325352
     17          1           0       -4.085439    1.287883    0.307479
 ---------------------------------------------------------------------

 SCF Done:  E(RHF) =  -907.906028100     A.U. after    2 cycles

 The electronic state is 1-A.
 Alpha  occ. eigenvalues --  -81.27391 -26.16528 -26.16493 -26.16028 -11.53035
 Alpha  occ. eigenvalues --  -11.28430 -11.27885 -11.27592 -11.27576 -11.27096
 Alpha  occ. eigenvalues --  -11.27034  -7.77748  -4.91824  -4.91675  -4.91450
 Alpha  occ. eigenvalues --   -1.75785  -1.68946  -1.68478  -1.17961  -1.08471
 Alpha  occ. eigenvalues --   -1.03974  -1.00398  -0.90069  -0.88707  -0.87465
 Alpha  occ. eigenvalues --   -0.84973  -0.82294  -0.79140  -0.77005  -0.76973
 Alpha  occ. eigenvalues --   -0.72749  -0.72405  -0.71409  -0.69238  -0.66109
 Alpha  occ. eigenvalues --   -0.65658  -0.61823  -0.58822  -0.55078  -0.52696
 Alpha  occ. eigenvalues --   -0.51635  -0.49732  -0.39593  -0.36673  -0.35143
 Alpha virt. eigenvalues --    0.03011   0.03946   0.04559   0.05732   0.06088
 Alpha virt. eigenvalues --    0.06443   0.07917   0.08313   0.08461   0.08783
 Alpha virt. eigenvalues --    0.09731   0.10068   0.11875   0.12089   0.13250

 Mulliken charges:
               1
     1  C    0.245334
     2  C    0.464722
     3  C   -0.113515
     4  C    0.879957
     5  C    0.082311
     6  C    0.696552
     7  H   -0.564263
     8  H   -0.516843
     9  P   -0.075768
    10  C    0.804339
    11  F   -0.326980
    12  F   -0.330117
    13  F   -0.334974
    14  H   -0.564813
    15  H   -0.558965
    16  H    0.148693
    17  H    0.064329
 Sum of Mulliken charges =  -0.00000

 Dipole moment (field-independent basis, Debye):
    X=             -2.7023    Y=              0.4675    Z=             -0.4344  Tot=              2.7767

 Test job not archived.
 1\1\GINC-SE084\SP\RHF\Aug-CC-pVDZ\C7H6F3P1\OHZDE\08-Apr-2025\0\\#t hf
 aug-cc-pvdz iop(5/13=1,5/36=2,99/5=2) pseudo=read geom=check guess=(re
 ad,tcheck) scf=(maxcycle=1)\\title\\0,1\C,0,0.104475,-1.209624,-0.0185
 22\C,0,-1.286141,-1.205007,0.013603\C,0,-2.002319,-0.001672,0.009631\C
 ,0,0.800568,-0.002416,-0.033836\C,0,0.102725,1.205085,-0.0206\C,0,-1.2
 87552,1.202792,-0.0038\H,0,0.646866,-2.146567,-0.029531\H,0,-1.81806,-
 2.149812,0.044638\P,0,-3.849656,-0.089337,0.070425\C,0,2.304072,0.0011
 86,-0.004279\F,0,2.826766,-1.102168,-0.581578\F,0,2.821173,1.072895,-0

 Normal termination of Gaussian 16 at Tue Apr  8 23:32:34 2025.
