 Gaussian 16, Revision C.01,

 ----------------------------------------------------------------------
 #t hf aug-cc-pvdz symm=none int=(grid=ultrafine) guess=(read,tcheck) s
 table=(opt,rrhf)
 ----------------------------------------------------------------------
 -----
 title
 -----
 Symbolic Z-matrix:
 Charge =  0 Multiplicity = 1

 SCF Done:  E(RHF) =  -1063.65064513     A.U. after   17 cycles
 Normal termination of Gaussian 16 at Tue Apr  8 23:12:42 2025.
 Gaussian 16:  ES64L-G16RevC.01  3-Jul-2019

 ----------------------------------------------------------------------
 #t hf aug-cc-pvdz iop(5/13=1,5/36=2,99/5=2) pseudo=read geom=check gue
 ss=(read,tcheck) scf=(maxcycle=1)
 ----------------------------------------------------------------------
 -----
 title
 -----
 Structure from the checkpoint file:  "BDE49_expt_841_mol1.chk"
 Charge =  0 Multiplicity = 1

                         Standard orientation:
 ---------------------------------------------------------------------
 Center     Atomic      Atomic             Coordinates (Angstroms)
 Number     Number       Type             X           Y           Z
 ---------------------------------------------------------------------
      1          6           0       -2.407138    1.119220   -0.477218
      2          6           0       -1.016582    1.099433   -0.470545
      3          6           0       -0.322040   -0.028276   -0.004412
      4          6           0       -3.125765    0.026541    0.002693
      5          6           0       -2.445494   -1.096672    0.471698
      6          6           0       -1.057076   -1.131302    0.456676
      7          6           0        1.159271   -0.097128   -0.022369
      8         16           0        2.076955    1.356824    0.372304
      9         16           0        2.007601   -1.450616   -0.402867
     10          1           0        1.066835    2.126066    0.822894
     11          1           0       -2.929087    1.987644   -0.862233
     12          1           0       -4.209518    0.047736    0.006640
     13          1           0       -0.469622    1.943053   -0.873502
     14          1           0       -2.998659   -1.949785    0.847239
     15          1           0       -0.523896   -2.004948    0.808834
 ---------------------------------------------------------------------

 SCF Done:  E(RHF) =  -1063.76560853     A.U. after    2 cycles

 The electronic state is 1-A.
 Alpha  occ. eigenvalues --  -93.57530 -93.51496 -11.36859 -11.28235 -11.27402
 Alpha  occ. eigenvalues --  -11.27045 -11.26893 -11.26568 -11.26358  -8.87308
 Alpha  occ. eigenvalues --   -8.81384  -6.21456  -6.21237  -6.20893  -6.15564
 Alpha  occ. eigenvalues --   -6.15161  -6.14962  -1.17780  -1.11199  -1.03494
 Alpha  occ. eigenvalues --   -1.02015  -0.95796  -0.86602  -0.84921  -0.76185
 Alpha  occ. eigenvalues --   -0.71154  -0.66040  -0.64992  -0.62957  -0.61419
 Alpha  occ. eigenvalues --   -0.55236  -0.54431  -0.52754  -0.50692  -0.49492
 Alpha  occ. eigenvalues --   -0.46918  -0.36965  -0.36323  -0.34660  -0.33241
 Alpha virt. eigenvalues --    0.02245   0.02836   0.03727   0.04375   0.05605
 Alpha virt. eigenvalues --    0.06345   0.06823   0.08579   0.08805   0.09548
 Alpha virt. eigenvalues --    0.10396   0.10493   0.11482   0.12430   0.13096

 Mulliken charges:
               1
     1  C    0.510095
     2  C    0.132592
     3  C    1.157950
     4  C    0.364482
     5  C    0.623854
     6  C   -0.022298
     7  C   -0.710710
     8  S    0.262226
     9  S   -0.057936
    10  H    0.069736
    11  H   -0.428085
    12  H   -0.425368
    13  H   -0.556111
    14  H   -0.421432
    15  H   -0.498996
 Sum of Mulliken charges =   0.00000

 Dipole moment (field-independent basis, Debye):
    X=             -3.5464    Y=              2.0691    Z=              0.7444  Tot=              4.1728

 Test job not archived.
 1\1\GINC-SE398\SP\RHF\Aug-CC-pVDZ\C7H6S2\OHZDE\08-Apr-2025\0\\#t hf au
 g-cc-pvdz iop(5/13=1,5/36=2,99/5=2) pseudo=read geom=check guess=(read
 ,tcheck) scf=(maxcycle=1)\\title\\0,1\C,0,-2.407138,1.11922,-0.477218\
 C,0,-1.016582,1.099433,-0.470545\C,0,-0.32204,-0.028276,-0.004412\C,0,
 -3.125765,0.026541,0.002693\C,0,-2.445494,-1.096672,0.471698\C,0,-1.05
 7076,-1.131302,0.456676\C,0,1.159271,-0.097128,-0.022369\S,0,2.076955,
 1.356824,0.372304\S,0,2.007601,-1.450616,-0.402867\H,0,1.066835,2.1260
 66,0.822894\H,0,-2.929087,1.987644,-0.862233\H,0,-4.209518,0.047736,0.

 Normal termination of Gaussian 16 at Tue Apr  8 23:12:50 2025.
