 Gaussian 16, Revision C.01,

 ----------------------------------------------------------------------
 #t hf aug-cc-pvdz symm=none int=(grid=ultrafine) guess=(read,tcheck) s
 table=opt
 ----------------------------------------------------------------------
 -----
 title
 -----
 Symbolic Z-matrix:
 Charge =  0 Multiplicity = 2

 SCF Done:  E(UHF) =  -551.011973931     A.U. after   23 cycles
 Normal termination of Gaussian 16 at Tue Apr  8 23:42:17 2025.
 Gaussian 16:  ES64L-G16RevC.01  3-Jul-2019

 ----------------------------------------------------------------------
 #t hf aug-cc-pvdz iop(5/13=1,5/36=2,99/5=2) pseudo=read geom=check gue
 ss=(read,tcheck) scf=(maxcycle=1)
 ----------------------------------------------------------------------
 -----
 title
 -----
 Structure from the checkpoint file:  "BDE49_nonexpt_1704_mol2.chk"
 Charge =  0 Multiplicity = 2

                         Standard orientation:
 ---------------------------------------------------------------------
 Center     Atomic      Atomic             Coordinates (Angstroms)
 Number     Number       Type             X           Y           Z
 ---------------------------------------------------------------------
      1         16           0        1.496322   -0.269237    0.080647
      2          8           0        0.224790    0.621389   -0.450268
      3          6           0       -1.003026    0.579470    0.328654
      4          6           0       -1.869729   -0.591937   -0.095300
      5          1           0       -1.486350    1.535024    0.114955
      6          1           0       -0.744352    0.530976    1.388882
      7          1           0       -2.082587   -0.547350   -1.165454
      8          1           0       -2.818370   -0.568409    0.448210
      9          1           0       -1.371289   -1.538764    0.125078
 ---------------------------------------------------------------------

 SCF Done:  E(UHF) =  -551.085251581     A.U. after    2 cycles

 The electronic state is 2-A.
 Alpha  occ. eigenvalues --  -93.59634 -20.62688 -11.30640 -11.23984  -8.88739
 Alpha  occ. eigenvalues --   -6.23903  -6.22555  -6.21899  -1.36663  -1.03823
 Alpha  occ. eigenvalues --   -0.93375  -0.83514  -0.67953  -0.66999  -0.63835
 Alpha  occ. eigenvalues --   -0.57220  -0.55027  -0.52346  -0.50151  -0.41132
 Alpha  occ. eigenvalues --   -0.37419
 Alpha virt. eigenvalues --    0.03534   0.04961   0.05196   0.06080   0.07366
 Alpha virt. eigenvalues --    0.08381   0.10565   0.11976   0.12278   0.14229
 Alpha virt. eigenvalues --    0.15066   0.15716   0.16617   0.17462   0.17808

  Beta  occ. eigenvalues --  -93.58799 -20.61806 -11.30688 -11.23970  -8.87811
  Beta  occ. eigenvalues --   -6.22187  -6.21391  -6.20131  -1.34349  -1.03183
  Beta  occ. eigenvalues --   -0.89612  -0.80388  -0.66962  -0.64068  -0.60438
  Beta  occ. eigenvalues --   -0.56209  -0.54576  -0.49786  -0.48219  -0.35408
  Beta virt. eigenvalues --    0.02272   0.03561   0.05156   0.05303   0.06132
  Beta virt. eigenvalues --    0.07554   0.08764   0.10920   0.12190   0.12801
  Beta virt. eigenvalues --    0.14329   0.15757   0.16549   0.16789   0.17554

 Mulliken charges and spin densities:
               1          2
     1  S    0.379439   0.940443
     2  O   -0.845606   0.075323
     3  C    0.714419  -0.029899
     4  C    0.160064   0.020448
     5  H   -0.170609   0.003420
     6  H   -0.127208  -0.006517
     7  H   -0.020989   0.000176
     8  H   -0.011366  -0.000848
     9  H   -0.078143  -0.002548
 Sum of Mulliken charges =  -0.00000   1.00000

 Dipole moment (field-independent basis, Debye):
    X=             -1.7449    Y=             -0.2811    Z=              1.0886  Tot=              2.0757
                          Isotropic Fermi Contact Couplings
        Atom                 a.u.       MegaHertz       Gauss      10(-4) cm-1
     1  S(33)              0.19967      68.58026      24.47114      22.87591
     2  O(17)              0.09430     -57.16228     -20.39692     -19.06728
     3  C(13)             -0.00781      -8.77801      -3.13221      -2.92803
     4  C(13)             -0.00042      -0.47322      -0.16886      -0.15785
     5  H(1)               0.00042       1.86734       0.66631       0.62288
     6  H(1)               0.00036       1.60869       0.57402       0.53660
     7  H(1)              -0.00007      -0.31243      -0.11148      -0.10421
     8  H(1)              -0.00049      -2.17711      -0.77685      -0.72620

 Normal termination of Gaussian 16 at Tue Apr  8 23:42:19 2025.
