 Gaussian 16, Revision C.01,

 ----------------------------------------------------------------------
 #t hf aug-cc-pvdz symm=none int=(grid=ultrafine) guess=(read,tcheck) s
 table=(opt,rrhf)
 ----------------------------------------------------------------------
 -----
 title
 -----
 Symbolic Z-matrix:
 Charge =  0 Multiplicity = 1

 SCF Done:  E(RHF) =  -405.492862341     A.U. after   17 cycles
 Normal termination of Gaussian 16 at Tue Apr  8 23:20:55 2025.
 Gaussian 16:  ES64L-G16RevC.01  3-Jul-2019

 ----------------------------------------------------------------------
 #t hf aug-cc-pvdz iop(5/13=1,5/36=2,99/5=2) pseudo=read geom=check gue
 ss=(read,tcheck) scf=(maxcycle=1)
 ----------------------------------------------------------------------
 -----
 title
 -----
 Structure from the checkpoint file:  "BDE49_nonexpt_1185_mol1.chk"
 Charge =  0 Multiplicity = 1

                         Standard orientation:
 ---------------------------------------------------------------------
 Center     Atomic      Atomic             Coordinates (Angstroms)
 Number     Number       Type             X           Y           Z
 ---------------------------------------------------------------------
      1          9           0       -2.518816    0.499741   -0.437331
      2          6           0       -0.306086    0.097204    0.263557
      3          6           0       -1.737824   -0.308963    0.387983
      4          1           0       -2.088999   -0.164908    1.414030
      5          1           0       -1.867358   -1.351506    0.092522
      6          7           0        0.552746   -0.766433   -0.102197
      7          8           0        1.793411   -0.631052   -0.242415
      8          9           0        2.295432    0.843298    0.077887
      9          1           0        0.013760    1.113061    0.473903
 ---------------------------------------------------------------------

 SCF Done:  E(RHF) =  -405.625995584     A.U. after    2 cycles

 The electronic state is 1-A.
 Alpha  occ. eigenvalues --  -26.13507 -26.13470 -20.78964 -15.77215 -11.36630
 Alpha  occ. eigenvalues --  -11.34396  -1.66564  -1.62588  -1.48954  -1.19305
 Alpha  occ. eigenvalues --   -1.01760  -0.87823  -0.80449  -0.78039  -0.77212
 Alpha  occ. eigenvalues --   -0.76346  -0.74733  -0.70668  -0.67592  -0.67210
 Alpha  occ. eigenvalues --   -0.60002  -0.58480  -0.50261  -0.45824
 Alpha virt. eigenvalues --    0.01941   0.03421   0.04457   0.05884   0.07269
 Alpha virt. eigenvalues --    0.09718   0.11003   0.12098   0.13407   0.14746
 Alpha virt. eigenvalues --    0.14917   0.16243   0.16691   0.18443   0.19186

 Mulliken charges:
               1
     1  F   -0.398219
     2  C    0.681052
     3  C    0.540256
     4  H   -0.024735
     5  H   -0.084608
     6  N   -0.025582
     7  O   -0.093739
     8  F   -0.437476
     9  H   -0.156948
 Sum of Mulliken charges =  -0.00000

 Dipole moment (field-independent basis, Debye):
    X=             -2.3977    Y=             -1.6705    Z=              1.7680  Tot=              3.4154

 Test job not archived.
 1\1\GINC-SE044\SP\RHF\Aug-CC-pVDZ\C2H3F2N1O1\OHZDE\08-Apr-2025\0\\#t h
 f aug-cc-pvdz iop(5/13=1,5/36=2,99/5=2) pseudo=read geom=check guess=(
 read,tcheck) scf=(maxcycle=1)\\title\\0,1\F,0,-2.518816,0.499741,-0.43
 7331\C,0,-0.306086,0.097204,0.263557\C,0,-1.737824,-0.308963,0.387983\
 H,0,-2.088999,-0.164908,1.41403\H,0,-1.867358,-1.351506,0.092522\N,0,0
 .552746,-0.766433,-0.102197\O,0,1.793411,-0.631052,-0.242415\F,0,2.295
 432,0.843298,0.077887\H,0,0.01376,1.113061,0.473903\\Version=ES64L-G16
 RevC.01\State=1-A\HF=-405.6259956\RMSD=5.148e-03\Dipole=-0.943334,-0.6

 Normal termination of Gaussian 16 at Tue Apr  8 23:20:58 2025.
