 Gaussian 16, Revision C.01,

 ----------------------------------------------------------------------
 #t hf aug-cc-pvdz symm=none int=(grid=ultrafine) guess=(read,tcheck) s
 table=(opt,rrhf)
 ----------------------------------------------------------------------
 -----
 title
 -----
 Symbolic Z-matrix:
 Charge =  0 Multiplicity = 1

 SCF Done:  E(RHF) =  -672.613327646     A.U. after   15 cycles
 Normal termination of Gaussian 16 at Wed Apr  9 00:04:07 2025.
 Gaussian 16:  ES64L-G16RevC.01  3-Jul-2019

 ----------------------------------------------------------------------
 #t hf aug-cc-pvdz iop(5/13=1,5/36=2,99/5=2) pseudo=read geom=check gue
 ss=(read,tcheck) scf=(maxcycle=1)
 ----------------------------------------------------------------------
 -----
 title
 -----
 Structure from the checkpoint file:  "BDE49_nonexpt_2202_mol1.chk"
 Charge =  0 Multiplicity = 1

                         Standard orientation:
 ---------------------------------------------------------------------
 Center     Atomic      Atomic             Coordinates (Angstroms)
 Number     Number       Type             X           Y           Z
 ---------------------------------------------------------------------
      1          6           0       -1.977198    1.870606    0.001610
      2          6           0       -2.129789    0.491074   -0.057211
      3          6           0       -1.029045   -0.377494   -0.068110
      4          6           0       -0.698047    2.420933    0.042145
      5          6           0        0.416009    1.588126    0.020163
      6          6           0        0.256462    0.202761   -0.035410
      7          1           0       -0.562778    3.495578    0.083560
      8          1           0        1.411950    2.016833    0.046668
      9          8           0        1.332184   -0.644660   -0.055603
     10         14           0        2.964358   -0.348467    0.037225
     11          1           0       -3.126419    0.069323   -0.114440
     12          1           0       -2.849565    2.513388    0.005545
     13          6           0       -1.168836   -1.840327   -0.125142
     14          6           0       -2.270334   -2.543346    0.151180
     15          1           0       -0.268097   -2.374148   -0.406957
     16          1           0       -3.195822   -2.081751    0.478062
     17          1           0       -2.273627   -3.623490    0.067595
     18          1           0        3.590992   -1.680710   -0.010331
     19          1           0        3.301067    0.345693    1.300669
     20          1           0        3.418481    0.481101   -1.102055
 ---------------------------------------------------------------------

 SCF Done:  E(RHF) =  -672.760203040     A.U. after    2 cycles

 The electronic state is 1-A.
 Alpha  occ. eigenvalues --  -69.10660 -20.59080 -11.32188 -11.25380 -11.25210
 Alpha  occ. eigenvalues --  -11.25051 -11.24739 -11.24618 -11.24166 -11.23547
 Alpha  occ. eigenvalues --   -6.85454  -3.96367  -3.96219  -3.96189  -1.34958
 Alpha  occ. eigenvalues --   -1.14646  -1.06579  -1.00818  -0.98734  -0.86588
 Alpha  occ. eigenvalues --   -0.84527  -0.77084  -0.75626  -0.69890  -0.67087
 Alpha  occ. eigenvalues --   -0.64900  -0.62578  -0.62166  -0.61395  -0.58740
 Alpha  occ. eigenvalues --   -0.56717  -0.54363  -0.50994  -0.50574  -0.49859
 Alpha  occ. eigenvalues --   -0.47547  -0.47365  -0.41183  -0.33593  -0.30519
 Alpha virt. eigenvalues --    0.03154   0.03839   0.03969   0.05004   0.05544
 Alpha virt. eigenvalues --    0.06180   0.06399   0.06791   0.07293   0.08288
 Alpha virt. eigenvalues --    0.08879   0.09153   0.09413   0.11512   0.11771

 Mulliken charges:
               1
     1  C    0.413450
     2  C    0.349710
     3  C    0.786717
     4  C    0.167250
     5  C    1.225476
     6  C   -0.584746
     7  H   -0.434871
     8  H   -0.624894
     9  O   -0.774012
    10  Si   0.076010
    11  H   -0.539212
    12  H   -0.450046
    13  C    0.663658
    14  C    0.661977
    15  H   -0.597505
    16  H   -0.358618
    17  H   -0.334386
    18  H    0.086229
    19  H    0.147337
    20  H    0.120477
 Sum of Mulliken charges =  -0.00000

 Dipole moment (field-independent basis, Debye):
    X=              0.4560    Y=              0.8781    Z=              0.0573  Tot=              0.9911

 Test job not archived.
 1\1\GINC-SE334\SP\RHF\Aug-CC-pVDZ\C8H10O1Si1\OHZDE\09-Apr-2025\0\\#t h
 f aug-cc-pvdz iop(5/13=1,5/36=2,99/5=2) pseudo=read geom=check guess=(
 read,tcheck) scf=(maxcycle=1)\\title\\0,1\C,0,-1.977198,1.870606,0.001
 61\C,0,-2.129789,0.491074,-0.057211\C,0,-1.029045,-0.377494,-0.06811\C
 ,0,-0.698047,2.420933,0.042145\C,0,0.416009,1.588126,0.020163\C,0,0.25
 6462,0.202761,-0.03541\H,0,-0.562778,3.495578,0.08356\H,0,1.41195,2.01
 6833,0.046668\O,0,1.332184,-0.64466,-0.055603\Si,0,2.964358,-0.348467,
 0.037225\H,0,-3.126419,0.069323,-0.11444\H,0,-2.849565,2.513388,0.0055

 Normal termination of Gaussian 16 at Wed Apr  9 00:04:19 2025.
