 Gaussian 16, Revision C.01,

 ----------------------------------------------------------------------
 #t hf aug-cc-pvdz symm=none int=(grid=ultrafine) guess=(read,tcheck) s
 table=(opt,rrhf)
 ----------------------------------------------------------------------
 -----
 title
 -----
 Symbolic Z-matrix:
 Charge =  0 Multiplicity = 1

 SCF Done:  E(RHF) =  -1415.48043483     A.U. after   13 cycles
 Normal termination of Gaussian 16 at Wed Apr  9 00:11:48 2025.
 Gaussian 16:  ES64L-G16RevC.01  3-Jul-2019

 ----------------------------------------------------------------------
 #t hf aug-cc-pvdz iop(5/13=1,5/36=2,99/5=2) pseudo=read geom=check gue
 ss=(read,tcheck) scf=(maxcycle=1)
 ----------------------------------------------------------------------
 -----
 title
 -----
 Structure from the checkpoint file:  "BDE49_nonexpt_2421_mol1.chk"
 Charge =  0 Multiplicity = 1

                         Standard orientation:
 ---------------------------------------------------------------------
 Center     Atomic      Atomic             Coordinates (Angstroms)
 Number     Number       Type             X           Y           Z
 ---------------------------------------------------------------------
      1         14           0       -2.582039   -0.789086   -0.081263
      2         14           0       -1.034961    0.846977    0.618541
      3         16           0        0.661580    1.047970   -0.736011
      4          1           0       -0.536656    0.570373    1.987874
      5          1           0       -1.669545    2.189923    0.606417
      6         16           0        1.593255   -0.816381   -0.426570
      7          1           0       -3.686656   -0.866762    0.907460
      8          1           0       -1.941398   -2.118876   -0.190078
      9          6           0        2.757996   -0.446904    0.930953
     10          1           0        3.308883   -1.375073    1.103129
     11          1           0        2.227739   -0.167346    1.840546
     12          1           0        3.453299    0.337733    0.636094
     13          1           0       -3.143018   -0.404443   -1.397752
 ---------------------------------------------------------------------

 SCF Done:  E(RHF) =  -1415.57404152     A.U. after    2 cycles

 The electronic state is 1-A.
 Alpha  occ. eigenvalues --  -93.56395 -93.54964 -69.09243 -69.06588 -11.27601
 Alpha  occ. eigenvalues --   -8.85890  -8.84683  -6.84346  -6.82013  -6.20000
 Alpha  occ. eigenvalues --   -6.19742  -6.19420  -6.18773  -6.18523  -6.18271
 Alpha  occ. eigenvalues --   -3.95136  -3.95066  -3.95007  -3.92769  -3.92763
 Alpha  occ. eigenvalues --   -3.92746  -1.05320  -0.94854  -0.81214  -0.72923
 Alpha  occ. eigenvalues --   -0.65747  -0.60395  -0.60136  -0.52484  -0.50813
 Alpha  occ. eigenvalues --   -0.49682  -0.48194  -0.47232  -0.44075  -0.42117
 Alpha  occ. eigenvalues --   -0.35838  -0.34938
 Alpha virt. eigenvalues --    0.03523   0.04240   0.04717   0.05542   0.06313
 Alpha virt. eigenvalues --    0.06582   0.06993   0.07331   0.08105   0.08445
 Alpha virt. eigenvalues --    0.09066   0.09640   0.10460   0.10723   0.10955

 Mulliken charges:
               1
     1  Si  -0.093267
     2  Si   0.508410
     3  S   -0.474131
     4  H    0.046461
     5  H   -0.004291
     6  S    0.091372
     7  H    0.013131
     8  H    0.031514
     9  C    0.050007
    10  H   -0.052693
    11  H   -0.115161
    12  H   -0.031308
    13  H    0.029956
 Sum of Mulliken charges =   0.00000

 Dipole moment (field-independent basis, Debye):
    X=              0.3452    Y=             -0.1983    Z=              1.8255  Tot=              1.8684

 Test job not archived.
 1\1\GINC-SE362\SP\RHF\Aug-CC-pVDZ\C1H8S2Si2\OHZDE\09-Apr-2025\0\\#t hf
  aug-cc-pvdz iop(5/13=1,5/36=2,99/5=2) pseudo=read geom=check guess=(r
 ead,tcheck) scf=(maxcycle=1)\\title\\0,1\Si,0,-2.582039,-0.789086,-0.0
 81263\Si,0,-1.034961,0.846977,0.618541\S,0,0.66158,1.04797,-0.736011\H
 ,0,-0.536656,0.570373,1.987874\H,0,-1.669545,2.189923,0.606417\S,0,1.5
 93255,-0.816381,-0.42657\H,0,-3.686656,-0.866762,0.90746\H,0,-1.941398
 ,-2.118876,-0.190078\C,0,2.757996,-0.446904,0.930953\H,0,3.308883,-1.3
 75073,1.103129\H,0,2.227739,-0.167346,1.840546\H,0,3.453299,0.337733,0

 Normal termination of Gaussian 16 at Wed Apr  9 00:11:52 2025.
