 Gaussian 16, Revision C.01,

 ----------------------------------------------------------------------
 #t hf aug-cc-pvdz symm=none int=(grid=ultrafine) guess=(read,tcheck) s
 table=(opt,rrhf)
 ----------------------------------------------------------------------
 -----
 title
 -----
 Symbolic Z-matrix:
 Charge =  0 Multiplicity = 1

 SCF Done:  E(RHF) =  -733.711351742     A.U. after   16 cycles
 Normal termination of Gaussian 16 at Wed Apr  9 00:47:53 2025.
 Gaussian 16:  ES64L-G16RevC.01  3-Jul-2019

 ----------------------------------------------------------------------
 #t hf aug-cc-pvdz iop(5/13=1,5/36=2,99/5=2) pseudo=read geom=check gue
 ss=(read,tcheck) scf=(maxcycle=1)
 ----------------------------------------------------------------------
 -----
 title
 -----
 Structure from the checkpoint file:  "BDE49_nonexpt_859_mol1.chk"
 Charge =  0 Multiplicity = 1

                         Standard orientation:
 ---------------------------------------------------------------------
 Center     Atomic      Atomic             Coordinates (Angstroms)
 Number     Number       Type             X           Y           Z
 ---------------------------------------------------------------------
      1          6           0        2.608298   -0.621406   -0.043532
      2         14           0        1.971981    1.166295    0.358204
      3          8           0        2.073330   -1.612925    0.381450
      4          8           0        3.720344   -0.748312   -0.824551
      5          5           0        0.020344    1.586052    0.027655
      6          6           0       -1.193974    0.657213   -0.002794
      7          1           0        4.033843    0.128553   -1.078685
      8          6           0       -2.474768    1.208880   -0.250092
      9          6           0       -1.113461   -0.739395    0.212196
     10          6           0       -2.252080   -1.535242    0.180635
     11          6           0       -3.498682   -0.960544   -0.069401
     12          6           0       -3.611946    0.414105   -0.285932
     13          1           0       -4.583296    0.855463   -0.478451
     14          1           0       -2.561093    2.277412   -0.414820
     15          1           0       -0.150573   -1.197542    0.406784
     16          1           0       -2.171314   -2.603001    0.349339
     17          1           0       -4.385485   -1.584876   -0.094736
     18          1           0       -0.173045    2.757894   -0.126922
     19          1           0        2.851864    2.092472   -0.411608
     20          1           0        2.299927    1.363469    1.794313
 ---------------------------------------------------------------------

 SCF Done:  E(RHF) =  -733.864633087     A.U. after    2 cycles

 The electronic state is 1-A.
 Alpha  occ. eigenvalues --  -69.07619 -20.62538 -20.56764 -11.38567 -11.26815
 Alpha  occ. eigenvalues --  -11.26455 -11.25829 -11.25217 -11.24952 -11.23445
 Alpha  occ. eigenvalues --   -7.62665  -6.83103  -3.93881  -3.93845  -3.93772
 Alpha  occ. eigenvalues --   -1.41466  -1.32999  -1.14963  -1.02061  -1.01857
 Alpha  occ. eigenvalues --   -0.85214  -0.84141  -0.83513  -0.79127  -0.73228
 Alpha  occ. eigenvalues --   -0.68662  -0.67699  -0.65093  -0.64064  -0.63846
 Alpha  occ. eigenvalues --   -0.61546  -0.60307  -0.58082  -0.54916  -0.51485
 Alpha  occ. eigenvalues --   -0.50929  -0.50057  -0.49338  -0.48395  -0.43619
 Alpha  occ. eigenvalues --   -0.41798  -0.35630  -0.34924
 Alpha virt. eigenvalues --    0.02181   0.02872   0.03518   0.04000   0.04961
 Alpha virt. eigenvalues --    0.05169   0.05828   0.06270   0.06795   0.07171
 Alpha virt. eigenvalues --    0.08208   0.08865   0.09198   0.09596   0.09719

 Mulliken charges:
               1
     1  C    0.427573
     2  Si  -0.201838
     3  O   -0.449274
     4  O   -0.510378
     5  B   -0.303877
     6  C   -0.164880
     7  H    0.179435
     8  C    0.655575
     9  C    0.834578
    10  C    0.471012
    11  C    0.711731
    12  C    0.458087
    13  H   -0.442062
    14  H   -0.638404
    15  H   -0.562601
    16  H   -0.484319
    17  H   -0.436343
    18  H    0.296070
    19  H   -0.004167
    20  H    0.164082
 Sum of Mulliken charges =  -0.00000

 Dipole moment (field-independent basis, Debye):
    X=             -1.6370    Y=              3.3387    Z=             -0.8390  Tot=              3.8119

 Test job not archived.
 1\1\GINC-SE069\SP\RHF\Aug-CC-pVDZ\C7H9B1O2Si1\OHZDE\09-Apr-2025\0\\#t
 hf aug-cc-pvdz iop(5/13=1,5/36=2,99/5=2) pseudo=read geom=check guess=
 (read,tcheck) scf=(maxcycle=1)\\title\\0,1\C,0,2.608298,-0.621406,-0.0
 43532\Si,0,1.971981,1.166295,0.358204\O,0,2.07333,-1.612925,0.38145\O,
 0,3.720344,-0.748312,-0.824551\B,0,0.020344,1.586052,0.027655\C,0,-1.1
 93974,0.657213,-0.002794\H,0,4.033843,0.128553,-1.078685\C,0,-2.474768
 ,1.20888,-0.250092\C,0,-1.113461,-0.739395,0.212196\C,0,-2.25208,-1.53
 5242,0.180635\C,0,-3.498682,-0.960544,-0.069401\C,0,-3.611946,0.414105

 Normal termination of Gaussian 16 at Wed Apr  9 00:48:06 2025.
