 Gaussian 16, Revision C.01,

 ----------------------------------------------------------------------
 #t hf aug-cc-pvdz symm=none int=(grid=ultrafine) guess=(read,tcheck) s
 table=(opt,rrhf)
 ----------------------------------------------------------------------
 -----
 title
 -----
 Symbolic Z-matrix:
 Charge =  0 Multiplicity = 1

 SCF Done:  E(RHF) =  -119.295532710     A.U. after   12 cycles
 Normal termination of Gaussian 16 at Wed Apr  9 00:34:45 2025.
 Gaussian 16:  ES64L-G16RevC.01  3-Jul-2019

 ----------------------------------------------------------------------
 #t hf aug-cc-pvdz iop(5/13=1,5/36=2,99/5=2) pseudo=read geom=check gue
 ss=(read,tcheck) scf=(maxcycle=1)
 ----------------------------------------------------------------------
 -----
 title
 -----
 Structure from the checkpoint file:  "BDE49_nonexpt_506_mol1.chk"
 Charge =  0 Multiplicity = 1

                         Standard orientation:
 ---------------------------------------------------------------------
 Center     Atomic      Atomic             Coordinates (Angstroms)
 Number     Number       Type             X           Y           Z
 ---------------------------------------------------------------------
      1          1           0        1.373447   -1.387066    0.000239
      2          1           0        2.313438    0.451447    0.000227
      3          5           0        1.313895   -0.194901   -0.000327
      4          6           0       -0.100138    0.471414    0.000016
      5          7           0       -1.205942   -0.184079    0.000135
      6          1           0       -1.004737   -1.191427   -0.000005
      7          1           0       -0.209199    1.561614    0.000135
 ---------------------------------------------------------------------

 SCF Done:  E(RHF) =  -119.332284371     A.U. after    2 cycles

 The electronic state is 1-A.
 Alpha  occ. eigenvalues --  -15.64969 -11.27619  -7.63745  -1.18080  -0.84100
 Alpha  occ. eigenvalues --   -0.72637  -0.61102  -0.58177  -0.50108  -0.45104
 Alpha  occ. eigenvalues --   -0.41851
 Alpha virt. eigenvalues --    0.02359   0.03734   0.04221   0.05487   0.06983
 Alpha virt. eigenvalues --    0.07339   0.08978   0.09917   0.12321   0.13610
 Alpha virt. eigenvalues --    0.14403   0.16989   0.17604   0.19058   0.22007

 Mulliken charges:
               1
     1  H    0.141177
     2  H    0.243699
     3  B   -0.254380
     4  C    0.416318
     5  N   -0.310787
     6  H    0.039613
     7  H   -0.275639
 Sum of Mulliken charges =  -0.00000

 Dipole moment (field-independent basis, Debye):
    X=              1.6824    Y=             -0.3462    Z=             -0.0015  Tot=              1.7176

 Test job not archived.
 1\1\GINC-SE336\SP\RHF\Aug-CC-pVDZ\C1H4B1N1\OHZDE\09-Apr-2025\0\\#t hf
 aug-cc-pvdz iop(5/13=1,5/36=2,99/5=2) pseudo=read geom=check guess=(re
 ad,tcheck) scf=(maxcycle=1)\\title\\0,1\H,0,1.373447,-1.387066,0.00023
 9\H,0,2.313438,0.451447,0.000227\B,0,1.313895,-0.194901,-0.000327\C,0,
 -0.100138,0.471414,0.000016\N,0,-1.205942,-0.184079,0.000135\H,0,-1.00
 4737,-1.191427,-0.000005\H,0,-0.209199,1.561614,0.000135\\Version=ES64
 L-G16RevC.01\State=1-A\HF=-119.3322844\RMSD=2.329e-03\Dipole=0.6618922
 ,-0.1362004,-0.0005748\Quadrupole=-2.9107027,1.9397573,0.9709455,0.928

 Normal termination of Gaussian 16 at Wed Apr  9 00:34:47 2025.
