 Gaussian 16, Revision C.01,

 ----------------------------------------------------------------------
 #t hf aug-cc-pvdz symm=none int=(grid=ultrafine) guess=(read,tcheck) s
 table=(opt,rrhf)
 ----------------------------------------------------------------------
 -----
 title
 -----
 Symbolic Z-matrix:
 Charge =  0 Multiplicity = 1

 SCF Done:  E(RHF) =  -764.378725138     A.U. after   14 cycles
 Normal termination of Gaussian 16 at Wed Apr  9 00:22:06 2025.
 Gaussian 16:  ES64L-G16RevC.01  3-Jul-2019

 ----------------------------------------------------------------------
 #t hf aug-cc-pvdz iop(5/13=1,5/36=2,99/5=2) pseudo=read geom=check gue
 ss=(read,tcheck) scf=(maxcycle=1)
 ----------------------------------------------------------------------
 -----
 title
 -----
 Structure from the checkpoint file:  "BDE49_nonexpt_2681_mol1.chk"
 Charge =  0 Multiplicity = 1

                         Standard orientation:
 ---------------------------------------------------------------------
 Center     Atomic      Atomic             Coordinates (Angstroms)
 Number     Number       Type             X           Y           Z
 ---------------------------------------------------------------------
      1          9           0       -2.400080    0.300983    0.066742
      2         16           0       -1.224269   -0.859908   -0.207296
      3          6           0        0.263336    0.215424    0.073673
      4          8           0        1.229021   -0.791754   -0.124593
      5          8           0        0.294247    0.743624    1.360330
      6          6           0        2.598163   -0.377732   -0.090865
      7          1           0        2.862773    0.203178   -0.979843
      8          1           0        3.186783   -1.293436   -0.073546
      9          1           0        2.804840    0.208063    0.808535
     10          6           0        0.315908    1.378696   -0.900769
     11          1           0        0.444832    1.009653   -1.917946
     12          1           0        1.134908    2.052527   -0.640106
     13          1           0       -0.619148    1.935213   -0.837322
     14          1           0        0.123457    0.021194    1.978151
 ---------------------------------------------------------------------

 SCF Done:  E(RHF) =  -764.521937678     A.U. after    2 cycles

 The electronic state is 1-A.
 Alpha  occ. eigenvalues --  -93.61492 -26.12132 -20.60534 -20.60529 -11.40578
 Alpha  occ. eigenvalues --  -11.30405 -11.24610  -8.90405  -6.24605  -6.24212
 Alpha  occ. eigenvalues --   -6.23791  -1.63185  -1.40612  -1.33110  -1.05506
 Alpha  occ. eigenvalues --   -0.97938  -0.93764  -0.82787  -0.75915  -0.73891
 Alpha  occ. eigenvalues --   -0.72652  -0.70070  -0.69137  -0.63698  -0.62434
 Alpha  occ. eigenvalues --   -0.61208  -0.57974  -0.56468  -0.55412  -0.51534
 Alpha  occ. eigenvalues --   -0.48461  -0.45293  -0.38304
 Alpha virt. eigenvalues --    0.03148   0.04623   0.04798   0.05511   0.06517
 Alpha virt. eigenvalues --    0.07225   0.07449   0.08120   0.09519   0.11363
 Alpha virt. eigenvalues --    0.12751   0.13259   0.14422   0.15468   0.15862

 Mulliken charges:
               1
     1  F   -0.649783
     2  S    0.783113
     3  C    0.059761
     4  O   -0.621762
     5  O   -0.525291
     6  C    0.771203
     7  H   -0.106433
     8  H   -0.249097
     9  H   -0.040308
    10  C    0.465220
    11  H    0.029247
    12  H   -0.016801
    13  H   -0.043830
    14  H    0.144761
 Sum of Mulliken charges =  -0.00000

 Dipole moment (field-independent basis, Debye):
    X=              3.4362    Y=             -0.2601    Z=             -0.2671  Tot=              3.4563

 Test job not archived.
 1\1\GINC-SE336\SP\RHF\Aug-CC-pVDZ\C3H7F1O2S1\OHZDE\09-Apr-2025\0\\#t h
 f aug-cc-pvdz iop(5/13=1,5/36=2,99/5=2) pseudo=read geom=check guess=(
 read,tcheck) scf=(maxcycle=1)\\title\\0,1\F,0,-2.40008,0.300983,0.0667
 42\S,0,-1.224269,-0.859908,-0.207296\C,0,0.263336,0.215424,0.073673\O,
 0,1.229021,-0.791754,-0.124593\O,0,0.294247,0.743624,1.36033\C,0,2.598
 163,-0.377732,-0.090865\H,0,2.862773,0.203178,-0.979843\H,0,3.186783,-
 1.293436,-0.073546\H,0,2.80484,0.208063,0.808535\C,0,0.315908,1.378696
 ,-0.900769\H,0,0.444832,1.009653,-1.917946\H,0,1.134908,2.052527,-0.64

 Normal termination of Gaussian 16 at Wed Apr  9 00:22:11 2025.
