 Gaussian 16, Revision C.01,

 ----------------------------------------------------------------------
 #t hf aug-cc-pvdz symm=none int=(grid=ultrafine) guess=(read,tcheck) s
 table=(opt,rrhf)
 ----------------------------------------------------------------------
 -----
 title
 -----
 Symbolic Z-matrix:
 Charge =  0 Multiplicity = 1

 SCF Done:  E(RHF) =  -705.648295320     A.U. after   15 cycles
 Normal termination of Gaussian 16 at Tue Apr  8 22:49:42 2025.
 Gaussian 16:  ES64L-G16RevC.01  3-Jul-2019

 ----------------------------------------------------------------------
 #t hf aug-cc-pvdz iop(5/13=1,5/36=2,99/5=2) pseudo=read geom=check gue
 ss=(read,tcheck) scf=(maxcycle=1)
 ----------------------------------------------------------------------
 -----
 title
 -----
 Structure from the checkpoint file:  "BDE49_expt_1737_mol1.chk"
 Charge =  0 Multiplicity = 1

                         Standard orientation:
 ---------------------------------------------------------------------
 Center     Atomic      Atomic             Coordinates (Angstroms)
 Number     Number       Type             X           Y           Z
 ---------------------------------------------------------------------
      1          6           0        2.236186   -0.054273    0.000003
      2          6           0        1.460632   -1.207686    0.000004
      3          7           0        0.120977   -1.193843   -0.000003
      4          6           0        1.584285    1.178098    0.000003
      5          6           0        0.195697    1.209920   -0.000002
      6          6           0       -0.467783   -0.017177   -0.000010
      7          1           0        3.316963   -0.120192    0.000006
      8          1           0        1.921852   -2.190348    0.000004
      9          1           0        2.148097    2.103881    0.000006
     10          1           0       -0.357880    2.138774    0.000000
     11         17           0       -2.231175   -0.013441    0.000001
 ---------------------------------------------------------------------

 SCF Done:  E(RHF) =  -705.738303004     A.U. after    2 cycles

 The electronic state is 1-A.
 Alpha  occ. eigenvalues -- -103.66679 -15.65000 -11.35820 -11.30504 -11.28696
 Alpha  occ. eigenvalues --  -11.27138 -11.26593 -10.69973  -8.35704  -8.35390
 Alpha  occ. eigenvalues --   -8.35385  -1.26963  -1.16413  -1.09769  -1.02697
 Alpha  occ. eigenvalues --   -0.88316  -0.85650  -0.72867  -0.69366  -0.66370
 Alpha  occ. eigenvalues --   -0.61059  -0.59419  -0.58401  -0.54192  -0.48676
 Alpha  occ. eigenvalues --   -0.47216  -0.43650  -0.40182  -0.35759
 Alpha virt. eigenvalues --    0.02760   0.03760   0.04885   0.06088   0.07767
 Alpha virt. eigenvalues --    0.08682   0.08779   0.10330   0.11517   0.11675
 Alpha virt. eigenvalues --    0.12980   0.13210   0.14090   0.14689   0.14769

 Mulliken charges:
               1
     1  C    0.872512
     2  C    0.401758
     3  N   -0.306050
     4  C   -0.354432
     5  C    1.357285
     6  C   -0.249791
     7  H   -0.394686
     8  H   -0.318487
     9  H   -0.385706
    10  H   -0.367893
    11  Cl  -0.254510
 Sum of Mulliken charges =   0.00000

 Dipole moment (field-independent basis, Debye):
    X=              3.2599    Y=              1.8223    Z=              0.0000  Tot=              3.7347

 Test job not archived.
 1\1\GINC-SE218\SP\RHF\Aug-CC-pVDZ\C5H4Cl1N1\OHZDE\08-Apr-2025\0\\#t hf
  aug-cc-pvdz iop(5/13=1,5/36=2,99/5=2) pseudo=read geom=check guess=(r
 ead,tcheck) scf=(maxcycle=1)\\title\\0,1\C,0,2.236186,-0.054273,0.0000
 03\C,0,1.460632,-1.207686,0.000004\N,0,0.120977,-1.193843,-0.000003\C,
 0,1.584285,1.178098,0.000003\C,0,0.195697,1.20992,-0.000002\C,0,-0.467
 783,-0.017177,-0.00001\H,0,3.316963,-0.120191,0.000006\H,0,1.921852,-2
 .190348,0.000004\H,0,2.148097,2.103881,0.000006\H,0,-0.35788,2.138774,
 0.\Cl,0,-2.231175,-0.013442,0.000001\\Version=ES64L-G16RevC.01\State=1

 Normal termination of Gaussian 16 at Tue Apr  8 22:49:46 2025.
