 Gaussian 16, Revision C.01,

 ----------------------------------------------------------------------
 #t hf aug-cc-pvdz symm=none int=(grid=ultrafine) guess=(read,tcheck) s
 table=(opt,rrhf)
 ----------------------------------------------------------------------
 -----
 title
 -----
 Symbolic Z-matrix:
 Charge =  0 Multiplicity = 1

 SCF Done:  E(RHF) =  -920.767367795     A.U. after   15 cycles
 Normal termination of Gaussian 16 at Wed Apr  9 00:13:16 2025.
 Gaussian 16:  ES64L-G16RevC.01  3-Jul-2019

 ----------------------------------------------------------------------
 #t hf aug-cc-pvdz iop(5/13=1,5/36=2,99/5=2) pseudo=read geom=check gue
 ss=(read,tcheck) scf=(maxcycle=1)
 ----------------------------------------------------------------------
 -----
 title
 -----
 Structure from the checkpoint file:  "BDE49_nonexpt_2462_mol1.chk"
 Charge =  0 Multiplicity = 1

                         Standard orientation:
 ---------------------------------------------------------------------
 Center     Atomic      Atomic             Coordinates (Angstroms)
 Number     Number       Type             X           Y           Z
 ---------------------------------------------------------------------
      1         14           0        2.706438   -1.104727    0.218336
      2         14           0        1.632953    0.821562   -0.621825
      3          1           0        4.079372   -1.169242   -0.337218
      4          1           0        1.960476   -2.316268   -0.193098
      5          1           0        2.779795   -1.046786    1.695640
      6          6           0       -0.126342    0.931757    0.152417
      7          1           0        1.511698    0.744273   -2.095343
      8          1           0        2.345543    2.056048   -0.230818
      9          8           0       -0.438740    1.607872    1.084960
     10          8           0       -1.025513    0.099779   -0.528452
     11          6           0       -2.179259   -0.410130    0.094114
     12          8           0       -2.233153   -0.649091    1.258418
     13          6           0       -3.249429   -0.640689   -0.934812
     14          1           0       -2.851900   -1.223404   -1.768038
     15          1           0       -3.576685    0.322039   -1.336125
     16          1           0       -4.090343   -1.156464   -0.475865
 ---------------------------------------------------------------------

 SCF Done:  E(RHF) =  -920.917831757     A.U. after    2 cycles

 The electronic state is 1-A.
 Alpha  occ. eigenvalues --  -69.08866 -69.07651 -20.63781 -20.58964 -20.58419
 Alpha  occ. eigenvalues --  -11.41652 -11.40042 -11.26640  -6.84269  -6.83063
 Alpha  occ. eigenvalues --   -3.95063  -3.95008  -3.94974  -3.93818  -3.93812
 Alpha  occ. eigenvalues --   -3.93805  -1.44721  -1.38660  -1.33714  -1.03928
 Alpha  occ. eigenvalues --   -0.91240  -0.77991  -0.75014  -0.71859  -0.71368
 Alpha  occ. eigenvalues --   -0.69592  -0.66663  -0.62359  -0.61286  -0.59276
 Alpha  occ. eigenvalues --   -0.57402  -0.54816  -0.51785  -0.50627  -0.50049
 Alpha  occ. eigenvalues --   -0.49526  -0.48570  -0.44642  -0.41080
 Alpha virt. eigenvalues --    0.02995   0.03738   0.04242   0.05345   0.05686
 Alpha virt. eigenvalues --    0.06353   0.06712   0.07295   0.07708   0.08047
 Alpha virt. eigenvalues --    0.08308   0.08844   0.09304   0.10110   0.10615

 Mulliken charges:
               1
     1  Si  -0.185510
     2  Si  -0.012498
     3  H    0.023593
     4  H    0.064354
     5  H    0.071313
     6  C    0.407071
     7  H    0.126391
     8  H    0.058010
     9  O   -0.412623
    10  O   -0.475284
    11  C    0.408948
    12  O   -0.384688
    13  C    0.260992
    14  H    0.018725
    15  H    0.042600
    16  H   -0.011394
 Sum of Mulliken charges =  -0.00000

 Dipole moment (field-independent basis, Debye):
    X=              0.7070    Y=             -1.0801    Z=             -4.2085  Tot=              4.4020

 Test job not archived.
 1\1\GINC-SE338\SP\RHF\Aug-CC-pVDZ\C3H8O3Si2\OHZDE\09-Apr-2025\0\\#t hf
  aug-cc-pvdz iop(5/13=1,5/36=2,99/5=2) pseudo=read geom=check guess=(r
 ead,tcheck) scf=(maxcycle=1)\\title\\0,1\Si,0,2.706438,-1.104727,0.218
 336\Si,0,1.632953,0.821562,-0.621825\H,0,4.079372,-1.169242,-0.337218\
 H,0,1.960476,-2.316268,-0.193098\H,0,2.779795,-1.046786,1.69564\C,0,-0
 .126342,0.931757,0.152417\H,0,1.511698,0.744273,-2.095343\H,0,2.345543
 ,2.056048,-0.230818\O,0,-0.43874,1.607872,1.08496\O,0,-1.025513,0.0997
 79,-0.528452\C,0,-2.179259,-0.41013,0.094114\O,0,-2.233153,-0.649091,1

 Normal termination of Gaussian 16 at Wed Apr  9 00:13:22 2025.
