 Gaussian 16, Revision C.01,

 ----------------------------------------------------------------------
 #t hf aug-cc-pvdz symm=none int=(grid=ultrafine) guess=(read,tcheck) s
 table=(opt,rrhf)
 ----------------------------------------------------------------------
 -----
 title
 -----
 Symbolic Z-matrix:
 Charge =  0 Multiplicity = 1

 SCF Done:  E(RHF) =  -553.805071719     A.U. after   13 cycles
 Normal termination of Gaussian 16 at Wed Apr  9 00:04:57 2025.
 Gaussian 16:  ES64L-G16RevC.01  3-Jul-2019

 ----------------------------------------------------------------------
 #t hf aug-cc-pvdz iop(5/13=1,5/36=2,99/5=2) pseudo=read geom=check gue
 ss=(read,tcheck) scf=(maxcycle=1)
 ----------------------------------------------------------------------
 -----
 title
 -----
 Structure from the checkpoint file:  "BDE49_nonexpt_2248_mol1.chk"
 Charge =  0 Multiplicity = 1

                         Standard orientation:
 ---------------------------------------------------------------------
 Center     Atomic      Atomic             Coordinates (Angstroms)
 Number     Number       Type             X           Y           Z
 ---------------------------------------------------------------------
      1         14           0       -0.830429   -0.691958   -0.000002
      2          6           0        0.957655   -0.018805   -0.000041
      3          8           0       -1.707843    0.718066   -0.000010
      4          1           0       -2.667305    0.729038   -0.000004
      5          8           0        1.908813   -0.754997    0.000017
      6          8           0        1.104916    1.330723    0.000020
      7          1           0        0.222869    1.734700    0.000032
      8          1           0       -1.061270   -1.506902    1.210353
      9          1           0       -1.061302   -1.506930   -1.210331
 ---------------------------------------------------------------------

 SCF Done:  E(RHF) =  -553.922169936     A.U. after    2 cycles

 The electronic state is 1-A.
 Alpha  occ. eigenvalues --  -69.12892 -20.62302 -20.60990 -20.56963 -11.38510
 Alpha  occ. eigenvalues --   -6.87743  -3.98670  -3.98545  -3.98463  -1.41494
 Alpha  occ. eigenvalues --   -1.33962  -1.33037  -0.85623  -0.81976  -0.73351
 Alpha  occ. eigenvalues --   -0.68179  -0.67022  -0.64063  -0.59851  -0.59158
 Alpha  occ. eigenvalues --   -0.56370  -0.50812  -0.48573  -0.43860
 Alpha virt. eigenvalues --    0.01897   0.04773   0.05089   0.05181   0.06969
 Alpha virt. eigenvalues --    0.07196   0.08352   0.10570   0.11138   0.12935
 Alpha virt. eigenvalues --    0.13752   0.15365   0.15707   0.17471   0.19773

 Mulliken charges:
               1
     1  Si   0.926895
     2  C    0.420418
     3  O   -0.735440
     4  H    0.118412
     5  O   -0.446568
     6  O   -0.455495
     7  H    0.214323
     8  H   -0.021278
     9  H   -0.021269
 Sum of Mulliken charges =   0.00000

 Dipole moment (field-independent basis, Debye):
    X=             -5.9543    Y=              0.3977    Z=             -0.0001  Tot=              5.9676

 Test job not archived.
 1\1\GINC-SE128\SP\RHF\Aug-CC-pVDZ\C1H4O3Si1\OHZDE\09-Apr-2025\0\\#t hf
  aug-cc-pvdz iop(5/13=1,5/36=2,99/5=2) pseudo=read geom=check guess=(r
 ead,tcheck) scf=(maxcycle=1)\\title\\0,1\Si,0,0.830429,-0.691958,0.000
 002\C,0,-0.957655,-0.018805,0.000041\O,0,1.707843,0.718066,0.00001\H,0
 ,2.667305,0.729038,0.000004\O,0,-1.908813,-0.754997,-0.000017\O,0,-1.1
 04916,1.330723,-0.00002\H,0,-0.222869,1.7347,-0.000032\H,0,1.06127,-1.
 506902,-1.210353\H,0,1.061302,-1.50693,1.210331\\Version=ES64L-G16RevC
 .01\State=1-A\HF=-553.9221699\RMSD=4.024e-03\Dipole=2.3426063,0.156460

 Normal termination of Gaussian 16 at Wed Apr  9 00:05:01 2025.
