 Gaussian 16, Revision C.01,

 ----------------------------------------------------------------------
 #t hf aug-cc-pvdz symm=none int=(grid=ultrafine) guess=(read,tcheck) s
 table=(opt,rrhf)
 ----------------------------------------------------------------------
 -----
 title
 -----
 Symbolic Z-matrix:
 Charge =  0 Multiplicity = 1

 SCF Done:  E(RHF) =  -685.934516643     A.U. after   15 cycles
 Normal termination of Gaussian 16 at Tue Apr  8 23:32:14 2025.
 Gaussian 16:  ES64L-G16RevC.01  3-Jul-2019

 ----------------------------------------------------------------------
 #t hf aug-cc-pvdz iop(5/13=1,5/36=2,99/5=2) pseudo=read geom=check gue
 ss=(read,tcheck) scf=(maxcycle=1)
 ----------------------------------------------------------------------
 -----
 title
 -----
 Structure from the checkpoint file:  "BDE49_nonexpt_1430_mol1.chk"
 Charge =  0 Multiplicity = 1

                         Standard orientation:
 ---------------------------------------------------------------------
 Center     Atomic      Atomic             Coordinates (Angstroms)
 Number     Number       Type             X           Y           Z
 ---------------------------------------------------------------------
      1          6           0       -0.140016    2.210719    0.002978
      2          6           0       -1.278131    1.404073   -0.005383
      3          6           0       -1.142441    0.013955   -0.011120
      4          6           0        1.128916    1.649032    0.009706
      5          6           0        1.274810    0.257767    0.002788
      6          6           0        0.138302   -0.557083   -0.013880
      7          1           0       -0.244455    3.290155    0.005615
      8          1           0       -2.261962    1.857537   -0.005642
      9         15           0       -2.578360   -1.154256   -0.026246
     10          8           0        2.556702   -0.204516    0.006240
     11          1           0        2.021887    2.262046    0.016327
     12          6           0        2.774401   -1.608995   -0.003283
     13          1           0        2.361711   -2.074010   -0.905382
     14          1           0        2.343650   -2.088859    0.882473
     15          1           0        3.855010   -1.740914    0.006426
     16          1           0        0.233273   -1.634854   -0.034885
     17          1           0       -3.486348   -0.334568   -0.744464
     18          1           0       -3.136035   -0.803383    1.232470
 ---------------------------------------------------------------------

 SCF Done:  E(RHF) =  -686.060433021     A.U. after    2 cycles

 The electronic state is 1-A.
 Alpha  occ. eigenvalues --  -81.25949 -20.60270 -11.31593 -11.29976 -11.25975
 Alpha  occ. eigenvalues --  -11.25300 -11.24751 -11.24300 -11.24281  -7.76301
 Alpha  occ. eigenvalues --   -4.90361  -4.90216  -4.90027  -1.37235  -1.14381
 Alpha  occ. eigenvalues --   -1.02674  -1.01602  -0.94590  -0.85315  -0.81914
 Alpha  occ. eigenvalues --   -0.77647  -0.71265  -0.67604  -0.67487  -0.66862
 Alpha  occ. eigenvalues --   -0.61803  -0.59095  -0.56271  -0.54258  -0.53224
 Alpha  occ. eigenvalues --   -0.52013  -0.51863  -0.47423  -0.47058  -0.36478
 Alpha  occ. eigenvalues --   -0.34480  -0.32068
 Alpha virt. eigenvalues --    0.03271   0.03925   0.04397   0.05676   0.05749
 Alpha virt. eigenvalues --    0.05853   0.07088   0.07155   0.08895   0.09082
 Alpha virt. eigenvalues --    0.09816   0.10046   0.10256   0.12289   0.12948

 Mulliken charges:
               1
     1  C    0.559644
     2  C    0.761887
     3  C   -0.304535
     4  C    0.494883
     5  C    0.564078
     6  C    0.452004
     7  H   -0.434963
     8  H   -0.526357
     9  P   -0.186593
    10  O   -0.714375
    11  H   -0.533518
    12  C    0.842056
    13  H   -0.082096
    14  H   -0.077004
    15  H   -0.317217
    16  H   -0.733791
    17  H    0.088945
    18  H    0.146950
 Sum of Mulliken charges =  -0.00000

 Dipole moment (field-independent basis, Debye):
    X=              0.2745    Y=             -0.3026    Z=              0.1517  Tot=              0.4358

 Test job not archived.
 1\1\GINC-SE247\SP\RHF\Aug-CC-pVDZ\C7H9O1P1\OHZDE\08-Apr-2025\0\\#t hf
 aug-cc-pvdz iop(5/13=1,5/36=2,99/5=2) pseudo=read geom=check guess=(re
 ad,tcheck) scf=(maxcycle=1)\\title\\0,1\C,0,-0.140016,2.210719,0.00297
 8\C,0,-1.278131,1.404073,-0.005383\C,0,-1.142441,0.013955,-0.01112\C,0
 ,1.128916,1.649032,0.009706\C,0,1.27481,0.257767,0.002788\C,0,0.138302
 ,-0.557083,-0.01388\H,0,-0.244455,3.290155,0.005615\H,0,-2.261962,1.85
 7537,-0.005642\P,0,-2.57836,-1.154256,-0.026246\O,0,2.556702,-0.204516
 ,0.00624\H,0,2.021887,2.262046,0.016327\C,0,2.774401,-1.608995,-0.0032

 Normal termination of Gaussian 16 at Tue Apr  8 23:32:23 2025.
