 Gaussian 16, Revision C.01,

 ----------------------------------------------------------------------
 #t hf aug-cc-pvdz symm=none int=(grid=ultrafine) guess=(read,tcheck) s
 table=(opt,rrhf)
 ----------------------------------------------------------------------
 -----
 title
 -----
 Symbolic Z-matrix:
 Charge =  0 Multiplicity = 1

 SCF Done:  E(RHF) =  -510.276533321     A.U. after   14 cycles
 Normal termination of Gaussian 16 at Tue Apr  8 23:34:03 2025.
 Gaussian 16:  ES64L-G16RevC.01  3-Jul-2019

 ----------------------------------------------------------------------
 #t hf aug-cc-pvdz iop(5/13=1,5/36=2,99/5=2) pseudo=read geom=check gue
 ss=(read,tcheck) scf=(maxcycle=1)
 ----------------------------------------------------------------------
 -----
 title
 -----
 Structure from the checkpoint file:  "BDE49_nonexpt_1493_mol1.chk"
 Charge =  0 Multiplicity = 1

                         Standard orientation:
 ---------------------------------------------------------------------
 Center     Atomic      Atomic             Coordinates (Angstroms)
 Number     Number       Type             X           Y           Z
 ---------------------------------------------------------------------
      1          6           0        0.528709    0.154354    0.013365
      2          8           0        1.007056    1.267699    0.006368
      3          7           0        1.273591   -0.988091   -0.016478
      4          1           0        2.278692   -0.894717    0.020776
      5          1           0        0.867759   -1.895300    0.135979
      6         15           0       -1.346780   -0.057937   -0.119113
      7          1           0       -1.613356    0.772296    0.993147
      8          1           0       -1.475247   -1.264316    0.621003
 ---------------------------------------------------------------------

 SCF Done:  E(RHF) =  -510.350704364     A.U. after    2 cycles

 The electronic state is 1-A.
 Alpha  occ. eigenvalues --  -81.27815 -20.55133 -15.66372 -11.38112  -7.78247
 Alpha  occ. eigenvalues --   -4.92193  -4.92151  -4.91838  -1.36069  -1.18896
 Alpha  occ. eigenvalues --   -0.87507  -0.78850  -0.72217  -0.67113  -0.60318
 Alpha  occ. eigenvalues --   -0.58130  -0.52778  -0.43708  -0.43255  -0.37666
 Alpha virt. eigenvalues --    0.02644   0.04444   0.05534   0.07442   0.08343
 Alpha virt. eigenvalues --    0.09696   0.10582   0.12175   0.12931   0.13561
 Alpha virt. eigenvalues --    0.14867   0.16681   0.17903   0.18470   0.19125

 Mulliken charges:
               1
     1  C    0.348194
     2  O   -0.500122
     3  N   -0.135319
     4  H   -0.010238
     5  H    0.006535
     6  P    0.057377
     7  H    0.145651
     8  H    0.087922
 Sum of Mulliken charges =  -0.00000

 Dipole moment (field-independent basis, Debye):
    X=             -0.4674    Y=             -4.1263    Z=              0.8772  Tot=              4.2443

 Test job not archived.
 1\1\GINC-SE227\SP\RHF\Aug-CC-pVDZ\C1H4N1O1P1\OHZDE\08-Apr-2025\0\\#t h
 f aug-cc-pvdz iop(5/13=1,5/36=2,99/5=2) pseudo=read geom=check guess=(
 read,tcheck) scf=(maxcycle=1)\\title\\0,1\C,0,0.528709,0.154354,0.0133
 65\O,0,1.007056,1.267699,0.006368\N,0,1.273591,-0.988091,-0.016478\H,0
 ,2.278692,-0.894717,0.020776\H,0,0.867759,-1.8953,0.135979\P,0,-1.3467
 8,-0.057937,-0.119113\H,0,-1.613356,0.772296,0.993147\H,0,-1.475247,-1
 .264316,0.621003\\Version=ES64L-G16RevC.01\State=1-A\HF=-510.3507044\R
 MSD=9.079e-03\Dipole=-0.1839008,-1.6234214,0.345111\Quadrupole=1.64172

 Normal termination of Gaussian 16 at Tue Apr  8 23:34:05 2025.
