 Gaussian 16, Revision C.01,

 ----------------------------------------------------------------------
 #t hf aug-cc-pvdz symm=none int=(grid=ultrafine) guess=(read,tcheck) s
 table=(opt,rrhf)
 ----------------------------------------------------------------------
 -----
 title
 -----
 Symbolic Z-matrix:
 Charge =  0 Multiplicity = 1

 SCF Done:  E(RHF) =  -827.135556739     A.U. after   14 cycles
 Normal termination of Gaussian 16 at Wed Apr  9 00:11:48 2025.
 Gaussian 16:  ES64L-G16RevC.01  3-Jul-2019

 ----------------------------------------------------------------------
 #t hf aug-cc-pvdz iop(5/13=1,5/36=2,99/5=2) pseudo=read geom=check gue
 ss=(read,tcheck) scf=(maxcycle=1)
 ----------------------------------------------------------------------
 -----
 title
 -----
 Structure from the checkpoint file:  "BDE49_nonexpt_2410_mol1.chk"
 Charge =  0 Multiplicity = 1

                         Standard orientation:
 ---------------------------------------------------------------------
 Center     Atomic      Atomic             Coordinates (Angstroms)
 Number     Number       Type             X           Y           Z
 ---------------------------------------------------------------------
      1         14           0        2.267568    0.568232   -0.437211
      2         14           0        0.849482   -0.937652    0.697088
      3          1           0        1.857158    0.686027   -1.857258
      4          1           0        3.667747    0.073775   -0.404993
      5          1           0        2.235082    1.909022    0.189901
      6          6           0       -0.899008   -0.980191   -0.062968
      7          1           0        0.759003   -0.593254    2.135764
      8          1           0        1.374578   -2.323325    0.592908
      9          7           0       -1.589277    0.085661   -0.213240
     10          8           0       -0.882521    1.212351    0.250824
     11          6           0       -1.537137   -2.263506   -0.527819
     12          1           0       -0.925081   -2.744922   -1.297109
     13          1           0       -2.530419   -2.067180   -0.935415
     14          1           0       -1.625399   -2.974723    0.299546
     15          6           0       -1.677349    2.384445    0.085516
     16          1           0       -1.063675    3.208060    0.449882
     17          1           0       -2.596159    2.315009    0.674026
     18          1           0       -1.925464    2.540468   -0.967811
 ---------------------------------------------------------------------

 SCF Done:  E(RHF) =  -827.253592927     A.U. after    2 cycles

 The electronic state is 1-A.
 Alpha  occ. eigenvalues --  -69.06694 -69.05852 -20.61012 -15.68947 -11.28719
 Alpha  occ. eigenvalues --  -11.27881 -11.24501  -6.82049  -6.81218  -3.92832
 Alpha  occ. eigenvalues --   -3.92796  -3.92760  -3.91974  -3.91970  -3.91946
 Alpha  occ. eigenvalues --   -1.38077  -1.15318  -0.98403  -0.90764  -0.78709
 Alpha  occ. eigenvalues --   -0.72488  -0.68754  -0.66301  -0.65747  -0.60898
 Alpha  occ. eigenvalues --   -0.58681  -0.56652  -0.54449  -0.51962  -0.50944
 Alpha  occ. eigenvalues --   -0.49080  -0.47857  -0.46672  -0.42260  -0.39910
 Alpha  occ. eigenvalues --   -0.37808
 Alpha virt. eigenvalues --    0.03291   0.03973   0.04467   0.04875   0.06097
 Alpha virt. eigenvalues --    0.06333   0.06440   0.06905   0.07756   0.08331
 Alpha virt. eigenvalues --    0.08759   0.09401   0.09658   0.10056   0.10254

 Mulliken charges:
               1
     1  Si  -0.465606
     2  Si  -0.060708
     3  H    0.176047
     4  H    0.009813
     5  H    0.119908
     6  C    0.037201
     7  H    0.178625
     8  H    0.038075
     9  N   -0.195721
    10  O   -0.388852
    11  C    0.228747
    12  H   -0.002741
    13  H   -0.087736
    14  H    0.002432
    15  C    0.839894
    16  H   -0.215964
    17  H   -0.128351
    18  H   -0.085062
 Sum of Mulliken charges =  -0.00000

 Dipole moment (field-independent basis, Debye):
    X=             -0.4196    Y=             -0.3194    Z=             -0.0667  Tot=              0.5315

 Test job not archived.
 1\1\GINC-SE044\SP\RHF\Aug-CC-pVDZ\C3H11N1O1Si2\OHZDE\09-Apr-2025\0\\#t
  hf aug-cc-pvdz iop(5/13=1,5/36=2,99/5=2) pseudo=read geom=check guess
 =(read,tcheck) scf=(maxcycle=1)\\title\\0,1\Si,0,2.267568,0.568232,-0.
 437211\Si,0,0.849482,-0.937652,0.697088\H,0,1.857158,0.686027,-1.85725
 8\H,0,3.667747,0.073776,-0.404993\H,0,2.235082,1.909022,0.189901\C,0,-
 0.899008,-0.980191,-0.062968\H,0,0.759003,-0.593254,2.135764\H,0,1.374
 579,-2.323325,0.592908\N,0,-1.589277,0.085661,-0.21324\O,0,-0.882521,1
 .212351,0.250824\C,0,-1.537136,-2.263506,-0.527819\H,0,-0.92508,-2.744

 Normal termination of Gaussian 16 at Wed Apr  9 00:11:56 2025.
