 Gaussian 16, Revision C.01,

 ----------------------------------------------------------------------
 #t hf aug-cc-pvdz symm=none int=(grid=ultrafine) guess=(read,tcheck) s
 table=opt
 ----------------------------------------------------------------------
 -----
 title
 -----
 Symbolic Z-matrix:
 Charge =  0 Multiplicity = 2

 SCF Done:  E(UHF) =  -361.470709031     A.U. after   17 cycles
 Normal termination of Gaussian 16 at Wed Apr  9 00:28:42 2025.
 Gaussian 16:  ES64L-G16RevC.01  3-Jul-2019

 ----------------------------------------------------------------------
 #t hf aug-cc-pvdz iop(5/13=1,5/36=2,99/5=2) pseudo=read geom=check gue
 ss=(read,tcheck) scf=(maxcycle=1)
 ----------------------------------------------------------------------
 -----
 title
 -----
 Structure from the checkpoint file:  "BDE49_nonexpt_358_mol2.chk"
 Charge =  0 Multiplicity = 2

                         Standard orientation:
 ---------------------------------------------------------------------
 Center     Atomic      Atomic             Coordinates (Angstroms)
 Number     Number       Type             X           Y           Z
 ---------------------------------------------------------------------
      1          9           0       -2.068045   -0.074731    0.084292
      2          5           0       -0.923161   -0.429417   -0.435529
      3          6           0        0.453442   -0.049841    0.298620
      4          9           0        1.471772   -0.879152   -0.075895
      5          9           0        0.760923    1.230142   -0.120455
      6          1           0        0.413304   -0.040195    1.394455
 ---------------------------------------------------------------------

 SCF Done:  E(UHF) =  -361.605820646     A.U. after    2 cycles

 The electronic state is 2-A.
 Alpha  occ. eigenvalues --  -26.17618 -26.14855 -26.14649 -11.42489  -7.74179
 Alpha  occ. eigenvalues --   -1.72131  -1.70537  -1.66361  -1.01665  -0.88977
 Alpha  occ. eigenvalues --   -0.83027  -0.82635  -0.81701  -0.79208  -0.77499
 Alpha  occ. eigenvalues --   -0.74016  -0.70651  -0.66412  -0.57914  -0.39781
 Alpha virt. eigenvalues --    0.03263   0.03873   0.05223   0.06012   0.08168
 Alpha virt. eigenvalues --    0.09064   0.11346   0.12455   0.15099   0.18914
 Alpha virt. eigenvalues --    0.21265   0.23314   0.25174   0.26161   0.26398

  Beta  occ. eigenvalues --  -26.17307 -26.14861 -26.14696 -11.42154  -7.72153
  Beta  occ. eigenvalues --   -1.71249  -1.70552  -1.66425  -1.00792  -0.87882
  Beta  occ. eigenvalues --   -0.82407  -0.81762  -0.81515  -0.77738  -0.76980
  Beta  occ. eigenvalues --   -0.74086  -0.70673  -0.65655  -0.55031
  Beta virt. eigenvalues --    0.02561   0.04345   0.04683   0.05603   0.07790
  Beta virt. eigenvalues --    0.09833   0.11277   0.12011   0.13706   0.15454
  Beta virt. eigenvalues --    0.19577   0.21742   0.23927   0.25785   0.26570

 Mulliken charges and spin densities:
               1          2
     1  F   -0.245103  -0.056954
     2  B    0.390954   1.012959
     3  C    0.886191   0.053411
     4  F   -0.364583  -0.010972
     5  F   -0.402215   0.002610
     6  H   -0.265245  -0.001054
 Sum of Mulliken charges =  -0.00000   1.00000

 Dipole moment (field-independent basis, Debye):
    X=             -1.0191    Y=             -0.7543    Z=              1.1855  Tot=              1.7358
                          Isotropic Fermi Contact Couplings
        Atom                 a.u.       MegaHertz       Gauss      10(-4) cm-1
     1  F(19)              0.06697     281.75393     100.53681      93.98299
     2  B(11)              0.38432     551.25575     196.70176     183.87913
     3  C(13)              0.06312      70.96050      25.32047      23.66988
     4  F(19)             -0.00391     -16.45463      -5.87142      -5.48867
     5  F(19)             -0.00187      -7.86589      -2.80674      -2.62378
     6  H(1)               0.00381      17.03487       6.07847       5.68222
 --------------------------------------------------------
       Center         ----  Spin Dipole Couplings  ----

 Normal termination of Gaussian 16 at Wed Apr  9 00:28:44 2025.
