 Gaussian 16, Revision C.01,

 ----------------------------------------------------------------------
 #t hf aug-cc-pvdz symm=none int=(grid=ultrafine) guess=(read,tcheck) s
 table=(opt,rrhf)
 ----------------------------------------------------------------------
 -----
 title
 -----
 Symbolic Z-matrix:
 Charge =  0 Multiplicity = 1

 SCF Done:  E(RHF) =  -870.804488564     A.U. after   20 cycles
 Normal termination of Gaussian 16 at Tue Apr  8 22:54:36 2025.
 Gaussian 16:  ES64L-G16RevC.01  3-Jul-2019

 ----------------------------------------------------------------------
 #t hf aug-cc-pvdz iop(5/13=1,5/36=2,99/5=2) pseudo=read geom=check gue
 ss=(read,tcheck) scf=(maxcycle=1)
 ----------------------------------------------------------------------
 -----
 title
 -----
 Structure from the checkpoint file:  "BDE49_expt_1830_mol1.chk"
 Charge =  0 Multiplicity = 1

                         Standard orientation:
 ---------------------------------------------------------------------
 Center     Atomic      Atomic             Coordinates (Angstroms)
 Number     Number       Type             X           Y           Z
 ---------------------------------------------------------------------
      1          7           0       -3.259536   -0.579541    0.783671
      2          8           0       -2.453202   -0.902451    1.559264
      3         16           0       -2.585484    0.287183   -0.826337
      4          6           0       -0.854418    0.292736   -0.503807
      5          6           0       -0.251943    1.380763    0.151687
      6          6           0        1.101721    1.371657    0.433525
      7          6           0        1.890784    0.267957    0.077137
      8          6           0        1.300864   -0.826440   -0.564508
      9          6           0       -0.062584   -0.807787   -0.845523
     10          1           0       -0.856795    2.234573    0.431624
     11          1           0        1.578986    2.205642    0.933219
     12          8           0        3.206893    0.358423    0.396800
     13          1           0       -0.517240   -1.656068   -1.342596
     14          1           0        1.886338   -1.690983   -0.845945
     15          6           0        4.066943   -0.727995    0.071378
     16          1           0        3.760350   -1.647001    0.581917
     17          1           0        5.055854   -0.435289    0.418952
     18          1           0        4.099270   -0.902145   -1.009337
 ---------------------------------------------------------------------

 SCF Done:  E(RHF) =  -870.968092532     A.U. after    2 cycles

 The electronic state is 1-A.
 Alpha  occ. eigenvalues --  -93.56084 -20.68514 -20.61490 -15.82340 -11.33234
 Alpha  occ. eigenvalues --  -11.30856 -11.27450 -11.27052 -11.26784 -11.25442
 Alpha  occ. eigenvalues --  -11.24976  -8.85609  -6.19723  -6.19494  -6.19193
 Alpha  occ. eigenvalues --   -1.53288  -1.38536  -1.16046  -1.05828  -1.03219
 Alpha  occ. eigenvalues --   -0.99202  -0.95015  -0.87947  -0.85219  -0.80579
 Alpha  occ. eigenvalues --   -0.74284  -0.71540  -0.70096  -0.69291  -0.67873
 Alpha  occ. eigenvalues --   -0.65180  -0.64347  -0.61822  -0.60757  -0.60169
 Alpha  occ. eigenvalues --   -0.54673  -0.54433  -0.50394  -0.49939  -0.48345
 Alpha  occ. eigenvalues --   -0.39183  -0.37534  -0.35976  -0.32342
 Alpha virt. eigenvalues --    0.02945   0.03972   0.04419   0.05401   0.05779
 Alpha virt. eigenvalues --    0.06101   0.06958   0.07673   0.08393   0.08856
 Alpha virt. eigenvalues --    0.09071   0.09482   0.09787   0.12638   0.12705

 Mulliken charges:
               1
     1  N   -0.082120
     2  O   -0.311547
     3  S    0.345259
     4  C    0.865089
     5  C    0.077894
     6  C    0.909461
     7  C   -0.019355
     8  C    0.749993
     9  C    0.021046
    10  H   -0.473887
    11  H   -0.580007
    12  O   -0.664170
    13  H   -0.483082
    14  H   -0.715328
    15  C    0.833731
    16  H   -0.085193
    17  H   -0.304229
    18  H   -0.083555
 Sum of Mulliken charges =   0.00000

 Dipole moment (field-independent basis, Debye):
    X=              2.9264    Y=             -0.9351    Z=             -0.8090  Tot=              3.1769

 Test job not archived.
 1\1\GINC-SE044\SP\RHF\Aug-CC-pVDZ\C7H7N1O2S1\OHZDE\08-Apr-2025\0\\#t h
 f aug-cc-pvdz iop(5/13=1,5/36=2,99/5=2) pseudo=read geom=check guess=(
 read,tcheck) scf=(maxcycle=1)\\title\\0,1\N,0,-3.259536,-0.579541,0.78
 3671\O,0,-2.453202,-0.902451,1.559264\S,0,-2.585484,0.287183,-0.826337
 \C,0,-0.854418,0.292736,-0.503807\C,0,-0.251943,1.380763,0.151687\C,0,
 1.101721,1.371657,0.433525\C,0,1.890784,0.267957,0.077137\C,0,1.300864
 ,-0.82644,-0.564508\C,0,-0.062584,-0.807787,-0.845523\H,0,-0.856795,2.
 234573,0.431624\H,0,1.578986,2.205642,0.933219\O,0,3.206893,0.358423,0

 Normal termination of Gaussian 16 at Tue Apr  8 22:54:46 2025.
