 Gaussian 16, Revision C.01,

 ----------------------------------------------------------------------
 #t hf aug-cc-pvdz symm=none int=(grid=ultrafine) guess=(read,tcheck) s
 table=(opt,rrhf)
 ----------------------------------------------------------------------
 -----
 title
 -----
 Symbolic Z-matrix:
 Charge =  0 Multiplicity = 1

 SCF Done:  E(RHF) =  -745.112017201     A.U. after   14 cycles
 Normal termination of Gaussian 16 at Wed Apr  9 00:41:00 2025.
 Gaussian 16:  ES64L-G16RevC.01  3-Jul-2019

 ----------------------------------------------------------------------
 #t hf aug-cc-pvdz iop(5/13=1,5/36=2,99/5=2) pseudo=read geom=check gue
 ss=(read,tcheck) scf=(maxcycle=1)
 ----------------------------------------------------------------------
 -----
 title
 -----
 Structure from the checkpoint file:  "BDE49_nonexpt_694_mol1.chk"
 Charge =  0 Multiplicity = 1

                         Standard orientation:
 ---------------------------------------------------------------------
 Center     Atomic      Atomic             Coordinates (Angstroms)
 Number     Number       Type             X           Y           Z
 ---------------------------------------------------------------------
      1          8           0       -1.083178    0.807478    0.455940
      2          6           0       -2.399760    1.068005    0.205431
      3          6           0       -0.836870   -0.500357    0.065410
      4          6           0       -3.004030   -0.021740   -0.329027
      5          6           0       -1.993425   -1.031668   -0.424098
      6          1           0       -4.039192   -0.100847   -0.620114
      7          1           0       -2.740074    2.057119    0.462291
      8          1           0       -2.108145   -2.033773   -0.805587
      9          5           0        2.008537    0.326312   -0.112055
     10          8           0        1.573182    1.597734   -0.253888
     11          8           0        3.349502    0.107258   -0.216714
     12          1           0        3.595547   -0.820439   -0.195777
     13          1           0        0.630202    1.687976   -0.072087
     14         15           0        0.823193   -1.228954    0.211798
     15          1           0        0.959555   -1.172490    1.625584
 ---------------------------------------------------------------------

 SCF Done:  E(RHF) =  -745.263143274     A.U. after    2 cycles

 The electronic state is 1-A.
 Alpha  occ. eigenvalues --  -81.25805 -20.65584 -20.58748 -20.57823 -11.31966
 Alpha  occ. eigenvalues --  -11.31417 -11.25995 -11.25648  -7.76326  -7.67962
 Alpha  occ. eigenvalues --   -4.90489  -4.90252  -4.90036  -1.43179  -1.34572
 Alpha  occ. eigenvalues --   -1.31476  -1.09477  -1.02417  -0.84057  -0.82751
 Alpha  occ. eigenvalues --   -0.80954  -0.78308  -0.71782  -0.70027  -0.67051
 Alpha  occ. eigenvalues --   -0.63834  -0.61575  -0.60680  -0.59254  -0.58911
 Alpha  occ. eigenvalues --   -0.58102  -0.52500  -0.52234  -0.46403  -0.42151
 Alpha  occ. eigenvalues --   -0.36135  -0.33596
 Alpha virt. eigenvalues --    0.02900   0.03942   0.04102   0.05221   0.05908
 Alpha virt. eigenvalues --    0.06569   0.07107   0.08352   0.08649   0.09193
 Alpha virt. eigenvalues --    0.09816   0.11060   0.11279   0.11613   0.13015

 Mulliken charges:
               1
     1  O   -0.501662
     2  C    0.621189
     3  C   -0.176844
     4  C    0.435668
     5  C    0.590115
     6  H   -0.293227
     7  H   -0.379150
     8  H   -0.348202
     9  B    0.884076
    10  O   -0.485091
    11  O   -0.499437
    12  H    0.173040
    13  H    0.254741
    14  P   -0.462326
    15  H    0.187109
 Sum of Mulliken charges =  -0.00000

 Dipole moment (field-independent basis, Debye):
    X=             -3.0903    Y=             -1.6655    Z=              0.2677  Tot=              3.5207

 Test job not archived.
 1\1\GINC-SE039\SP\RHF\Aug-CC-pVDZ\C4H6B1O3P1\OHZDE\09-Apr-2025\0\\#t h
 f aug-cc-pvdz iop(5/13=1,5/36=2,99/5=2) pseudo=read geom=check guess=(
 read,tcheck) scf=(maxcycle=1)\\title\\0,1\O,0,-1.083178,0.807478,0.455
 94\C,0,-2.39976,1.068005,0.205431\C,0,-0.83687,-0.500357,0.06541\C,0,-
 3.00403,-0.02174,-0.329027\C,0,-1.993425,-1.031668,-0.424098\H,0,-4.03
 9192,-0.100847,-0.620114\H,0,-2.740074,2.057119,0.462291\H,0,-2.108145
 ,-2.033773,-0.805587\B,0,2.008537,0.326312,-0.112055\O,0,1.573182,1.59
 7734,-0.253888\O,0,3.349502,0.107258,-0.216714\H,0,3.595547,-0.820439,

 Normal termination of Gaussian 16 at Wed Apr  9 00:41:14 2025.
