 Gaussian 16, Revision C.01,

 ----------------------------------------------------------------------
 #t hf aug-cc-pvdz symm=none int=(grid=ultrafine) guess=(read,tcheck) s
 table=(opt,rrhf)
 ----------------------------------------------------------------------
 -----
 title
 -----
 Symbolic Z-matrix:
 Charge =  0 Multiplicity = 1

 SCF Done:  E(RHF) =  -1126.21619794     A.U. after   15 cycles
 Normal termination of Gaussian 16 at Wed Apr  9 00:19:27 2025.
 Gaussian 16:  ES64L-G16RevC.01  3-Jul-2019

 ----------------------------------------------------------------------
 #t hf aug-cc-pvdz iop(5/13=1,5/36=2,99/5=2) pseudo=read geom=check gue
 ss=(read,tcheck) scf=(maxcycle=1)
 ----------------------------------------------------------------------
 -----
 title
 -----
 Structure from the checkpoint file:  "BDE49_nonexpt_2608_mol1.chk"
 Charge =  0 Multiplicity = 1

                         Standard orientation:
 ---------------------------------------------------------------------
 Center     Atomic      Atomic             Coordinates (Angstroms)
 Number     Number       Type             X           Y           Z
 ---------------------------------------------------------------------
      1          6           0        0.666733   -1.370257    1.205937
      2          6           0        0.666733   -2.761957    1.206037
      3          6           0        0.667686   -3.460334    0.000000
      4          6           0        0.666733   -2.761957   -1.206037
      5          6           0        0.666733   -1.370257   -1.205937
      6          6           0        0.668601    0.847368   -0.000000
      7          6           0        0.676215   -0.659680    0.000000
      8         16           0       -1.103489    1.336415   -0.000000
      9         17           0       -0.943559    3.419365   -0.000000
     10          1           0        1.143516    1.256264   -0.891589
     11          1           0        1.143516    1.256264    0.891589
     12          1           0        0.664444   -0.827912    2.145454
     13          1           0        0.667210   -3.300866    2.146574
     14          1           0        0.669389   -4.544357    0.000000
     15          1           0        0.667210   -3.300866   -2.146574
     16          1           0        0.664444   -0.827912   -2.145454
 ---------------------------------------------------------------------

 SCF Done:  E(RHF) =  -1126.33400868     A.U. after    2 cycles

 The electronic state is 1-A'.
 Alpha  occ. eigenvalues -- -103.67076 -93.59176 -11.29488 -11.27249 -11.26068
 Alpha  occ. eigenvalues --  -11.26059 -11.25930 -11.25809 -11.25762 -10.70224
 Alpha  occ. eigenvalues --   -8.88468  -8.35952  -8.35621  -8.35591  -6.22566
 Alpha  occ. eigenvalues --   -6.22258  -6.21858  -1.16880  -1.15504  -1.07157
 Alpha  occ. eigenvalues --   -1.02528  -0.98035  -0.86296  -0.84623  -0.80862
 Alpha  occ. eigenvalues --   -0.71565  -0.66677  -0.65638  -0.60757  -0.60745
 Alpha  occ. eigenvalues --   -0.59012  -0.57445  -0.52337  -0.51171  -0.51170
 Alpha  occ. eigenvalues --   -0.50000  -0.49829  -0.44630  -0.36674  -0.35042
 Alpha  occ. eigenvalues --   -0.34785
 Alpha virt. eigenvalues --    0.03059   0.03865   0.04082   0.05215   0.05536
 Alpha virt. eigenvalues --    0.05718   0.07107   0.08381   0.08523   0.08972
 Alpha virt. eigenvalues --    0.09673   0.10717   0.11865   0.12711   0.13170

 Mulliken charges:
               1
     1  C    0.135722
     2  C    0.394891
     3  C    0.441195
     4  C    0.394891
     5  C    0.135722
     6  C    0.319391
     7  C    0.935605
     8  S    0.423719
     9  Cl  -0.348179
    10  H   -0.211888
    11  H   -0.211888
    12  H   -0.557512
    13  H   -0.431932
    14  H   -0.430292
    15  H   -0.431932
    16  H   -0.557512
 Sum of Mulliken charges =  -0.00000

 Dipole moment (field-independent basis, Debye):
    X=              1.7777    Y=             -2.6212    Z=             -0.0000  Tot=              3.1671

 Test job not archived.
 1\1\GINC-SE332\SP\RHF\Aug-CC-pVDZ\C7H7Cl1S1\OHZDE\09-Apr-2025\0\\#t hf
  aug-cc-pvdz iop(5/13=1,5/36=2,99/5=2) pseudo=read geom=check guess=(r
 ead,tcheck) scf=(maxcycle=1)\\title\\0,1\C,0,0.666733,-1.370257,1.2059
 37\C,0,0.666733,-2.761957,1.206037\C,0,0.667686,-3.460334,0.\C,0,0.666
 733,-2.761957,-1.206037\C,0,0.666733,-1.370257,-1.205937\C,0,0.668601,
 0.847368,0.\C,0,0.676215,-0.65968,0.\S,0,-1.103489,1.336415,0.\Cl,0,-0
 .943559,3.419365,0.\H,0,1.143516,1.256264,-0.891589\H,0,1.143516,1.256
 264,0.891589\H,0,0.664444,-0.827912,2.145454\H,0,0.66721,-3.300866,2.1

 Normal termination of Gaussian 16 at Wed Apr  9 00:19:32 2025.
