 Gaussian 16, Revision C.01,

 ----------------------------------------------------------------------
 #t hf aug-cc-pvdz symm=none int=(grid=ultrafine) guess=(read,tcheck) s
 table=(opt,rrhf)
 ----------------------------------------------------------------------
 -----
 title
 -----
 Symbolic Z-matrix:
 Charge =  0 Multiplicity = 1

 SCF Done:  E(RHF) =  -817.518464057     A.U. after   13 cycles
 Normal termination of Gaussian 16 at Tue Apr  8 22:52:50 2025.
 Gaussian 16:  ES64L-G16RevC.01  3-Jul-2019

 ----------------------------------------------------------------------
 #t hf aug-cc-pvdz iop(5/13=1,5/36=2,99/5=2) pseudo=read geom=check gue
 ss=(read,tcheck) scf=(maxcycle=1)
 ----------------------------------------------------------------------
 -----
 title
 -----
 Structure from the checkpoint file:  "BDE49_expt_1838_mol1.chk"
 Charge =  0 Multiplicity = 1

                         Standard orientation:
 ---------------------------------------------------------------------
 Center     Atomic      Atomic             Coordinates (Angstroms)
 Number     Number       Type             X           Y           Z
 ---------------------------------------------------------------------
      1          7           0       -0.321984    0.000000   -0.000045
      2          6           0        0.424248    1.194385   -0.000164
      3          6           0        1.886965    0.768930   -0.000025
      4          6           0        1.886965   -0.768930   -0.000018
      5          1           0        2.367861    1.202545    0.878680
      6          1           0        2.367982    1.202542   -0.878663
      7          6           0        0.424248   -1.194385   -0.000058
      8          1           0        2.367888   -1.202534    0.878676
      9          1           0        2.367954   -1.202554   -0.878666
     10          8           0       -0.032407   -2.301325    0.000017
     11          8           0       -0.032407    2.301325    0.000020
     12         17           0       -2.025520   -0.000000    0.000093
 ---------------------------------------------------------------------

 SCF Done:  E(RHF) =  -817.647906963     A.U. after    2 cycles

 The electronic state is 1-A.
 Alpha  occ. eigenvalues -- -103.72182 -20.58579 -20.58579 -15.74180 -11.41053
 Alpha  occ. eigenvalues --  -11.41044 -11.29218 -11.29169 -10.75075  -8.40858
 Alpha  occ. eigenvalues --   -8.40423  -8.40396  -1.41078  -1.39226  -1.29382
 Alpha  occ. eigenvalues --   -1.16990  -1.05526  -0.97208  -0.86626  -0.78072
 Alpha  occ. eigenvalues --   -0.71596  -0.71295  -0.69529  -0.64576  -0.63333
 Alpha  occ. eigenvalues --   -0.62547  -0.61137  -0.58878  -0.53132  -0.52791
 Alpha  occ. eigenvalues --   -0.50575  -0.49423  -0.45746  -0.42723
 Alpha virt. eigenvalues --    0.02414   0.04043   0.04615   0.06108   0.06857
 Alpha virt. eigenvalues --    0.08414   0.09326   0.09561   0.10694   0.11514
 Alpha virt. eigenvalues --    0.11921   0.14072   0.14364   0.14365   0.15154

 Mulliken charges:
               1
     1  N   -0.861759
     2  C    0.518011
     3  C    0.117816
     4  C    0.117818
     5  H    0.026275
     6  H    0.026321
     7  C    0.518009
     8  H    0.026298
     9  H    0.026296
    10  O   -0.447032
    11  O   -0.447032
    12  Cl   0.378978
 Sum of Mulliken charges =  -0.00000

 Dipole moment (field-independent basis, Debye):
    X=              4.0394    Y=             -0.0000    Z=             -0.0004  Tot=              4.0394

 Test job not archived.
 1\1\GINC-SE072\SP\RHF\Aug-CC-pVDZ\C4H4Cl1N1O2\OHZDE\08-Apr-2025\0\\#t
 hf aug-cc-pvdz iop(5/13=1,5/36=2,99/5=2) pseudo=read geom=check guess=
 (read,tcheck) scf=(maxcycle=1)\\title\\0,1\N,0,-0.321984,0.,-0.000045\
 C,0,0.424248,1.194385,-0.000164\C,0,1.886965,0.76893,-0.000025\C,0,1.8
 86965,-0.76893,-0.000018\H,0,2.367861,1.202545,0.87868\H,0,2.367982,1.
 202542,-0.878663\C,0,0.424248,-1.194385,-0.000058\H,0,2.367888,-1.2025
 34,0.878676\H,0,2.367954,-1.202554,-0.878666\O,0,-0.032407,-2.301325,0
 .000017\O,0,-0.032407,2.301325,0.00002\Cl,0,-2.02552,0.,0.000093\\Vers

 Normal termination of Gaussian 16 at Tue Apr  8 22:52:55 2025.
