 Gaussian 16, Revision C.01,

 ----------------------------------------------------------------------
 #t hf aug-cc-pvdz symm=none int=(grid=ultrafine) guess=(read,tcheck) s
 table=(opt,rrhf)
 ----------------------------------------------------------------------
 -----
 title
 -----
 Symbolic Z-matrix:
 Charge =  0 Multiplicity = 1

 SCF Done:  E(RHF) =  -1111.03995793     A.U. after   13 cycles
 Normal termination of Gaussian 16 at Wed Apr  9 00:02:27 2025.
 Gaussian 16:  ES64L-G16RevC.01  3-Jul-2019

 ----------------------------------------------------------------------
 #t hf aug-cc-pvdz iop(5/13=1,5/36=2,99/5=2) pseudo=read geom=check gue
 ss=(read,tcheck) scf=(maxcycle=1)
 ----------------------------------------------------------------------
 -----
 title
 -----
 Structure from the checkpoint file:  "BDE49_nonexpt_219_mol1.chk"
 Charge =  0 Multiplicity = 1

                         Standard orientation:
 ---------------------------------------------------------------------
 Center     Atomic      Atomic             Coordinates (Angstroms)
 Number     Number       Type             X           Y           Z
 ---------------------------------------------------------------------
      1         17           0        0.744737    1.677417    0.000001
      2          5           0        0.416332   -0.059423    0.000000
      3          6           0       -2.088249   -0.355340    0.000001
      4          8           0       -3.244649   -0.254884    0.000001
      5          7           0       -0.898886   -0.552389    0.000002
      6         17           0        1.766864   -1.187126   -0.000003
 ---------------------------------------------------------------------

 SCF Done:  E(RHF) =  -1111.13716883     A.U. after    2 cycles

 The electronic state is 1-A.
 Alpha  occ. eigenvalues -- -103.68345-103.68159 -20.66568 -15.67992 -11.46565
 Alpha  occ. eigenvalues --  -10.71827 -10.71642  -8.37518  -8.37341  -8.37287
 Alpha  occ. eigenvalues --   -8.37260  -8.37108  -8.37077  -7.78433  -1.47102
 Alpha  occ. eigenvalues --   -1.26805  -1.19085  -1.15942  -0.88190  -0.77502
 Alpha  occ. eigenvalues --   -0.70091  -0.69668  -0.66612  -0.61162  -0.55648
 Alpha  occ. eigenvalues --   -0.51638  -0.49375  -0.49287  -0.48260  -0.46979
 Alpha virt. eigenvalues --    0.03978   0.04800   0.05140   0.05352   0.06217
 Alpha virt. eigenvalues --    0.09930   0.10180   0.10864   0.12104   0.13251
 Alpha virt. eigenvalues --    0.14955   0.15103   0.16288   0.18362   0.18627

 Mulliken charges:
               1
     1  Cl  -0.264066
     2  B    0.600235
     3  C   -0.023274
     4  O   -0.143934
     5  N    0.117980
     6  Cl  -0.286940
 Sum of Mulliken charges =  -0.00000

 Dipole moment (field-independent basis, Debye):
    X=              0.2891    Y=             -0.0941    Z=             -0.0000  Tot=              0.3040

 Test job not archived.
 1\1\GINC-SE398\SP\RHF\Aug-CC-pVDZ\C1B1Cl2N1O1\OHZDE\09-Apr-2025\0\\#t
 hf aug-cc-pvdz iop(5/13=1,5/36=2,99/5=2) pseudo=read geom=check guess=
 (read,tcheck) scf=(maxcycle=1)\\title\\0,1\Cl,0,0.744737,1.677417,0.00
 0001\B,0,0.416332,-0.059423,0.\C,0,-2.088249,-0.35534,0.000001\O,0,-3.
 244649,-0.254884,0.000001\N,0,-0.898886,-0.552389,0.000002\Cl,0,1.7668
 64,-1.187126,-0.000003\\Version=ES64L-G16RevC.01\State=1-A\HF=-1111.13
 71688\RMSD=3.429e-03\Dipole=0.1137305,-0.0370049,-0.0000004\Quadrupole
 =-4.3209145,1.1290598,3.1918547,-0.0675424,0.0000048,-0.0000006\PG=C01

 Normal termination of Gaussian 16 at Wed Apr  9 00:02:29 2025.
