 Gaussian 16, Revision C.01,

 ----------------------------------------------------------------------
 #t hf aug-cc-pvdz symm=none int=(grid=ultrafine) guess=(read,tcheck) s
 table=(opt,rrhf)
 ----------------------------------------------------------------------
 -----
 title
 -----
 Symbolic Z-matrix:
 Charge =  0 Multiplicity = 1

 SCF Done:  E(RHF) =  -196.352663747     A.U. after   11 cycles
 Normal termination of Gaussian 16 at Tue Apr  8 22:40:46 2025.
 Gaussian 16:  ES64L-G16RevC.01  3-Jul-2019

 ----------------------------------------------------------------------
 #t hf aug-cc-pvdz iop(5/13=1,5/36=2,99/5=2) pseudo=read geom=check gue
 ss=(read,tcheck) scf=(maxcycle=1)
 ----------------------------------------------------------------------
 -----
 title
 -----
 Structure from the checkpoint file:  "BDE49_expt_13_mol1.chk"
 Charge =  0 Multiplicity = 1

                         Standard orientation:
 ---------------------------------------------------------------------
 Center     Atomic      Atomic             Coordinates (Angstroms)
 Number     Number       Type             X           Y           Z
 ---------------------------------------------------------------------
      1          6           0        2.101170   -0.032798   -0.115015
      2          6           0        0.764497   -0.661779    0.291854
      3          1           0        2.191810    0.999705    0.231732
      4          1           0        2.219908   -0.029564   -1.203407
      5          1           0        2.940409   -0.592778    0.306627
      6          6           0       -0.482303   -0.002691   -0.328636
      7          1           0        0.667073   -0.641948    1.385339
      8          1           0        0.772186   -1.720824    0.008397
      9          6           0       -1.740276   -0.823144   -0.011728
     10          1           0       -2.627456   -0.388470   -0.481507
     11          1           0       -1.920871   -0.858458    1.068337
     12          1           0       -1.644168   -1.853620   -0.366396
     13          6           0       -0.661431    1.454206    0.121540
     14          1           0       -0.347321   -0.003889   -1.419376
     15          1           0       -1.554352    1.895850   -0.330436
     16          1           0        0.190415    2.079049   -0.157112
     17          1           0       -0.777576    1.512182    1.209715
 ---------------------------------------------------------------------

 SCF Done:  E(RHF) =  -196.417443109     A.U. after    2 cycles

 The electronic state is 1-A.
 Alpha  occ. eigenvalues --  -11.23144 -11.22403 -11.22002 -11.21846 -11.21812
 Alpha  occ. eigenvalues --   -1.07711  -0.98394  -0.92169  -0.85041  -0.75965
 Alpha  occ. eigenvalues --   -0.63437  -0.60698  -0.58926  -0.56649  -0.53517
 Alpha  occ. eigenvalues --   -0.53084  -0.50500  -0.49259  -0.45767  -0.45541
 Alpha  occ. eigenvalues --   -0.44795
 Alpha virt. eigenvalues --    0.03660   0.04458   0.04744   0.04833   0.06628
 Alpha virt. eigenvalues --    0.06706   0.07042   0.07150   0.07570   0.09232
 Alpha virt. eigenvalues --    0.09660   0.09947   0.13488   0.14334   0.14764

 Mulliken charges:
               1
     1  C    0.395171
     2  C    0.484281
     3  H   -0.102877
     4  H   -0.067049
     5  H   -0.065924
     6  C   -1.331549
     7  H   -0.119901
     8  H   -0.131764
     9  C    0.775949
    10  H   -0.066089
    11  H   -0.013074
    12  H   -0.090187
    13  C    0.711906
    14  H   -0.168516
    15  H   -0.070791
    16  H   -0.114151
    17  H   -0.025433
 Sum of Mulliken charges =  -0.00000

 Dipole moment (field-independent basis, Debye):
    X=              0.0307    Y=             -0.0393    Z=             -0.0756  Tot=              0.0906

 Test job not archived.
 1\1\GINC-SE342\SP\RHF\Aug-CC-pVDZ\C5H12\OHZDE\08-Apr-2025\0\\#t hf aug
 -cc-pvdz iop(5/13=1,5/36=2,99/5=2) pseudo=read geom=check guess=(read,
 tcheck) scf=(maxcycle=1)\\title\\0,1\C,0,2.10117,-0.032798,-0.115015\C
 ,0,0.764497,-0.661779,0.291854\H,0,2.19181,0.999705,0.231732\H,0,2.219
 908,-0.029564,-1.203407\H,0,2.940409,-0.592778,0.306627\C,0,-0.482303,
 -0.002691,-0.328636\H,0,0.667073,-0.641948,1.385339\H,0,0.772186,-1.72
 0824,0.008397\C,0,-1.740276,-0.823144,-0.011728\H,0,-2.627456,-0.38847
 ,-0.481507\H,0,-1.920871,-0.858458,1.068337\H,0,-1.644168,-1.85362,-0.

 Normal termination of Gaussian 16 at Tue Apr  8 22:40:50 2025.
