 Gaussian 16, Revision C.01,

 ----------------------------------------------------------------------
 #t hf aug-cc-pvdz symm=none int=(grid=ultrafine) guess=(read,tcheck) s
 table=(opt,rrhf)
 ----------------------------------------------------------------------
 -----
 title
 -----
 Symbolic Z-matrix:
 Charge =  0 Multiplicity = 1

 SCF Done:  E(RHF) =  -951.875343087     A.U. after   16 cycles
 Normal termination of Gaussian 16 at Tue Apr  8 23:16:30 2025.
 Gaussian 16:  ES64L-G16RevC.01  3-Jul-2019

 ----------------------------------------------------------------------
 #t hf aug-cc-pvdz iop(5/13=1,5/36=2,99/5=2) pseudo=read geom=check gue
 ss=(read,tcheck) scf=(maxcycle=1)
 ----------------------------------------------------------------------
 -----
 title
 -----
 Structure from the checkpoint file:  "BDE49_expt_421_mol1.chk"
 Charge =  0 Multiplicity = 1

                         Standard orientation:
 ---------------------------------------------------------------------
 Center     Atomic      Atomic             Coordinates (Angstroms)
 Number     Number       Type             X           Y           Z
 ---------------------------------------------------------------------
      1          7           0       -0.234439    2.343441   -0.505109
      2          6           0       -1.941691    0.641970    0.303979
      3          6           0        1.786365    0.393897   -0.108465
      4          6           0        1.165424   -0.495681   -0.985796
      5          6           0        2.867981   -0.039730    0.665341
      6          6           0        1.619144   -1.808436   -1.081360
      7          6           0        2.703551   -2.240246   -0.319544
      8          6           0        3.327641   -1.348971    0.551494
      9          6           0       -2.805699    0.241365   -0.721095
     10          6           0       -1.582788   -0.292264    1.279337
     11          6           0       -2.063464   -1.598218    1.225542
     12          6           0       -2.913571   -1.988810    0.193111
     13          6           0       -3.285937   -1.064450   -0.781420
     14          1           0       -3.957548   -1.357733   -1.580810
     15          1           0       -3.114160    0.961139   -1.474104
     16          1           0       -1.773054   -2.311190    1.988984
     17          1           0       -3.289665   -3.004856    0.151756
     18          1           0       -0.915800    0.003941    2.081959
     19          1           0        0.320913   -0.171904   -1.581572
     20          1           0        1.122591   -2.495041   -1.758102
     21          1           0        3.055845   -3.262050   -0.400559
     22          1           0        4.167482   -1.675239    1.155164
     23          1           0        3.345864    0.644955    1.358571
     24         16           0        1.346156    2.135475    0.021497
     25          6           0       -1.403827    2.059847    0.339942
     26          1           0       -1.126851    2.331049    1.360273
     27          1           0       -2.192569    2.752173    0.024996
     28          1           0       -0.379242    2.251432   -1.501133
 ---------------------------------------------------------------------

 SCF Done:  E(RHF) =  -952.060786349     A.U. after    2 cycles

 The electronic state is 1-A.
 Alpha  occ. eigenvalues --  -93.56399 -15.64289 -11.28029 -11.27188 -11.25135
 Alpha  occ. eigenvalues --  -11.24972 -11.24812 -11.24782 -11.24746 -11.24717
 Alpha  occ. eigenvalues --  -11.24661 -11.24603 -11.24446 -11.24401 -11.24224
 Alpha  occ. eigenvalues --   -8.85698  -6.19976  -6.19632  -6.19296  -1.19320
 Alpha  occ. eigenvalues --   -1.14752  -1.14136  -1.04252  -1.01944  -1.01269
 Alpha  occ. eigenvalues --   -1.01167  -0.94114  -0.87714  -0.83350  -0.83084
 Alpha  occ. eigenvalues --   -0.80842  -0.79407  -0.71231  -0.70486  -0.66690
 Alpha  occ. eigenvalues --   -0.64659  -0.63703  -0.63397  -0.63040  -0.60610
 Alpha  occ. eigenvalues --   -0.59487  -0.59357  -0.58876  -0.55032  -0.52300
 Alpha  occ. eigenvalues --   -0.51752  -0.51045  -0.50353  -0.49922  -0.49392
 Alpha  occ. eigenvalues --   -0.46804  -0.39928  -0.37897  -0.34770  -0.33992
 Alpha  occ. eigenvalues --   -0.33718  -0.30263
 Alpha virt. eigenvalues --    0.03023   0.03525   0.04006   0.04385   0.04956
 Alpha virt. eigenvalues --    0.05417   0.05442   0.05880   0.06988   0.07103
 Alpha virt. eigenvalues --    0.07637   0.08431   0.08929   0.09913   0.10229

 Mulliken charges:
               1
     1  N   -0.515936
     2  C    0.748179
     3  C    0.308836
     4  C    0.533922
     5  C    0.365961
     6  C    0.294248
     7  C    0.445825
     8  C    0.511154
     9  C    0.479442
    10  C    0.877872
    11  C    0.084263
    12  C    0.703241
    13  C    0.192363
    14  H   -0.467930
    15  H   -0.629894
    16  H   -0.526396
    17  H   -0.469605
    18  H   -0.703798
    19  H   -0.692540
    20  H   -0.516303
    21  H   -0.465881
    22  H   -0.447133
    23  H   -0.548367
    24  S    0.612856
    25  C    0.407900
    26  H   -0.281146
    27  H   -0.194743
    28  H   -0.106391
 Sum of Mulliken charges =  -0.00000

 Dipole moment (field-independent basis, Debye):
    X=             -1.3782    Y=             -1.5028    Z=             -0.4449  Tot=              2.0870

 Test job not archived.
 1\1\GINC-SE252\SP\RHF\Aug-CC-pVDZ\C13H13N1S1\OHZDE\08-Apr-2025\0\\#t h
 f aug-cc-pvdz iop(5/13=1,5/36=2,99/5=2) pseudo=read geom=check guess=(
 read,tcheck) scf=(maxcycle=1)\\title\\0,1\N,0,-0.234439,2.343441,-0.50
 5109\C,0,-1.941691,0.64197,0.303979\C,0,1.786365,0.393897,-0.108465\C,
 0,1.165424,-0.495681,-0.985796\C,0,2.867981,-0.03973,0.665341\C,0,1.61
 9144,-1.808436,-1.08136\C,0,2.703551,-2.240246,-0.319544\C,0,3.327641,
 -1.348971,0.551494\C,0,-2.805699,0.241365,-0.721095\C,0,-1.582788,-0.2
 92264,1.279337\C,0,-2.063464,-1.598218,1.225542\C,0,-2.913571,-1.98881

 Normal termination of Gaussian 16 at Tue Apr  8 23:17:04 2025.
