 Gaussian 16, Revision C.01,

 ----------------------------------------------------------------------
 #t hf aug-cc-pvdz symm=none int=(grid=ultrafine) guess=(read,tcheck) s
 table=(opt,rrhf)
 ----------------------------------------------------------------------
 -----
 title
 -----
 Symbolic Z-matrix:
 Charge =  0 Multiplicity = 1

 SCF Done:  E(RHF) =  -639.463669697     A.U. after   12 cycles
 Normal termination of Gaussian 16 at Wed Apr  9 00:06:06 2025.
 Gaussian 16:  ES64L-G16RevC.01  3-Jul-2019

 ----------------------------------------------------------------------
 #t hf aug-cc-pvdz iop(5/13=1,5/36=2,99/5=2) pseudo=read geom=check gue
 ss=(read,tcheck) scf=(maxcycle=1)
 ----------------------------------------------------------------------
 -----
 title
 -----
 Structure from the checkpoint file:  "BDE49_nonexpt_2218_mol1.chk"
 Charge =  0 Multiplicity = 1

                         Standard orientation:
 ---------------------------------------------------------------------
 Center     Atomic      Atomic             Coordinates (Angstroms)
 Number     Number       Type             X           Y           Z
 ---------------------------------------------------------------------
      1          8           0       -0.015275    0.282772    0.346212
      2         14           0        1.569199   -0.114968    0.036204
      3          6           0        2.186086   -0.905433    1.614858
      4          1           0        1.597360   -1.792808    1.863635
      5          1           0        2.113105   -0.209057    2.454837
      6          6           0        1.675402   -1.321957   -1.401615
      7          1           0        2.714315   -1.616356   -1.582974
      8          1           0        1.294091   -0.886102   -2.330319
      9          1           0        1.102762   -2.231814   -1.198488
     10          6           0        2.563599    1.428013   -0.370916
     11          1           0        2.515437    2.155982    0.444363
     12          1           0        2.203825    1.918932   -1.280496
     13          1           0        3.617291    1.177487   -0.531820
     14          1           0        3.232778   -1.211457    1.520848
     15          6           0       -0.930558    0.911577   -0.545616
     16          6           0       -2.253373    1.162257    0.172178
     17          1           0       -1.086511    0.279937   -1.430281
     18          1           0       -0.522222    1.869022   -0.895868
     19          6           0       -2.950340   -0.102098    0.694995
     20          1           0       -2.918064    1.696412   -0.519375
     21          1           0       -2.058237    1.839230    1.010639
     22          6           0       -3.437984   -1.055865   -0.400899
     23          1           0       -3.804685    0.204178    1.308530
     24          1           0       -2.261791   -0.627643    1.362751
     25          1           0       -4.126669   -0.553458   -1.088437
     26          1           0       -3.966977   -1.909865    0.030941
     27          1           0       -2.609384   -1.454205   -0.992947
 ---------------------------------------------------------------------

 SCF Done:  E(RHF) =  -639.611944698     A.U. after    2 cycles

 The electronic state is 1-A.
 Alpha  occ. eigenvalues --  -69.06682 -20.54374 -11.28432 -11.22426 -11.22105
 Alpha  occ. eigenvalues --  -11.21848 -11.20615 -11.20590 -11.20318  -6.81494
 Alpha  occ. eigenvalues --   -3.92411  -3.92264  -3.92242  -1.29045  -1.05328
 Alpha  occ. eigenvalues --   -0.96800  -0.95012  -0.91748  -0.91645  -0.86586
 Alpha  occ. eigenvalues --   -0.77571  -0.69645  -0.65392  -0.61756  -0.58834
 Alpha  occ. eigenvalues --   -0.58052  -0.57526  -0.56000  -0.55913  -0.54632
 Alpha  occ. eigenvalues --   -0.53931  -0.53816  -0.53048  -0.52960  -0.49451
 Alpha  occ. eigenvalues --   -0.48696  -0.46969  -0.45152  -0.44956  -0.42280
 Alpha  occ. eigenvalues --   -0.41342
 Alpha virt. eigenvalues --    0.02989   0.04163   0.04288   0.04433   0.05544
 Alpha virt. eigenvalues --    0.05660   0.05783   0.06346   0.06502   0.07807
 Alpha virt. eigenvalues --    0.07926   0.08150   0.08437   0.08785   0.09245

 Mulliken charges:
               1
     1  O   -1.034180
     2  Si   1.748166
     3  C    0.474378
     4  H   -0.287209
     5  H   -0.289413
     6  C    0.555550
     7  H   -0.276619
     8  H   -0.319467
     9  H   -0.282188
    10  C    0.513820
    11  H   -0.285138
    12  H   -0.328570
    13  H   -0.286261
    14  H   -0.299004
    15  C    0.761504
    16  C    0.199712
    17  H   -0.294403
    18  H   -0.202161
    19  C    0.289112
    20  H   -0.075983
    21  H   -0.102995
    22  C    0.343747
    23  H   -0.117185
    24  H   -0.090983
    25  H   -0.080510
    26  H   -0.089971
    27  H   -0.143746
 Sum of Mulliken charges =  -0.00000

 Dipole moment (field-independent basis, Debye):
    X=              0.2164    Y=              0.3333    Z=             -0.8912  Tot=              0.9758

 Test job not archived.
 1\1\GINC-SE361\SP\RHF\Aug-CC-pVDZ\C7H18O1Si1\OHZDE\09-Apr-2025\0\\#t h
 f aug-cc-pvdz iop(5/13=1,5/36=2,99/5=2) pseudo=read geom=check guess=(
 read,tcheck) scf=(maxcycle=1)\\title\\0,1\O,0,0.015275,-0.282772,0.346
 212\Si,0,-1.569199,0.114968,0.036204\C,0,-2.186086,0.905433,1.614858\H
 ,0,-1.59736,1.792808,1.863635\H,0,-2.113105,0.209057,2.454837\C,0,-1.6
 75402,1.321957,-1.401615\H,0,-2.714315,1.616356,-1.582974\H,0,-1.29409
 1,0.886102,-2.330319\H,0,-1.102762,2.231814,-1.198488\C,0,-2.563599,-1
 .428013,-0.370916\H,0,-2.515437,-2.155982,0.444363\H,0,-2.203825,-1.91

 Normal termination of Gaussian 16 at Wed Apr  9 00:06:23 2025.
