 Gaussian 16, Revision C.01,

 ----------------------------------------------------------------------
 #t hf aug-cc-pvdz symm=none int=(grid=ultrafine) guess=(read,tcheck) s
 table=(opt,rrhf)
 ----------------------------------------------------------------------
 -----
 title
 -----
 Symbolic Z-matrix:
 Charge =  0 Multiplicity = 1

 SCF Done:  E(RHF) =  -816.729186186     A.U. after   16 cycles
 Normal termination of Gaussian 16 at Tue Apr  8 23:33:57 2025.
 Gaussian 16:  ES64L-G16RevC.01  3-Jul-2019

 ----------------------------------------------------------------------
 #t hf aug-cc-pvdz iop(5/13=1,5/36=2,99/5=2) pseudo=read geom=check gue
 ss=(read,tcheck) scf=(maxcycle=1)
 ----------------------------------------------------------------------
 -----
 title
 -----
 Structure from the checkpoint file:  "BDE49_nonexpt_1385_mol1.chk"
 Charge =  0 Multiplicity = 1

                         Standard orientation:
 ---------------------------------------------------------------------
 Center     Atomic      Atomic             Coordinates (Angstroms)
 Number     Number       Type             X           Y           Z
 ---------------------------------------------------------------------
      1          7           0       -0.365508    0.153164   -0.093165
      2         15           0       -1.396778   -1.182783    0.312106
      3          6           0       -2.919909   -0.117502   -0.062214
      4          6           0       -2.453161    1.259454   -0.524910
      5          6           0       -1.027820    1.462437   -0.008655
      6          8           0       -4.058025   -0.479763    0.056588
      7          6           0        1.041437    0.064413   -0.045452
      8          1           0       -1.045570    1.839247    1.025688
      9          1           0       -0.485193    2.185747   -0.620435
     10          1           0       -3.158020    2.021638   -0.188150
     11          1           0       -2.459522    1.247550   -1.621185
     12          6           0        1.834652    1.175362    0.280484
     13          6           0        3.225498    1.077351    0.284495
     14          6           0        3.857373   -0.122525   -0.019248
     15          6           0        3.074018   -1.233723   -0.334040
     16          6           0        1.689187   -1.146717   -0.351112
     17          1           0        1.099766   -2.016961   -0.613564
     18          1           0        4.938280   -0.195082   -0.010473
     19          1           0        3.545855   -2.179254   -0.577717
     20          1           0        1.375408    2.118388    0.545545
     21          1           0        3.813379    1.952417    0.539293
     22          1           0       -1.577606   -0.977293    1.722767
 ---------------------------------------------------------------------

 SCF Done:  E(RHF) =  -816.893970026     A.U. after    2 cycles

 The electronic state is 1-A.
 Alpha  occ. eigenvalues --  -81.29786 -20.58458 -15.64972 -11.36013 -11.30237
 Alpha  occ. eigenvalues --  -11.29681 -11.26584 -11.25325 -11.25271 -11.24516
 Alpha  occ. eigenvalues --  -11.24348 -11.23988  -7.79839  -4.93933  -4.93713
 Alpha  occ. eigenvalues --   -4.93500  -1.37523  -1.22806  -1.13958  -1.06237
 Alpha  occ. eigenvalues --   -1.01702  -0.98299  -0.92063  -0.85385  -0.83534
 Alpha  occ. eigenvalues --   -0.78595  -0.73681  -0.71648  -0.68365  -0.67469
 Alpha  occ. eigenvalues --   -0.65144  -0.63876  -0.61541  -0.60482  -0.59651
 Alpha  occ. eigenvalues --   -0.59033  -0.57154  -0.54857  -0.52585  -0.51779
 Alpha  occ. eigenvalues --   -0.51385  -0.49905  -0.45027  -0.40401  -0.37129
 Alpha  occ. eigenvalues --   -0.34815  -0.30301
 Alpha virt. eigenvalues --    0.02922   0.03564   0.03961   0.04439   0.05291
 Alpha virt. eigenvalues --    0.05608   0.06676   0.07208   0.07554   0.08205
 Alpha virt. eigenvalues --    0.08637   0.09107   0.10050   0.10421   0.11711

 Mulliken charges:
               1
     1  N   -0.973441
     2  P    0.411031
     3  C    0.010134
     4  C    0.034569
     5  C    0.855025
     6  O   -0.466482
     7  C    0.467536
     8  H   -0.221208
     9  H   -0.284327
    10  H   -0.008031
    11  H    0.026319
    12  C    0.101211
    13  C    0.870807
    14  C    0.644723
    15  C    0.482837
    16  C    0.597089
    17  H   -0.635975
    18  H   -0.458263
    19  H   -0.453006
    20  H   -0.711154
    21  H   -0.469707
    22  H    0.180314
 Sum of Mulliken charges =   0.00000

 Dipole moment (field-independent basis, Debye):
    X=              2.4849    Y=              2.3004    Z=             -0.1068  Tot=              3.3879

 Test job not archived.
 1\1\GINC-SE403\SP\RHF\Aug-CC-pVDZ\C9H10N1O1P1\OHZDE\08-Apr-2025\0\\#t
 hf aug-cc-pvdz iop(5/13=1,5/36=2,99/5=2) pseudo=read geom=check guess=
 (read,tcheck) scf=(maxcycle=1)\\title\\0,1\N,0,-0.365508,0.153164,-0.0
 93165\P,0,-1.396778,-1.182783,0.312106\C,0,-2.919909,-0.117502,-0.0622
 14\C,0,-2.453161,1.259454,-0.52491\C,0,-1.02782,1.462437,-0.008655\O,0
 ,-4.058025,-0.479763,0.056588\C,0,1.041437,0.064413,-0.045452\H,0,-1.0
 4557,1.839247,1.025688\H,0,-0.485193,2.185747,-0.620435\H,0,-3.15802,2
 .021638,-0.18815\H,0,-2.459522,1.24755,-1.621185\C,0,1.834652,1.175362

 Normal termination of Gaussian 16 at Tue Apr  8 23:34:14 2025.
