 Gaussian 16, Revision C.01,

 ----------------------------------------------------------------------
 #t hf aug-cc-pvdz symm=none int=(grid=ultrafine) guess=(read,tcheck) s
 table=(opt,rrhf)
 ----------------------------------------------------------------------
 -----
 title
 -----
 Symbolic Z-matrix:
 Charge =  0 Multiplicity = 1

 SCF Done:  E(RHF) =  -1144.83305992     A.U. after   13 cycles
 Normal termination of Gaussian 16 at Tue Apr  8 23:22:07 2025.
 Gaussian 16:  ES64L-G16RevC.01  3-Jul-2019

 ----------------------------------------------------------------------
 #t hf aug-cc-pvdz iop(5/13=1,5/36=2,99/5=2) pseudo=read geom=check gue
 ss=(read,tcheck) scf=(maxcycle=1)
 ----------------------------------------------------------------------
 -----
 title
 -----
 Structure from the checkpoint file:  "BDE49_nonexpt_1216_mol1.chk"
 Charge =  0 Multiplicity = 1

                         Standard orientation:
 ---------------------------------------------------------------------
 Center     Atomic      Atomic             Coordinates (Angstroms)
 Number     Number       Type             X           Y           Z
 ---------------------------------------------------------------------
      1          6           0        1.746441   -0.167304    0.002094
      2         16           0        0.502703    1.171973    0.023125
      3          9           0        2.860436    0.421278   -0.468907
      4          9           0        1.430174   -1.188995   -0.794601
      5          9           0        1.989760   -0.657493    1.217931
      6          8           0       -0.759195    0.335115    0.799740
      7          6           0       -1.795091   -0.106893    0.009222
      8          9           0       -2.678925   -0.665108    0.827686
      9          9           0       -1.403673   -1.010278   -0.893749
     10          9           0       -2.384193    0.902006   -0.647897
 ---------------------------------------------------------------------

 SCF Done:  E(RHF) =  -1145.12899127     A.U. after    2 cycles

 The electronic state is 1-A.
 Alpha  occ. eigenvalues --  -93.66245 -26.20419 -26.19826 -26.19734 -26.19430
 Alpha  occ. eigenvalues --  -26.19404 -26.19341 -20.68864 -11.60781 -11.58145
 Alpha  occ. eigenvalues --   -8.95382  -6.29563  -6.29218  -6.28788  -1.79905
 Alpha  occ. eigenvalues --   -1.79768  -1.72888  -1.72506  -1.72440  -1.72202
 Alpha  occ. eigenvalues --   -1.43868  -1.11271  -1.04984  -0.99205  -0.92451
 Alpha  occ. eigenvalues --   -0.92250  -0.91711  -0.91422  -0.89898  -0.83346
 Alpha  occ. eigenvalues --   -0.80801  -0.80492  -0.80148  -0.80002  -0.76586
 Alpha  occ. eigenvalues --   -0.76305  -0.75762  -0.75360  -0.74895  -0.74465
 Alpha  occ. eigenvalues --   -0.71214  -0.66387  -0.64223  -0.53835  -0.44241
 Alpha virt. eigenvalues --    0.04912   0.06381   0.07839   0.08422   0.09322
 Alpha virt. eigenvalues --    0.10353   0.10670   0.11249   0.12348   0.12746
 Alpha virt. eigenvalues --    0.15253   0.18432   0.18580   0.21158   0.22869

 Mulliken charges:
               1
     1  C    0.625611
     2  S    0.731136
     3  F   -0.270884
     4  F   -0.278529
     5  F   -0.289139
     6  O   -0.799608
     7  C    1.066511
     8  F   -0.233508
     9  F   -0.271933
    10  F   -0.279657
 Sum of Mulliken charges =  -0.00000

 Dipole moment (field-independent basis, Debye):
    X=              0.4809    Y=              1.4916    Z=             -0.2229  Tot=              1.5830

 Test job not archived.
 1\1\GINC-SE036\SP\RHF\Aug-CC-pVDZ\C2F6O1S1\OHZDE\08-Apr-2025\0\\#t hf
 aug-cc-pvdz iop(5/13=1,5/36=2,99/5=2) pseudo=read geom=check guess=(re
 ad,tcheck) scf=(maxcycle=1)\\title\\0,1\C,0,1.746441,-0.167304,0.00209
 4\S,0,0.502703,1.171973,0.023125\F,0,2.860436,0.421278,-0.468907\F,0,1
 .430174,-1.188995,-0.794601\F,0,1.98976,-0.657493,1.217931\O,0,-0.7591
 95,0.335115,0.79974\C,0,-1.795091,-0.106893,0.009222\F,0,-2.678925,-0.
 665108,0.827686\F,0,-1.403673,-1.010278,-0.893749\F,0,-2.384193,0.9020
 06,-0.647897\\Version=ES64L-G16RevC.01\State=1-A\HF=-1145.1289913\RMSD

 Normal termination of Gaussian 16 at Tue Apr  8 23:22:12 2025.
