 Gaussian 16, Revision C.01,

 ----------------------------------------------------------------------
 #t hf aug-cc-pvdz symm=none int=(grid=ultrafine) guess=(read,tcheck) s
 table=(opt,rrhf)
 ----------------------------------------------------------------------
 -----
 title
 -----
 Symbolic Z-matrix:
 Charge =  0 Multiplicity = 1

 SCF Done:  E(RHF) =  -1287.83872315     A.U. after   16 cycles
 Normal termination of Gaussian 16 at Wed Apr  9 00:12:42 2025.
 Gaussian 16:  ES64L-G16RevC.01  3-Jul-2019

 ----------------------------------------------------------------------
 #t hf aug-cc-pvdz iop(5/13=1,5/36=2,99/5=2) pseudo=read geom=check gue
 ss=(read,tcheck) scf=(maxcycle=1)
 ----------------------------------------------------------------------
 -----
 title
 -----
 Structure from the checkpoint file:  "BDE49_nonexpt_240_mol1.chk"
 Charge =  0 Multiplicity = 1

                         Standard orientation:
 ---------------------------------------------------------------------
 Center     Atomic      Atomic             Coordinates (Angstroms)
 Number     Number       Type             X           Y           Z
 ---------------------------------------------------------------------
      1         17           0        2.728152   -1.127001    0.350888
      2         17           0        1.901869    1.640339   -0.420103
      3          5           0        1.393140   -0.001837   -0.015567
      4          6           0       -0.065627   -0.510954   -0.015343
      5          6           0       -1.212690    0.328195    0.064010
      6          6           0       -2.499765   -0.217906   -0.004995
      7          1           0       -3.369888    0.420349    0.056376
      8          6           0       -2.671237   -1.590836   -0.146445
      9          6           0       -0.296157   -1.896809   -0.136192
     10          1           0        0.559851   -2.557607   -0.185023
     11          6           0       -1.570618   -2.440287   -0.211029
     12          1           0       -1.704237   -3.509930   -0.316075
     13          1           0       -3.676416   -1.994616   -0.200099
     14          8           0       -0.992942    1.650971    0.234866
     15          6           0       -2.094202    2.549228    0.296198
     16          1           0       -1.655552    3.538555    0.410032
     17          1           0       -2.737040    2.335713    1.156569
     18          1           0       -2.687458    2.518421   -0.623449
 ---------------------------------------------------------------------

 SCF Done:  E(RHF) =  -1287.98372365     A.U. after    2 cycles

 The electronic state is 1-A.
 Alpha  occ. eigenvalues -- -103.65480-103.65165 -20.61205 -11.33900 -11.30763
 Alpha  occ. eigenvalues --  -11.27320 -11.26831 -11.25194 -11.24611 -11.24154
 Alpha  occ. eigenvalues --  -10.68957 -10.68657  -8.34646  -8.34434  -8.34409
 Alpha  occ. eigenvalues --   -8.34353  -8.34136  -8.34098  -7.72104  -1.38708
 Alpha  occ. eigenvalues --   -1.17009  -1.14976  -1.12788  -1.03460  -1.02607
 Alpha  occ. eigenvalues --   -0.95610  -0.85594  -0.82515  -0.74900  -0.70223
 Alpha  occ. eigenvalues --   -0.68949  -0.67866  -0.65844  -0.63243  -0.60949
 Alpha  occ. eigenvalues --   -0.59131  -0.56415  -0.54695  -0.54336  -0.53183
 Alpha  occ. eigenvalues --   -0.51330  -0.50840  -0.48848  -0.46470  -0.46323
 Alpha  occ. eigenvalues --   -0.44509  -0.36185  -0.33240
 Alpha virt. eigenvalues --    0.02779   0.03699   0.04384   0.04903   0.05132
 Alpha virt. eigenvalues --    0.05615   0.06130   0.06780   0.07017   0.07598
 Alpha virt. eigenvalues --    0.08398   0.09680   0.10947   0.11483   0.12194

 Mulliken charges:
               1
     1  Cl  -0.369566
     2  Cl  -0.315193
     3  B    0.466778
     4  C   -0.084487
     5  C    0.593746
     6  C    0.598851
     7  H   -0.760177
     8  C    0.543806
     9  C    0.731552
    10  H   -0.660100
    11  C    0.435918
    12  H   -0.454698
    13  H   -0.448643
    14  O   -0.712544
    15  C    0.898584
    16  H   -0.304823
    17  H   -0.087349
    18  H   -0.071656
 Sum of Mulliken charges =  -0.00000

 Dipole moment (field-independent basis, Debye):
    X=             -4.4785    Y=             -0.0004    Z=              0.0249  Tot=              4.4786

 Test job not archived.
 1\1\GINC-SE073\SP\RHF\Aug-CC-pVDZ\C7H7B1Cl2O1\OHZDE\09-Apr-2025\0\\#t
 hf aug-cc-pvdz iop(5/13=1,5/36=2,99/5=2) pseudo=read geom=check guess=
 (read,tcheck) scf=(maxcycle=1)\\title\\0,1\Cl,0,2.728152,-1.127001,0.3
 50888\Cl,0,1.901869,1.640339,-0.420103\B,0,1.39314,-0.001837,-0.015567
 \C,0,-0.065627,-0.510954,-0.015343\C,0,-1.21269,0.328195,0.06401\C,0,-
 2.499765,-0.217906,-0.004995\H,0,-3.369888,0.420349,0.056376\C,0,-2.67
 1237,-1.590836,-0.146445\C,0,-0.296157,-1.896809,-0.136192\H,0,0.55985
 1,-2.557607,-0.185023\C,0,-1.570618,-2.440287,-0.211029\H,0,-1.704237,

 Normal termination of Gaussian 16 at Wed Apr  9 00:12:54 2025.
