 Gaussian 16, Revision C.01,

 ----------------------------------------------------------------------
 #t hf aug-cc-pvdz symm=none int=(grid=ultrafine) guess=(read,tcheck) s
 table=(opt,rrhf)
 ----------------------------------------------------------------------
 -----
 title
 -----
 Symbolic Z-matrix:
 Charge =  0 Multiplicity = 1

 SCF Done:  E(RHF) =  -802.406767351     A.U. after   16 cycles
 Normal termination of Gaussian 16 at Tue Apr  8 22:32:00 2025.
 Gaussian 16:  ES64L-G16RevC.01  3-Jul-2019

 ----------------------------------------------------------------------
 #t hf aug-cc-pvdz iop(5/13=1,5/36=2,99/5=2) pseudo=read geom=check gue
 ss=(read,tcheck) scf=(maxcycle=1)
 ----------------------------------------------------------------------
 -----
 title
 -----
 Structure from the checkpoint file:  "BDE49_expt_1080_mol1.chk"
 Charge =  0 Multiplicity = 1

                         Standard orientation:
 ---------------------------------------------------------------------
 Center     Atomic      Atomic             Coordinates (Angstroms)
 Number     Number       Type             X           Y           Z
 ---------------------------------------------------------------------
      1          6           0        0.133363    0.201007    0.000130
      2          6           0       -1.291511    0.607800    0.000200
      3          8           0       -1.710625    1.716244   -0.000057
      4          6           0        0.567103   -1.128932    0.000105
      5          6           0        1.928587   -1.412248    0.000045
      6          6           0        2.860668   -0.376403    0.000004
      7          6           0        2.432376    0.951422    0.000024
      8          1           0        2.261865   -2.443224    0.000028
      9          1           0        3.920845   -0.602928   -0.000044
     10          1           0       -0.157102   -1.931318    0.000137
     11          6           0        1.075477    1.242075    0.000085
     12          1           0        3.156519    1.757556   -0.000008
     13          1           0        0.724158    2.265898    0.000102
     14         17           0       -2.497510   -0.781427   -0.000195
 ---------------------------------------------------------------------

 SCF Done:  E(RHF) =  -802.526479933     A.U. after    2 cycles

 The electronic state is 1-A.
 Alpha  occ. eigenvalues -- -103.66713 -20.60789 -11.42654 -11.28632 -11.28028
 Alpha  occ. eigenvalues --  -11.27964 -11.27891 -11.26895 -11.26878 -10.70025
 Alpha  occ. eigenvalues --   -8.35726  -8.35443  -8.35439  -1.41615  -1.18023
 Alpha  occ. eigenvalues --   -1.15339  -1.05595  -1.04020  -0.90019  -0.85873
 Alpha  occ. eigenvalues --   -0.79321  -0.74031  -0.68973  -0.68883  -0.64434
 Alpha  occ. eigenvalues --   -0.63718  -0.62144  -0.62143  -0.54942  -0.52905
 Alpha  occ. eigenvalues --   -0.52618  -0.48016  -0.47638  -0.46461  -0.37395
 Alpha  occ. eigenvalues --   -0.36697
 Alpha virt. eigenvalues --    0.02717   0.03716   0.04068   0.04455   0.06140
 Alpha virt. eigenvalues --    0.06362   0.08848   0.09566   0.09788   0.10347
 Alpha virt. eigenvalues --    0.11238   0.12949   0.13210   0.13330   0.13579

 Mulliken charges:
               1
     1  C    1.566766
     2  C   -0.379925
     3  O   -0.381541
     4  C    0.416158
     5  C    0.461889
     6  C    0.376941
     7  C    0.713080
     8  H   -0.426524
     9  H   -0.423974
    10  H   -0.486767
    11  C   -0.176114
    12  H   -0.413284
    13  H   -0.602062
    14  Cl  -0.244643
 Sum of Mulliken charges =  -0.00000

 Dipole moment (field-independent basis, Debye):
    X=              4.2793    Y=             -1.4943    Z=              0.0006  Tot=              4.5327

 Test job not archived.
 1\1\GINC-SE362\SP\RHF\Aug-CC-pVDZ\C7H5Cl1O1\OHZDE\08-Apr-2025\0\\#t hf
  aug-cc-pvdz iop(5/13=1,5/36=2,99/5=2) pseudo=read geom=check guess=(r
 ead,tcheck) scf=(maxcycle=1)\\title\\0,1\C,0,0.133363,0.201007,0.00013
 \C,0,-1.291511,0.6078,0.0002\O,0,-1.710625,1.716244,-0.000057\C,0,0.56
 7103,-1.128932,0.000105\C,0,1.928587,-1.412248,0.000045\C,0,2.860668,-
 0.376403,0.000004\C,0,2.432376,0.951422,0.000024\H,0,2.261865,-2.44322
 4,0.000028\H,0,3.920845,-0.602928,-0.000044\H,0,-0.157102,-1.931318,0.
 000137\C,0,1.075477,1.242075,0.000085\H,0,3.156519,1.757556,-0.000008\

 Normal termination of Gaussian 16 at Tue Apr  8 22:32:05 2025.
