 Gaussian 16, Revision C.01,

 ----------------------------------------------------------------------
 #t hf aug-cc-pvdz symm=none int=(grid=ultrafine) guess=(read,tcheck) s
 table=(opt,rrhf)
 ----------------------------------------------------------------------
 -----
 title
 -----
 Symbolic Z-matrix:
 Charge =  0 Multiplicity = 1

 SCF Done:  E(RHF) =  -1409.95107100     A.U. after   14 cycles
 Normal termination of Gaussian 16 at Wed Apr  9 00:48:37 2025.
 Gaussian 16:  ES64L-G16RevC.01  3-Jul-2019

 ----------------------------------------------------------------------
 #t hf aug-cc-pvdz iop(5/13=1,5/36=2,99/5=2) pseudo=read geom=check gue
 ss=(read,tcheck) scf=(maxcycle=1)
 ----------------------------------------------------------------------
 -----
 title
 -----
 Structure from the checkpoint file:  "BDE49_nonexpt_904_mol1.chk"
 Charge =  0 Multiplicity = 1

                         Standard orientation:
 ---------------------------------------------------------------------
 Center     Atomic      Atomic             Coordinates (Angstroms)
 Number     Number       Type             X           Y           Z
 ---------------------------------------------------------------------
      1          6           0        2.836200   -0.804102    0.000052
      2          6           0        1.560567    0.020314   -0.000025
      3         16           0        0.081267   -1.058885   -0.000117
      4          8           0        1.541205    1.222210   -0.000122
      5          5           0       -1.434991   -0.015252   -0.000193
      6         16           0       -1.575025    1.781139    0.000075
      7          6           0        4.102318    0.049657    0.000067
      8          1           0        2.799036   -1.466307   -0.872047
      9          1           0        2.798971   -1.466242    0.872197
     10          1           0        4.143559    0.692534   -0.880774
     11          1           0        4.985946   -0.591949    0.000124
     12          1           0        4.143493    0.692599    0.880863
     13         16           0       -2.940062   -1.044989    0.000081
     14          1           0       -0.251316    2.040540    0.000142
     15          1           0       -3.827778   -0.034046    0.000251
 ---------------------------------------------------------------------

 SCF Done:  E(RHF) =  -1410.07231891     A.U. after    2 cycles

 The electronic state is 1-A.
 Alpha  occ. eigenvalues --  -93.55694 -93.54631 -93.53822 -20.60107 -11.40128
 Alpha  occ. eigenvalues --  -11.27409 -11.24601  -8.85726  -8.84590  -8.83854
 Alpha  occ. eigenvalues --   -7.70661  -6.19903  -6.19613  -6.19394  -6.18773
 Alpha  occ. eigenvalues --   -6.18529  -6.18265  -6.18030  -6.17817  -6.17560
 Alpha  occ. eigenvalues --   -1.39916  -1.07851  -1.02489  -0.98015  -0.95106
 Alpha  occ. eigenvalues --   -0.89587  -0.77043  -0.70194  -0.67918  -0.65994
 Alpha  occ. eigenvalues --   -0.60150  -0.58383  -0.57715  -0.56661  -0.53827
 Alpha  occ. eigenvalues --   -0.51891  -0.51885  -0.46627  -0.45392  -0.44114
 Alpha  occ. eigenvalues --   -0.42393  -0.38326  -0.36970
 Alpha virt. eigenvalues --    0.03065   0.04603   0.04773   0.04841   0.05627
 Alpha virt. eigenvalues --    0.06617   0.07185   0.07467   0.07706   0.08089
 Alpha virt. eigenvalues --    0.08848   0.09952   0.10663   0.12121   0.12221

 Mulliken charges:
               1
     1  C   -0.060963
     2  C   -0.313641
     3  S    0.077693
     4  O   -0.492225
     5  B    0.685772
     6  S   -0.171727
     7  C    0.511699
     8  H    0.044242
     9  H    0.044239
    10  H   -0.060375
    11  H   -0.037567
    12  H   -0.060379
    13  S   -0.255346
    14  H    0.089202
    15  H   -0.000622
 Sum of Mulliken charges =   0.00000

 Dipole moment (field-independent basis, Debye):
    X=              2.1161    Y=             -1.2570    Z=              0.0002  Tot=              2.4613

 Test job not archived.
 1\1\GINC-SE367\SP\RHF\Aug-CC-pVDZ\C3H7B1O1S3\OHZDE\09-Apr-2025\0\\#t h
 f aug-cc-pvdz iop(5/13=1,5/36=2,99/5=2) pseudo=read geom=check guess=(
 read,tcheck) scf=(maxcycle=1)\\title\\0,1\C,0,-2.8362,-0.804102,-0.000
 052\C,0,-1.560567,0.020314,0.000025\S,0,-0.081267,-1.058885,0.000117\O
 ,0,-1.541205,1.22221,0.000122\B,0,1.434991,-0.015252,0.000193\S,0,1.57
 5025,1.781139,-0.000075\C,0,-4.102318,0.049657,-0.000067\H,0,-2.799036
 ,-1.466307,0.872047\H,0,-2.798971,-1.466242,-0.872197\H,0,-4.143559,0.
 692534,0.880774\H,0,-4.985946,-0.591949,-0.000124\H,0,-4.143493,0.6925

 Normal termination of Gaussian 16 at Wed Apr  9 00:48:42 2025.
