 Gaussian 16, Revision C.01,

 ----------------------------------------------------------------------
 #t hf aug-cc-pvdz symm=none int=(grid=ultrafine) guess=(read,tcheck) s
 table=(opt,rrhf)
 ----------------------------------------------------------------------
 -----
 title
 -----
 Symbolic Z-matrix:
 Charge =  0 Multiplicity = 1

 SCF Done:  E(RHF) =  -311.092897346     A.U. after   15 cycles
 Normal termination of Gaussian 16 at Wed Apr  9 00:28:21 2025.
 Gaussian 16:  ES64L-G16RevC.01  3-Jul-2019

 ----------------------------------------------------------------------
 #t hf aug-cc-pvdz iop(5/13=1,5/36=2,99/5=2) pseudo=read geom=check gue
 ss=(read,tcheck) scf=(maxcycle=1)
 ----------------------------------------------------------------------
 -----
 title
 -----
 Structure from the checkpoint file:  "BDE49_nonexpt_338_mol1.chk"
 Charge =  0 Multiplicity = 1

                         Standard orientation:
 ---------------------------------------------------------------------
 Center     Atomic      Atomic             Coordinates (Angstroms)
 Number     Number       Type             X           Y           Z
 ---------------------------------------------------------------------
      1          6           0        0.473836    0.264081   -0.000014
      2          5           0        1.994133    0.634164   -0.000023
      3          7           0        3.014429   -0.317661    0.000026
      4          1           0        2.859504   -1.314343    0.000076
      5          1           0        3.989216   -0.064405    0.000020
      6          6           0       -0.483780    1.292515    0.000001
      7          6           0       -1.850112    1.020617    0.000015
      8          6           0       -2.294124   -0.299355    0.000010
      9          6           0       -1.366647   -1.341819   -0.000008
     10          6           0       -0.005235   -1.058372   -0.000019
     11          1           0        0.694377   -1.889744   -0.000037
     12          1           0       -0.145757    2.323854    0.000003
     13          1           0       -2.566958    1.834613    0.000027
     14          1           0       -3.356627   -0.517365    0.000019
     15          1           0       -1.708600   -2.371223   -0.000014
     16          1           0        2.319554    1.785424   -0.000068
 ---------------------------------------------------------------------

 SCF Done:  E(RHF) =  -311.186440132     A.U. after    2 cycles

 The electronic state is 1-A.
 Alpha  occ. eigenvalues --  -15.61601 -11.24761 -11.24622 -11.24316 -11.24195
 Alpha  occ. eigenvalues --  -11.24049 -11.21903  -7.59787  -1.13854  -1.12035
 Alpha  occ. eigenvalues --   -1.00632  -1.00313  -0.82485  -0.82175  -0.72331
 Alpha  occ. eigenvalues --   -0.69374  -0.67163  -0.63077  -0.62326  -0.58730
 Alpha  occ. eigenvalues --   -0.57082  -0.51099  -0.50410  -0.48766  -0.45526
 Alpha  occ. eigenvalues --   -0.43512  -0.33727  -0.33358
 Alpha virt. eigenvalues --    0.03154   0.03855   0.04020   0.05465   0.05546
 Alpha virt. eigenvalues --    0.05549   0.07307   0.08037   0.08407   0.08453
 Alpha virt. eigenvalues --    0.10104   0.10804   0.10939   0.12499   0.13390

 Mulliken charges:
               1
     1  C   -0.224430
     2  B   -0.253986
     3  N   -0.181908
     4  H    0.034513
     5  H   -0.030792
     6  C    0.233409
     7  C    0.423862
     8  C    0.718635
     9  C    0.490893
    10  C    1.093456
    11  H   -0.622469
    12  H   -0.612975
    13  H   -0.443695
    14  H   -0.438554
    15  H   -0.469086
    16  H    0.283126
 Sum of Mulliken charges =  -0.00000

 Dipole moment (field-independent basis, Debye):
    X=              0.6248    Y=             -1.0886    Z=              0.0001  Tot=              1.2552

 Test job not archived.
 1\1\GINC-SE284\SP\RHF\Aug-CC-pVDZ\C6H8B1N1\OHZDE\09-Apr-2025\0\\#t hf
 aug-cc-pvdz iop(5/13=1,5/36=2,99/5=2) pseudo=read geom=check guess=(re
 ad,tcheck) scf=(maxcycle=1)\\title\\0,1\C,0,0.473836,0.264081,-0.00001
 4\B,0,1.994133,0.634164,-0.000023\N,0,3.014429,-0.317661,0.000026\H,0,
 2.859504,-1.314343,0.000076\H,0,3.989216,-0.064405,0.00002\C,0,-0.4837
 8,1.292515,0.000001\C,0,-1.850112,1.020617,0.000015\C,0,-2.294124,-0.2
 99355,0.00001\C,0,-1.366647,-1.341819,-0.000008\C,0,-0.005235,-1.05837
 2,-0.000019\H,0,0.694377,-1.889744,-0.000037\H,0,-0.145757,2.323854,0.

 Normal termination of Gaussian 16 at Wed Apr  9 00:28:27 2025.
