 Gaussian 16, Revision C.01,

 ----------------------------------------------------------------------
 #t hf aug-cc-pvdz symm=none int=(grid=ultrafine) guess=(read,tcheck) s
 table=(opt,rrhf)
 ----------------------------------------------------------------------
 -----
 title
 -----
 Symbolic Z-matrix:
 Charge =  0 Multiplicity = 1

 SCF Done:  E(RHF) =  -553.228343967     A.U. after   16 cycles
 Normal termination of Gaussian 16 at Wed Apr  9 00:52:14 2025.
 Gaussian 16:  ES64L-G16RevC.01  3-Jul-2019

 ----------------------------------------------------------------------
 #t hf aug-cc-pvdz iop(5/13=1,5/36=2,99/5=2) pseudo=read geom=check gue
 ss=(read,tcheck) scf=(maxcycle=1)
 ----------------------------------------------------------------------
 -----
 title
 -----
 Structure from the checkpoint file:  "BDE49_nonexpt_955_mol1.chk"
 Charge =  0 Multiplicity = 1

                         Standard orientation:
 ---------------------------------------------------------------------
 Center     Atomic      Atomic             Coordinates (Angstroms)
 Number     Number       Type             X           Y           Z
 ---------------------------------------------------------------------
      1          9           0       -3.857362   -0.023956    0.404558
      2          7           0       -0.626416   -1.066667   -0.068163
      3          7           0       -2.884276   -0.765387   -0.324340
      4          1           0       -2.907216   -1.695215    0.090914
      5          6           0       -1.604196   -0.198480   -0.136078
      6          6           0       -1.441244    1.212377   -0.133624
      7          1           0       -2.309070    1.854935   -0.180030
      8          6           0       -0.166077    1.700084   -0.063259
      9          1           0        0.013371    2.770113   -0.050664
     10          6           0        2.285403    1.238418    0.041510
     11          1           0        2.497232    2.302609    0.051919
     12          6           0        3.309226    0.321367    0.083751
     13          1           0        4.338993    0.656440    0.128159
     14          6           0        3.023981   -1.063020    0.070353
     15          1           0        3.840311   -1.775739    0.104156
     16          6           0        1.725381   -1.512142    0.014265
     17          1           0        1.485813   -2.568396    0.004006
     18          6           0        0.651373   -0.590856   -0.032073
     19          6           0        0.938096    0.808125   -0.018505
 ---------------------------------------------------------------------

 SCF Done:  E(RHF) =  -553.391436013     A.U. after    2 cycles

 The electronic state is 1-A.
 Alpha  occ. eigenvalues --  -26.14280 -15.73561 -15.63868 -11.34506 -11.29758
 Alpha  occ. eigenvalues --  -11.28311 -11.26419 -11.26247 -11.26200 -11.26023
 Alpha  occ. eigenvalues --  -11.25443 -11.25043  -1.65755  -1.27188  -1.17673
 Alpha  occ. eigenvalues --   -1.12358  -1.09612  -1.01535  -1.00809  -0.89269
 Alpha  occ. eigenvalues --   -0.86619  -0.83582  -0.77963  -0.76659  -0.74672
 Alpha  occ. eigenvalues --   -0.72117  -0.70854  -0.68034  -0.64010  -0.63447
 Alpha  occ. eigenvalues --   -0.61690  -0.60323  -0.58554  -0.58059  -0.52853
 Alpha  occ. eigenvalues --   -0.52525  -0.50994  -0.44924  -0.43184  -0.42487
 Alpha  occ. eigenvalues --   -0.33183  -0.31839
 Alpha virt. eigenvalues --    0.02989   0.03393   0.04091   0.05028   0.05447
 Alpha virt. eigenvalues --    0.05801   0.06965   0.07684   0.08424   0.09195
 Alpha virt. eigenvalues --    0.10172   0.11038   0.11803   0.12468   0.12678

 Mulliken charges:
               1
     1  F   -0.421592
     2  N   -0.539242
     3  N   -0.279717
     4  H    0.107104
     5  C    0.790265
     6  C    0.628705
     7  H   -0.429165
     8  C   -0.066465
     9  H   -0.576959
    10  C    0.528117
    11  H   -0.572444
    12  C    0.476426
    13  H   -0.464209
    14  C    0.362696
    15  H   -0.436545
    16  C    1.198958
    17  H   -0.575963
    18  C   -0.351976
    19  C    0.622006
 Sum of Mulliken charges =   0.00000

 Dipole moment (field-independent basis, Debye):
    X=              2.5357    Y=              0.9014    Z=              0.2350  Tot=              2.7014

 Test job not archived.
 1\1\GINC-SE074\SP\RHF\Aug-CC-pVDZ\C9H7F1N2\OHZDE\09-Apr-2025\0\\#t hf
 aug-cc-pvdz iop(5/13=1,5/36=2,99/5=2) pseudo=read geom=check guess=(re
 ad,tcheck) scf=(maxcycle=1)\\title\\0,1\F,0,-3.857362,-0.023956,0.4045
 58\N,0,-0.626416,-1.066667,-0.068163\N,0,-2.884276,-0.765387,-0.32434\
 H,0,-2.907216,-1.695215,0.090914\C,0,-1.604196,-0.19848,-0.136078\C,0,
 -1.441244,1.212377,-0.133624\H,0,-2.30907,1.854935,-0.18003\C,0,-0.166
 077,1.700084,-0.063259\H,0,0.013371,2.770113,-0.050664\C,0,2.285403,1.
 238418,0.04151\H,0,2.497232,2.302609,0.051919\C,0,3.309226,0.321367,0.

 Normal termination of Gaussian 16 at Wed Apr  9 00:52:26 2025.
