 Gaussian 16, Revision C.01,

 ----------------------------------------------------------------------
 #t hf aug-cc-pvdz symm=none int=(grid=ultrafine) guess=(read,tcheck) s
 table=opt
 ----------------------------------------------------------------------
 -----
 title
 -----
 Symbolic Z-matrix:
 Charge =  0 Multiplicity = 2

 SCF Done:  E(UHF) =  -267.385104627     A.U. after   16 cycles
 Normal termination of Gaussian 16 at Tue Apr  8 22:39:37 2025.
 Gaussian 16:  ES64L-G16RevC.01  3-Jul-2019

 ----------------------------------------------------------------------
 #t hf aug-cc-pvdz iop(5/13=1,5/36=2,99/5=2) pseudo=read geom=check gue
 ss=(read,tcheck) scf=(maxcycle=1)
 ----------------------------------------------------------------------
 -----
 title
 -----
 Structure from the checkpoint file:  "BDE49_expt_1353_mol2.chk"
 Charge =  0 Multiplicity = 2

                         Standard orientation:
 ---------------------------------------------------------------------
 Center     Atomic      Atomic             Coordinates (Angstroms)
 Number     Number       Type             X           Y           Z
 ---------------------------------------------------------------------
      1          6           0        0.893176   -0.067474    0.697107
      2          6           0       -0.610138    0.046063    0.469891
      3          6           0       -1.183966   -1.146703   -0.219036
      4          1           0       -2.259018   -1.270394   -0.255904
      5          1           0       -0.567860   -1.742877   -0.880401
      6          8           0       -0.891156    1.249954   -0.273405
      7          1           0       -1.098444    0.198400    1.437511
      8          1           0       -0.349146    1.186383   -1.070270
      9          8           0        1.500663   -0.149744   -0.595745
     10          1           0        1.119770   -0.957143    1.300413
     11          1           0        1.235111    0.826714    1.231812
     12          1           0        2.449094   -0.034081   -0.497730
 ---------------------------------------------------------------------

 SCF Done:  E(UHF) =  -267.469104520     A.U. after    2 cycles

 The electronic state is 2-A.
 Alpha  occ. eigenvalues --  -20.58652 -20.56511 -11.29573 -11.29328 -11.24139
 Alpha  occ. eigenvalues --   -1.34147  -1.30955  -1.03838  -0.93353  -0.81368
 Alpha  occ. eigenvalues --   -0.73439  -0.67306  -0.65951  -0.62148  -0.61286
 Alpha  occ. eigenvalues --   -0.56496  -0.55047  -0.50185  -0.47605  -0.46211
 Alpha  occ. eigenvalues --   -0.37552
 Alpha virt. eigenvalues --    0.03121   0.04468   0.04847   0.05399   0.06860
 Alpha virt. eigenvalues --    0.07098   0.07358   0.11827   0.12125   0.13198
 Alpha virt. eigenvalues --    0.14610   0.15622   0.15731   0.16690   0.17561

  Beta  occ. eigenvalues --  -20.58654 -20.56143 -11.29652 -11.29536 -11.21699
  Beta  occ. eigenvalues --   -1.33958  -1.30075  -1.01705  -0.89223  -0.79220
  Beta  occ. eigenvalues --   -0.73022  -0.66772  -0.65742  -0.60937  -0.59940
  Beta  occ. eigenvalues --   -0.55258  -0.54575  -0.49610  -0.47231  -0.45307
  Beta virt. eigenvalues --    0.03145   0.04382   0.04908   0.05174   0.06847
  Beta virt. eigenvalues --    0.07093   0.07301   0.08970   0.11956   0.13195
  Beta virt. eigenvalues --    0.13975   0.14670   0.15656   0.16858   0.16968

 Mulliken charges and spin densities:
               1          2
     1  C    0.900524   0.010034
     2  C    0.345726  -0.188777
     3  C    0.479968   1.341261
     4  H   -0.195194  -0.103287
     5  H   -0.199852  -0.101043
     6  O   -0.621246   0.046020
     7  H   -0.200816   0.011365
     8  H    0.179546  -0.012078
     9  O   -0.620889   0.001297
    10  H   -0.105188  -0.004867
    11  H   -0.113386  -0.001005
    12  H    0.150806   0.001080
 Sum of Mulliken charges =  -0.00000   1.00000

 Dipole moment (field-independent basis, Debye):
    X=              2.1825    Y=             -1.1071    Z=              1.0462  Tot=              2.6615
                          Isotropic Fermi Contact Couplings
        Atom                 a.u.       MegaHertz       Gauss      10(-4) cm-1
     1  C(13)              0.00472       5.30833       1.89414       1.77067
     2  C(13)             -0.05001     -56.22149     -20.06123     -18.75347
     3  C(13)              0.21823     245.33327      87.54101      81.83437
     4  H(1)              -0.02414    -107.90628     -38.50364     -35.99366
     5  H(1)              -0.02474    -110.58321     -39.45884     -36.88659
     6  O(17)              0.06481     -39.28472     -14.01776     -13.10397
     7  H(1)               0.00702      31.36746      11.19269      10.46306
     8  H(1)              -0.00174      -7.78748      -2.77877      -2.59762

 Normal termination of Gaussian 16 at Tue Apr  8 22:39:41 2025.
