 Gaussian 16, Revision C.01,

 ----------------------------------------------------------------------
 #t hf aug-cc-pvdz symm=none int=(grid=ultrafine) guess=(read,tcheck) s
 table=opt
 ----------------------------------------------------------------------
 -----
 title
 -----
 Symbolic Z-matrix:
 Charge =  0 Multiplicity = 2

 SCF Done:  E(UHF) =  -237.389635904     A.U. after   21 cycles
 Normal termination of Gaussian 16 at Wed Apr  9 00:30:42 2025.
 Gaussian 16:  ES64L-G16RevC.01  3-Jul-2019

 ----------------------------------------------------------------------
 #t hf aug-cc-pvdz iop(5/13=1,5/36=2,99/5=2) pseudo=read geom=check gue
 ss=(read,tcheck) scf=(maxcycle=1)
 ----------------------------------------------------------------------
 -----
 title
 -----
 Structure from the checkpoint file:  "BDE49_nonexpt_38_mol2.chk"
 Charge =  0 Multiplicity = 2

                         Standard orientation:
 ---------------------------------------------------------------------
 Center     Atomic      Atomic             Coordinates (Angstroms)
 Number     Number       Type             X           Y           Z
 ---------------------------------------------------------------------
      1          5           0       -1.437863   -0.517284   -0.134859
      2          6           0       -0.059186    0.088167   -0.004518
      3          8           0        0.143905    1.267913    0.013465
      4          9           0        0.977429   -0.807859    0.014472
      5          1           0       -2.403664   -0.815148    0.463440
 ---------------------------------------------------------------------

 SCF Done:  E(UHF) =  -237.469537751     A.U. after    2 cycles

 The electronic state is 2-A.
 Alpha  occ. eigenvalues --  -26.15710 -20.62086 -11.42840  -7.70507  -1.69478
 Alpha  occ. eigenvalues --   -1.41802  -0.94212  -0.83168  -0.77055  -0.76223
 Alpha  occ. eigenvalues --   -0.69682  -0.63345  -0.62022  -0.52787  -0.38459
 Alpha virt. eigenvalues --    0.01241   0.04352   0.04822   0.05286   0.07149
 Alpha virt. eigenvalues --    0.08735   0.12307   0.13599   0.14086   0.15168
 Alpha virt. eigenvalues --    0.17570   0.22059   0.22448   0.23677   0.25460

  Beta  occ. eigenvalues --  -26.15794 -20.60775 -11.43397  -7.68753  -1.69736
  Beta  occ. eigenvalues --   -1.39159  -0.93210  -0.82035  -0.77327  -0.75182
  Beta  occ. eigenvalues --   -0.67390  -0.62206  -0.54168  -0.51291
  Beta virt. eigenvalues --    0.02229   0.02638   0.04543   0.05289   0.06337
  Beta virt. eigenvalues --    0.08178   0.09450   0.12513   0.13747   0.14945
  Beta virt. eigenvalues --    0.17713   0.19681   0.22784   0.23357   0.24427

 Mulliken charges and spin densities:
               1          2
     1  B   -0.241478   0.939687
     2  C    0.688640  -0.197804
     3  O   -0.408055   0.294995
     4  F   -0.385446  -0.001604
     5  H    0.346339  -0.035274
 Sum of Mulliken charges =  -0.00000   1.00000

 Dipole moment (field-independent basis, Debye):
    X=             -2.7420    Y=             -1.7577    Z=              0.2686  Tot=              3.2681
                          Isotropic Fermi Contact Couplings
        Atom                 a.u.       MegaHertz       Gauss      10(-4) cm-1
     1  B(11)              0.21384     306.72664     109.44769     102.31299
     2  C(13)             -0.06545     -73.57980     -26.25510     -24.54358
     3  O(17)              0.10777     -65.32872     -23.31091     -21.79131
     4  F(19)             -0.01805     -75.93782     -27.09650     -25.33013
     5  H(1)              -0.01228     -54.90046     -19.58985     -18.31282
 --------------------------------------------------------
       Center         ----  Spin Dipole Couplings  ----
                      3XX-RR        3YY-RR        3ZZ-RR

 Normal termination of Gaussian 16 at Wed Apr  9 00:30:43 2025.
