 Gaussian 16, Revision C.01,

 ----------------------------------------------------------------------
 #t hf aug-cc-pvdz symm=none int=(grid=ultrafine) guess=(read,tcheck) s
 table=opt
 ----------------------------------------------------------------------
 -----
 title
 -----
 Symbolic Z-matrix:
 Charge =  0 Multiplicity = 2

 SCF Done:  E(UHF) =  -262.605529622     A.U. after   15 cycles
 Normal termination of Gaussian 16 at Wed Apr  9 00:28:40 2025.
 Gaussian 16:  ES64L-G16RevC.01  3-Jul-2019

 ----------------------------------------------------------------------
 #t hf aug-cc-pvdz iop(5/13=1,5/36=2,99/5=2) pseudo=read geom=check gue
 ss=(read,tcheck) scf=(maxcycle=1)
 ----------------------------------------------------------------------
 -----
 title
 -----
 Structure from the checkpoint file:  "BDE49_nonexpt_357_mol2.chk"
 Charge =  0 Multiplicity = 2

                         Standard orientation:
 ---------------------------------------------------------------------
 Center     Atomic      Atomic             Coordinates (Angstroms)
 Number     Number       Type             X           Y           Z
 ---------------------------------------------------------------------
      1          9           0       -1.589934   -0.359277   -0.000002
      2          5           0       -0.803181    0.684463    0.000002
      3          6           0        0.764110    0.619940    0.000002
      4          9           0        1.270467   -0.689160   -0.000002
      5          1           0        1.153225    1.146986    0.880580
      6          1           0        1.153225    1.146992   -0.880571
 ---------------------------------------------------------------------

 SCF Done:  E(UHF) =  -262.704426308     A.U. after    2 cycles

 The electronic state is 2-A.
 Alpha  occ. eigenvalues --  -26.15635 -26.11307 -11.32665  -7.71863  -1.70098
 Alpha  occ. eigenvalues --   -1.64224  -0.99298  -0.86478  -0.79386  -0.76157
 Alpha  occ. eigenvalues --   -0.74336  -0.73936  -0.73221  -0.56754  -0.56680
 Alpha  occ. eigenvalues --   -0.38106
 Alpha virt. eigenvalues --    0.03372   0.04152   0.05464   0.05881   0.06924
 Alpha virt. eigenvalues --    0.09919   0.10935   0.11631   0.14959   0.16190
 Alpha virt. eigenvalues --    0.17410   0.21455   0.24362   0.24366   0.26509

  Beta  occ. eigenvalues --  -26.15307 -26.11101 -11.32332  -7.69962  -1.69158
  Beta  occ. eigenvalues --   -1.63563  -0.98062  -0.85446  -0.76718  -0.76147
  Beta  occ. eigenvalues --   -0.74224  -0.72584  -0.71968  -0.56579  -0.53842
  Beta virt. eigenvalues --    0.02442   0.04476   0.05061   0.05775   0.07465
  Beta virt. eigenvalues --    0.07803   0.10820   0.13396   0.13498   0.16726
  Beta virt. eigenvalues --    0.16780   0.17526   0.22525   0.25074   0.25815

 Mulliken charges and spin densities:
               1          2
     1  F   -0.304941  -0.027098
     2  B    0.404251   1.007995
     3  C    0.611977   0.035163
     4  F   -0.463255   0.023505
     5  H   -0.124014  -0.019783
     6  H   -0.124017  -0.019783
 Sum of Mulliken charges =  -0.00000   1.00000

 Dipole moment (field-independent basis, Debye):
    X=              0.3707    Y=              2.5802    Z=              0.0000  Tot=              2.6067
                          Isotropic Fermi Contact Couplings
        Atom                 a.u.       MegaHertz       Gauss      10(-4) cm-1
     1  F(19)              0.06650     279.79849      99.83906      93.33073
     2  B(11)              0.33959     487.09472     173.80751     162.47731
     3  C(13)              0.11270     126.69943      45.20951      42.26238
     4  F(19)              0.03224     135.65437      48.40485      45.24943
     5  H(1)              -0.00227     -10.16353      -3.62660      -3.39019
     6  H(1)              -0.00227     -10.16350      -3.62659      -3.39018
 --------------------------------------------------------
       Center         ----  Spin Dipole Couplings  ----

 Normal termination of Gaussian 16 at Wed Apr  9 00:28:42 2025.
