 Gaussian 16, Revision C.01,

 ----------------------------------------------------------------------
 #t hf aug-cc-pvdz symm=none int=(grid=ultrafine) guess=(read,tcheck) s
 table=(opt,rrhf)
 ----------------------------------------------------------------------
 -----
 title
 -----
 Symbolic Z-matrix:
 Charge =  0 Multiplicity = 1

 SCF Done:  E(RHF) =  -384.932986791     A.U. after   13 cycles
 Normal termination of Gaussian 16 at Wed Apr  9 00:46:05 2025.
 Gaussian 16:  ES64L-G16RevC.01  3-Jul-2019

 ----------------------------------------------------------------------
 #t hf aug-cc-pvdz iop(5/13=1,5/36=2,99/5=2) pseudo=read geom=check gue
 ss=(read,tcheck) scf=(maxcycle=1)
 ----------------------------------------------------------------------
 -----
 title
 -----
 Structure from the checkpoint file:  "BDE49_nonexpt_85_mol1.chk"
 Charge =  0 Multiplicity = 1

                         Standard orientation:
 ---------------------------------------------------------------------
 Center     Atomic      Atomic             Coordinates (Angstroms)
 Number     Number       Type             X           Y           Z
 ---------------------------------------------------------------------
      1          5           0       -0.447337    1.120010    0.722874
      2          5           0        0.447337    1.120019   -0.722859
      3          8           0        1.615496    0.387029   -0.907885
      4          6           0        2.084371   -0.418407   -0.006369
      5          7           0        2.532184   -1.141777    0.774943
      6          8           0       -1.615491    0.387011    0.907894
      7          6           0       -2.084372   -0.418406    0.006363
      8          7           0       -2.532191   -1.141757   -0.774962
      9          1           0        0.184842    1.806596   -1.657277
     10          1           0       -0.184823    1.806549    1.657314
 ---------------------------------------------------------------------

 SCF Done:  E(RHF) =  -385.060434646     A.U. after    2 cycles

 The electronic state is 1-A.
 Alpha  occ. eigenvalues --  -20.70625 -20.70625 -15.66550 -15.66550 -11.37981
 Alpha  occ. eigenvalues --  -11.37981  -7.71312  -7.71243  -1.47523  -1.47232
 Alpha  occ. eigenvalues --   -1.21700  -1.21690  -0.93564  -0.92771  -0.78552
 Alpha  occ. eigenvalues --   -0.74965  -0.71512  -0.71122  -0.67703  -0.61121
 Alpha  occ. eigenvalues --   -0.57778  -0.57540  -0.50554  -0.48859  -0.48026
 Alpha  occ. eigenvalues --   -0.47853  -0.47850
 Alpha virt. eigenvalues --    0.01988   0.02645   0.02913   0.03643   0.05672
 Alpha virt. eigenvalues --    0.05779   0.07031   0.07569   0.07663   0.09324
 Alpha virt. eigenvalues --    0.09982   0.11801   0.12359   0.13042   0.13090

 Mulliken charges:
               1
     1  B    0.195714
     2  B    0.195711
     3  O   -0.304302
     4  C   -0.012154
     5  N   -0.083000
     6  O   -0.304301
     7  C   -0.012157
     8  N   -0.082998
     9  H    0.203743
    10  H    0.203744
 Sum of Mulliken charges =  -0.00000

 Dipole moment (field-independent basis, Debye):
    X=             -0.0000    Y=              4.5707    Z=              0.0000  Tot=              4.5707

 Test job not archived.
 1\1\GINC-SE073\SP\RHF\Aug-CC-pVDZ\C2H2B2N2O2\OHZDE\09-Apr-2025\0\\#t h
 f aug-cc-pvdz iop(5/13=1,5/36=2,99/5=2) pseudo=read geom=check guess=(
 read,tcheck) scf=(maxcycle=1)\\title\\0,1\B,0,-0.447337,1.12001,0.7228
 74\B,0,0.447337,1.120019,-0.722859\O,0,1.615496,0.387029,-0.907885\C,0
 ,2.084371,-0.418407,-0.006369\N,0,2.532184,-1.141777,0.774943\O,0,-1.6
 15491,0.387011,0.907894\C,0,-2.084372,-0.418406,0.006363\N,0,-2.532191
 ,-1.141757,-0.774962\H,0,0.184842,1.806596,-1.657277\H,0,-0.184823,1.8
 06549,1.657314\\Version=ES64L-G16RevC.01\State=1-A\HF=-385.0604346\RMS

 Normal termination of Gaussian 16 at Wed Apr  9 00:46:09 2025.
