 Gaussian 16, Revision C.01,

 ----------------------------------------------------------------------
 #t hf aug-cc-pvdz symm=none int=(grid=ultrafine) guess=(read,tcheck) s
 table=opt
 ----------------------------------------------------------------------
 -----
 title
 -----
 Symbolic Z-matrix:
 Charge =  0 Multiplicity = 2

 SCF Done:  E(UHF) =  -576.576651731     A.U. after   17 cycles

 1\1\GINC-SE036\Stability\UHF\Aug-CC-pVDZ\C3H6Cl1\OHZDE\08-Apr-2025\0\\
 #t hf aug-cc-pvdz symm=none int=(grid=ultrafine) guess=(read,tcheck) s
 table=opt\\title\\0,2\C,0,-2.035068,-0.551174,0.133379\C,0,-1.114368,0
 .49143,-0.394153\H,0,-2.038496,-0.576536,1.226951\H,0,-1.731768,-1.552
 489,-0.208836\H,0,-3.059226,-0.39631,-0.217301\C,0,0.098551,0.886731,0
 .301457\H,0,-1.232827,0.813773,-1.423746\H,0,0.022852,0.847752,1.38579
 6\H,0,0.517421,1.83149,-0.032551\Cl,0,1.519256,-0.3488,-0.057318\\Vers
 ion=ES64L-G16RevC.01\HF=-576.5766517\S2=0.774457\S2-1=0.\S2A=0.750418\

 Normal termination of Gaussian 16 at Tue Apr  8 22:42:35 2025.
 Gaussian 16:  ES64L-G16RevC.01  3-Jul-2019

 ----------------------------------------------------------------------
 #t hf aug-cc-pvdz iop(5/13=1,5/36=2,99/5=2) pseudo=read geom=check gue
 ss=(read,tcheck) scf=(maxcycle=1)
 ----------------------------------------------------------------------
 -----
 title
 -----
 Structure from the checkpoint file:  "BDE49_expt_146_mol2.chk"
 Charge =  0 Multiplicity = 2

                         Standard orientation:
 ---------------------------------------------------------------------
 Center     Atomic      Atomic             Coordinates (Angstroms)
 Number     Number       Type             X           Y           Z
 ---------------------------------------------------------------------
      1          6           0       -2.035068   -0.551174    0.133379
      2          6           0       -1.114368    0.491430   -0.394153
      3          1           0       -2.038496   -0.576536    1.226951
      4          1           0       -1.731768   -1.552489   -0.208836
      5          1           0       -3.059226   -0.396310   -0.217301
      6          6           0        0.098551    0.886731    0.301457
      7          1           0       -1.232827    0.813773   -1.423746
      8          1           0        0.022852    0.847752    1.385796
      9          1           0        0.517421    1.831490   -0.032551
     10         17           0        1.519256   -0.348800   -0.057318
 ---------------------------------------------------------------------

 SCF Done:  E(UHF) =  -576.631814143     A.U. after    2 cycles

 The electronic state is 2-A.
 Alpha  occ. eigenvalues -- -103.63744 -11.31157 -11.26782 -11.24259 -10.66956
 Alpha  occ. eigenvalues --   -8.33008  -8.32327  -8.32315  -1.14810  -1.06557
 Alpha  occ. eigenvalues --   -0.94247  -0.80826  -0.67007  -0.62086  -0.60205
 Alpha  occ. eigenvalues --   -0.54867  -0.54144  -0.52653  -0.44632  -0.44160
 Alpha  occ. eigenvalues --   -0.35915
 Alpha virt. eigenvalues --    0.03302   0.04550   0.04678   0.06109   0.06867
 Alpha virt. eigenvalues --    0.07466   0.09446   0.11674   0.13111   0.14438
 Alpha virt. eigenvalues --    0.14775   0.15329   0.16291   0.16770   0.17321

  Beta  occ. eigenvalues -- -103.63489 -11.31595 -11.24565 -11.24402 -10.66682
  Beta  occ. eigenvalues --   -8.32191  -8.32161  -8.31989  -1.12837  -1.02598
  Beta  occ. eigenvalues --   -0.93990  -0.77235  -0.66303  -0.60791  -0.56632
  Beta  occ. eigenvalues --   -0.54274  -0.52572  -0.51125  -0.43932  -0.43684
  Beta virt. eigenvalues --    0.03310   0.04563   0.04708   0.05503   0.06531
  Beta virt. eigenvalues --    0.06951   0.07481   0.10996   0.12308   0.13465
  Beta virt. eigenvalues --    0.14580   0.14840   0.15440   0.16538   0.16956

 Mulliken charges and spin densities:
               1          2
     1  C    0.219422  -0.206958
     2  C    0.362564   1.368263
     3  H   -0.079894   0.008137
     4  H    0.048508   0.046072
     5  H   -0.037277   0.010212
     6  C    0.049916  -0.315771
     7  H   -0.321432  -0.087936
     8  H   -0.008629   0.007020
     9  H   -0.018703   0.008880
    10  Cl  -0.214476   0.162081
 Sum of Mulliken charges =  -0.00000   1.00000

 Dipole moment (field-independent basis, Debye):
    X=             -2.4834    Y=              1.3877    Z=              0.3275  Tot=              2.8636
                          Isotropic Fermi Contact Couplings
        Atom                 a.u.       MegaHertz       Gauss      10(-4) cm-1
     1  C(13)             -0.05742     -64.54608     -23.03165     -21.53026
     2  C(13)              0.21553     242.29132      86.45557      80.81968
     3  H(1)               0.00558      24.94919       8.90249       8.32216
     4  H(1)               0.02556     114.26027      40.77091      38.11312
     5  H(1)               0.00851      38.05815      13.58010      12.69483
     6  C(13)             -0.05255     -59.07346     -21.07888     -19.70478
     7  H(1)              -0.02299    -102.75464     -36.66541     -34.27526
     8  H(1)               0.00566      25.29409       9.02556       8.43720

 Normal termination of Gaussian 16 at Tue Apr  8 22:42:40 2025.
