 Gaussian 16, Revision C.01,

 ----------------------------------------------------------------------
 #t hf aug-cc-pvdz symm=none int=(grid=ultrafine) guess=(read,tcheck) s
 table=(opt,rrhf)
 ----------------------------------------------------------------------
 -----
 title
 -----
 Symbolic Z-matrix:
 Charge =  0 Multiplicity = 1

 SCF Done:  E(RHF) =  -385.366238743     A.U. after   11 cycles
 Normal termination of Gaussian 16 at Tue Apr  8 23:59:22 2025.
 Gaussian 16:  ES64L-G16RevC.01  3-Jul-2019

 ----------------------------------------------------------------------
 #t hf aug-cc-pvdz iop(5/13=1,5/36=2,99/5=2) pseudo=read geom=check gue
 ss=(read,tcheck) scf=(maxcycle=1)
 ----------------------------------------------------------------------
 -----
 title
 -----
 Structure from the checkpoint file:  "BDE49_nonexpt_2135_mol1.chk"
 Charge =  0 Multiplicity = 1

                         Standard orientation:
 ---------------------------------------------------------------------
 Center     Atomic      Atomic             Coordinates (Angstroms)
 Number     Number       Type             X           Y           Z
 ---------------------------------------------------------------------
      1          7           0        1.409263   -0.559259   -0.061248
      2         14           0        0.064039    0.522658    0.029229
      3          1           0        1.505036   -1.307160    0.611518
      4          1           0        2.317379   -0.200127   -0.319335
      5          6           0       -1.532533   -0.455449   -0.039768
      6          1           0       -1.606796   -1.018978   -0.973136
      7          1           0       -2.396372    0.212269    0.031124
      8          1           0       -1.597265   -1.164850    0.791361
      9          1           0        0.191988    1.432669   -1.134927
     10          1           0        0.019847    1.376474    1.251532
 ---------------------------------------------------------------------

 SCF Done:  E(RHF) =  -385.428910677     A.U. after    2 cycles

 The electronic state is 1-A.
 Alpha  occ. eigenvalues --  -69.06597 -15.59661 -11.21189  -6.81590  -3.92479
 Alpha  occ. eigenvalues --   -3.92393  -3.92342  -1.09564  -0.93494  -0.68430
 Alpha  occ. eigenvalues --   -0.64974  -0.56985  -0.55803  -0.52317  -0.47114
 Alpha  occ. eigenvalues --   -0.45236  -0.39005
 Alpha virt. eigenvalues --    0.03274   0.04554   0.04898   0.05482   0.07311
 Alpha virt. eigenvalues --    0.07488   0.08348   0.08660   0.09893   0.10859
 Alpha virt. eigenvalues --    0.14561   0.16322   0.16465   0.17252   0.18000

 Mulliken charges:
               1
     1  N   -0.502848
     2  Si   1.154293
     3  H   -0.018368
     4  H   -0.042574
     5  C    0.261691
     6  H   -0.195598
     7  H   -0.246380
     8  H   -0.180867
     9  H   -0.097915
    10  H   -0.131433
 Sum of Mulliken charges =  -0.00000

 Dipole moment (field-independent basis, Debye):
    X=              0.5324    Y=             -0.6053    Z=              0.5840  Tot=              0.9954

 Test job not archived.
 1\1\GINC-SE455\SP\RHF\Aug-CC-pVDZ\C1H7N1Si1\OHZDE\08-Apr-2025\0\\#t hf
  aug-cc-pvdz iop(5/13=1,5/36=2,99/5=2) pseudo=read geom=check guess=(r
 ead,tcheck) scf=(maxcycle=1)\\title\\0,1\N,0,1.409263,-0.559259,-0.061
 248\Si,0,0.064039,0.522658,0.029229\H,0,1.505036,-1.30716,0.611518\H,0
 ,2.317379,-0.200127,-0.319335\C,0,-1.532533,-0.455449,-0.039768\H,0,-1
 .606796,-1.018978,-0.973136\H,0,-2.396372,0.212269,0.031124\H,0,-1.597
 265,-1.16485,0.791361\H,0,0.191988,1.432669,-1.134927\H,0,0.019847,1.3
 76474,1.251532\\Version=ES64L-G16RevC.01\State=1-A\HF=-385.4289107\RMS

 Normal termination of Gaussian 16 at Tue Apr  8 23:59:25 2025.
