 Gaussian 16, Revision C.01,

 ----------------------------------------------------------------------
 #t hf aug-cc-pvdz symm=none int=(grid=ultrafine) guess=(read,tcheck) s
 table=opt
 ----------------------------------------------------------------------
 -----
 title
 -----
 Symbolic Z-matrix:
 Charge =  0 Multiplicity = 2

 SCF Done:  E(UHF) =  -795.639428306     A.U. after   18 cycles
 Normal termination of Gaussian 16 at Tue Apr  8 22:45:26 2025.
 Gaussian 16:  ES64L-G16RevC.01  3-Jul-2019

 ----------------------------------------------------------------------
 #t hf aug-cc-pvdz iop(5/13=1,5/36=2,99/5=2) pseudo=read geom=check gue
 ss=(read,tcheck) scf=(maxcycle=1)
 ----------------------------------------------------------------------
 -----
 title
 -----
 Structure from the checkpoint file:  "BDE49_expt_1590_mol2.chk"
 Charge =  0 Multiplicity = 2

                         Standard orientation:
 ---------------------------------------------------------------------
 Center     Atomic      Atomic             Coordinates (Angstroms)
 Number     Number       Type             X           Y           Z
 ---------------------------------------------------------------------
      1         16           0        0.040244    1.039253    0.000000
      2         16           0        0.040244   -0.962096    0.000000
      3          1           0       -1.287804   -1.234525    0.000000
 ---------------------------------------------------------------------

 SCF Done:  E(UHF) =  -795.680455821     A.U. after    2 cycles

 The electronic state is 2-A".
 Alpha  occ. eigenvalues --  -93.59525 -93.58043  -8.89141  -8.87727  -6.23145
 Alpha  occ. eigenvalues --   -6.23055  -6.22881  -6.22788  -6.21420  -6.20884
 Alpha  occ. eigenvalues --   -1.06880  -0.86757  -0.58915  -0.51629  -0.49953
 Alpha  occ. eigenvalues --   -0.39022  -0.37622
 Alpha virt. eigenvalues --    0.03821   0.05906   0.11176   0.11475   0.11954
 Alpha virt. eigenvalues --    0.14031   0.14170   0.14988   0.17933   0.18984
 Alpha virt. eigenvalues --    0.25670   0.26914   0.29791   0.32922   0.37193

  Beta  occ. eigenvalues --  -93.59323 -93.57211  -8.88913  -8.86802  -6.23067
  Beta  occ. eigenvalues --   -6.22818  -6.22112  -6.20949  -6.20368  -6.19151
  Beta  occ. eigenvalues --   -1.03714  -0.80131  -0.57946  -0.48388  -0.41528
  Beta  occ. eigenvalues --   -0.37101
  Beta virt. eigenvalues --    0.00427   0.03875   0.06334   0.11246   0.11979
  Beta virt. eigenvalues --    0.11995   0.14149   0.15942   0.16024   0.18222
  Beta virt. eigenvalues --    0.19274   0.26063   0.27828   0.29972   0.36565

 Mulliken charges and spin densities:
               1          2
     1  S   -0.046887   0.902743
     2  S   -0.092144   0.139100
     3  H    0.139031  -0.041843
 Sum of Mulliken charges =  -0.00000   1.00000

 Dipole moment (field-independent basis, Debye):
    X=             -0.9473    Y=             -0.7586    Z=              0.0000  Tot=              1.2137
                          Isotropic Fermi Contact Couplings
        Atom                 a.u.       MegaHertz       Gauss      10(-4) cm-1
     1  S(33)              0.19837      68.13523      24.31234      22.72747
     2  S(33)              0.09043      31.06156      11.08354      10.36102
     3  H(1)              -0.00425     -19.00420      -6.78117      -6.33912
 --------------------------------------------------------
       Center         ----  Spin Dipole Couplings  ----
                      3XX-RR        3YY-RR        3ZZ-RR
 --------------------------------------------------------
     1   Atom       -2.067885     -2.161506      4.229391

 Normal termination of Gaussian 16 at Tue Apr  8 22:45:27 2025.
