 Gaussian 16, Revision C.01,

 ----------------------------------------------------------------------
 #t hf aug-cc-pvdz symm=none int=(grid=ultrafine) guess=(read,tcheck) s
 table=(opt,rrhf)
 ----------------------------------------------------------------------
 -----
 title
 -----
 Symbolic Z-matrix:
 Charge =  0 Multiplicity = 1

 SCF Done:  E(RHF) =  -1036.12709002     A.U. after   12 cycles

 1\1\GINC-SE453\Stability\RHF\Aug-CC-pVDZ\C3H6Cl2\OHZDE\08-Apr-2025\0\\
 #t hf aug-cc-pvdz symm=none int=(grid=ultrafine) guess=(read,tcheck) s
 table=(opt,rrhf)\\title\\0,1\C,0,0.,1.275143,1.179331\H,0,0.889645,1.2
 98653,1.812619\H,0,-0.889645,1.298653,1.812619\H,0,0.,2.154653,0.53681
 6\C,0,0.,0.,0.353318\C,0,0.,-1.275143,1.179331\Cl,0,1.475915,0.,-0.723
 411\H,0,0.,-2.154653,0.536816\H,0,0.889645,-1.298653,1.812619\Cl,0,-1.
 475915,0.,-0.723411\H,0,-0.889645,-1.298653,1.812619\\Version=ES64L-G1
 6RevC.01\HF=-1036.12709\RMSD=5.311e-09\Dipole=0.,0.,1.0458297\Quadrupo

 Normal termination of Gaussian 16 at Tue Apr  8 22:29:22 2025.
 Gaussian 16:  ES64L-G16RevC.01  3-Jul-2019

 ----------------------------------------------------------------------
 #t hf aug-cc-pvdz iop(5/13=1,5/36=2,99/5=2) pseudo=read geom=check gue
 ss=(read,tcheck) scf=(maxcycle=1)
 ----------------------------------------------------------------------
 -----
 title
 -----
 Structure from the checkpoint file:  "BDE49_expt_1030_mol1.chk"
 Charge =  0 Multiplicity = 1

                         Standard orientation:
 ---------------------------------------------------------------------
 Center     Atomic      Atomic             Coordinates (Angstroms)
 Number     Number       Type             X           Y           Z
 ---------------------------------------------------------------------
      1          6           0       -0.000000    1.275143    1.179331
      2          1           0        0.889645    1.298653    1.812619
      3          1           0       -0.889645    1.298653    1.812619
      4          1           0        0.000000    2.154653    0.536816
      5          6           0       -0.000000    0.000000    0.353318
      6          6           0       -0.000000   -1.275143    1.179331
      7         17           0        1.475915   -0.000000   -0.723411
      8          1           0       -0.000000   -2.154653    0.536816
      9          1           0        0.889645   -1.298653    1.812619
     10         17           0       -1.475915    0.000000   -0.723411
     11          1           0       -0.889645   -1.298653    1.812619
 ---------------------------------------------------------------------

 SCF Done:  E(RHF) =  -1036.19993813     A.U. after    2 cycles

 The electronic state is 1-A1.
 Alpha  occ. eigenvalues -- -103.66149-103.66148 -11.38865 -11.25951 -11.25939
 Alpha  occ. eigenvalues --  -10.69440 -10.69435  -8.35149  -8.35144  -8.34852
 Alpha  occ. eigenvalues --   -8.34852  -8.34850  -8.34849  -1.21453  -1.12713
 Alpha  occ. eigenvalues --   -1.03617  -0.97325  -0.78619  -0.65378  -0.64500
 Alpha  occ. eigenvalues --   -0.62890  -0.58099  -0.54735  -0.53962  -0.51985
 Alpha  occ. eigenvalues --   -0.47356  -0.46763  -0.45355  -0.44618
 Alpha virt. eigenvalues --    0.03349   0.04755   0.05438   0.06081   0.07339
 Alpha virt. eigenvalues --    0.07455   0.08762   0.09893   0.11156   0.13982
 Alpha virt. eigenvalues --    0.14257   0.15226   0.15646   0.17015   0.17142

 Mulliken charges:
               1
     1  C    0.864298
     2  H    0.014349
     3  H    0.014349
     4  H   -0.037888
     5  C   -1.426618
     6  C    0.864298
     7  Cl  -0.141798
     8  H   -0.037888
     9  H    0.014349
    10  Cl  -0.141798
    11  H    0.014349
 Sum of Mulliken charges =  -0.00000

 Dipole moment (field-independent basis, Debye):
    X=              0.0000    Y=              0.0000    Z=              2.7458  Tot=              2.7458

 Test job not archived.
 1\1\GINC-SE453\SP\RHF\Aug-CC-pVDZ\C3H6Cl2\OHZDE\08-Apr-2025\0\\#t hf a
 ug-cc-pvdz iop(5/13=1,5/36=2,99/5=2) pseudo=read geom=check guess=(rea
 d,tcheck) scf=(maxcycle=1)\\title\\0,1\C,0,0.,1.275143,1.179331\H,0,0.
 889645,1.298653,1.812619\H,0,-0.889645,1.298653,1.812619\H,0,0.,2.1546
 53,0.536816\C,0,0.,0.,0.353318\C,0,0.,-1.275143,1.179331\Cl,0,1.475915
 ,0.,-0.723411\H,0,0.,-2.154653,0.536816\H,0,0.889645,-1.298653,1.81261
 9\Cl,0,-1.475915,0.,-0.723411\H,0,-0.889645,-1.298653,1.812619\\Versio
 n=ES64L-G16RevC.01\State=1-A1\HF=-1036.1999381\RMSD=5.575e-03\Dipole=0

 Normal termination of Gaussian 16 at Tue Apr  8 22:29:25 2025.
