 Gaussian 16, Revision C.01,

 ----------------------------------------------------------------------
 #t hf aug-cc-pvdz symm=none int=(grid=ultrafine) guess=(read,tcheck) s
 table=(opt,rrhf)
 ----------------------------------------------------------------------
 -----
 title
 -----
 Symbolic Z-matrix:
 Charge =  0 Multiplicity = 1

 SCF Done:  E(RHF) =  -1197.38549647     A.U. after   13 cycles
 Normal termination of Gaussian 16 at Tue Apr  8 22:57:22 2025.
 Gaussian 16:  ES64L-G16RevC.01  3-Jul-2019

 ----------------------------------------------------------------------
 #t hf aug-cc-pvdz iop(5/13=1,5/36=2,99/5=2) pseudo=read geom=check gue
 ss=(read,tcheck) scf=(maxcycle=1)
 ----------------------------------------------------------------------
 -----
 title
 -----
 Structure from the checkpoint file:  "BDE49_expt_1875_mol1.chk"
 Charge =  0 Multiplicity = 1

                         Standard orientation:
 ---------------------------------------------------------------------
 Center     Atomic      Atomic             Coordinates (Angstroms)
 Number     Number       Type             X           Y           Z
 ---------------------------------------------------------------------
      1          8           0       -0.628839   -1.317474   -0.335077
      2          8           0        0.628871   -1.317712    0.334166
      3          6           0        1.458144   -0.390792   -0.255698
      4          6           0       -1.458258   -0.391283    0.255727
      5          8           0       -1.193131    0.372073    1.116066
      6          8           0        1.192951    0.373251   -1.115408
      7          6           0        3.710007    0.237380    0.069748
      8          6           0       -3.709963    0.237467   -0.069700
      9          9           0       -4.062460    0.088690    1.203730
     10          9           0       -4.709474   -0.145591   -0.849393
     11          9           0       -3.434405    1.516716   -0.300458
     12          9           0        4.062156    0.089771   -1.203915
     13          9           0        4.709672   -0.146539    0.848819
     14          9           0        3.434664    1.516442    0.301793
     15          8           0       -2.634210   -0.581937   -0.397167
     16          8           0        2.634238   -0.582205    0.396714
 ---------------------------------------------------------------------

 SCF Done:  E(RHF) =  -1197.80514741     A.U. after    2 cycles

 The electronic state is 1-A.
 Alpha  occ. eigenvalues --  -26.20868 -26.20868 -26.20724 -26.20723 -26.20706
 Alpha  occ. eigenvalues --  -26.20705 -20.75342 -20.75310 -20.71154 -20.71154
 Alpha  occ. eigenvalues --  -20.63588 -20.63587 -11.62859 -11.62859 -11.52424
 Alpha  occ. eigenvalues --  -11.52424  -1.81574  -1.81563  -1.73983  -1.73979
 Alpha  occ. eigenvalues --   -1.73780  -1.73779  -1.58572  -1.52696  -1.48767
 Alpha  occ. eigenvalues --   -1.42923  -1.42648  -1.32777  -1.09602  -1.07484
 Alpha  occ. eigenvalues --   -0.99569  -0.96655  -0.94049  -0.93864  -0.93853
 Alpha  occ. eigenvalues --   -0.93201  -0.88230  -0.85245  -0.83147  -0.83147
 Alpha  occ. eigenvalues --   -0.82045  -0.81909  -0.80165  -0.79906  -0.78724
 Alpha  occ. eigenvalues --   -0.77339  -0.77326  -0.76948  -0.76943  -0.75976
 Alpha  occ. eigenvalues --   -0.75756  -0.75747  -0.74003  -0.72987  -0.69425
 Alpha  occ. eigenvalues --   -0.68812  -0.68677  -0.62559  -0.61940  -0.58301
 Alpha  occ. eigenvalues --   -0.57363  -0.56679  -0.56027
 Alpha virt. eigenvalues --    0.06618   0.06811   0.07608   0.07979   0.08492
 Alpha virt. eigenvalues --    0.08554   0.09082   0.10524   0.11317   0.11336
 Alpha virt. eigenvalues --    0.13314   0.13494   0.14033   0.14788   0.14894

 Mulliken charges:
               1
     1  O   -0.354223
     2  O   -0.354265
     3  C    0.780958
     4  C    0.780951
     5  O   -0.244379
     6  O   -0.244376
     7  C    1.126104
     8  C    1.126058
     9  F   -0.273156
    10  F   -0.239836
    11  F   -0.270088
    12  F   -0.273154
    13  F   -0.239840
    14  F   -0.270100
    15  O   -0.525332
    16  O   -0.525322
 Sum of Mulliken charges =  -0.00000

 Dipole moment (field-independent basis, Debye):
    X=             -0.0001    Y=             -1.5745    Z=             -0.0003  Tot=              1.5745

 Test job not archived.
 1\1\GINC-SE039\SP\RHF\Aug-CC-pVDZ\C4F6O6\OHZDE\08-Apr-2025\0\\#t hf au
 g-cc-pvdz iop(5/13=1,5/36=2,99/5=2) pseudo=read geom=check guess=(read
 ,tcheck) scf=(maxcycle=1)\\title\\0,1\O,0,-0.628839,-1.317474,-0.33507
 7\O,0,0.628871,-1.317712,0.334166\C,0,1.458144,-0.390792,-0.255698\C,0
 ,-1.458258,-0.391283,0.255727\O,0,-1.193131,0.372073,1.116066\O,0,1.19
 2951,0.373251,-1.115408\C,0,3.710007,0.23738,0.069748\C,0,-3.709963,0.
 237467,-0.0697\F,0,-4.06246,0.08869,1.20373\F,0,-4.709474,-0.145591,-0
 .849393\F,0,-3.434405,1.516716,-0.300458\F,0,4.062156,0.089771,-1.2039

 Normal termination of Gaussian 16 at Tue Apr  8 22:57:36 2025.
