 Gaussian 16, Revision C.01,

 ----------------------------------------------------------------------
 #t hf aug-cc-pvdz symm=none int=(grid=ultrafine) guess=(read,tcheck) s
 table=(opt,rrhf)
 ----------------------------------------------------------------------
 -----
 title
 -----
 Symbolic Z-matrix:
 Charge =  0 Multiplicity = 1

 SCF Done:  E(RHF) =  -305.926018833     A.U. after   13 cycles
 Normal termination of Gaussian 16 at Tue Apr  8 22:34:39 2025.
 Gaussian 16:  ES64L-G16RevC.01  3-Jul-2019

 ----------------------------------------------------------------------
 #t hf aug-cc-pvdz iop(5/13=1,5/36=2,99/5=2) pseudo=read geom=check gue
 ss=(read,tcheck) scf=(maxcycle=1)
 ----------------------------------------------------------------------
 -----
 title
 -----
 Structure from the checkpoint file:  "BDE49_expt_1138_mol1.chk"
 Charge =  0 Multiplicity = 1

                         Standard orientation:
 ---------------------------------------------------------------------
 Center     Atomic      Atomic             Coordinates (Angstroms)
 Number     Number       Type             X           Y           Z
 ---------------------------------------------------------------------
      1          6           0       -1.013060   -0.102960    0.105697
      2          8           0       -1.694186   -1.076356   -0.090995
      3          8           0       -1.254318    1.084122   -0.509762
      4          6           0        0.174177   -0.021487    1.038349
      5          6           0        1.466904    0.472939    0.364852
      6          1           0        0.308126   -1.016526    1.466153
      7          1           0       -0.095702    0.661487    1.851103
      8          1           0       -2.025137    0.943278   -1.079493
      9          6           0        1.967466   -0.452230   -0.747445
     10          1           0        2.235031    0.565846    1.139139
     11          1           0        1.298133    1.477095   -0.032980
     12          1           0        2.150052   -1.463248   -0.371147
     13          1           0        2.902690   -0.079366   -1.172800
     14          1           0        1.241912   -0.528269   -1.562630
 ---------------------------------------------------------------------

 SCF Done:  E(RHF) =  -306.024460015     A.U. after    2 cycles

 The electronic state is 1-A.
 Alpha  occ. eigenvalues --  -20.62527 -20.56570 -11.39910 -11.25639 -11.24729
 Alpha  occ. eigenvalues --  -11.23218  -1.42516  -1.32690  -1.07797  -0.97276
 Alpha  occ. eigenvalues --   -0.85850  -0.80909  -0.71934  -0.68845  -0.66086
 Alpha  occ. eigenvalues --   -0.62872  -0.60323  -0.58881  -0.56003  -0.51480
 Alpha  occ. eigenvalues --   -0.51126  -0.49352  -0.48840  -0.46011
 Alpha virt. eigenvalues --    0.03280   0.04238   0.04530   0.05168   0.06468
 Alpha virt. eigenvalues --    0.07290   0.07628   0.07803   0.10189   0.12835
 Alpha virt. eigenvalues --    0.13679   0.14099   0.14464   0.15146   0.15484

 Mulliken charges:
               1
     1  C    0.551117
     2  O   -0.492276
     3  O   -0.537429
     4  C    0.151217
     5  C    0.188481
     6  H   -0.059639
     7  H    0.054326
     8  H    0.176756
     9  C    0.354840
    10  H   -0.070935
    11  H   -0.094910
    12  H   -0.056734
    13  H   -0.072518
    14  H   -0.092295
 Sum of Mulliken charges =  -0.00000

 Dipole moment (field-independent basis, Debye):
    X=              1.4839    Y=              1.6631    Z=              0.3029  Tot=              2.2494

 Test job not archived.
 1\1\GINC-SE072\SP\RHF\Aug-CC-pVDZ\C4H8O2\OHZDE\08-Apr-2025\0\\#t hf au
 g-cc-pvdz iop(5/13=1,5/36=2,99/5=2) pseudo=read geom=check guess=(read
 ,tcheck) scf=(maxcycle=1)\\title\\0,1\C,0,-1.01306,-0.10296,0.105697\O
 ,0,-1.694186,-1.076356,-0.090995\O,0,-1.254318,1.084122,-0.509762\C,0,
 0.174177,-0.021487,1.038349\C,0,1.466904,0.472939,0.364852\H,0,0.30812
 6,-1.016526,1.466153\H,0,-0.095702,0.661487,1.851103\H,0,-2.025137,0.9
 43278,-1.079493\C,0,1.967466,-0.45223,-0.747445\H,0,2.235031,0.565846,
 1.139139\H,0,1.298133,1.477095,-0.03298\H,0,2.150052,-1.463248,-0.3711

 Normal termination of Gaussian 16 at Tue Apr  8 22:34:43 2025.
