 Gaussian 16, Revision C.01,

 ----------------------------------------------------------------------
 #t hf aug-cc-pvdz symm=none int=(grid=ultrafine) guess=(read,tcheck) s
 table=opt
 ----------------------------------------------------------------------
 -----
 title
 -----
 Symbolic Z-matrix:
 Charge =  0 Multiplicity = 2

 SCF Done:  E(UHF) =  -1228.02020250     A.U. after   17 cycles
 Normal termination of Gaussian 16 at Wed Apr  9 00:50:48 2025.
 Gaussian 16:  ES64L-G16RevC.01  3-Jul-2019

 ----------------------------------------------------------------------
 #t hf aug-cc-pvdz iop(5/13=1,5/36=2,99/5=2) pseudo=read geom=check gue
 ss=(read,tcheck) scf=(maxcycle=1)
 ----------------------------------------------------------------------
 -----
 title
 -----
 Structure from the checkpoint file:  "BDE49_nonexpt_930_mol2.chk"
 Charge =  0 Multiplicity = 2

                         Standard orientation:
 ---------------------------------------------------------------------
 Center     Atomic      Atomic             Coordinates (Angstroms)
 Number     Number       Type             X           Y           Z
 ---------------------------------------------------------------------
      1          7           0       -0.049933   -0.839916   -0.000007
      2         16           0        1.520743   -0.228515   -0.000006
      3         16           0       -1.405311    0.141307    0.000005
      4          8           0        2.066618   -0.679066    1.255654
      5          8           0        2.066611   -0.679041   -1.255678
      6          8           0       -1.444986    0.862564    1.252653
      7          8           0       -1.444991    0.862589   -1.252629
      8          6           0        1.477712    1.557179    0.000012
      9          1           0        2.524392    1.863113    0.000013
     10          1           0        0.970893    1.895799    0.901291
     11          1           0        0.970889    1.895818   -0.901257
     12          6           0       -2.671892   -1.110022   -0.000005
     13          1           0       -2.560729   -1.711211    0.900278
     14          1           0       -2.560732   -1.711193   -0.900300
     15          1           0       -3.623026   -0.576901    0.000002
 ---------------------------------------------------------------------

 SCF Done:  E(UHF) =  -1228.31339651     A.U. after    2 cycles

 The electronic state is 2-A.
 Alpha  occ. eigenvalues --  -93.84733 -93.83464 -20.60533 -20.60532 -20.58813
 Alpha  occ. eigenvalues --  -20.58812 -15.76102 -11.31910 -11.30488  -9.11188
 Alpha  occ. eigenvalues --   -9.09871  -6.45800  -6.45700  -6.45499  -6.44480
 Alpha  occ. eigenvalues --   -6.44366  -6.44213  -1.48490  -1.46120  -1.35575
 Alpha  occ. eigenvalues --   -1.34074  -1.25860  -1.07968  -1.04914  -0.92300
 Alpha  occ. eigenvalues --   -0.81809  -0.76585  -0.73903  -0.73586  -0.70434
 Alpha  occ. eigenvalues --   -0.70150  -0.66473  -0.64737  -0.64255  -0.63641
 Alpha  occ. eigenvalues --   -0.62714  -0.61754  -0.56327  -0.55815  -0.54587
 Alpha  occ. eigenvalues --   -0.54387  -0.52726  -0.51704  -0.51198  -0.50170
 Alpha virt. eigenvalues --    0.02666   0.03914   0.04959   0.05139   0.06511
 Alpha virt. eigenvalues --    0.06790   0.08412   0.10178   0.11401   0.12048
 Alpha virt. eigenvalues --    0.12606   0.12835   0.13431   0.14773   0.14905

  Beta  occ. eigenvalues --  -93.84797 -93.83525 -20.60310 -20.60309 -20.58586
  Beta  occ. eigenvalues --  -20.58585 -15.72869 -11.31935 -11.30516  -9.11270
  Beta  occ. eigenvalues --   -9.09949  -6.45890  -6.45867  -6.45565  -6.44563
  Beta  occ. eigenvalues --   -6.44554  -6.44258  -1.47530  -1.45693  -1.34947
  Beta  occ. eigenvalues --   -1.33456  -1.17232  -1.07820  -1.04208  -0.91594
  Beta  occ. eigenvalues --   -0.80778  -0.76026  -0.73387  -0.70736  -0.70328
  Beta  occ. eigenvalues --   -0.69147  -0.64983  -0.64233  -0.64093  -0.62959
  Beta  occ. eigenvalues --   -0.60232  -0.56694  -0.54538  -0.54369  -0.53417
  Beta  occ. eigenvalues --   -0.52841  -0.51614  -0.49885  -0.49061
  Beta virt. eigenvalues --   -0.00653   0.02683   0.03923   0.04964   0.05230
  Beta virt. eigenvalues --    0.06515   0.06793   0.08414   0.10191   0.11471
  Beta virt. eigenvalues --    0.12081   0.12704   0.13160   0.13445   0.14788

 Mulliken charges and spin densities:
               1          2
     1  N   -1.347844   1.116256
     2  S    2.599346  -0.115300
     3  S    2.500908  -0.120669
     4  O   -0.989909   0.030948
     5  O   -0.989909   0.030948
     6  O   -1.027071   0.034497
     7  O   -1.027071   0.034497
     8  C   -0.090734  -0.008592
     9  H    0.016445  -0.001298
    10  H    0.045975   0.002593
    11  H    0.045973   0.002593
    12  C    0.138871  -0.006982
    13  H    0.029570   0.001283
    14  H    0.029569   0.001283
    15  H    0.065882  -0.002060
 Sum of Mulliken charges =  -0.00000   1.00000

 Dipole moment (field-independent basis, Debye):
    X=             -3.7654    Y=              0.2935    Z=              0.0000  Tot=              3.7768
                          Isotropic Fermi Contact Couplings
        Atom                 a.u.       MegaHertz       Gauss      10(-4) cm-1
     1  N(14)              0.28152      90.95948      32.45660      30.34082
     2  S(33)             -0.05489     -18.85489      -6.72789      -6.28932
     3  S(33)             -0.06292     -21.61204      -7.71171      -7.20900
     4  O(17)              0.01905     -11.55022      -4.12141      -3.85274
     5  O(17)              0.01905     -11.55022      -4.12141      -3.85274
     6  O(17)              0.01666     -10.09858      -3.60342      -3.36852
     7  O(17)              0.01666     -10.09855      -3.60341      -3.36851
     8  C(13)             -0.00509      -5.72106      -2.04142      -1.90834

 Normal termination of Gaussian 16 at Wed Apr  9 00:50:56 2025.
