 Gaussian 16, Revision C.01,

 ----------------------------------------------------------------------
 #t hf aug-cc-pvdz symm=none int=(grid=ultrafine) guess=(read,tcheck) s
 table=(opt,rrhf)
 ----------------------------------------------------------------------
 -----
 title
 -----
 Symbolic Z-matrix:
 Charge =  0 Multiplicity = 1

 SCF Done:  E(RHF) =  -686.940947772     A.U. after   16 cycles
 Normal termination of Gaussian 16 at Tue Apr  8 23:08:05 2025.
 Gaussian 16:  ES64L-G16RevC.01  3-Jul-2019

 ----------------------------------------------------------------------
 #t hf aug-cc-pvdz iop(5/13=1,5/36=2,99/5=2) pseudo=read geom=check gue
 ss=(read,tcheck) scf=(maxcycle=1)
 ----------------------------------------------------------------------
 -----
 title
 -----
 Structure from the checkpoint file:  "BDE49_expt_242_mol1.chk"
 Charge =  0 Multiplicity = 1

                         Standard orientation:
 ---------------------------------------------------------------------
 Center     Atomic      Atomic             Coordinates (Angstroms)
 Number     Number       Type             X           Y           Z
 ---------------------------------------------------------------------
      1          6           0       -2.899623   -1.762219    0.468211
      2          6           0       -1.938394   -0.811148    0.799009
      3          6           0       -3.783726   -1.528252   -0.582554
      4          6           0       -3.709800   -0.336776   -1.306429
      5          6           0       -2.756560    0.615873   -0.976132
      6          6           0       -1.860435    0.389215    0.079140
      7          1           0       -1.240916   -1.011303    1.601044
      8          1           0       -2.955431   -2.688302    1.028719
      9          1           0       -4.528878   -2.273042   -0.839261
     10          1           0       -4.396985   -0.154739   -2.124786
     11          1           0       -2.684980    1.550888   -1.517785
     12          6           0       -0.884006    1.470587    0.403985
     13          8           0       -0.915684    2.549289   -0.156788
     14          6           0        0.155061    1.265084    1.522776
     15          8           0        0.875463    0.040689    1.482711
     16          1           0       -0.370030    1.255706    2.482130
     17          1           0        0.824490    2.128630    1.504898
     18          6           0        1.879126   -0.109080    0.555545
     19          6           0        2.190379    0.825628   -0.433826
     20          6           0        2.611801   -1.296296    0.655179
     21          6           0        3.650987   -1.545126   -0.230456
     22          6           0        3.973976   -0.617045   -1.222498
     23          6           0        3.240832    0.560010   -1.315175
     24          1           0        1.628653    1.744010   -0.537731
     25          1           0        3.477074    1.288692   -2.082502
     26          1           0        2.351576   -2.002012    1.434756
     27          1           0        4.213675   -2.468030   -0.144800
     28          1           0        4.785805   -0.813041   -1.912721
 ---------------------------------------------------------------------

 SCF Done:  E(RHF) =  -687.143848197     A.U. after    2 cycles

 The electronic state is 1-A.
 Alpha  occ. eigenvalues --  -20.61277 -20.57308 -11.35622 -11.31714 -11.31675
 Alpha  occ. eigenvalues --  -11.26423 -11.26393 -11.26078 -11.25901 -11.25509
 Alpha  occ. eigenvalues --  -11.25418 -11.25159 -11.25153 -11.24349 -11.24201
 Alpha  occ. eigenvalues --  -11.23939  -1.38308  -1.36135  -1.15850  -1.14330
 Alpha  occ. eigenvalues --   -1.04995  -1.02689  -1.02254  -1.01493  -0.97035
 Alpha  occ. eigenvalues --   -0.87624  -0.84458  -0.83888  -0.82511  -0.77599
 Alpha  occ. eigenvalues --   -0.74821  -0.70823  -0.68826  -0.68541  -0.67770
 Alpha  occ. eigenvalues --   -0.66179  -0.63854  -0.63146  -0.61863  -0.60815
 Alpha  occ. eigenvalues --   -0.60236  -0.59238  -0.57527  -0.56481  -0.54162
 Alpha  occ. eigenvalues --   -0.52749  -0.52029  -0.50878  -0.50617  -0.49610
 Alpha  occ. eigenvalues --   -0.49101  -0.43635  -0.35558  -0.35155  -0.34640
 Alpha  occ. eigenvalues --   -0.32386
 Alpha virt. eigenvalues --    0.02978   0.03636   0.03780   0.04121   0.04787
 Alpha virt. eigenvalues --    0.05191   0.05505   0.05979   0.06393   0.06970
 Alpha virt. eigenvalues --    0.07546   0.08649   0.09532   0.09780   0.10166

 Mulliken charges:
               1
     1  C    0.327677
     2  C    0.402814
     3  C    0.615705
     4  C    0.542828
     5  C    0.072264
     6  C    1.288364
     7  H   -0.753570
     8  H   -0.455883
     9  H   -0.443123
    10  H   -0.434131
    11  H   -0.629682
    12  C   -0.500341
    13  O   -0.558236
    14  C    1.198410
    15  O   -0.628548
    16  H   -0.114360
    17  H   -0.133769
    18  C    0.441138
    19  C    0.293150
    20  C    0.401075
    21  C    0.742317
    22  C    0.509460
    23  C    0.653559
    24  H   -0.828685
    25  H   -0.459541
    26  H   -0.648947
    27  H   -0.441526
    28  H   -0.458420
 Sum of Mulliken charges =  -0.00000

 Dipole moment (field-independent basis, Debye):
    X=             -0.6714    Y=             -2.3036    Z=              0.5271  Tot=              2.4567

 Test job not archived.
 1\1\GINC-SE367\SP\RHF\Aug-CC-pVDZ\C14H12O2\OHZDE\08-Apr-2025\0\\#t hf
 aug-cc-pvdz iop(5/13=1,5/36=2,99/5=2) pseudo=read geom=check guess=(re
 ad,tcheck) scf=(maxcycle=1)\\title\\0,1\C,0,2.899623,-1.762219,-0.4682
 11\C,0,1.938394,-0.811148,-0.799009\C,0,3.783726,-1.528252,0.582554\C,
 0,3.7098,-0.336776,1.306429\C,0,2.75656,0.615873,0.976132\C,0,1.860435
 ,0.389215,-0.07914\H,0,1.240916,-1.011303,-1.601044\H,0,2.955431,-2.68
 8302,-1.028719\H,0,4.528878,-2.273042,0.839261\H,0,4.396985,-0.154739,
 2.124786\H,0,2.68498,1.550888,1.517785\C,0,0.884006,1.470587,-0.403985

 Normal termination of Gaussian 16 at Tue Apr  8 23:08:34 2025.
