 Gaussian 16, Revision C.01,

 ----------------------------------------------------------------------
 #t hf aug-cc-pvdz symm=none int=(grid=ultrafine) guess=(read,tcheck) s
 table=(opt,rrhf)
 ----------------------------------------------------------------------
 -----
 title
 -----
 Symbolic Z-matrix:
 Charge =  0 Multiplicity = 1

 SCF Done:  E(RHF) =  -1064.36253731     A.U. after   15 cycles
 Normal termination of Gaussian 16 at Wed Apr  9 00:17:11 2025.
 Gaussian 16:  ES64L-G16RevC.01  3-Jul-2019

 ----------------------------------------------------------------------
 #t hf aug-cc-pvdz iop(5/13=1,5/36=2,99/5=2) pseudo=read geom=check gue
 ss=(read,tcheck) scf=(maxcycle=1)
 ----------------------------------------------------------------------
 -----
 title
 -----
 Structure from the checkpoint file:  "BDE49_nonexpt_2584_mol1.chk"
 Charge =  0 Multiplicity = 1

                         Standard orientation:
 ---------------------------------------------------------------------
 Center     Atomic      Atomic             Coordinates (Angstroms)
 Number     Number       Type             X           Y           Z
 ---------------------------------------------------------------------
      1         17           0        2.237905    0.271006   -0.447620
      2         16           0        0.749352   -0.834147    0.533606
      3          6           0       -0.719596    0.067190    0.127558
      4          7           0       -1.633561   -0.719979   -0.307671
      5          8           0       -2.873889   -0.082816   -0.380376
      6          1           0       -3.435802   -0.768888   -0.756669
      7          6           0       -0.859125    1.524191    0.443316
      8          1           0        0.091620    2.040312    0.312637
      9          1           0       -1.174138    1.647194    1.484197
     10          1           0       -1.617330    1.974731   -0.196866
 ---------------------------------------------------------------------

 SCF Done:  E(RHF) =  -1064.46568360     A.U. after    2 cycles

 The electronic state is 1-A.
 Alpha  occ. eigenvalues -- -103.68420 -93.61129 -20.63581 -15.71964 -11.34165
 Alpha  occ. eigenvalues --  -11.26031 -10.71548  -8.90471  -8.37277  -8.36940
 Alpha  occ. eigenvalues --   -8.36904  -6.24562  -6.24300  -6.23865  -1.40665
 Alpha  occ. eigenvalues --   -1.19432  -1.15562  -1.00451  -0.94986  -0.76142
 Alpha  occ. eigenvalues --   -0.73079  -0.67122  -0.64704  -0.60669  -0.58643
 Alpha  occ. eigenvalues --   -0.56327  -0.53153  -0.51546  -0.48235  -0.45267
 Alpha  occ. eigenvalues --   -0.42921  -0.37040
 Alpha virt. eigenvalues --    0.03379   0.03692   0.04627   0.05910   0.06858
 Alpha virt. eigenvalues --    0.07997   0.10366   0.11494   0.12082   0.13114
 Alpha virt. eigenvalues --    0.13827   0.14548   0.15452   0.15883   0.16793

 Mulliken charges:
               1
     1  Cl  -0.302386
     2  S    0.422644
     3  C   -0.070271
     4  N   -0.169280
     5  O   -0.487857
     6  H    0.192951
     7  C    0.336029
     8  H   -0.005267
     9  H    0.070432
    10  H    0.013005
 Sum of Mulliken charges =  -0.00000

 Dipole moment (field-independent basis, Debye):
    X=             -1.8601    Y=              0.6411    Z=              0.3525  Tot=              1.9988

 Test job not archived.
 1\1\GINC-SE105\SP\RHF\Aug-CC-pVDZ\C2H4Cl1N1O1S1\OHZDE\09-Apr-2025\0\\#
 t hf aug-cc-pvdz iop(5/13=1,5/36=2,99/5=2) pseudo=read geom=check gues
 s=(read,tcheck) scf=(maxcycle=1)\\title\\0,1\Cl,0,2.237905,0.271006,-0
 .44762\S,0,0.749352,-0.834147,0.533606\C,0,-0.719596,0.06719,0.127558\
 N,0,-1.633561,-0.719979,-0.307671\O,0,-2.873889,-0.082816,-0.380376\H,
 0,-3.435802,-0.768888,-0.756669\C,0,-0.859125,1.524191,0.443316\H,0,0.
 09162,2.040312,0.312637\H,0,-1.174138,1.647194,1.484197\H,0,-1.61733,1
 .974731,-0.196866\\Version=ES64L-G16RevC.01\State=1-A\HF=-1064.4656836

 Normal termination of Gaussian 16 at Wed Apr  9 00:17:15 2025.
