 Gaussian 16, Revision C.01,

 ----------------------------------------------------------------------
 #t hf aug-cc-pvdz symm=none int=(grid=ultrafine) guess=(read,tcheck) s
 table=(opt,rrhf)
 ----------------------------------------------------------------------
 -----
 title
 -----
 Symbolic Z-matrix:
 Charge =  0 Multiplicity = 1

 SCF Done:  E(RHF) =  -586.889781241     A.U. after   18 cycles
 Normal termination of Gaussian 16 at Tue Apr  8 22:41:52 2025.
 Gaussian 16:  ES64L-G16RevC.01  3-Jul-2019

 ----------------------------------------------------------------------
 #t hf aug-cc-pvdz iop(5/13=1,5/36=2,99/5=2) pseudo=read geom=check gue
 ss=(read,tcheck) scf=(maxcycle=1)
 ----------------------------------------------------------------------
 -----
 title
 -----
 Structure from the checkpoint file:  "BDE49_expt_1259_mol1.chk"
 Charge =  0 Multiplicity = 1

                         Standard orientation:
 ---------------------------------------------------------------------
 Center     Atomic      Atomic             Coordinates (Angstroms)
 Number     Number       Type             X           Y           Z
 ---------------------------------------------------------------------
      1          6           0       -0.901959    2.181659    0.070356
      2          6           0        0.423118    2.539780    0.074646
      3          6           0       -1.295944    0.820702    0.022993
      4          6           0       -0.302645   -0.217873    0.000958
      5          6           0        1.060121    0.214300    0.012471
      6          6           0        1.413989    1.543241    0.034646
      7          1           0        0.715400    3.582068    0.108954
      8          7           0        2.189611   -0.743551    0.010211
      9          8           0        3.248513   -0.363542   -0.472331
     10          8           0        2.017463   -1.849453    0.509408
     11          1           0       -1.674906    2.942112    0.098769
     12          6           0       -2.670684    0.469593   -0.009765
     13          6           0       -3.062633   -0.842778   -0.073065
     14          6           0       -2.087463   -1.862448   -0.108158
     15          6           0       -0.745727   -1.566375   -0.069072
     16          1           0       -2.399626   -2.899049   -0.163931
     17          1           0       -0.018254   -2.361948   -0.080897
     18          1           0       -3.407193    1.265476    0.011069
     19          1           0       -4.115211   -1.099714   -0.099604
     20          1           0        2.463665    1.801064    0.021488
 ---------------------------------------------------------------------

 SCF Done:  E(RHF) =  -587.059938872     A.U. after    2 cycles

 The electronic state is 1-A.
 Alpha  occ. eigenvalues --  -20.61740 -20.61667 -15.92027 -11.32275 -11.29227
 Alpha  occ. eigenvalues --  -11.28710 -11.28246 -11.27999 -11.27201 -11.26737
 Alpha  occ. eigenvalues --  -11.26482 -11.26346 -11.25919  -1.54933  -1.36403
 Alpha  occ. eigenvalues --   -1.20038  -1.13644  -1.09295  -1.03291  -1.02410
 Alpha  occ. eigenvalues --   -0.94937  -0.87325  -0.86895  -0.82959  -0.77117
 Alpha  occ. eigenvalues --   -0.74848  -0.73462  -0.72507  -0.70489  -0.69924
 Alpha  occ. eigenvalues --   -0.64414  -0.62422  -0.61990  -0.59434  -0.57110
 Alpha  occ. eigenvalues --   -0.56366  -0.53562  -0.52166  -0.51610  -0.49371
 Alpha  occ. eigenvalues --   -0.47740  -0.47195  -0.41627  -0.34851  -0.32076
 Alpha virt. eigenvalues --    0.02459   0.02644   0.03143   0.04111   0.05026
 Alpha virt. eigenvalues --    0.05683   0.07142   0.07734   0.07853   0.08341
 Alpha virt. eigenvalues --    0.09311   0.10216   0.11392   0.11573   0.12224

 Mulliken charges:
               1
     1  C    0.752221
     2  C    0.408562
     3  C    0.204416
     4  C    0.673424
     5  C    0.056447
     6  C    0.756387
     7  H   -0.434475
     8  N    0.051234
     9  O   -0.549268
    10  O   -0.567977
    11  H   -0.588781
    12  C    0.527382
    13  C    0.620088
    14  C    0.268279
    15  C    0.414058
    16  H   -0.450375
    17  H   -0.606984
    18  H   -0.585927
    19  H   -0.438855
    20  H   -0.509857
 Sum of Mulliken charges =  -0.00000

 Dipole moment (field-independent basis, Debye):
    X=             -4.4220    Y=              3.1019    Z=             -0.0213  Tot=              5.4015

 Test job not archived.
 1\1\GINC-SE049\SP\RHF\Aug-CC-pVDZ\C10H7N1O2\OHZDE\08-Apr-2025\0\\#t hf
  aug-cc-pvdz iop(5/13=1,5/36=2,99/5=2) pseudo=read geom=check guess=(r
 ead,tcheck) scf=(maxcycle=1)\\title\\0,1\C,0,-0.901959,2.181659,0.0703
 56\C,0,0.423118,2.53978,0.074646\C,0,-1.295944,0.820702,0.022993\C,0,-
 0.302645,-0.217873,0.000958\C,0,1.060121,0.2143,0.012471\C,0,1.413989,
 1.543241,0.034646\H,0,0.715401,3.582068,0.108954\N,0,2.189611,-0.74355
 1,0.010211\O,0,3.248513,-0.363542,-0.472331\O,0,2.017463,-1.849453,0.5
 09408\H,0,-1.674906,2.942112,0.098769\C,0,-2.670684,0.469593,-0.009765

 Normal termination of Gaussian 16 at Tue Apr  8 22:42:07 2025.
