 Gaussian 16, Revision C.01,

 ----------------------------------------------------------------------
 #t hf aug-cc-pvdz symm=none int=(grid=ultrafine) guess=(read,tcheck) s
 table=opt
 ----------------------------------------------------------------------
 -----
 title
 -----
 Symbolic Z-matrix:
 Charge =  0 Multiplicity = 2

 SCF Done:  E(UHF) =  -479.331048319     A.U. after   21 cycles
 Normal termination of Gaussian 16 at Tue Apr  8 23:56:27 2025.
 Gaussian 16:  ES64L-G16RevC.01  3-Jul-2019

 ----------------------------------------------------------------------
 #t hf aug-cc-pvdz iop(5/13=1,5/36=2,99/5=2) pseudo=read geom=check gue
 ss=(read,tcheck) scf=(maxcycle=1)
 ----------------------------------------------------------------------
 -----
 title
 -----
 Structure from the checkpoint file:  "BDE49_nonexpt_2043_mol2.chk"
 Charge =  0 Multiplicity = 2

                         Standard orientation:
 ---------------------------------------------------------------------
 Center     Atomic      Atomic             Coordinates (Angstroms)
 Number     Number       Type             X           Y           Z
 ---------------------------------------------------------------------
      1         14           0        1.560496    0.076495    0.222143
      2          8           0        0.095701   -0.531762   -0.359658
      3          8           0       -0.919556    0.517735   -0.276579
      4          6           0       -2.080208   -0.104177    0.248863
      5          1           0       -2.832923    0.687657    0.247347
      6          1           0       -1.915087   -0.462085    1.270055
      7          1           0       -2.403614   -0.928287   -0.393027
      8          1           0        2.496996   -1.000401   -0.193417
      9          1           0        1.879772    1.369462   -0.444233
 ---------------------------------------------------------------------

 SCF Done:  E(UHF) =  -479.421277572     A.U. after    2 cycles

 The electronic state is 2-A.
 Alpha  occ. eigenvalues --  -69.10915 -20.64708 -20.62595 -11.29663  -6.85796
 Alpha  occ. eigenvalues --   -3.97019  -3.96322  -3.96186  -1.41684  -1.19885
 Alpha  occ. eigenvalues --   -0.92216  -0.74896  -0.68860  -0.67307  -0.63960
 Alpha  occ. eigenvalues --   -0.58007  -0.54390  -0.52949  -0.49009  -0.47046
 Alpha  occ. eigenvalues --   -0.33960
 Alpha virt. eigenvalues --    0.03657   0.04798   0.05394   0.06096   0.06836
 Alpha virt. eigenvalues --    0.07361   0.07846   0.09389   0.11790   0.13960
 Alpha virt. eigenvalues --    0.14729   0.15443   0.16287   0.17032   0.18657

  Beta  occ. eigenvalues --  -69.10372 -20.64811 -20.62124 -11.29657  -6.84942
  Beta  occ. eigenvalues --   -3.95989  -3.95850  -3.95003  -1.41325  -1.19237
  Beta  occ. eigenvalues --   -0.92177  -0.73168  -0.68378  -0.67065  -0.61682
  Beta  occ. eigenvalues --   -0.56380  -0.53770  -0.52212  -0.47687  -0.46013
  Beta virt. eigenvalues --    0.02954   0.04004   0.05105   0.05462   0.06459
  Beta virt. eigenvalues --    0.07106   0.07491   0.09540   0.09994   0.12141
  Beta virt. eigenvalues --    0.15022   0.15120   0.16310   0.16365   0.17401

 Mulliken charges and spin densities:
               1          2
     1  Si   0.651381   0.862085
     2  O   -0.646369   0.039144
     3  O   -0.420744  -0.025248
     4  C    0.828505   0.010218
     5  H   -0.170656  -0.000852
     6  H   -0.101675  -0.001549
     7  H   -0.097906   0.000841
     8  H   -0.005650   0.046484
     9  H   -0.036885   0.068877
 Sum of Mulliken charges =  -0.00000   1.00000

 Dipole moment (field-independent basis, Debye):
    X=             -0.6656    Y=             -0.0582    Z=              1.2685  Tot=              1.4337
                          Isotropic Fermi Contact Couplings
        Atom                 a.u.       MegaHertz       Gauss      10(-4) cm-1
     1  Si(29)             0.64046    -569.19546    -203.10309    -189.86317
     2  O(17)              0.04621     -28.01454      -9.99628      -9.34464
     3  O(17)              0.00113      -0.68379      -0.24399      -0.22809
     4  C(13)              0.00056       0.63060       0.22501       0.21035
     5  H(1)              -0.00054      -2.40587      -0.85847      -0.80251
     6  H(1)              -0.00006      -0.28397      -0.10133      -0.09472
     7  H(1)              -0.00009      -0.41020      -0.14637      -0.13683
     8  H(1)               0.01309      58.51220      20.87861      19.51757

 Normal termination of Gaussian 16 at Tue Apr  8 23:56:30 2025.
