 Gaussian 16, Revision C.01,

 ----------------------------------------------------------------------
 #t hf aug-cc-pvdz symm=none int=(grid=ultrafine) guess=(read,tcheck) s
 table=opt
 ----------------------------------------------------------------------
 -----
 title
 -----
 Symbolic Z-matrix:
 Charge =  0 Multiplicity = 2

 SCF Done:  E(UHF) =  -450.097014302     A.U. after   15 cycles
 Normal termination of Gaussian 16 at Tue Apr  8 22:49:36 2025.
 Gaussian 16:  ES64L-G16RevC.01  3-Jul-2019

 ----------------------------------------------------------------------
 #t hf aug-cc-pvdz iop(5/13=1,5/36=2,99/5=2) pseudo=read geom=check gue
 ss=(read,tcheck) scf=(maxcycle=1)
 ----------------------------------------------------------------------
 -----
 title
 -----
 Structure from the checkpoint file:  "BDE49_expt_174_mol2.chk"
 Charge =  0 Multiplicity = 2

                         Standard orientation:
 ---------------------------------------------------------------------
 Center     Atomic      Atomic             Coordinates (Angstroms)
 Number     Number       Type             X           Y           Z
 ---------------------------------------------------------------------
      1          6           0       -1.975444   -0.011230    0.050585
      2          8           0       -0.799463   -0.720229   -0.097474
      3          1           0       -2.844165   -0.639557   -0.056091
      4          1           0       -1.965478    1.043288   -0.185731
      5          6           0        0.362382   -0.027799   -0.002009
      6          9           0        0.429996    0.974666   -0.900498
      7          9           0        1.361110   -0.873118   -0.231815
      8          9           0        0.529308    0.519815    1.213442
 ---------------------------------------------------------------------

 SCF Done:  E(UHF) =  -450.259829528     A.U. after    2 cycles

 The electronic state is 2-A.
 Alpha  occ. eigenvalues --  -26.18157 -26.18022 -26.17869 -20.65821 -11.59189
 Alpha  occ. eigenvalues --  -11.33073  -1.78376  -1.71094  -1.70595  -1.44335
 Alpha  occ. eigenvalues --   -1.06324  -0.97497  -0.90823  -0.90538  -0.85375
 Alpha  occ. eigenvalues --   -0.79275  -0.79159  -0.74679  -0.74283  -0.73154
 Alpha  occ. eigenvalues --   -0.72151  -0.68087  -0.66245  -0.58296  -0.39710
 Alpha virt. eigenvalues --    0.03478   0.05203   0.07974   0.09061   0.10515
 Alpha virt. eigenvalues --    0.11008   0.12239   0.15857   0.16588   0.18841
 Alpha virt. eigenvalues --    0.20765   0.22655   0.26290   0.26968   0.27232

  Beta  occ. eigenvalues --  -26.18169 -26.18017 -26.17855 -20.65424 -11.59197
  Beta  occ. eigenvalues --  -11.30465  -1.78356  -1.71108  -1.70561  -1.42976
  Beta  occ. eigenvalues --   -1.04775  -0.94617  -0.90508  -0.90339  -0.82617
  Beta  occ. eigenvalues --   -0.79136  -0.78890  -0.74556  -0.74178  -0.73128
  Beta  occ. eigenvalues --   -0.71317  -0.66949  -0.60487  -0.57227
  Beta virt. eigenvalues --    0.03603   0.05245   0.06606   0.08070   0.10488
  Beta virt. eigenvalues --    0.10646   0.11038   0.16133   0.16728   0.17191
  Beta virt. eigenvalues --    0.19442   0.21172   0.23039   0.26420   0.27304

 Mulliken charges and spin densities:
               1          2
     1  C    0.623978   1.197949
     2  O   -0.528427   0.002599
     3  H   -0.224754  -0.096382
     4  H   -0.091922  -0.098546
     5  C    1.035085  -0.008788
     6  F   -0.296196   0.003250
     7  F   -0.234115  -0.000833
     8  F   -0.283650   0.000751
 Sum of Mulliken charges =  -0.00000   1.00000

 Dipole moment (field-independent basis, Debye):
    X=             -2.2339    Y=              0.3718    Z=             -0.2450  Tot=              2.2779
                          Isotropic Fermi Contact Couplings
        Atom                 a.u.       MegaHertz       Gauss      10(-4) cm-1
     1  C(13)              0.26306     295.73522     105.52568      98.64665
     2  O(17)              0.03288     -19.92988      -7.11148      -6.64789
     3  H(1)              -0.02330    -104.14894     -37.16293     -34.74035
     4  H(1)              -0.02158     -96.48040     -34.42661     -32.18240
     5  C(13)             -0.00196      -2.19939      -0.78480      -0.73364
     6  F(19)             -0.00085      -3.57606      -1.27603      -1.19284
     7  F(19)             -0.00209      -8.77567      -3.13138      -2.92725
     8  F(19)             -0.00148      -6.22535      -2.22136      -2.07655

 Normal termination of Gaussian 16 at Tue Apr  8 22:49:39 2025.
