 Gaussian 16, Revision C.01,

 ----------------------------------------------------------------------
 #t hf aug-cc-pvdz symm=none int=(grid=ultrafine) guess=(read,tcheck) s
 table=opt
 ----------------------------------------------------------------------
 -----
 title
 -----
 Symbolic Z-matrix:
 Charge =  0 Multiplicity = 2

 SCF Done:  E(UHF) =  -779.942011999     A.U. after   20 cycles
 Normal termination of Gaussian 16 at Tue Apr  8 23:56:21 2025.
 Gaussian 16:  ES64L-G16RevC.01  3-Jul-2019

 ----------------------------------------------------------------------
 #t hf aug-cc-pvdz iop(5/13=1,5/36=2,99/5=2) pseudo=read geom=check gue
 ss=(read,tcheck) scf=(maxcycle=1)
 ----------------------------------------------------------------------
 -----
 title
 -----
 Structure from the checkpoint file:  "BDE49_nonexpt_2053_mol2.chk"
 Charge =  0 Multiplicity = 2

                         Standard orientation:
 ---------------------------------------------------------------------
 Center     Atomic      Atomic             Coordinates (Angstroms)
 Number     Number       Type             X           Y           Z
 ---------------------------------------------------------------------
      1         14           0        2.212980    0.000379   -0.123554
      2          7           0        0.515503   -0.001019    0.120193
      3          6           0       -0.677672   -0.000658    0.048458
      4         16           0       -2.254078    0.000310   -0.024074
      5          1           0        2.769774    1.228072    0.491999
      6          1           0        2.771273   -1.227248    0.490844
 ---------------------------------------------------------------------

 SCF Done:  E(UHF) =  -780.016175136     A.U. after    2 cycles

 The electronic state is 2-A.
 Alpha  occ. eigenvalues --  -93.54032 -69.13002 -15.66746 -11.39989  -8.83966
 Alpha  occ. eigenvalues --   -6.87965  -6.18248  -6.17674  -6.17566  -3.99243
 Alpha  occ. eigenvalues --   -3.98562  -3.98334  -1.24584  -1.03046  -0.83776
 Alpha  occ. eigenvalues --   -0.64025  -0.59569  -0.58614  -0.58044  -0.50796
 Alpha  occ. eigenvalues --   -0.40210  -0.36947  -0.33128
 Alpha virt. eigenvalues --    0.03495   0.04546   0.05313   0.05889   0.07708
 Alpha virt. eigenvalues --    0.08091   0.09690   0.10856   0.12498   0.13227
 Alpha virt. eigenvalues --    0.13364   0.13729   0.14349   0.15791   0.15990

  Beta  occ. eigenvalues --  -93.53970 -69.12427 -15.66926 -11.39804  -8.83897
  Beta  occ. eigenvalues --   -6.87073  -6.18232  -6.17507  -6.17410  -3.98183
  Beta  occ. eigenvalues --   -3.97952  -3.97126  -1.24353  -1.02940  -0.82208
  Beta  occ. eigenvalues --   -0.61618  -0.58796  -0.58510  -0.57042  -0.49715
  Beta  occ. eigenvalues --   -0.37314  -0.36927
  Beta virt. eigenvalues --    0.01047   0.03849   0.04742   0.05435   0.07381
  Beta virt. eigenvalues --    0.07815   0.08535   0.10832   0.10941   0.13135
  Beta virt. eigenvalues --    0.13448   0.14138   0.14193   0.15120   0.16084

 Mulliken charges and spin densities:
               1          2
     1  Si   0.625406   0.951710
     2  N   -0.303659  -0.148747
     3  C   -0.450219   0.061843
     4  S    0.212521   0.073585
     5  H   -0.042058   0.030831
     6  H   -0.041991   0.030777
 Sum of Mulliken charges =  -0.00000   1.00000

 Dipole moment (field-independent basis, Debye):
    X=              2.5093    Y=              0.0008    Z=             -0.1699  Tot=              2.5151
                          Isotropic Fermi Contact Couplings
        Atom                 a.u.       MegaHertz       Gauss      10(-4) cm-1
     1  Si(29)             0.63472    -564.09696    -201.28382    -188.16249
     2  N(14)             -0.00781      -2.52340      -0.90041      -0.84171
     3  C(13)              0.01517      17.05485       6.08560       5.68889
     4  S(33)              0.01958       6.72508       2.39968       2.24324
     5  H(1)               0.01002      44.77593      15.97717      14.93564
     6  H(1)               0.01001      44.74603      15.96649      14.92567
 --------------------------------------------------------
       Center         ----  Spin Dipole Couplings  ----

 1\1\GINC-SE073\SP\UHF\Aug-CC-pVDZ\C1H2N1S1Si1(2)\OHZDE\08-Apr-2025\0\\
 #t hf aug-cc-pvdz iop(5/13=1,5/36=2,99/5=2) pseudo=read geom=check gue
 ss=(read,tcheck) scf=(maxcycle=1)\\title\\0,2\Si,0,-2.21298,-0.000379,
 -0.123554\N,0,-0.515503,0.001019,0.120193\C,0,0.677672,0.000658,0.0484
 58\S,0,2.254078,-0.00031,-0.024074\H,0,-2.769774,-1.228072,0.491999\H,
 0,-2.771273,1.227248,0.490844\\Version=ES64L-G16RevC.01\State=2-A\HF=-
 780.0161751\S2=0.761432\S2-1=0.\S2A=0.750062\RMSD=8.197e-03\Dipole=-0.
 9872484,-0.0003304,-0.0668269\Quadrupole=0.956128,-0.4099136,-0.546214

 Normal termination of Gaussian 16 at Tue Apr  8 23:56:23 2025.
