 Gaussian 16, Revision C.01,

 ----------------------------------------------------------------------
 #t hf aug-cc-pvdz symm=none int=(grid=ultrafine) guess=(read,tcheck) s
 table=(opt,rrhf)
 ----------------------------------------------------------------------
 -----
 title
 -----
 Symbolic Z-matrix:
 Charge =  0 Multiplicity = 1

 SCF Done:  E(RHF) =  -711.520698769     A.U. after   12 cycles
 Normal termination of Gaussian 16 at Wed Apr  9 00:16:01 2025.
 Gaussian 16:  ES64L-G16RevC.01  3-Jul-2019

 ----------------------------------------------------------------------
 #t hf aug-cc-pvdz iop(5/13=1,5/36=2,99/5=2) pseudo=read geom=check gue
 ss=(read,tcheck) scf=(maxcycle=1)
 ----------------------------------------------------------------------
 -----
 title
 -----
 Structure from the checkpoint file:  "BDE49_nonexpt_254_mol1.chk"
 Charge =  0 Multiplicity = 1

                         Standard orientation:
 ---------------------------------------------------------------------
 Center     Atomic      Atomic             Coordinates (Angstroms)
 Number     Number       Type             X           Y           Z
 ---------------------------------------------------------------------
      1         17           0       -2.423957   -0.000000    0.062533
      2          7           0        0.076886   -1.222755   -0.068898
      3          7           0        0.076886    1.222755   -0.068898
      4          6           0        1.533369   -1.272475   -0.182411
      5          6           0        2.151063    0.000000    0.409351
      6          6           0        1.533369    1.272475   -0.182412
      7          5           0       -0.617934    0.000000   -0.035039
      8          1           0       -0.413363   -2.101429   -0.082631
      9          1           0       -0.413363    2.101429   -0.082631
     10          1           0        1.915785    2.144952    0.356520
     11          1           0        1.843640    1.382058   -1.231495
     12          1           0        3.230433    0.000000    0.232538
     13          1           0        1.991179    0.000000    1.492211
     14          1           0        1.843641   -1.382058   -1.231494
     15          1           0        1.915785   -2.144952    0.356520
 ---------------------------------------------------------------------

 SCF Done:  E(RHF) =  -711.615685280     A.U. after    2 cycles

 The electronic state is 1-A.
 Alpha  occ. eigenvalues -- -103.63005 -15.60802 -15.60801 -11.27493 -11.27488
 Alpha  occ. eigenvalues --  -11.24222 -10.66432  -8.32129  -8.31922  -8.31921
 Alpha  occ. eigenvalues --   -7.65704  -1.19328  -1.13199  -1.11689  -1.01488
 Alpha  occ. eigenvalues --   -0.89925  -0.81457  -0.73917  -0.67025  -0.62924
 Alpha  occ. eigenvalues --   -0.61982  -0.61511  -0.59504  -0.54946  -0.52600
 Alpha  occ. eigenvalues --   -0.50040  -0.48189  -0.47575  -0.44903  -0.40827
 Alpha  occ. eigenvalues --   -0.36051
 Alpha virt. eigenvalues --    0.02976   0.03886   0.04252   0.04618   0.06681
 Alpha virt. eigenvalues --    0.06698   0.07068   0.07203   0.07814   0.09156
 Alpha virt. eigenvalues --    0.09731   0.11672   0.13258   0.13579   0.14424

 Mulliken charges:
               1
     1  Cl  -0.458149
     2  N   -0.253995
     3  N   -0.253995
     4  C    0.772849
     5  C   -0.009615
     6  C    0.772849
     7  B    0.414856
     8  H   -0.126617
     9  H   -0.126617
    10  H   -0.164777
    11  H   -0.122804
    12  H   -0.058168
    13  H   -0.098236
    14  H   -0.122803
    15  H   -0.164778
 Sum of Mulliken charges =  -0.00000

 Dipole moment (field-independent basis, Debye):
    X=              3.2875    Y=             -0.0000    Z=             -0.2253  Tot=              3.2952

 Test job not archived.
 1\1\GINC-SE403\SP\RHF\Aug-CC-pVDZ\C3H8B1Cl1N2\OHZDE\09-Apr-2025\0\\#t
 hf aug-cc-pvdz iop(5/13=1,5/36=2,99/5=2) pseudo=read geom=check guess=
 (read,tcheck) scf=(maxcycle=1)\\title\\0,1\Cl,0,2.423957,0.,0.062533\N
 ,0,-0.076886,1.222755,-0.068898\N,0,-0.076886,-1.222755,-0.068898\C,0,
 -1.533369,1.272475,-0.182411\C,0,-2.151063,0.,0.409351\C,0,-1.533369,-
 1.272475,-0.182412\B,0,0.617934,0.,-0.035039\H,0,0.413363,2.101429,-0.
 082631\H,0,0.413363,-2.101429,-0.082631\H,0,-1.915785,-2.144952,0.3565
 2\H,0,-1.84364,-1.382058,-1.231495\H,0,-3.230433,0.,0.232538\H,0,-1.99

 Normal termination of Gaussian 16 at Wed Apr  9 00:16:07 2025.
