 Gaussian 16, Revision C.01,

 ----------------------------------------------------------------------
 #t hf aug-cc-pvdz symm=none int=(grid=ultrafine) guess=(read,tcheck) s
 table=(opt,rrhf)
 ----------------------------------------------------------------------
 -----
 title
 -----
 Symbolic Z-matrix:
 Charge =  0 Multiplicity = 1

 SCF Done:  E(RHF) =  -469.873856100     A.U. after   15 cycles
 Normal termination of Gaussian 16 at Wed Apr  9 00:33:30 2025.
 Gaussian 16:  ES64L-G16RevC.01  3-Jul-2019

 ----------------------------------------------------------------------
 #t hf aug-cc-pvdz iop(5/13=1,5/36=2,99/5=2) pseudo=read geom=check gue
 ss=(read,tcheck) scf=(maxcycle=1)
 ----------------------------------------------------------------------
 -----
 title
 -----
 Structure from the checkpoint file:  "BDE49_nonexpt_428_mol1.chk"
 Charge =  0 Multiplicity = 1

                         Standard orientation:
 ---------------------------------------------------------------------
 Center     Atomic      Atomic             Coordinates (Angstroms)
 Number     Number       Type             X           Y           Z
 ---------------------------------------------------------------------
      1          9           0        2.414091   -1.126211   -0.000103
      2          5           0        1.718106    0.005728    0.000140
      3          9           0        2.419943    1.135649   -0.000105
      4          6           0        0.176024    0.015064    0.000079
      5          6           0       -0.554478    1.212446    0.000053
      6          6           0       -0.558014   -1.181700    0.000053
      7          7           0       -1.890590   -1.249617    0.000007
      8          6           0       -1.941346    1.161497    0.000006
      9          6           0       -2.557177   -0.089731   -0.000016
     10          1           0       -0.035697    2.164737    0.000072
     11          1           0       -2.539993    2.064374   -0.000014
     12          1           0       -0.035997   -2.134389    0.000073
     13          1           0       -3.641075   -0.166442   -0.000053
 ---------------------------------------------------------------------

 SCF Done:  E(RHF) =  -470.033561950     A.U. after    2 cycles

 The electronic state is 1-A.
 Alpha  occ. eigenvalues --  -26.14100 -26.14023 -15.64458 -11.30899 -11.30778
 Alpha  occ. eigenvalues --  -11.29051 -11.26503 -11.24999  -7.74194  -1.69320
 Alpha  occ. eigenvalues --   -1.67077  -1.24732  -1.09390  -1.04596  -0.89289
 Alpha  occ. eigenvalues --   -0.87568  -0.86503  -0.81899  -0.78778  -0.77108
 Alpha  occ. eigenvalues --   -0.72915  -0.72447  -0.71957  -0.67752  -0.65526
 Alpha  occ. eigenvalues --   -0.60125  -0.59112  -0.55822  -0.52878  -0.42716
 Alpha  occ. eigenvalues --   -0.40256  -0.37055
 Alpha virt. eigenvalues --    0.02875   0.03966   0.04484   0.05045   0.05850
 Alpha virt. eigenvalues --    0.05909   0.06482   0.07746   0.08242   0.08485
 Alpha virt. eigenvalues --    0.10838   0.11951   0.12968   0.13020   0.14273

 Mulliken charges:
               1
     1  F   -0.495602
     2  B    0.997987
     3  F   -0.501020
     4  C    0.673037
     5  C   -0.289831
     6  C    0.523333
     7  N   -0.418546
     8  C    0.732519
     9  C    0.528837
    10  H   -0.539889
    11  H   -0.387894
    12  H   -0.488766
    13  H   -0.334166
 Sum of Mulliken charges =   0.00000

 Dipole moment (field-independent basis, Debye):
    X=             -1.7693    Y=              1.9415    Z=              0.0009  Tot=              2.6268

 Test job not archived.
 1\1\GINC-SE184\SP\RHF\Aug-CC-pVDZ\C5H4B1F2N1\OHZDE\09-Apr-2025\0\\#t h
 f aug-cc-pvdz iop(5/13=1,5/36=2,99/5=2) pseudo=read geom=check guess=(
 read,tcheck) scf=(maxcycle=1)\\title\\0,1\F,0,-2.414091,-1.126211,0.00
 0103\B,0,-1.718106,0.005728,-0.00014\F,0,-2.419943,1.135649,0.000105\C
 ,0,-0.176024,0.015064,-0.000079\C,0,0.554478,1.212446,-0.000053\C,0,0.
 558014,-1.1817,-0.000053\N,0,1.89059,-1.249617,-0.000007\C,0,1.941346,
 1.161497,-0.000006\C,0,2.557177,-0.089731,0.000016\H,0,0.035697,2.1647
 37,-0.000072\H,0,2.539993,2.064374,0.000014\H,0,0.035997,-2.134389,-0.

 Normal termination of Gaussian 16 at Wed Apr  9 00:33:35 2025.
