 Gaussian 16, Revision C.01,

 ----------------------------------------------------------------------
 #t hf aug-cc-pvdz symm=none int=(grid=ultrafine) guess=(read,tcheck) s
 table=(opt,rrhf)
 ----------------------------------------------------------------------
 -----
 title
 -----
 Symbolic Z-matrix:
 Charge =  0 Multiplicity = 1

 SCF Done:  E(RHF) =  -744.985002889     A.U. after   14 cycles
 Normal termination of Gaussian 16 at Tue Apr  8 22:49:02 2025.
 Gaussian 16:  ES64L-G16RevC.01  3-Jul-2019

 ----------------------------------------------------------------------
 #t hf aug-cc-pvdz iop(5/13=1,5/36=2,99/5=2) pseudo=read geom=check gue
 ss=(read,tcheck) scf=(maxcycle=1)
 ----------------------------------------------------------------------
 -----
 title
 -----
 Structure from the checkpoint file:  "BDE49_expt_1723_mol1.chk"
 Charge =  0 Multiplicity = 1

                         Standard orientation:
 ---------------------------------------------------------------------
 Center     Atomic      Atomic             Coordinates (Angstroms)
 Number     Number       Type             X           Y           Z
 ---------------------------------------------------------------------
      1          6           0        1.088004    0.535681    0.751410
      2          6           0       -0.324431    0.770827    0.210672
      3         17           0        2.159696   -0.322872   -0.439409
      4          1           0        1.111480   -0.043189    1.673243
      5          1           0        1.527752    1.514178    0.910368
      6          7           0       -1.157523   -0.304858    0.083228
      7          6           0       -2.488118   -0.094475   -0.475153
      8          8           0       -0.659278    1.913041   -0.059711
      9          1           0       -2.620158    0.966795   -0.666760
     10          1           0       -3.253090   -0.437612    0.229186
     11          1           0       -2.601265   -0.652537   -1.410982
     12          6           0       -0.821785   -1.687879    0.385963
     13          1           0       -1.580395   -2.113981    1.051027
     14          1           0        0.145859   -1.770914    0.871095
     15          1           0       -0.790154   -2.289154   -0.529482
 ---------------------------------------------------------------------

 SCF Done:  E(RHF) =  -745.094234247     A.U. after    2 cycles

 The electronic state is 1-A.
 Alpha  occ. eigenvalues -- -103.66639 -20.54389 -15.66336 -11.37900 -11.32350
 Alpha  occ. eigenvalues --  -11.28793 -11.27189 -10.69867  -8.35588  -8.35296
 Alpha  occ. eigenvalues --   -8.35287  -1.35819  -1.22329  -1.17095  -0.99614
 Alpha  occ. eigenvalues --   -0.97491  -0.91867  -0.75248  -0.71270  -0.67654
 Alpha  occ. eigenvalues --   -0.66702  -0.62516  -0.59367  -0.58703  -0.57393
 Alpha  occ. eigenvalues --   -0.56883  -0.54336  -0.53100  -0.48501  -0.46158
 Alpha  occ. eigenvalues --   -0.43739  -0.38336
 Alpha virt. eigenvalues --    0.02895   0.03937   0.04596   0.04976   0.06628
 Alpha virt. eigenvalues --    0.07307   0.07742   0.08148   0.09367   0.10334
 Alpha virt. eigenvalues --    0.12136   0.12831   0.13731   0.13992   0.14691

 Mulliken charges:
               1
     1  C    0.141278
     2  C    0.311534
     3  Cl  -0.099362
     4  H    0.062947
     5  H   -0.023487
     6  N   -0.468251
     7  C    0.669093
     8  O   -0.527003
     9  H   -0.235710
    10  H   -0.089783
    11  H   -0.060591
    12  C    0.790751
    13  H   -0.104925
    14  H   -0.307849
    15  H   -0.058640
 Sum of Mulliken charges =  -0.00000

 Dipole moment (field-independent basis, Debye):
    X=             -1.1075    Y=             -3.3948    Z=              1.8559  Tot=              4.0244

 Test job not archived.
 1\1\GINC-SE453\SP\RHF\Aug-CC-pVDZ\C4H8Cl1N1O1\OHZDE\08-Apr-2025\0\\#t
 hf aug-cc-pvdz iop(5/13=1,5/36=2,99/5=2) pseudo=read geom=check guess=
 (read,tcheck) scf=(maxcycle=1)\\title\\0,1\C,0,1.088004,0.535681,0.751
 41\C,0,-0.324431,0.770827,0.210672\Cl,0,2.159696,-0.322873,-0.439409\H
 ,0,1.11148,-0.043189,1.673243\H,0,1.527752,1.514177,0.910368\N,0,-1.15
 7523,-0.304858,0.083228\C,0,-2.488118,-0.094475,-0.475153\O,0,-0.65927
 7,1.913041,-0.059711\H,0,-2.620158,0.966795,-0.66676\H,0,-3.25309,-0.4
 37611,0.229186\H,0,-2.601265,-0.652537,-1.410982\C,0,-0.821785,-1.6878

 Normal termination of Gaussian 16 at Tue Apr  8 22:49:07 2025.
