 Gaussian 16, Revision C.01,

 ----------------------------------------------------------------------
 #t hf aug-cc-pvdz symm=none int=(grid=ultrafine) guess=(read,tcheck) s
 table=(opt,rrhf)
 ----------------------------------------------------------------------
 -----
 title
 -----
 Symbolic Z-matrix:
 Charge =  0 Multiplicity = 1

 SCF Done:  E(RHF) =  -734.310345662     A.U. after   13 cycles
 Normal termination of Gaussian 16 at Tue Apr  8 23:27:00 2025.
 Gaussian 16:  ES64L-G16RevC.01  3-Jul-2019

 ----------------------------------------------------------------------
 #t hf aug-cc-pvdz iop(5/13=1,5/36=2,99/5=2) pseudo=read geom=check gue
 ss=(read,tcheck) scf=(maxcycle=1)
 ----------------------------------------------------------------------
 -----
 title
 -----
 Structure from the checkpoint file:  "BDE49_nonexpt_133_mol1.chk"
 Charge =  0 Multiplicity = 1

                         Standard orientation:
 ---------------------------------------------------------------------
 Center     Atomic      Atomic             Coordinates (Angstroms)
 Number     Number       Type             X           Y           Z
 ---------------------------------------------------------------------
      1          5           0        0.751191    0.916278   -0.329258
      2          5           0       -0.751192    0.916283    0.329249
      3         15           0       -2.064738   -0.396198    0.008496
      4          1           0       -1.952832   -0.686376   -1.367665
      5          1           0       -3.265575    0.344153   -0.016842
      6         15           0        2.064739   -0.396200   -0.008500
      7          1           0        1.952799   -0.686412    1.367652
      8          1           0        3.265571    0.344158    0.016888
      9          1           0       -1.037272    1.703791    1.181961
     10          1           0        1.037307    1.703846   -1.181902
 ---------------------------------------------------------------------

 SCF Done:  E(RHF) =  -734.364508147     A.U. after    2 cycles

 The electronic state is 1-A.
 Alpha  occ. eigenvalues --  -81.24880 -81.24880  -7.75564  -7.75564  -7.61720
 Alpha  occ. eigenvalues --   -7.61629  -4.89610  -4.89591  -4.89555  -4.89538
 Alpha  occ. eigenvalues --   -4.89280  -4.89257  -0.83090  -0.80216  -0.69069
 Alpha  occ. eigenvalues --   -0.60894  -0.54985  -0.52576  -0.48239  -0.45794
 Alpha  occ. eigenvalues --   -0.43782  -0.36146  -0.34107
 Alpha virt. eigenvalues --    0.03118   0.03983   0.04712   0.04917   0.05978
 Alpha virt. eigenvalues --    0.06475   0.07016   0.07099   0.08339   0.08491
 Alpha virt. eigenvalues --    0.09308   0.09792   0.11168   0.11407   0.11681

 Mulliken charges:
               1
     1  B   -0.036370
     2  B   -0.036365
     3  P   -0.457012
     4  H    0.153818
     5  H    0.122154
     6  P   -0.457019
     7  H    0.153823
     8  H    0.122152
     9  H    0.217405
    10  H    0.217413
 Sum of Mulliken charges =  -0.00000

 Dipole moment (field-independent basis, Debye):
    X=             -0.0000    Y=              0.9353    Z=             -0.0000  Tot=              0.9353

 Test job not archived.
 1\1\GINC-SE331\SP\RHF\Aug-CC-pVDZ\B2H6P2\OHZDE\08-Apr-2025\0\\#t hf au
 g-cc-pvdz iop(5/13=1,5/36=2,99/5=2) pseudo=read geom=check guess=(read
 ,tcheck) scf=(maxcycle=1)\\title\\0,1\B,0,-0.751191,0.916278,0.329258\
 B,0,0.751192,0.916283,-0.329249\P,0,2.064738,-0.396198,-0.008496\H,0,1
 .952832,-0.686376,1.367665\H,0,3.265575,0.344153,0.016842\P,0,-2.06473
 9,-0.3962,0.0085\H,0,-1.952799,-0.686412,-1.367652\H,0,-3.265571,0.344
 158,-0.016888\H,0,1.037272,1.703791,-1.181961\H,0,-1.037307,1.703846,1
 .181902\\Version=ES64L-G16RevC.01\State=1-A\HF=-734.3645081\RMSD=1.263

 Normal termination of Gaussian 16 at Tue Apr  8 23:27:02 2025.
