 Gaussian 16, Revision C.01,

 ----------------------------------------------------------------------
 #t hf aug-cc-pvdz symm=none int=(grid=ultrafine) guess=(read,tcheck) s
 table=(opt,rrhf)
 ----------------------------------------------------------------------
 -----
 title
 -----
 Symbolic Z-matrix:
 Charge =  0 Multiplicity = 1

 SCF Done:  E(RHF) =  -673.181755928     A.U. after   14 cycles
 Normal termination of Gaussian 16 at Tue Apr  8 23:37:16 2025.
 Gaussian 16:  ES64L-G16RevC.01  3-Jul-2019

 ----------------------------------------------------------------------
 #t hf aug-cc-pvdz iop(5/13=1,5/36=2,99/5=2) pseudo=read geom=check gue
 ss=(read,tcheck) scf=(maxcycle=1)
 ----------------------------------------------------------------------
 -----
 title
 -----
 Structure from the checkpoint file:  "BDE49_nonexpt_1581_mol1.chk"
 Charge =  0 Multiplicity = 1

                         Standard orientation:
 ---------------------------------------------------------------------
 Center     Atomic      Atomic             Coordinates (Angstroms)
 Number     Number       Type             X           Y           Z
 ---------------------------------------------------------------------
      1         15           0       -0.647213    0.299511   -0.659484
      2          7           0        0.889823   -0.608443   -0.332497
      3          9           0        1.005849   -0.852234    1.066604
      4          9           0        1.903481    0.355743   -0.539302
      5          6           0       -0.671509    1.497566    0.742546
      6          1           0        0.130957    2.222870    0.599490
      7          1           0       -0.555004    1.009463    1.710026
      8          1           0       -1.624301    2.032541    0.710483
      9          6           0       -1.767354   -1.025477   -0.035422
     10          1           0       -1.678421   -1.903904   -0.677314
     11          1           0       -2.793160   -0.655545   -0.108359
     12          1           0       -1.551438   -1.303098    0.996950
 ---------------------------------------------------------------------

 SCF Done:  E(RHF) =  -673.319438590     A.U. after    2 cycles

 The electronic state is 1-A.
 Alpha  occ. eigenvalues --  -81.30552 -26.15703 -26.15292 -15.81942 -11.25648
 Alpha  occ. eigenvalues --  -11.25311  -7.80620  -4.94702  -4.94453  -4.94146
 Alpha  occ. eigenvalues --   -1.69834  -1.64411  -1.10646  -1.00010  -0.95799
 Alpha  occ. eigenvalues --   -0.82335  -0.79184  -0.78992  -0.73601  -0.71147
 Alpha  occ. eigenvalues --   -0.69094  -0.62858  -0.60655  -0.58504  -0.57807
 Alpha  occ. eigenvalues --   -0.57132  -0.49280  -0.46362  -0.37075
 Alpha virt. eigenvalues --    0.03117   0.04262   0.05352   0.05887   0.07046
 Alpha virt. eigenvalues --    0.07764   0.08227   0.09114   0.11486   0.12477
 Alpha virt. eigenvalues --    0.14793   0.15005   0.15442   0.15938   0.16425

 Mulliken charges:
               1
     1  P    1.025262
     2  N    0.071319
     3  F   -0.409192
     4  F   -0.386516
     5  C    0.160565
     6  H   -0.098776
     7  H   -0.118393
     8  H   -0.091092
     9  C    0.192777
    10  H   -0.118788
    11  H   -0.107681
    12  H   -0.119485
 Sum of Mulliken charges =  -0.00000

 Dipole moment (field-independent basis, Debye):
    X=             -3.5677    Y=              0.6224    Z=              0.3730  Tot=              3.6407

 Test job not archived.
 1\1\GINC-SE454\SP\RHF\Aug-CC-pVDZ\C2H6F2N1P1\OHZDE\08-Apr-2025\0\\#t h
 f aug-cc-pvdz iop(5/13=1,5/36=2,99/5=2) pseudo=read geom=check guess=(
 read,tcheck) scf=(maxcycle=1)\\title\\0,1\P,0,-0.647213,0.299511,-0.65
 9484\N,0,0.889823,-0.608443,-0.332497\F,0,1.005849,-0.852234,1.066604\
 F,0,1.903481,0.355743,-0.539302\C,0,-0.671509,1.497566,0.742546\H,0,0.
 130957,2.22287,0.59949\H,0,-0.555004,1.009463,1.710026\H,0,-1.624301,2
 .032541,0.710483\C,0,-1.767354,-1.025477,-0.035422\H,0,-1.678422,-1.90
 3904,-0.677314\H,0,-2.79316,-0.655544,-0.108359\H,0,-1.551438,-1.30309

 Normal termination of Gaussian 16 at Tue Apr  8 23:37:20 2025.
