 Gaussian 16, Revision C.01,

 ----------------------------------------------------------------------
 #t hf aug-cc-pvdz symm=none int=(grid=ultrafine) guess=(read,tcheck) s
 table=(opt,rrhf)
 ----------------------------------------------------------------------
 -----
 title
 -----
 Symbolic Z-matrix:
 Charge =  0 Multiplicity = 1

 SCF Done:  E(RHF) =  -828.820799184     A.U. after   16 cycles
 Normal termination of Gaussian 16 at Tue Apr  8 23:14:05 2025.
 Gaussian 16:  ES64L-G16RevC.01  3-Jul-2019

 ----------------------------------------------------------------------
 #t hf aug-cc-pvdz iop(5/13=1,5/36=2,99/5=2) pseudo=read geom=check gue
 ss=(read,tcheck) scf=(maxcycle=1)
 ----------------------------------------------------------------------
 -----
 title
 -----
 Structure from the checkpoint file:  "BDE49_nonexpt_1007_mol1.chk"
 Charge =  0 Multiplicity = 1

                         Standard orientation:
 ---------------------------------------------------------------------
 Center     Atomic      Atomic             Coordinates (Angstroms)
 Number     Number       Type             X           Y           Z
 ---------------------------------------------------------------------
      1         16           0        0.705821   -1.122752   -0.135002
      2          7           0        1.655758    0.449282   -0.049341
      3          8           0        1.087549    1.481847   -0.296499
      4          8           0        2.811166    0.265703    0.265704
      5          8           0       -0.748881   -0.540153   -0.678806
      6          6           0       -1.660152   -0.000327    0.266025
      7          6           0       -2.856110    0.513120   -0.478397
      8          1           0       -3.607974    0.843066    0.234982
      9          1           0       -3.258345   -0.263556   -1.130875
     10          1           0       -2.546999    1.348737   -1.110541
     11          8           0       -1.446402    0.019359    1.432862
 ---------------------------------------------------------------------

 SCF Done:  E(RHF) =  -828.982950098     A.U. after    2 cycles

 The electronic state is 1-A.
 Alpha  occ. eigenvalues --  -93.68194 -20.67990 -20.65153 -20.64628 -20.60781
 Alpha  occ. eigenvalues --  -15.95119 -11.43742 -11.28115  -8.96899  -6.31045
 Alpha  occ. eigenvalues --   -6.30763  -6.30227  -1.58224  -1.45647  -1.40796
 Alpha  occ. eigenvalues --   -1.37592  -1.08366  -1.02560  -0.89867  -0.83254
 Alpha  occ. eigenvalues --   -0.77190  -0.76612  -0.75573  -0.73062  -0.70512
 Alpha  occ. eigenvalues --   -0.68051  -0.62374  -0.60414  -0.58634  -0.55304
 Alpha  occ. eigenvalues --   -0.54489  -0.50861  -0.50501  -0.48640  -0.42954
 Alpha virt. eigenvalues --    0.02785   0.04766   0.05460   0.05915   0.06555
 Alpha virt. eigenvalues --    0.06688   0.08460   0.10368   0.10837   0.12160
 Alpha virt. eigenvalues --    0.12738   0.13762   0.14535   0.14985   0.15229

 Mulliken charges:
               1
     1  S    1.049804
     2  N    0.331974
     3  O   -0.466931
     4  O   -0.523346
     5  O   -0.789561
     6  C    0.422098
     7  C    0.241157
     8  H    0.017285
     9  H    0.033507
    10  H    0.059998
    11  O   -0.375983
 Sum of Mulliken charges =  -0.00000

 Dipole moment (field-independent basis, Debye):
    X=             -3.7695    Y=             -1.8020    Z=             -2.1038  Tot=              4.6779

 Test job not archived.
 1\1\GINC-SE060\SP\RHF\Aug-CC-pVDZ\C2H3N1O4S1\OHZDE\08-Apr-2025\0\\#t h
 f aug-cc-pvdz iop(5/13=1,5/36=2,99/5=2) pseudo=read geom=check guess=(
 read,tcheck) scf=(maxcycle=1)\\title\\0,1\S,0,0.705821,-1.122752,-0.13
 5002\N,0,1.655758,0.449282,-0.049341\O,0,1.087549,1.481847,-0.296499\O
 ,0,2.811166,0.265703,0.265704\O,0,-0.748881,-0.540153,-0.678806\C,0,-1
 .660152,-0.000327,0.266025\C,0,-2.85611,0.51312,-0.478397\H,0,-3.60797
 4,0.843066,0.234982\H,0,-3.258345,-0.263556,-1.130875\H,0,-2.546999,1.
 348737,-1.110541\O,0,-1.446402,0.019359,1.432862\\Version=ES64L-G16Rev

 Normal termination of Gaussian 16 at Tue Apr  8 23:14:11 2025.
