 Gaussian 16, Revision C.01,

 ----------------------------------------------------------------------
 #t hf aug-cc-pvdz symm=none int=(grid=ultrafine) guess=(read,tcheck) s
 table=(opt,rrhf)
 ----------------------------------------------------------------------
 -----
 title
 -----
 Symbolic Z-matrix:
 Charge =  0 Multiplicity = 1

 SCF Done:  E(RHF) =  -2611.38825319     A.U. after   12 cycles
 Normal termination of Gaussian 16 at Tue Apr  8 23:42:23 2025.
 Gaussian 16:  ES64L-G16RevC.01  3-Jul-2019

 ----------------------------------------------------------------------
 #t hf aug-cc-pvdz iop(5/13=1,5/36=2,99/5=2) pseudo=read geom=check gue
 ss=(read,tcheck) scf=(maxcycle=1)
 ----------------------------------------------------------------------
 -----
 title
 -----
 Structure from the checkpoint file:  "BDE49_nonexpt_169_mol1.chk"
 Charge =  0 Multiplicity = 1

                         Standard orientation:
 ---------------------------------------------------------------------
 Center     Atomic      Atomic             Coordinates (Angstroms)
 Number     Number       Type             X           Y           Z
 ---------------------------------------------------------------------
      1         17           0       -2.215647    1.543062    0.000114
      2         17           0       -2.185479   -1.488850    0.000090
      3          5           0       -1.330753    0.037305    0.000719
      4         14           0        0.693086    0.009872    0.000024
      5         17           0        1.358826   -0.988774   -1.677328
      6         17           0        1.503178    1.901764   -0.001601
      7         17           0        1.359743   -0.986304    1.678494
 ---------------------------------------------------------------------

 SCF Done:  E(RHF) =  -2611.51011856     A.U. after    2 cycles

 The electronic state is 1-A.
 Alpha  occ. eigenvalues -- -103.69743-103.69658-103.68314-103.68313-103.68216
 Alpha  occ. eigenvalues --  -69.21323 -10.73225 -10.73130 -10.71763 -10.71755
 Alpha  occ. eigenvalues --  -10.71666  -8.38911  -8.38823  -8.38690  -8.38644
 Alpha  occ. eigenvalues --   -8.38598  -8.38560  -8.37455  -8.37449  -8.37360
 Alpha  occ. eigenvalues --   -8.37212  -8.37210  -8.37206  -8.37204  -8.37116
 Alpha  occ. eigenvalues --   -8.37115  -7.76371  -6.95317  -4.06142  -4.06141
 Alpha  occ. eigenvalues --   -4.05941  -1.21045  -1.18800  -1.17346  -1.15702
 Alpha  occ. eigenvalues --   -1.15632  -0.75841  -0.69249  -0.61927  -0.60618
 Alpha  occ. eigenvalues --   -0.59443  -0.58696  -0.55254  -0.52952  -0.52193
 Alpha  occ. eigenvalues --   -0.52029  -0.50309  -0.50277  -0.49507  -0.48642
 Alpha  occ. eigenvalues --   -0.48212  -0.44421
 Alpha virt. eigenvalues --    0.01834   0.04288   0.05044   0.05719   0.05865
 Alpha virt. eigenvalues --    0.07601   0.07649   0.07744   0.09701   0.11305
 Alpha virt. eigenvalues --    0.12031   0.12350   0.14127   0.14568   0.15079

 Mulliken charges:
               1
     1  Cl  -0.280422
     2  Cl  -0.293112
     3  B    0.535962
     4  Si   1.443212
     5  Cl  -0.465344
     6  Cl  -0.474942
     7  Cl  -0.465354
 Sum of Mulliken charges =  -0.00000

 Dipole moment (field-independent basis, Debye):
    X=             -0.8842    Y=              0.1247    Z=              0.0008  Tot=              0.8929

 Test job not archived.
 1\1\GINC-SE059\SP\RHF\Aug-CC-pVDZ\B1Cl5Si1\OHZDE\08-Apr-2025\0\\#t hf
 aug-cc-pvdz iop(5/13=1,5/36=2,99/5=2) pseudo=read geom=check guess=(re
 ad,tcheck) scf=(maxcycle=1)\\title\\0,1\Cl,0,-2.215647,1.543062,0.0001
 14\Cl,0,-2.185479,-1.48885,0.00009\B,0,-1.330753,0.037305,0.000719\Si,
 0,0.693086,0.009872,0.000024\Cl,0,1.358826,-0.988774,-1.677328\Cl,0,1.
 503178,1.901764,-0.001601\Cl,0,1.359743,-0.986304,1.678494\\Version=ES
 64L-G16RevC.01\State=1-A\HF=-2611.5101186\RMSD=4.018e-03\Dipole=-0.347
 858,0.0490626,0.0003209\Quadrupole=-0.8652623,-0.074512,0.9397743,-0.1

 Normal termination of Gaussian 16 at Tue Apr  8 23:42:27 2025.
