 Gaussian 16, Revision C.01,

 ----------------------------------------------------------------------
 #t hf aug-cc-pvdz symm=none int=(grid=ultrafine) guess=(read,tcheck) s
 table=opt
 ----------------------------------------------------------------------
 -----
 title
 -----
 Symbolic Z-matrix:
 Charge =  0 Multiplicity = 2

 SCF Done:  E(UHF) =  -515.087143741     A.U. after   22 cycles
 Normal termination of Gaussian 16 at Tue Apr  8 23:19:48 2025.
 Gaussian 16:  ES64L-G16RevC.01  3-Jul-2019

 ----------------------------------------------------------------------
 #t hf aug-cc-pvdz iop(5/13=1,5/36=2,99/5=2) pseudo=read geom=check gue
 ss=(read,tcheck) scf=(maxcycle=1)
 ----------------------------------------------------------------------
 -----
 title
 -----
 Structure from the checkpoint file:  "BDE49_nonexpt_113_mol2.chk"
 Charge =  0 Multiplicity = 2

                         Standard orientation:
 ---------------------------------------------------------------------
 Center     Atomic      Atomic             Coordinates (Angstroms)
 Number     Number       Type             X           Y           Z
 ---------------------------------------------------------------------
      1          5           0        2.557752   -0.172685    0.000018
      2          7           0        1.221967    0.028967   -0.000014
      3          6           0        0.011974    0.016066   -0.000005
      4         16           0       -1.556056    0.000069   -0.000000
      5          1           0        3.482525    0.563159    0.000042
 ---------------------------------------------------------------------

 SCF Done:  E(UHF) =  -515.143605372     A.U. after    2 cycles

 The electronic state is 2-A.
 Alpha  occ. eigenvalues --  -93.55808 -15.68494 -11.41198  -8.85700  -7.68659
 Alpha  occ. eigenvalues --   -6.19940  -6.19480  -6.19292  -1.25769  -1.05014
 Alpha  occ. eigenvalues --   -0.88561  -0.63107  -0.61542  -0.59099  -0.58581
 Alpha  occ. eigenvalues --   -0.42420  -0.39163  -0.30539
 Alpha virt. eigenvalues --    0.01650   0.04670   0.05091   0.05157   0.06268
 Alpha virt. eigenvalues --    0.07740   0.09219   0.12625   0.12894   0.13867
 Alpha virt. eigenvalues --    0.15025   0.15145   0.15850   0.17028   0.19578

  Beta  occ. eigenvalues --  -93.55719 -15.69491 -11.40426  -8.85603  -7.66845
  Beta  occ. eigenvalues --   -6.19963  -6.19297  -6.18967  -1.26312  -1.04810
  Beta  occ. eigenvalues --   -0.87014  -0.61742  -0.60486  -0.59117  -0.56706
  Beta  occ. eigenvalues --   -0.39708  -0.38991
  Beta virt. eigenvalues --    0.03234   0.03704   0.04737   0.05166   0.06995
  Beta virt. eigenvalues --    0.07611   0.07969   0.10033   0.12815   0.13892
  Beta virt. eigenvalues --    0.14801   0.15167   0.15532   0.16135   0.19832

 Mulliken charges and spin densities:
               1          2
     1  B   -0.326076   1.013109
     2  N   -0.008089  -0.391948
     3  C   -0.251996   0.275915
     4  S    0.295205   0.107167
     5  H    0.290956  -0.004243
 Sum of Mulliken charges =  -0.00000   1.00000

 Dipole moment (field-independent basis, Debye):
    X=              1.1236    Y=              0.4359    Z=              0.0000  Tot=              1.2052
                          Isotropic Fermi Contact Couplings
        Atom                 a.u.       MegaHertz       Gauss      10(-4) cm-1
     1  B(11)              0.27204     390.20619     139.23527     130.15877
     2  N(14)             -0.09107     -29.42476     -10.49949      -9.81504
     3  C(13)              0.06704      75.36421      26.89182      25.13879
     4  S(33)              0.02944      10.11159       3.60807       3.37286
     5  H(1)               0.00430      19.22539       6.86010       6.41290
 --------------------------------------------------------
       Center         ----  Spin Dipole Couplings  ----
                      3XX-RR        3YY-RR        3ZZ-RR

 Normal termination of Gaussian 16 at Tue Apr  8 23:19:50 2025.
