 Gaussian 16, Revision C.01,

 ----------------------------------------------------------------------
 #t hf aug-cc-pvdz symm=none int=(grid=ultrafine) guess=(read,tcheck) s
 table=(opt,rrhf)
 ----------------------------------------------------------------------
 -----
 title
 -----
 Symbolic Z-matrix:
 Charge =  0 Multiplicity = 1

 SCF Done:  E(RHF) =  -528.175565147     A.U. after   11 cycles
 Normal termination of Gaussian 16 at Tue Apr  8 23:48:16 2025.
 Gaussian 16:  ES64L-G16RevC.01  3-Jul-2019

 ----------------------------------------------------------------------
 #t hf aug-cc-pvdz iop(5/13=1,5/36=2,99/5=2) pseudo=read geom=check gue
 ss=(read,tcheck) scf=(maxcycle=1)
 ----------------------------------------------------------------------
 -----
 title
 -----
 Structure from the checkpoint file:  "BDE49_nonexpt_1841_mol1.chk"
 Charge =  0 Multiplicity = 1

                         Standard orientation:
 ---------------------------------------------------------------------
 Center     Atomic      Atomic             Coordinates (Angstroms)
 Number     Number       Type             X           Y           Z
 ---------------------------------------------------------------------
      1          6           0        1.689965    0.000000   -0.166074
      2         14           0       -0.085720    0.000000    0.341787
      3          9           0       -0.822821   -1.284805   -0.265058
      4          9           0       -0.822821    1.284805   -0.265058
      5          1           0       -0.316549    0.000000    1.793742
      6          1           0        1.785354   -0.000002   -1.255383
      7          1           0        2.201132   -0.885705    0.222053
      8          1           0        2.201131    0.885707    0.222050
 ---------------------------------------------------------------------

 SCF Done:  E(RHF) =  -528.303985390     A.U. after    2 cycles

 The electronic state is 1-A.
 Alpha  occ. eigenvalues --  -69.15811 -26.11647 -26.11646 -11.23905  -6.89992
 Alpha  occ. eigenvalues --   -4.00998  -4.00869  -4.00698  -1.65116  -1.63915
 Alpha  occ. eigenvalues --   -0.96954  -0.82903  -0.77290  -0.74542  -0.73988
 Alpha  occ. eigenvalues --   -0.71908  -0.70346  -0.59708  -0.57884  -0.56722
 Alpha  occ. eigenvalues --   -0.48330
 Alpha virt. eigenvalues --    0.03307   0.05107   0.05369   0.05581   0.07977
 Alpha virt. eigenvalues --    0.08144   0.08636   0.13057   0.14813   0.15451
 Alpha virt. eigenvalues --    0.15502   0.17524   0.17615   0.20709   0.22627

 Mulliken charges:
               1
     1  C    0.222169
     2  Si   1.995893
     3  F   -0.790781
     4  F   -0.790781
     5  H   -0.081185
     6  H   -0.158881
     7  H   -0.198217
     8  H   -0.198217
 Sum of Mulliken charges =  -0.00000

 Dipole moment (field-independent basis, Debye):
    X=              2.3962    Y=             -0.0000    Z=              1.0032  Tot=              2.5977

 Test job not archived.
 1\1\GINC-SE253\SP\RHF\Aug-CC-pVDZ\C1H4F2Si1\OHZDE\08-Apr-2025\0\\#t hf
  aug-cc-pvdz iop(5/13=1,5/36=2,99/5=2) pseudo=read geom=check guess=(r
 ead,tcheck) scf=(maxcycle=1)\\title\\0,1\C,0,1.689965,0.,-0.166074\Si,
 0,-0.08572,0.,0.341787\F,0,-0.822821,-1.284805,-0.265058\F,0,-0.822821
 ,1.284805,-0.265058\H,0,-0.316549,0.,1.793742\H,0,1.785354,-0.000002,-
 1.255383\H,0,2.201132,-0.885705,0.222053\H,0,2.201131,0.885707,0.22205
 \\Version=ES64L-G16RevC.01\State=1-A\HF=-528.3039854\RMSD=4.983e-03\Di
 pole=0.9427388,0.,0.3946957\Quadrupole=0.7361502,-1.942819,1.2066688,-

 Normal termination of Gaussian 16 at Tue Apr  8 23:48:18 2025.
