 Gaussian 16, Revision C.01,

 ----------------------------------------------------------------------
 #t hf aug-cc-pvdz symm=none int=(grid=ultrafine) guess=(read,tcheck) s
 table=opt
 ----------------------------------------------------------------------
 -----
 title
 -----
 Symbolic Z-matrix:
 Charge =  0 Multiplicity = 2

 SCF Done:  E(UHF) =  -227.197846545     a.u. after   13 cycles
 Normal termination of Gaussian 16 at Tue Apr  8 22:41:35 2025.
 Gaussian 16:  ES64L-G16RevC.01  3-Jul-2019

 ----------------------------------------------------------------------
 #t hf aug-cc-pvdz iop(5/13=1,5/36=2,99/5=2) pseudo=read geom=check gue
 ss=(read,tcheck) scf=(maxcycle=1)
 ----------------------------------------------------------------------
 -----
 title
 -----
 Structure from the checkpoint file:  "BDE49_expt_1454_mol3.chk"
 Charge =  0 Multiplicity = 2

                         Standard orientation:
 ---------------------------------------------------------------------
 Center     Atomic      Atomic             Coordinates (Angstroms)
 Number     Number       Type             X           Y           Z
 ---------------------------------------------------------------------
      1          8           0        0.809489   -1.041122    0.001702
      2          6           0        0.106104    0.000011   -0.008169
      3          8           0        0.809551    1.041090    0.001702
      4          6           0       -1.387291    0.000036   -0.002805
      5          1           0       -1.764073   -0.895868   -0.498458
      6          1           0       -1.764071    0.897176   -0.496208
      7          1           0       -1.737054   -0.001324    1.033275
 ---------------------------------------------------------------------

 SCF Done:  E(UHF) =  -227.272154368     A.U. after    2 cycles

 The electronic state is 2-A.
 Alpha  occ. eigenvalues --  -20.71597 -20.56426 -11.41573 -11.28552  -1.51543
 Alpha  occ. eigenvalues --   -1.31648  -1.04812  -0.84086  -0.79406  -0.71938
 Alpha  occ. eigenvalues --   -0.70818  -0.60815  -0.60690  -0.60040  -0.49498
 Alpha  occ. eigenvalues --   -0.48825
 Alpha virt. eigenvalues --    0.02816   0.04988   0.05568   0.07773   0.11389
 Alpha virt. eigenvalues --    0.11494   0.11853   0.13642   0.14322   0.15030
 Alpha virt. eigenvalues --    0.15664   0.19698   0.22808   0.23457   0.25107

  Beta  occ. eigenvalues --  -20.67414 -20.55908 -11.41872 -11.28467  -1.41688
  Beta  occ. eigenvalues --   -1.26417  -1.03694  -0.79578  -0.70045  -0.69106
  Beta  occ. eigenvalues --   -0.64887  -0.59578  -0.59529  -0.48200  -0.46440
  Beta virt. eigenvalues --    0.01760   0.03316   0.05044   0.05623   0.07859
  Beta virt. eigenvalues --    0.11550   0.11553   0.12436   0.13742   0.14451
  Beta virt. eigenvalues --    0.14990   0.15718   0.19759   0.23150   0.23599

 Mulliken charges and spin densities:
               1          2
     1  O   -0.185599   1.057664
     2  C    0.371839  -0.195434
     3  O   -0.546197   0.084102
     4  C    0.245153   0.049006
     5  H    0.011513   0.006175
     6  H    0.031975  -0.000127
     7  H    0.071316  -0.001386
 Sum of Mulliken charges =  -0.00000   1.00000

 Dipole moment (field-independent basis, Debye):
    X=             -3.7676    Y=             -2.0483    Z=              0.0072  Tot=              4.2884
                          Isotropic Fermi Contact Couplings
        Atom                 a.u.       MegaHertz       Gauss      10(-4) cm-1
     1  O(17)              0.28642    -173.62519     -61.95379     -57.91513
     2  C(13)             -0.05666     -63.69564     -22.72819     -21.24658
     3  O(17)              0.04464     -27.05848      -9.65514      -9.02574
     4  C(13)              0.01218      13.69736       4.88756       4.56895
     5  H(1)              -0.00012      -0.53439      -0.19068      -0.17825
     6  H(1)               0.00173       7.72976       2.75817       2.57837
     7  H(1)              -0.00082      -3.67851      -1.31258      -1.22702
 --------------------------------------------------------

 Normal termination of Gaussian 16 at Tue Apr  8 22:41:36 2025.
