 Gaussian 16, Revision C.01,

 ----------------------------------------------------------------------
 #t hf aug-cc-pvdz symm=none int=(grid=ultrafine) guess=(read,tcheck) s
 table=(opt,rrhf)
 ----------------------------------------------------------------------
 -----
 title
 -----
 Symbolic Z-matrix:
 Charge =  0 Multiplicity = 1

 SCF Done:  E(RHF) =  -295.014757597     A.U. after   15 cycles
 Normal termination of Gaussian 16 at Wed Apr  9 00:26:04 2025.
 Gaussian 16:  ES64L-G16RevC.01  3-Jul-2019

 ----------------------------------------------------------------------
 #t hf aug-cc-pvdz iop(5/13=1,5/36=2,99/5=2) pseudo=read geom=check gue
 ss=(read,tcheck) scf=(maxcycle=1)
 ----------------------------------------------------------------------
 -----
 title
 -----
 Structure from the checkpoint file:  "BDE49_nonexpt_297_mol1.chk"
 Charge =  0 Multiplicity = 1

                         Standard orientation:
 ---------------------------------------------------------------------
 Center     Atomic      Atomic             Coordinates (Angstroms)
 Number     Number       Type             X           Y           Z
 ---------------------------------------------------------------------
      1          6           0        0.217164    0.638125   -0.000000
      2          6           0        0.197881   -0.081058    1.204411
      3          6           0        0.197881   -1.472659    1.204519
      4          6           0        0.199839   -2.173522   -0.000000
      5          6           0        0.197881   -1.472659   -1.204519
      6          6           0        0.197881   -0.081058   -1.204411
      7          5           0       -1.366161    2.303565    0.000000
      8          1           0        0.197356   -2.010287    2.146160
      9          1           0        0.201269   -3.257570   -0.000000
     10          1           0        0.197356   -2.010287   -2.146160
     11          1           0        0.197794    0.459206   -2.145137
     12          1           0        0.197794    0.459206    2.145137
     13          6           0        0.191651    2.164240    0.000000
     14          1           0        0.688826    2.548612   -0.891971
     15          1           0        0.688826    2.548612    0.891971
     16          1           0       -1.969745    2.308112   -1.028680
     17          1           0       -1.969745    2.308112    1.028680
 ---------------------------------------------------------------------

 SCF Done:  E(RHF) =  -295.102542404     A.U. after    2 cycles

 The electronic state is 1-A'.
 Alpha  occ. eigenvalues --  -11.26272 -11.24850 -11.24830 -11.24675 -11.24665
 Alpha  occ. eigenvalues --  -11.24591 -11.21880  -7.61038  -1.14954  -1.04468
 Alpha  occ. eigenvalues --   -1.01302  -0.93236  -0.83296  -0.80302  -0.70112
 Alpha  occ. eigenvalues --   -0.67153  -0.64710  -0.63834  -0.59460  -0.57452
 Alpha  occ. eigenvalues --   -0.56121  -0.52744  -0.49799  -0.49785  -0.46413
 Alpha  occ. eigenvalues --   -0.46282  -0.34367  -0.32948
 Alpha virt. eigenvalues --    0.03204   0.03837   0.04061   0.05147   0.05295
 Alpha virt. eigenvalues --    0.05443   0.06418   0.07137   0.07645   0.08528
 Alpha virt. eigenvalues --    0.08891   0.09844   0.10685   0.11873   0.12578

 Mulliken charges:
               1
     1  C    0.150631
     2  C    0.478052
     3  C    0.258070
     4  C    0.571624
     5  C    0.258070
     6  C    0.478052
     7  B   -0.312114
     8  H   -0.444585
     9  H   -0.431782
    10  H   -0.444585
    11  H   -0.580062
    12  H   -0.580062
    13  C    0.426899
    14  H   -0.214246
    15  H   -0.214246
    16  H    0.300142
    17  H    0.300142
 Sum of Mulliken charges =   0.00000

 Dipole moment (field-independent basis, Debye):
    X=              0.6060    Y=             -0.1614    Z=             -0.0000  Tot=              0.6271

 Test job not archived.
 1\1\GINC-SE099\SP\RHF\Aug-CC-pVDZ\C7H9B1\OHZDE\09-Apr-2025\0\\#t hf au
 g-cc-pvdz iop(5/13=1,5/36=2,99/5=2) pseudo=read geom=check guess=(read
 ,tcheck) scf=(maxcycle=1)\\title\\0,1\C,0,0.217164,0.638125,0.\C,0,0.1
 97881,-0.081058,1.204411\C,0,0.197881,-1.472659,1.204519\C,0,0.199839,
 -2.173522,0.\C,0,0.197881,-1.472659,-1.204519\C,0,0.197881,-0.081058,-
 1.204411\B,0,-1.366161,2.303565,0.\H,0,0.197356,-2.010287,2.14616\H,0,
 0.201269,-3.25757,0.\H,0,0.197356,-2.010287,-2.14616\H,0,0.197794,0.45
 9206,-2.145137\H,0,0.197794,0.459206,2.145137\C,0,0.191651,2.16424,0.\

 Normal termination of Gaussian 16 at Wed Apr  9 00:26:09 2025.
