 Gaussian 16, Revision C.01,

 ----------------------------------------------------------------------
 #t hf aug-cc-pvdz symm=none int=(grid=ultrafine) guess=(read,tcheck) s
 table=opt
 ----------------------------------------------------------------------
 -----
 title
 -----
 Symbolic Z-matrix:
 Charge =  0 Multiplicity = 2

 SCF Done:  E(UHF) =  -396.823553751     A.U. after   17 cycles
 Normal termination of Gaussian 16 at Wed Apr  9 00:35:06 2025.
 Gaussian 16:  ES64L-G16RevC.01  3-Jul-2019

 ----------------------------------------------------------------------
 #t hf aug-cc-pvdz iop(5/13=1,5/36=2,99/5=2) pseudo=read geom=check gue
 ss=(read,tcheck) scf=(maxcycle=1)
 ----------------------------------------------------------------------
 -----
 title
 -----
 Structure from the checkpoint file:  "BDE49_nonexpt_443_mol2.chk"
 Charge =  0 Multiplicity = 2

                         Standard orientation:
 ---------------------------------------------------------------------
 Center     Atomic      Atomic             Coordinates (Angstroms)
 Number     Number       Type             X           Y           Z
 ---------------------------------------------------------------------
      1          6           0       -0.859574    1.405543    0.000561
      2          6           0       -2.168196    0.830879   -0.560984
      3          6           0       -2.533847   -0.499711    0.110743
      4          6           0       -1.380466   -1.507429    0.014102
      5          6           0       -0.072845   -0.927519    0.572946
      6          6           0        1.605591    0.995888    0.494606
      7          6           0        0.307064    0.405387   -0.098157
      8          5           0        2.931508    0.208376    0.233472
      9          9           0        3.038304   -0.778494   -0.638797
     10          1           0       -1.005088    1.676320    1.055437
     11          1           0       -0.598826    2.331689   -0.523825
     12          1           0       -2.057277    0.671171   -1.641315
     13          1           0       -2.979389    1.555644   -0.436532
     14          1           0       -3.440156   -0.916007   -0.340742
     15          1           0       -2.767242   -0.318065    1.168018
     16          1           0       -1.230310   -1.785053   -1.037119
     17          1           0       -1.636486   -2.430282    0.544476
     18          1           0        0.737952   -1.652301    0.448878
     19          1           0       -0.183644   -0.759873    1.653359
     20          1           0        1.497715    1.171944    1.572791
     21          1           0        1.791072    1.999822    0.078780
     22          1           0        0.483044    0.201332   -1.163301
 ---------------------------------------------------------------------

 SCF Done:  E(UHF) =  -396.953878590     A.U. after    2 cycles

 The electronic state is 2-A.
 Alpha  occ. eigenvalues --  -26.13479 -11.23941 -11.22755 -11.22690 -11.22677
 Alpha  occ. eigenvalues --  -11.22630 -11.22566 -11.22473  -7.69172  -1.67759
 Alpha  occ. eigenvalues --   -1.11206  -1.03012  -0.99678  -0.93080  -0.84262
 Alpha  occ. eigenvalues --   -0.83322  -0.80726  -0.76708  -0.75362  -0.73719
 Alpha  occ. eigenvalues --   -0.64731  -0.61955  -0.60847  -0.60479  -0.57312
 Alpha  occ. eigenvalues --   -0.54343  -0.52903  -0.52867  -0.49679  -0.48572
 Alpha  occ. eigenvalues --   -0.47622  -0.45482  -0.44238  -0.42922  -0.34160
 Alpha virt. eigenvalues --    0.03342   0.04013   0.04120   0.04307   0.05640
 Alpha virt. eigenvalues --    0.05671   0.06010   0.06359   0.06709   0.07787
 Alpha virt. eigenvalues --    0.08259   0.08498   0.09086   0.09146   0.10109

  Beta  occ. eigenvalues --  -26.13138 -11.23843 -11.22741 -11.22695 -11.22669
  Beta  occ. eigenvalues --  -11.22629 -11.22566 -11.22189  -7.67298  -1.66763
  Beta  occ. eigenvalues --   -1.11069  -1.02636  -0.99655  -0.92341  -0.83539
  Beta  occ. eigenvalues --   -0.82828  -0.80434  -0.75576  -0.73789  -0.73499
  Beta  occ. eigenvalues --   -0.64637  -0.61458  -0.60648  -0.60255  -0.56427
  Beta  occ. eigenvalues --   -0.53842  -0.52855  -0.51932  -0.49035  -0.48504
  Beta  occ. eigenvalues --   -0.47430  -0.45418  -0.43376  -0.42766
  Beta virt. eigenvalues --    0.03040   0.03766   0.04120   0.04259   0.05576
  Beta virt. eigenvalues --    0.05823   0.06051   0.06376   0.06698   0.07966
  Beta virt. eigenvalues --    0.08277   0.08470   0.09007   0.09149   0.09852

 Mulliken charges and spin densities:
               1          2
     1  C    0.638783  -0.011244
     2  C    0.342180   0.001747
     3  C    0.255668  -0.000511
     4  C    0.311898   0.003850
     5  C    0.418965   0.009380
     6  C    1.020903  -0.002899
     7  C   -1.297846   0.016197
     8  B    0.351700   1.075239
     9  F   -0.418526  -0.043967
    10  H   -0.075870   0.000003
    11  H   -0.179675   0.000539
    12  H   -0.094945  -0.000093
    13  H   -0.103300   0.000382
    14  H   -0.124352   0.000035
    15  H   -0.095279   0.000076
    16  H   -0.086541   0.000304
    17  H   -0.104637   0.000114
    18  H   -0.187371  -0.002525
    19  H   -0.092993  -0.001937
    20  H   -0.133924  -0.015890
    21  H   -0.057013  -0.024850
    22  H   -0.287827  -0.003951
 Sum of Mulliken charges =  -0.00000   1.00000

 Dipole moment (field-independent basis, Debye):
    X=             -1.3321    Y=              0.9492    Z=              0.4764  Tot=              1.7036
                          Isotropic Fermi Contact Couplings
        Atom                 a.u.       MegaHertz       Gauss      10(-4) cm-1
     1  C(13)              0.00314       3.53288       1.26062       1.17844
     2  C(13)              0.00180       2.02494       0.72255       0.67545
     3  C(13)             -0.00016      -0.18319      -0.06537      -0.06111
     4  C(13)              0.00032       0.36359       0.12974       0.12128
     5  C(13)             -0.00147      -1.64883      -0.58834      -0.54999
     6  C(13)              0.06608      74.28189      26.50563      24.77777
     7  C(13)              0.01794      20.16410       7.19505       6.72602
     8  B(11)              0.33394     478.99564     170.91756     159.77575

 Normal termination of Gaussian 16 at Wed Apr  9 00:35:19 2025.
