 Gaussian 16, Revision C.01,

 ----------------------------------------------------------------------
 #t hf aug-cc-pvdz symm=none int=(grid=ultrafine) guess=(read,tcheck) s
 table=(opt,rrhf)
 ----------------------------------------------------------------------
 -----
 title
 -----
 Symbolic Z-matrix:
 Charge =  0 Multiplicity = 1

 SCF Done:  E(RHF) =  -629.222317465     A.U. after   15 cycles
 Normal termination of Gaussian 16 at Tue Apr  8 23:12:56 2025.
 Gaussian 16:  ES64L-G16RevC.01  3-Jul-2019

 ----------------------------------------------------------------------
 #t hf aug-cc-pvdz iop(5/13=1,5/36=2,99/5=2) pseudo=read geom=check gue
 ss=(read,tcheck) scf=(maxcycle=1)
 ----------------------------------------------------------------------
 -----
 title
 -----
 Structure from the checkpoint file:  "BDE49_expt_482_mol1.chk"
 Charge =  0 Multiplicity = 1

                         Standard orientation:
 ---------------------------------------------------------------------
 Center     Atomic      Atomic             Coordinates (Angstroms)
 Number     Number       Type             X           Y           Z
 ---------------------------------------------------------------------
      1          6           0       -2.001421   -1.070371   -0.722458
      2          6           0       -0.691862   -0.620282   -0.745236
      3          6           0       -3.014749   -0.300302   -0.139249
      4          6           0       -2.687493    0.932289    0.426747
      5          6           0       -1.361980    1.367670    0.425892
      6          6           0       -0.345278    0.608568   -0.158173
      7          7           0        0.964589    1.118608   -0.202472
      8          1           0       -2.270533   -2.017754   -1.173874
      9          1           0        0.068247   -1.214817   -1.235705
     10          1           0       -3.443339    1.556463    0.884110
     11          1           0       -1.116186    2.316027    0.892740
     12          6           0        2.171481    0.437216   -0.043469
     13          1           0        1.038012    2.122811   -0.232035
     14          6           0        3.364499    1.096123   -0.390579
     15          6           0        2.255271   -0.865596    0.473881
     16          6           0        3.494132   -1.482129    0.621964
     17          6           0        4.672610   -0.825131    0.276153
     18          6           0        4.594670    0.473903   -0.224885
     19          1           0        1.356403   -1.385071    0.778093
     20          1           0        3.533956   -2.488041    1.025984
     21          1           0        3.315383    2.101182   -0.798491
     22          1           0        5.632303   -1.313123    0.396457
     23          1           0        5.498958    1.006628   -0.498511
     24          8           0       -4.271753   -0.835799   -0.180227
     25          6           0       -5.335338   -0.096406    0.398109
     26          1           0       -5.176954    0.067091    1.470520
     27          1           0       -6.230471   -0.700044    0.256358
     28          1           0       -5.471132    0.871468   -0.098710
 ---------------------------------------------------------------------

 SCF Done:  E(RHF) =  -629.410230741     A.U. after    2 cycles

 The electronic state is 1-A.
 Alpha  occ. eigenvalues --  -20.59695 -15.64120 -11.30589 -11.29673 -11.29439
 Alpha  occ. eigenvalues --  -11.28651 -11.24748 -11.24568 -11.24557 -11.24531
 Alpha  occ. eigenvalues --  -11.24452 -11.24173 -11.23539 -11.23241 -11.22943
 Alpha  occ. eigenvalues --   -1.36596  -1.22814  -1.14402  -1.11410  -1.02552
 Alpha  occ. eigenvalues --   -1.01588  -1.00607  -0.97881  -0.93191  -0.85154
 Alpha  occ. eigenvalues --   -0.83546  -0.82560  -0.79378  -0.73022  -0.71831
 Alpha  occ. eigenvalues --   -0.70480  -0.67398  -0.66454  -0.66111  -0.63101
 Alpha  occ. eigenvalues --   -0.61335  -0.60754  -0.59731  -0.58864  -0.58611
 Alpha  occ. eigenvalues --   -0.56016  -0.54643  -0.52959  -0.52559  -0.51175
 Alpha  occ. eigenvalues --   -0.49295  -0.49214  -0.48560  -0.43834  -0.34860
 Alpha  occ. eigenvalues --   -0.34013  -0.32932  -0.26867
 Alpha virt. eigenvalues --    0.03006   0.03420   0.03762   0.04554   0.04724
 Alpha virt. eigenvalues --    0.05465   0.05750   0.06128   0.06433   0.07531
 Alpha virt. eigenvalues --    0.07698   0.08844   0.09146   0.09850   0.10578

 Mulliken charges:
               1
     1  C    0.773035
     2  C    1.181806
     3  C    0.648055
     4  C    0.706805
     5  C    0.405115
     6  C   -0.398276
     7  N   -0.747664
     8  H   -0.602279
     9  H   -0.657973
    10  H   -0.725100
    11  H   -0.621901
    12  C    0.242490
    13  H   -0.103977
    14  C    0.570414
    15  C    0.586358
    16  C    0.485491
    17  C    0.621601
    18  C    0.576758
    19  H   -0.625456
    20  H   -0.459389
    21  H   -0.626571
    22  H   -0.459185
    23  H   -0.451891
    24  O   -0.704086
    25  C    0.889326
    26  H   -0.098273
    27  H   -0.312825
    28  H   -0.092410
 Sum of Mulliken charges =  -0.00000

 Dipole moment (field-independent basis, Debye):
    X=             -1.1877    Y=              1.8003    Z=              0.6302  Tot=              2.2470

 Test job not archived.
 1\1\GINC-SE461\SP\RHF\Aug-CC-pVDZ\C13H13N1O1\OHZDE\08-Apr-2025\0\\#t h
 f aug-cc-pvdz iop(5/13=1,5/36=2,99/5=2) pseudo=read geom=check guess=(
 read,tcheck) scf=(maxcycle=1)\\title\\0,1\C,0,2.001421,-1.070371,0.722
 458\C,0,0.691862,-0.620282,0.745236\C,0,3.014749,-0.300302,0.139249\C,
 0,2.687493,0.932289,-0.426747\C,0,1.36198,1.36767,-0.425892\C,0,0.3452
 78,0.608568,0.158173\N,0,-0.964589,1.118608,0.202472\H,0,2.270533,-2.0
 17754,1.173874\H,0,-0.068247,-1.214817,1.235705\H,0,3.443339,1.556463,
 -0.88411\H,0,1.116186,2.316027,-0.89274\C,0,-2.171481,0.437216,0.04346

 Normal termination of Gaussian 16 at Tue Apr  8 23:13:23 2025.
