 Gaussian 16, Revision C.01,

 ----------------------------------------------------------------------
 #t hf aug-cc-pvdz symm=none int=(grid=ultrafine) guess=(read,tcheck) s
 table=(opt,rrhf)
 ----------------------------------------------------------------------
 -----
 title
 -----
 Symbolic Z-matrix:
 Charge =  0 Multiplicity = 1

 SCF Done:  E(RHF) =  -1375.21853690     A.U. after   14 cycles
 Normal termination of Gaussian 16 at Tue Apr  8 23:43:42 2025.
 Gaussian 16:  ES64L-G16RevC.01  3-Jul-2019

 ----------------------------------------------------------------------
 #t hf aug-cc-pvdz iop(5/13=1,5/36=2,99/5=2) pseudo=read geom=check gue
 ss=(read,tcheck) scf=(maxcycle=1)
 ----------------------------------------------------------------------
 -----
 title
 -----
 Structure from the checkpoint file:  "BDE49_nonexpt_1728_mol1.chk"
 Charge =  0 Multiplicity = 1

                         Standard orientation:
 ---------------------------------------------------------------------
 Center     Atomic      Atomic             Coordinates (Angstroms)
 Number     Number       Type             X           Y           Z
 ---------------------------------------------------------------------
      1         16           0       -0.253004    1.349456   -0.018735
      2         15           0       -1.794423   -0.118667   -0.043494
      3          8           0       -3.000847    0.618786   -0.404249
      4          8           0       -1.401793   -1.297119   -1.018889
      5          8           0        1.039220    0.514248    0.790657
      6          6           0        1.975534   -0.095961    0.023791
      7          9           0        1.464796   -1.172947   -0.643762
      8          9           0        2.927721   -0.541537    0.834210
      9          9           0        2.518893    0.704635   -0.895777
     10          1           0       -0.537825   -1.699923   -0.853603
     11          8           0       -1.712345   -0.856123    1.369746
     12          1           0       -1.947548   -0.285288    2.112866
 ---------------------------------------------------------------------

 SCF Done:  E(RHF) =  -1375.52889642     A.U. after    2 cycles

 The electronic state is 1-A.
 Alpha  occ. eigenvalues --  -93.64562 -81.46897 -26.20341 -26.20026 -26.20011
 Alpha  occ. eigenvalues --  -20.68541 -20.65395 -20.64648 -20.56022 -11.61354
 Alpha  occ. eigenvalues --   -8.93757  -7.95075  -6.27935  -6.27515  -6.27192
 Alpha  occ. eigenvalues --   -5.09727  -5.09602  -5.09264  -1.80342  -1.73077
 Alpha  occ. eigenvalues --   -1.72730  -1.43771  -1.41772  -1.38171  -1.29689
 Alpha  occ. eigenvalues --   -1.07099  -1.00046  -0.92810  -0.92408  -0.88581
 Alpha  occ. eigenvalues --   -0.86662  -0.81612  -0.81319  -0.80430  -0.76605
 Alpha  occ. eigenvalues --   -0.76350  -0.75262  -0.73874  -0.70695  -0.69108
 Alpha  occ. eigenvalues --   -0.64850  -0.64493  -0.63074  -0.61871  -0.60292
 Alpha  occ. eigenvalues --   -0.54317  -0.52710  -0.47694  -0.43586
 Alpha virt. eigenvalues --    0.02969   0.04863   0.04985   0.06898   0.08345
 Alpha virt. eigenvalues --    0.09246   0.09407   0.10383   0.10685   0.11594
 Alpha virt. eigenvalues --    0.13229   0.13450   0.15205   0.15946   0.17756

 Mulliken charges:
               1
     1  S    0.208557
     2  P    2.133125
     3  O   -0.822646
     4  O   -0.617204
     5  O   -0.792788
     6  C    1.083559
     7  F   -0.354240
     8  F   -0.238973
     9  F   -0.274286
    10  H    0.189826
    11  O   -0.696105
    12  H    0.181175
 Sum of Mulliken charges =  -0.00000

 Dipole moment (field-independent basis, Debye):
    X=              1.7442    Y=             -0.4116    Z=              2.1387  Tot=              2.7903

 Test job not archived.
 1\1\GINC-SE109\SP\RHF\Aug-CC-pVDZ\C1H2F3O4P1S1\OHZDE\08-Apr-2025\0\\#t
  hf aug-cc-pvdz iop(5/13=1,5/36=2,99/5=2) pseudo=read geom=check guess
 =(read,tcheck) scf=(maxcycle=1)\\title\\0,1\S,0,-0.253004,1.349456,-0.
 018735\P,0,-1.794423,-0.118667,-0.043494\O,0,-3.000847,0.618786,-0.404
 249\O,0,-1.401793,-1.297119,-1.018889\O,0,1.03922,0.514248,0.790657\C,
 0,1.975534,-0.095961,0.023791\F,0,1.464796,-1.172947,-0.643762\F,0,2.9
 27721,-0.541537,0.83421\F,0,2.518893,0.704635,-0.895777\H,0,-0.537825,
 -1.699923,-0.853603\O,0,-1.712345,-0.856123,1.369746\H,0,-1.947548,-0.

 Normal termination of Gaussian 16 at Tue Apr  8 23:43:50 2025.
