 Gaussian 16, Revision C.01,

 ----------------------------------------------------------------------
 #t hf aug-cc-pvdz symm=none int=(grid=ultrafine) guess=(read,tcheck) s
 table=(opt,rrhf)
 ----------------------------------------------------------------------
 -----
 title
 -----
 Symbolic Z-matrix:
 Charge =  0 Multiplicity = 1

 SCF Done:  E(RHF) =  -1061.07820074     A.U. after   15 cycles
 Normal termination of Gaussian 16 at Wed Apr  9 00:14:33 2025.
 Gaussian 16:  ES64L-G16RevC.01  3-Jul-2019

 ----------------------------------------------------------------------
 #t hf aug-cc-pvdz iop(5/13=1,5/36=2,99/5=2) pseudo=read geom=check gue
 ss=(read,tcheck) scf=(maxcycle=1)
 ----------------------------------------------------------------------
 -----
 title
 -----
 Structure from the checkpoint file:  "BDE49_nonexpt_2529_mol1.chk"
 Charge =  0 Multiplicity = 1

                         Standard orientation:
 ---------------------------------------------------------------------
 Center     Atomic      Atomic             Coordinates (Angstroms)
 Number     Number       Type             X           Y           Z
 ---------------------------------------------------------------------
      1         17           0       -1.824451    0.321530    0.000116
      2          7           0        1.215687    0.229390   -0.000004
      3         16           0       -0.233976   -0.948585   -0.000176
      4          8           0        2.250151   -0.398640    0.000111
      5          8           0        1.031033    1.411844   -0.000001
 ---------------------------------------------------------------------

 SCF Done:  E(RHF) =  -1061.18405172     A.U. after    2 cycles

 The electronic state is 1-A.
 Alpha  occ. eigenvalues -- -103.72698 -93.68185 -20.66711 -20.65905 -15.96758
 Alpha  occ. eigenvalues --  -10.75870  -8.97204  -8.41604  -8.41229  -8.41185
 Alpha  occ. eigenvalues --   -6.31205  -6.30962  -6.30443  -1.59790  -1.42541
 Alpha  occ. eigenvalues --   -1.22325  -1.03956  -0.88086  -0.78869  -0.77854
 Alpha  occ. eigenvalues --   -0.76886  -0.60187  -0.56667  -0.55766  -0.53815
 Alpha  occ. eigenvalues --   -0.51832  -0.48761  -0.42775
 Alpha virt. eigenvalues --    0.02276   0.04099   0.05683   0.08826   0.09552
 Alpha virt. eigenvalues --    0.10435   0.11140   0.13639   0.14154   0.15324
 Alpha virt. eigenvalues --    0.17201   0.17524   0.17735   0.23688   0.25034

 Mulliken charges:
               1
     1  Cl  -0.192696
     2  N    0.404422
     3  S    0.725536
     4  O   -0.490654
     5  O   -0.446609
 Sum of Mulliken charges =  -0.00000

 Dipole moment (field-independent basis, Debye):
    X=             -2.1765    Y=             -1.5980    Z=             -0.0003  Tot=              2.7002

 Test job not archived.
 1\1\GINC-SE366\SP\RHF\Aug-CC-pVDZ\Cl1N1O2S1\OHZDE\09-Apr-2025\0\\#t hf
  aug-cc-pvdz iop(5/13=1,5/36=2,99/5=2) pseudo=read geom=check guess=(r
 ead,tcheck) scf=(maxcycle=1)\\title\\0,1\Cl,0,-1.824451,0.32153,0.0001
 16\N,0,1.215687,0.22939,-0.000004\S,0,-0.233976,-0.948585,-0.000176\O,
 0,2.250151,-0.39864,0.000111\O,0,1.031033,1.411844,-0.000001\\Version=
 ES64L-G16RevC.01\State=1-A\HF=-1061.1840517\RMSD=4.377e-03\Dipole=-0.8
 563042,-0.6287061,-0.0001275\Quadrupole=-1.8260674,0.6918367,1.1342307
 ,-0.3670585,-0.0005038,0.0005365\PG=C01 [X(Cl1N1O2S1)]\\@

 Normal termination of Gaussian 16 at Wed Apr  9 00:14:35 2025.
