 Gaussian 16, Revision C.01,

 ----------------------------------------------------------------------
 #t hf aug-cc-pvdz symm=none int=(grid=ultrafine) guess=(read,tcheck) s
 table=opt
 ----------------------------------------------------------------------
 -----
 title
 -----
 Symbolic Z-matrix:
 Charge =  0 Multiplicity = 2

 SCF Done:  E(UHF) =  -624.740182991     A.U. after   21 cycles
 Normal termination of Gaussian 16 at Tue Apr  8 23:13:54 2025.
 Gaussian 16:  ES64L-G16RevC.01  3-Jul-2019

 ----------------------------------------------------------------------
 #t hf aug-cc-pvdz iop(5/13=1,5/36=2,99/5=2) pseudo=read geom=check gue
 ss=(read,tcheck) scf=(maxcycle=1)
 ----------------------------------------------------------------------
 -----
 title
 -----
 Structure from the checkpoint file:  "BDE49_nonexpt_1007_mol2.chk"
 Charge =  0 Multiplicity = 2

                         Standard orientation:
 ---------------------------------------------------------------------
 Center     Atomic      Atomic             Coordinates (Angstroms)
 Number     Number       Type             X           Y           Z
 ---------------------------------------------------------------------
      1         16           0        1.805529   -0.068320   -0.000078
      2          8           0        0.253261   -0.669722    0.000034
      3          6           0       -0.849283    0.216984    0.000121
      4          6           0       -2.108861   -0.602150    0.000019
      5          1           0       -2.969918    0.062640   -0.000046
      6          1           0       -2.128460   -1.248641    0.879928
      7          1           0       -2.128331   -1.248644   -0.879892
      8          8           0       -0.742374    1.399568    0.000019
 ---------------------------------------------------------------------

 SCF Done:  E(UHF) =  -624.835648220     A.U. after    2 cycles

 The electronic state is 2-A.
 Alpha  occ. eigenvalues --  -93.61627 -20.65555 -20.59031 -11.41907 -11.27005
 Alpha  occ. eigenvalues --   -8.90705  -6.25918  -6.24502  -6.23793  -1.43532
 Alpha  occ. eigenvalues --   -1.35588  -1.04970  -0.95449  -0.78692  -0.71716
 Alpha  occ. eigenvalues --   -0.69493  -0.68975  -0.60821  -0.60037  -0.57026
 Alpha  occ. eigenvalues --   -0.54073  -0.49063  -0.43894  -0.39243
 Alpha virt. eigenvalues --    0.03259   0.05433   0.05740   0.06332   0.07906
 Alpha virt. eigenvalues --    0.10813   0.11445   0.12670   0.13728   0.13750
 Alpha virt. eigenvalues --    0.15089   0.15604   0.16073   0.16225   0.17947

  Beta  occ. eigenvalues --  -93.60746 -20.65050 -20.59013 -11.41929 -11.27009
  Beta  occ. eigenvalues --   -8.89725  -6.24096  -6.23263  -6.21944  -1.42895
  Beta  occ. eigenvalues --   -1.34624  -1.04195  -0.90604  -0.76458  -0.71391
  Beta  occ. eigenvalues --   -0.67464  -0.66834  -0.60479  -0.57838  -0.56107
  Beta  occ. eigenvalues --   -0.52561  -0.48889  -0.37148
  Beta virt. eigenvalues --    0.00666   0.03273   0.05567   0.05745   0.06690
  Beta virt. eigenvalues --    0.08211   0.11595   0.11662   0.13094   0.13754
  Beta virt. eigenvalues --    0.14462   0.15644   0.16090   0.16357   0.16602

 Mulliken charges and spin densities:
               1          2
     1  S    0.464383   0.976314
     2  O   -0.807456   0.021110
     3  C    0.395862  -0.004735
     4  C    0.229924   0.000491
     5  H    0.008152  -0.000817
     6  H    0.040289   0.001312
     7  H    0.040289   0.001313
     8  O   -0.371444   0.005013
 Sum of Mulliken charges =  -0.00000   1.00000

 Dipole moment (field-independent basis, Debye):
    X=             -1.3561    Y=             -1.9972    Z=              0.0001  Tot=              2.4141
                          Isotropic Fermi Contact Couplings
        Atom                 a.u.       MegaHertz       Gauss      10(-4) cm-1
     1  S(33)              0.20493      70.38849      25.11636      23.47907
     2  O(17)              0.05440     -32.97956     -11.76793     -11.00080
     3  C(13)             -0.00284      -3.19774      -1.14103      -1.06665
     4  C(13)             -0.00107      -1.20750      -0.43087      -0.40278
     5  H(1)              -0.00016      -0.73616      -0.26268      -0.24556
     6  H(1)               0.00016       0.72154       0.25746       0.24068
     7  H(1)               0.00016       0.72178       0.25755       0.24076
     8  O(17)              0.00055      -0.33432      -0.11929      -0.11152

 Normal termination of Gaussian 16 at Tue Apr  8 23:13:57 2025.
