 Gaussian 16, Revision C.01,

 ----------------------------------------------------------------------
 #t hf aug-cc-pvdz symm=none int=(grid=ultrafine) guess=(read,tcheck) s
 table=opt
 ----------------------------------------------------------------------
 -----
 title
 -----
 Symbolic Z-matrix:
 Charge =  0 Multiplicity = 2

 SCF Done:  E(UHF) =  -406.560133120     A.U. after   21 cycles

 1\1\GINC-SE247\Stability\UHF\Aug-CC-pVDZ\C3H7Si1\OHZDE\08-Apr-2025\0\\
 #t hf aug-cc-pvdz symm=none int=(grid=ultrafine) guess=(read,tcheck) s
 table=opt\\title\\0,2\Si,0,1.584001,-0.238842,-0.030227\C,0,0.034624,0
 .852529,-0.255782\C,0,-1.132656,0.217671,0.439682\C,0,-2.119255,-0.451
 719,-0.158185\H,0,-2.919803,-0.907136,0.412837\H,0,-2.160953,-0.564135
 ,-1.237362\H,0,-0.155885,0.96799,-1.326465\H,0,0.248501,1.844615,0.153
 491\H,0,-1.135303,0.296424,1.525064\H,0,1.380207,-1.563314,-0.674759\H
 ,0,1.870939,-0.441542,1.416085\\Version=ES64L-G16RevC.01\HF=-406.56013

 Normal termination of Gaussian 16 at Tue Apr  8 23:44:20 2025.
 Gaussian 16:  ES64L-G16RevC.01  3-Jul-2019

 ----------------------------------------------------------------------
 #t hf aug-cc-pvdz iop(5/13=1,5/36=2,99/5=2) pseudo=read geom=check gue
 ss=(read,tcheck) scf=(maxcycle=1)
 ----------------------------------------------------------------------
 -----
 title
 -----
 Structure from the checkpoint file:  "BDE49_nonexpt_1754_mol2.chk"
 Charge =  0 Multiplicity = 2

                         Standard orientation:
 ---------------------------------------------------------------------
 Center     Atomic      Atomic             Coordinates (Angstroms)
 Number     Number       Type             X           Y           Z
 ---------------------------------------------------------------------
      1         14           0        1.584001   -0.238842   -0.030227
      2          6           0        0.034624    0.852529   -0.255782
      3          6           0       -1.132656    0.217671    0.439682
      4          6           0       -2.119255   -0.451719   -0.158185
      5          1           0       -2.919803   -0.907136    0.412837
      6          1           0       -2.160953   -0.564135   -1.237362
      7          1           0       -0.155885    0.967990   -1.326465
      8          1           0        0.248501    1.844615    0.153491
      9          1           0       -1.135303    0.296424    1.525064
     10          1           0        1.380207   -1.563314   -0.674759
     11          1           0        1.870939   -0.441542    1.416085
 ---------------------------------------------------------------------

 SCF Done:  E(UHF) =  -406.617544067     A.U. after    2 cycles

 The electronic state is 2-A.
 Alpha  occ. eigenvalues --  -69.07025 -11.25002 -11.23808 -11.23572  -6.82344
 Alpha  occ. eigenvalues --   -3.93684  -3.92788  -3.92769  -1.06236  -0.93791
 Alpha  occ. eigenvalues --   -0.76459  -0.68688  -0.64693  -0.59927  -0.54870
 Alpha  occ. eigenvalues --   -0.50585  -0.47733  -0.47544  -0.37486  -0.31493
 Alpha virt. eigenvalues --    0.03373   0.04592   0.04742   0.05054   0.06530
 Alpha virt. eigenvalues --    0.06975   0.07702   0.08508   0.08653   0.10565
 Alpha virt. eigenvalues --    0.11858   0.13066   0.14246   0.14851   0.15965

  Beta  occ. eigenvalues --  -69.06488 -11.25519 -11.23674 -11.22918  -6.81544
  Beta  occ. eigenvalues --   -3.92438  -3.92419  -3.91560  -1.06386  -0.92633
  Beta  occ. eigenvalues --   -0.76409  -0.65461  -0.64146  -0.59553  -0.54598
  Beta  occ. eigenvalues --   -0.50381  -0.47522  -0.46702  -0.35206
  Beta virt. eigenvalues --    0.02938   0.03813   0.04720   0.05111   0.05633
  Beta virt. eigenvalues --    0.06704   0.07417   0.08208   0.08555   0.09304
  Beta virt. eigenvalues --    0.10859   0.12218   0.13262   0.14485   0.15186

 Mulliken charges and spin densities:
               1          2
     1  Si   0.308053   0.953154
     2  C   -0.047522   0.043195
     3  C    0.637851  -0.391995
     4  C    0.376590   0.403464
     5  H   -0.288356  -0.025266
     6  H   -0.292937  -0.023477
     7  H   -0.209366  -0.001781
     8  H   -0.078284  -0.003153
     9  H   -0.412727   0.015863
    10  H    0.003026   0.017748
    11  H    0.003673   0.012248
 Sum of Mulliken charges =   0.00000   1.00000

 Dipole moment (field-independent basis, Debye):
    X=             -0.2036    Y=              0.5759    Z=             -0.1042  Tot=              0.6196
                          Isotropic Fermi Contact Couplings
        Atom                 a.u.       MegaHertz       Gauss      10(-4) cm-1
     1  Si(29)             0.48830    -433.96157    -154.84828    -144.75400
     2  C(13)              0.02783      31.28907      11.16472      10.43691
     3  C(13)             -0.03444     -38.71246     -13.81357     -12.91309
     4  C(13)              0.05911      66.45499      23.71279      22.16700
     5  H(1)              -0.00630     -28.15014     -10.04467      -9.38987
     6  H(1)              -0.00646     -28.85566     -10.29642      -9.62521
     7  H(1)              -0.00119      -5.31136      -1.89523      -1.77168
     8  H(1)              -0.00316     -14.12530      -5.04026      -4.71169

 Normal termination of Gaussian 16 at Tue Apr  8 23:44:23 2025.
