 Gaussian 16, Revision C.01,

 ----------------------------------------------------------------------
 #t hf aug-cc-pvdz symm=none int=(grid=ultrafine) guess=(read,tcheck) s
 table=(opt,rrhf)
 ----------------------------------------------------------------------
 -----
 title
 -----
 Symbolic Z-matrix:
 Charge =  0 Multiplicity = 1

 SCF Done:  E(RHF) =  -496.933916517     A.U. after   15 cycles
 Normal termination of Gaussian 16 at Wed Apr  9 00:25:34 2025.
 Gaussian 16:  ES64L-G16RevC.01  3-Jul-2019

 ----------------------------------------------------------------------
 #t hf aug-cc-pvdz iop(5/13=1,5/36=2,99/5=2) pseudo=read geom=check gue
 ss=(read,tcheck) scf=(maxcycle=1)
 ----------------------------------------------------------------------
 -----
 title
 -----
 Structure from the checkpoint file:  "BDE49_nonexpt_287_mol1.chk"
 Charge =  0 Multiplicity = 1

                         Standard orientation:
 ---------------------------------------------------------------------
 Center     Atomic      Atomic             Coordinates (Angstroms)
 Number     Number       Type             X           Y           Z
 ---------------------------------------------------------------------
      1          6           0       -0.033754    0.301189    0.405878
      2          7           0       -0.754436   -1.014940    0.232423
      3          5           0        1.534735    0.158045    0.110796
      4          8           0       -0.565412   -1.628675   -0.822543
      5          8           0       -1.494617   -1.392326    1.119720
      6          8           0        2.330882    1.064260    0.738811
      7          8           0        2.054560   -0.752144   -0.745408
      8          1           0       -0.221530    0.582171    1.441756
      9          6           0       -0.669515    1.341827   -0.546332
     10          6           0       -2.157209    1.598509   -0.295003
     11          1           0       -0.507993    1.018247   -1.578495
     12          1           0       -0.100759    2.266241   -0.410737
     13          1           0       -2.758351    0.702737   -0.469179
     14          1           0       -2.525558    2.378744   -0.965461
     15          1           0       -2.334679    1.925428    0.733103
     16          1           0        1.359587   -1.310176   -1.128915
     17          1           0        3.256228    0.972888    0.485098
 ---------------------------------------------------------------------

 SCF Done:  E(RHF) =  -497.093026275     A.U. after    2 cycles

 The electronic state is 1-A.
 Alpha  occ. eigenvalues --  -20.63467 -20.62306 -20.60078 -20.59366 -15.91980
 Alpha  occ. eigenvalues --  -11.30156 -11.27225 -11.24502  -7.68447  -1.55691
 Alpha  occ. eigenvalues --   -1.37476  -1.36105  -1.32612  -1.11867  -1.01332
 Alpha  occ. eigenvalues --   -0.89731  -0.83633  -0.80801  -0.77264  -0.75294
 Alpha  occ. eigenvalues --   -0.73801  -0.72683  -0.66944  -0.62668  -0.61497
 Alpha  occ. eigenvalues --   -0.60499  -0.59930  -0.57391  -0.54215  -0.53879
 Alpha  occ. eigenvalues --   -0.52245  -0.51189  -0.50236  -0.48707  -0.48357
 Alpha virt. eigenvalues --    0.02747   0.03826   0.04360   0.05248   0.06063
 Alpha virt. eigenvalues --    0.06386   0.06558   0.07524   0.07647   0.08525
 Alpha virt. eigenvalues --    0.09083   0.09311   0.10375   0.12860   0.13403

 Mulliken charges:
               1
     1  C    0.810989
     2  N    0.343271
     3  B    0.836307
     4  O   -0.656999
     5  O   -0.542362
     6  O   -0.518910
     7  O   -0.452148
     8  H   -0.350525
     9  C    0.068444
    10  C    0.418096
    11  H   -0.125002
    12  H   -0.186461
    13  H   -0.051259
    14  H   -0.054907
    15  H   -0.039880
    16  H    0.299873
    17  H    0.201473
 Sum of Mulliken charges =  -0.00000

 Dipole moment (field-independent basis, Debye):
    X=              1.1580    Y=              3.1346    Z=             -0.4474  Tot=              3.3715

 Test job not archived.
 1\1\GINC-SE329\SP\RHF\Aug-CC-pVDZ\C3H8B1N1O4\OHZDE\09-Apr-2025\0\\#t h
 f aug-cc-pvdz iop(5/13=1,5/36=2,99/5=2) pseudo=read geom=check guess=(
 read,tcheck) scf=(maxcycle=1)\\title\\0,1\C,0,-0.033754,0.301189,0.405
 878\N,0,-0.754436,-1.01494,0.232423\B,0,1.534735,0.158045,0.110796\O,0
 ,-0.565412,-1.628675,-0.822543\O,0,-1.494617,-1.392326,1.11972\O,0,2.3
 30882,1.06426,0.738811\O,0,2.05456,-0.752144,-0.745408\H,0,-0.22153,0.
 582171,1.441756\C,0,-0.669515,1.341827,-0.546332\C,0,-2.157209,1.59851
 ,-0.295003\H,0,-0.507993,1.018247,-1.578495\H,0,-0.100758,2.266241,-0.

 Normal termination of Gaussian 16 at Wed Apr  9 00:25:42 2025.
