 Gaussian 16, Revision C.01,

 ----------------------------------------------------------------------
 #t hf aug-cc-pvdz symm=none int=(grid=ultrafine) guess=(read,tcheck) s
 table=(opt,rrhf)
 ----------------------------------------------------------------------
 -----
 title
 -----
 Symbolic Z-matrix:
 Charge =  0 Multiplicity = 1

 SCF Done:  E(RHF) =  -932.455473002     A.U. after   14 cycles
 Normal termination of Gaussian 16 at Wed Apr  9 00:14:32 2025.
 Gaussian 16:  ES64L-G16RevC.01  3-Jul-2019

 ----------------------------------------------------------------------
 #t hf aug-cc-pvdz iop(5/13=1,5/36=2,99/5=2) pseudo=read geom=check gue
 ss=(read,tcheck) scf=(maxcycle=1)
 ----------------------------------------------------------------------
 -----
 title
 -----
 Structure from the checkpoint file:  "BDE49_nonexpt_2526_mol1.chk"
 Charge =  0 Multiplicity = 1

                         Standard orientation:
 ---------------------------------------------------------------------
 Center     Atomic      Atomic             Coordinates (Angstroms)
 Number     Number       Type             X           Y           Z
 ---------------------------------------------------------------------
      1         17           0       -1.359154   -0.204489   -0.002456
      2          8           0        1.558642   -0.683864   -0.119189
      3         16           0        0.558620    0.624761    0.014316
      4          1           0        1.698573   -1.048948    0.766217
 ---------------------------------------------------------------------

 SCF Done:  E(RHF) =  -932.526326747     A.U. after    2 cycles

 The electronic state is 1-A.
 Alpha  occ. eigenvalues -- -103.68459 -93.65724 -20.65048 -10.71660  -8.94424
 Alpha  occ. eigenvalues --   -8.37379  -8.37042  -8.37005  -6.28507  -6.28217
 Alpha  occ. eigenvalues --   -6.27702  -1.38258  -1.16624  -0.92650  -0.73647
 Alpha  occ. eigenvalues --   -0.64248  -0.62294  -0.52054  -0.50206  -0.48515
 Alpha  occ. eigenvalues --   -0.38353
 Alpha virt. eigenvalues --    0.03309   0.04273   0.07811   0.11111   0.11537
 Alpha virt. eigenvalues --    0.13024   0.15178   0.16179   0.16711   0.17902
 Alpha virt. eigenvalues --    0.20207   0.21773   0.25647   0.27808   0.31610

 Mulliken charges:
               1
     1  Cl  -0.295561
     2  O   -0.621228
     3  S    0.729950
     4  H    0.186838
 Sum of Mulliken charges =  -0.00000

 Dipole moment (field-independent basis, Debye):
    X=              1.1856    Y=              0.0201    Z=              1.5495  Tot=              1.9511

 Test job not archived.
 1\1\GINC-SE339\SP\RHF\Aug-CC-pVDZ\Cl1H1O1S1\OHZDE\09-Apr-2025\0\\#t hf
  aug-cc-pvdz iop(5/13=1,5/36=2,99/5=2) pseudo=read geom=check guess=(r
 ead,tcheck) scf=(maxcycle=1)\\title\\0,1\Cl,0,-1.359154,-0.204489,-0.0
 02456\O,0,1.558642,-0.683864,-0.119189\S,0,0.55862,0.624761,0.014316\H
 ,0,1.698573,-1.048948,0.766217\\Version=ES64L-G16RevC.01\State=1-A\HF=
 -932.5263267\RMSD=3.509e-03\Dipole=0.4664379,0.0078895,0.6096049\Quadr
 upole=0.2263607,0.5639516,-0.7903124,-0.3152803,2.2486766,-1.4835571\P
 G=C01 [X(Cl1H1O1S1)]\\@

 Normal termination of Gaussian 16 at Wed Apr  9 00:14:34 2025.
