 Gaussian 16, Revision C.01,

 ----------------------------------------------------------------------
 #t hf aug-cc-pvdz symm=none int=(grid=ultrafine) guess=(read,tcheck) s
 table=(opt,rrhf)
 ----------------------------------------------------------------------
 -----
 title
 -----
 Symbolic Z-matrix:
 Charge =  0 Multiplicity = 1

 SCF Done:  E(RHF) =  -802.394759474     A.U. after   16 cycles
 Normal termination of Gaussian 16 at Tue Apr  8 23:00:25 2025.
 Gaussian 16:  ES64L-G16RevC.01  3-Jul-2019

 ----------------------------------------------------------------------
 #t hf aug-cc-pvdz iop(5/13=1,5/36=2,99/5=2) pseudo=read geom=check gue
 ss=(read,tcheck) scf=(maxcycle=1)
 ----------------------------------------------------------------------
 -----
 title
 -----
 Structure from the checkpoint file:  "BDE49_expt_206_mol1.chk"
 Charge =  0 Multiplicity = 1

                         Standard orientation:
 ---------------------------------------------------------------------
 Center     Atomic      Atomic             Coordinates (Angstroms)
 Number     Number       Type             X           Y           Z
 ---------------------------------------------------------------------
      1          6           0        2.498244   -1.537916    0.000000
      2          8           0        3.588849   -1.016361    0.000000
      3          6           0        1.213149   -0.801729    0.000000
      4          1           0        2.395227   -2.644614    0.000000
      5          6           0        1.201402    0.598805   -0.000000
      6          6           0        0.000000    1.290280   -0.000000
      7          6           0       -1.195684    0.569521   -0.000000
      8          6           0       -1.208806   -0.822545    0.000000
      9          6           0        0.004026   -1.502446    0.000000
     10          1           0        0.010884   -2.587827    0.000000
     11          1           0        2.147985    1.125971   -0.000000
     12          1           0       -0.022828    2.372255   -0.000000
     13         17           0       -2.715624    1.438637   -0.000000
     14          1           0       -2.150441   -1.355559    0.000000
 ---------------------------------------------------------------------

 SCF Done:  E(RHF) =  -802.515091227     A.U. after    2 cycles

 The electronic state is 1-A'.
 Alpha  occ. eigenvalues -- -103.68200 -20.58015 -11.35727 -11.33845 -11.28632
 Alpha  occ. eigenvalues --  -11.27931 -11.27748 -11.27596 -11.27320 -10.71474
 Alpha  occ. eigenvalues --   -8.37211  -8.36899  -8.36886  -1.36719  -1.21715
 Alpha  occ. eigenvalues --   -1.15635  -1.04905  -1.03939  -0.89409  -0.87083
 Alpha  occ. eigenvalues --   -0.80736  -0.73218  -0.69651  -0.67130  -0.64697
 Alpha  occ. eigenvalues --   -0.63621  -0.62712  -0.58163  -0.55384  -0.55271
 Alpha  occ. eigenvalues --   -0.53704  -0.48895  -0.48274  -0.45235  -0.37462
 Alpha  occ. eigenvalues --   -0.36113
 Alpha virt. eigenvalues --    0.02973   0.03898   0.04414   0.04415   0.06163
 Alpha virt. eigenvalues --    0.06450   0.07724   0.08913   0.09127   0.10175
 Alpha virt. eigenvalues --    0.11390   0.12010   0.13084   0.13176   0.13530

 Mulliken charges:
               1
     1  C    0.657619
     2  O   -0.487876
     3  C    0.703445
     4  H   -0.256882
     5  C    0.411617
     6  C    0.720814
     7  C   -0.607920
     8  C    0.564244
     9  C    0.658243
    10  H   -0.578505
    11  H   -0.574769
    12  H   -0.432142
    13  Cl  -0.339243
    14  H   -0.438643
 Sum of Mulliken charges =  -0.00000

 Dipole moment (field-independent basis, Debye):
    X=             -2.1653    Y=             -1.3518    Z=              0.0000  Tot=              2.5526

 Test job not archived.
 1\1\GINC-SE173\SP\RHF\Aug-CC-pVDZ\C7H5Cl1O1\OHZDE\08-Apr-2025\0\\#t hf
  aug-cc-pvdz iop(5/13=1,5/36=2,99/5=2) pseudo=read geom=check guess=(r
 ead,tcheck) scf=(maxcycle=1)\\title\\0,1\C,0,2.498244,-1.537916,0.\O,0
 ,3.588849,-1.016361,0.\C,0,1.213149,-0.801729,0.\H,0,2.395227,-2.64461
 4,0.\C,0,1.201402,0.598805,0.\C,0,0.,1.29028,0.\C,0,-1.195684,0.569521
 ,0.\C,0,-1.208806,-0.822545,0.\C,0,0.004026,-1.502446,0.\H,0,0.010884,
 -2.587827,0.\H,0,2.147985,1.125971,0.\H,0,-0.022828,2.372255,0.\Cl,0,-
 2.715624,1.438637,0.\H,0,-2.150441,-1.355559,0.\\Version=ES64L-G16RevC

 Normal termination of Gaussian 16 at Tue Apr  8 23:00:31 2025.
