 Gaussian 16, Revision C.01,

 ----------------------------------------------------------------------
 #t hf aug-cc-pvdz symm=none int=(grid=ultrafine) guess=(read,tcheck) s
 table=(opt,rrhf)
 ----------------------------------------------------------------------
 -----
 title
 -----
 Symbolic Z-matrix:
 Charge =  0 Multiplicity = 1

 SCF Done:  E(RHF) =  -626.436241942     A.U. after   12 cycles
 Normal termination of Gaussian 16 at Tue Apr  8 22:45:32 2025.
 Gaussian 16:  ES64L-G16RevC.01  3-Jul-2019

 ----------------------------------------------------------------------
 #t hf aug-cc-pvdz iop(5/13=1,5/36=2,99/5=2) pseudo=read geom=check gue
 ss=(read,tcheck) scf=(maxcycle=1)
 ----------------------------------------------------------------------
 -----
 title
 -----
 Structure from the checkpoint file:  "BDE49_expt_1597_mol1.chk"
 Charge =  0 Multiplicity = 1

                         Standard orientation:
 ---------------------------------------------------------------------
 Center     Atomic      Atomic             Coordinates (Angstroms)
 Number     Number       Type             X           Y           Z
 ---------------------------------------------------------------------
      1         16           0       -0.000000    0.194781    0.000000
      2          8           0       -0.000002    0.909628   -1.260117
      3          8           0       -0.000002    0.909627    1.260118
      4          6           0       -1.412545   -0.917362    0.000000
      5          1           0       -1.393845   -1.528266   -0.901920
      6          1           0       -2.293419   -0.274579    0.000001
      7          1           0       -1.393844   -1.528267    0.901919
      8          6           0        1.412549   -0.917358   -0.000001
      9          1           0        1.393849   -1.528262   -0.901921
     10          1           0        1.393850   -1.528263    0.901919
     11          1           0        2.293419   -0.274574   -0.000001
 ---------------------------------------------------------------------

 SCF Done:  E(RHF) =  -626.585349036     A.U. after    2 cycles

 The electronic state is 1-A.
 Alpha  occ. eigenvalues --  -93.78131 -20.55488 -20.55487 -11.29005 -11.28995
 Alpha  occ. eigenvalues --   -9.04886  -6.39535  -6.39302  -6.39227  -1.41822
 Alpha  occ. eigenvalues --   -1.30345  -1.06119  -1.00448  -0.81571  -0.69469
 Alpha  occ. eigenvalues --   -0.68439  -0.67530  -0.62129  -0.62052  -0.60795
 Alpha  occ. eigenvalues --   -0.58499  -0.51595  -0.51168  -0.48982  -0.45311
 Alpha virt. eigenvalues --    0.02611   0.04295   0.04800   0.05624   0.06908
 Alpha virt. eigenvalues --    0.06921   0.09451   0.12118   0.13005   0.13768
 Alpha virt. eigenvalues --    0.14415   0.15488   0.15816   0.15875   0.17338

 Mulliken charges:
               1
     1  S    2.018591
     2  O   -1.074032
     3  O   -1.074032
     4  C    0.013795
     5  H    0.004072
     6  H    0.042798
     7  H    0.004071
     8  C    0.013795
     9  H    0.004072
    10  H    0.004074
    11  H    0.042796
 Sum of Mulliken charges =  -0.00000

 Dipole moment (field-independent basis, Debye):
    X=              0.0000    Y=             -5.3757    Z=             -0.0000  Tot=              5.3757

 Test job not archived.
 1\1\GINC-SE454\SP\RHF\Aug-CC-pVDZ\C2H6O2S1\OHZDE\08-Apr-2025\0\\#t hf
 aug-cc-pvdz iop(5/13=1,5/36=2,99/5=2) pseudo=read geom=check guess=(re
 ad,tcheck) scf=(maxcycle=1)\\title\\0,1\S,0,0.,0.194781,0.\O,0,-0.0000
 01,0.909628,-1.260117\O,0,-0.000001,0.909627,1.260118\C,0,-1.412546,-0
 .917361,0.\H,0,-1.393846,-1.528265,-0.90192\H,0,-2.293419,-0.274578,0.
 000001\H,0,-1.393845,-1.528266,0.901919\C,0,1.412548,-0.917359,-0.0000
 01\H,0,1.393848,-1.528263,-0.901921\H,0,1.393849,-1.528264,0.901919\H,
 0,2.293419,-0.274575,-0.000001\\Version=ES64L-G16RevC.01\State=1-A\HF=

 Normal termination of Gaussian 16 at Tue Apr  8 22:45:36 2025.
