 Gaussian 16, Revision C.01,

 ----------------------------------------------------------------------
 #t hf aug-cc-pvdz symm=none int=(grid=ultrafine) guess=(read,tcheck) s
 table=(opt,rrhf)
 ----------------------------------------------------------------------
 -----
 title
 -----
 Symbolic Z-matrix:
 Charge =  0 Multiplicity = 1

 SCF Done:  E(RHF) =  -420.314098212     A.U. after   17 cycles
 Normal termination of Gaussian 16 at Tue Apr  8 23:20:09 2025.
 Gaussian 16:  ES64L-G16RevC.01  3-Jul-2019

 ----------------------------------------------------------------------
 #t hf aug-cc-pvdz iop(5/13=1,5/36=2,99/5=2) pseudo=read geom=check gue
 ss=(read,tcheck) scf=(maxcycle=1)
 ----------------------------------------------------------------------
 -----
 title
 -----
 Structure from the checkpoint file:  "BDE49_nonexpt_1175_mol1.chk"
 Charge =  0 Multiplicity = 1

                         Standard orientation:
 ---------------------------------------------------------------------
 Center     Atomic      Atomic             Coordinates (Angstroms)
 Number     Number       Type             X           Y           Z
 ---------------------------------------------------------------------
      1          9           0        2.572031    0.194825    0.620962
      2          8           0        1.792953   -0.270240   -0.573124
      3          6           0        0.479405   -0.102061   -0.256985
      4          6           0       -0.107036    1.164356   -0.214512
      5          6           0       -0.308048   -1.239000   -0.056785
      6          7           0       -1.624377   -1.175115    0.143015
      7          6           0       -1.472508    1.231444    0.013791
      8          6           0       -2.182063    0.038844    0.183691
      9          1           0        0.504923    2.046819   -0.355218
     10          1           0       -1.987759    2.183250    0.057903
     11          1           0        0.155276   -2.220205   -0.090287
     12          1           0       -3.252208    0.062932    0.367628
 ---------------------------------------------------------------------

 SCF Done:  E(RHF) =  -420.443581215     A.U. after    2 cycles

 The electronic state is 1-A.
 Alpha  occ. eigenvalues --  -26.16023 -20.72284 -15.65498 -11.33083 -11.31449
 Alpha  occ. eigenvalues --  -11.31335 -11.29687 -11.27610  -1.65094  -1.36462
 Alpha  occ. eigenvalues --   -1.25338  -1.09815  -1.03990  -0.89582  -0.87845
 Alpha  occ. eigenvalues --   -0.77986  -0.76325  -0.74211  -0.72908  -0.70171
 Alpha  occ. eigenvalues --   -0.66134  -0.63404  -0.61200  -0.58797  -0.56368
 Alpha  occ. eigenvalues --   -0.55218  -0.43702  -0.40909  -0.37545
 Alpha virt. eigenvalues --    0.02793   0.03254   0.04145   0.04446   0.05962
 Alpha virt. eigenvalues --    0.07534   0.08824   0.09522   0.11442   0.11629
 Alpha virt. eigenvalues --    0.12439   0.12976   0.13333   0.14042   0.14605

 Mulliken charges:
               1
     1  F   -0.362093
     2  O   -0.354303
     3  C    0.557387
     4  C    0.169016
     5  C    0.712922
     6  N   -0.474802
     7  C    0.653981
     8  C    0.526788
     9  H   -0.389401
    10  H   -0.377381
    11  H   -0.330610
    12  H   -0.331503
 Sum of Mulliken charges =  -0.00000

 Dipole moment (field-independent basis, Debye):
    X=             -2.5430    Y=              1.8314    Z=             -0.6853  Tot=              3.2079

 Test job not archived.
 1\1\GINC-SE073\SP\RHF\Aug-CC-pVDZ\C5H4F1N1O1\OHZDE\08-Apr-2025\0\\#t h
 f aug-cc-pvdz iop(5/13=1,5/36=2,99/5=2) pseudo=read geom=check guess=(
 read,tcheck) scf=(maxcycle=1)\\title\\0,1\F,0,2.572031,0.194825,0.6209
 62\O,0,1.792953,-0.27024,-0.573124\C,0,0.479405,-0.102061,-0.256985\C,
 0,-0.107036,1.164356,-0.214512\C,0,-0.308048,-1.239,-0.056785\N,0,-1.6
 24377,-1.175115,0.143015\C,0,-1.472508,1.231444,0.013791\C,0,-2.182063
 ,0.038844,0.183691\H,0,0.504923,2.046819,-0.355218\H,0,-1.987759,2.183
 25,0.057903\H,0,0.155276,-2.220205,-0.090287\H,0,-3.252208,0.062932,0.

 Normal termination of Gaussian 16 at Tue Apr  8 23:20:14 2025.
