 Gaussian 16, Revision C.01,

 ----------------------------------------------------------------------
 #t hf aug-cc-pvdz symm=none int=(grid=ultrafine) guess=(read,tcheck) s
 table=opt
 ----------------------------------------------------------------------
 -----
 title
 -----
 Symbolic Z-matrix:
 Charge =  0 Multiplicity = 2

 SCF Done:  E(UHF) =  -430.573996270     A.U. after   18 cycles
 Normal termination of Gaussian 16 at Wed Apr  9 00:33:32 2025.
 Gaussian 16:  ES64L-G16RevC.01  3-Jul-2019

 ----------------------------------------------------------------------
 #t hf aug-cc-pvdz iop(5/13=1,5/36=2,99/5=2) pseudo=read geom=check gue
 ss=(read,tcheck) scf=(maxcycle=1)
 ----------------------------------------------------------------------
 -----
 title
 -----
 Structure from the checkpoint file:  "BDE49_nonexpt_416_mol2.chk"
 Charge =  0 Multiplicity = 2

                         Standard orientation:
 ---------------------------------------------------------------------
 Center     Atomic      Atomic             Coordinates (Angstroms)
 Number     Number       Type             X           Y           Z
 ---------------------------------------------------------------------
      1          9           0       -2.522473   -0.252330   -0.589770
      2          5           0       -1.350613   -0.824431   -0.446261
      3          6           0       -0.126700   -0.039973    0.255784
      4          8           0        0.304679    0.789099   -0.822850
      5          8           0        0.908593   -0.878400    0.725651
      6          6           0        1.309767    1.759191   -0.522630
      7          1           0        1.679645    2.118755   -1.482730
      8          1           0        2.134366    1.313868    0.041507
      9          1           0        0.900421    2.605690    0.038879
     10          6           0        1.481254   -1.752410   -0.243473
     11          1           0        2.192147   -2.380371    0.292944
     12          1           0        2.001616   -1.196770   -1.029400
     13          1           0        0.712913   -2.382423   -0.707634
     14          6           0       -0.611673    0.741517    1.478197
     15          1           0       -1.353204    1.485813    1.183836
     16          1           0        0.228527    1.234454    1.971170
     17          1           0       -1.063167    0.058568    2.200996
 ---------------------------------------------------------------------

 SCF Done:  E(UHF) =  -430.722301184     A.U. after    2 cycles

 The electronic state is 2-A.
 Alpha  occ. eigenvalues --  -26.14483 -20.58292 -20.57899 -11.34367 -11.28748
 Alpha  occ. eigenvalues --  -11.28299 -11.23541  -7.70195  -1.68887  -1.37355
 Alpha  occ. eigenvalues --   -1.30604  -1.03218  -0.94943  -0.92418  -0.86010
 Alpha  occ. eigenvalues --   -0.80947  -0.77501  -0.74619  -0.70954  -0.69758
 Alpha  occ. eigenvalues --   -0.67284  -0.62732  -0.60942  -0.59811  -0.56215
 Alpha  occ. eigenvalues --   -0.54233  -0.53078  -0.52875  -0.48121  -0.46483
 Alpha  occ. eigenvalues --   -0.45936  -0.35129
 Alpha virt. eigenvalues --    0.03290   0.04408   0.04573   0.04839   0.05912
 Alpha virt. eigenvalues --    0.06295   0.06371   0.06731   0.07303   0.09277
 Alpha virt. eigenvalues --    0.09537   0.09745   0.10115   0.11162   0.13548

  Beta  occ. eigenvalues --  -26.14153 -20.58303 -20.57941 -11.33993 -11.28740
  Beta  occ. eigenvalues --  -11.28250 -11.23525  -7.68308  -1.67928  -1.37271
  Beta  occ. eigenvalues --   -1.30641  -1.02741  -0.94764  -0.92271  -0.84752
  Beta  occ. eigenvalues --   -0.80073  -0.74917  -0.74682  -0.70269  -0.69184
  Beta  occ. eigenvalues --   -0.67098  -0.62588  -0.60898  -0.59514  -0.56083
  Beta  occ. eigenvalues --   -0.54122  -0.52987  -0.52017  -0.47146  -0.46059
  Beta  occ. eigenvalues --   -0.44506
  Beta virt. eigenvalues --    0.03039   0.04336   0.04482   0.04781   0.06072
  Beta virt. eigenvalues --    0.06257   0.06381   0.06741   0.07292   0.08429
  Beta virt. eigenvalues --    0.09352   0.09721   0.09940   0.11939   0.12761

 Mulliken charges and spin densities:
               1          2
     1  F   -0.352671  -0.045398
     2  B    0.295022   1.073711
     3  C    0.356618  -0.001484
     4  O   -0.757581   0.022312
     5  O   -0.680850  -0.007032
     6  C    0.885547   0.004499
     7  H   -0.252994   0.000142
     8  H   -0.073580  -0.000362
     9  H   -0.141916   0.000875
    10  C    0.774021   0.021453
    11  H   -0.246882   0.000195
    12  H   -0.076969  -0.001277
    13  H   -0.108022  -0.029265
    14  C    0.530394  -0.035062
    15  H   -0.013600  -0.002001
    16  H   -0.055638   0.002474
    17  H   -0.080899  -0.003781
 Sum of Mulliken charges =  -0.00000   1.00000

 Dipole moment (field-independent basis, Debye):
    X=              1.5852    Y=              0.3921    Z=              0.4366  Tot=              1.6903
                          Isotropic Fermi Contact Couplings
        Atom                 a.u.       MegaHertz       Gauss      10(-4) cm-1
     1  F(19)              0.07219     303.75534     108.38746     101.32187
     2  B(11)              0.34200     490.55605     175.04260     163.63189
     3  C(13)              0.06661      74.87856      26.71853      24.97680
     4  O(17)             -0.00242       1.46483       0.52269       0.48861
     5  O(17)             -0.00132       0.80128       0.28592       0.26728
     6  C(13)              0.00181       2.03641       0.72664       0.67927
     7  H(1)               0.00016       0.73489       0.26223       0.24513
     8  H(1)              -0.00006      -0.24615      -0.08783      -0.08211

 Normal termination of Gaussian 16 at Wed Apr  9 00:33:40 2025.
