 Gaussian 16, Revision C.01,

 ----------------------------------------------------------------------
 #t hf aug-cc-pvdz symm=none int=(grid=ultrafine) guess=(read,tcheck) s
 table=(opt,rrhf)
 ----------------------------------------------------------------------
 -----
 title
 -----
 Symbolic Z-matrix:
 Charge =  0 Multiplicity = 1

 SCF Done:  E(RHF) =  -831.757341569     A.U. after   16 cycles
 Normal termination of Gaussian 16 at Tue Apr  8 23:38:09 2025.
 Gaussian 16:  ES64L-G16RevC.01  3-Jul-2019

 ----------------------------------------------------------------------
 #t hf aug-cc-pvdz iop(5/13=1,5/36=2,99/5=2) pseudo=read geom=check gue
 ss=(read,tcheck) scf=(maxcycle=1)
 ----------------------------------------------------------------------
 -----
 title
 -----
 Structure from the checkpoint file:  "BDE49_nonexpt_1556_mol1.chk"
 Charge =  0 Multiplicity = 1

                         Standard orientation:
 ---------------------------------------------------------------------
 Center     Atomic      Atomic             Coordinates (Angstroms)
 Number     Number       Type             X           Y           Z
 ---------------------------------------------------------------------
      1          6           0       -1.782509    1.791617   -0.277850
      2          6           0       -0.492419    1.592970    0.212169
      3          6           0       -2.667778    0.729201   -0.407851
      4          6           0       -2.281045   -0.571128   -0.043863
      5          6           0       -0.986325   -0.764495    0.459865
      6          6           0       -0.090582    0.301758    0.589553
      7          1           0       -0.677343   -1.761633    0.758058
      8          1           0       -3.670356    0.901624   -0.786321
      9          1           0       -2.102831    2.787430   -0.564341
     10          1           0        0.188641    2.429160    0.311056
     11          7           0        2.576950   -0.179873   -0.260663
     12          8           0        2.264920   -1.455128   -0.844449
     13          8           0        2.312768    0.809828   -1.225692
     14          7           0       -3.180832   -1.629595   -0.117361
     15          1           0       -3.941136   -1.516104   -0.770700
     16          1           0       -2.771224   -2.550793   -0.157383
     17          1           0        3.112001   -1.729505   -1.216318
     18          1           0        1.357850    0.764125   -1.413899
     19         15           0        1.595380   -0.081914    1.225139
     20          1           0        1.983302    1.253545    1.477922
 ---------------------------------------------------------------------

 SCF Done:  E(RHF) =  -831.927455879     A.U. after    2 cycles

 The electronic state is 1-A.
 Alpha  occ. eigenvalues --  -81.28629 -20.61352 -20.61029 -15.73268 -15.64139
 Alpha  occ. eigenvalues --  -11.30321 -11.26092 -11.25901 -11.25127 -11.25102
 Alpha  occ. eigenvalues --  -11.24851  -7.78686  -4.92795  -4.92664  -4.92373
 Alpha  occ. eigenvalues --   -1.41030  -1.30606  -1.20961  -1.12925  -1.02823
 Alpha  occ. eigenvalues --   -1.00355  -0.99329  -0.85626  -0.83334  -0.78389
 Alpha  occ. eigenvalues --   -0.75073  -0.71122  -0.69752  -0.67148  -0.65696
 Alpha  occ. eigenvalues --   -0.63970  -0.63147  -0.61556  -0.60636  -0.56380
 Alpha  occ. eigenvalues --   -0.54889  -0.52140  -0.51171  -0.50205  -0.49405
 Alpha  occ. eigenvalues --   -0.46214  -0.40710  -0.37309  -0.34780  -0.30848
 Alpha virt. eigenvalues --    0.02794   0.03643   0.04132   0.05263   0.05678
 Alpha virt. eigenvalues --    0.06042   0.07014   0.07849   0.08220   0.08708
 Alpha virt. eigenvalues --    0.09746   0.10380   0.11484   0.12009   0.12687

 Mulliken charges:
               1
     1  C    0.254059
     2  C    0.837569
     3  C    0.994139
     4  C    0.015801
     5  C    0.645507
     6  C   -0.262616
     7  H   -0.615556
     8  H   -0.558372
     9  H   -0.440276
    10  H   -0.653944
    11  N   -0.124834
    12  O   -0.498036
    13  O   -0.455982
    14  N   -0.268807
    15  H   -0.041506
    16  H   -0.039018
    17  H    0.234599
    18  H    0.242153
    19  P    0.639084
    20  H    0.096035
 Sum of Mulliken charges =  -0.00000

 Dipole moment (field-independent basis, Debye):
    X=             -2.7851    Y=             -0.8308    Z=             -1.1722  Tot=              3.1339

 Test job not archived.
 1\1\GINC-SE334\SP\RHF\Aug-CC-pVDZ\C6H9N2O2P1\OHZDE\08-Apr-2025\0\\#t h
 f aug-cc-pvdz iop(5/13=1,5/36=2,99/5=2) pseudo=read geom=check guess=(
 read,tcheck) scf=(maxcycle=1)\\title\\0,1\C,0,-1.782509,1.791617,-0.27
 785\C,0,-0.492419,1.59297,0.212169\C,0,-2.667778,0.729201,-0.407851\C,
 0,-2.281045,-0.571128,-0.043863\C,0,-0.986325,-0.764495,0.459865\C,0,-
 0.090582,0.301758,0.589553\H,0,-0.677343,-1.761633,0.758058\H,0,-3.670
 356,0.901624,-0.786321\H,0,-2.102831,2.78743,-0.564341\H,0,0.188641,2.
 42916,0.311056\N,0,2.57695,-0.179873,-0.260663\O,0,2.26492,-1.455128,-

 Normal termination of Gaussian 16 at Tue Apr  8 23:38:22 2025.
