 Gaussian 16, Revision C.01,

 ----------------------------------------------------------------------
 #t hf aug-cc-pvdz symm=none int=(grid=ultrafine) guess=(read,tcheck) s
 table=(opt,rrhf)
 ----------------------------------------------------------------------
 -----
 title
 -----
 Symbolic Z-matrix:
 Charge =  0 Multiplicity = 1

 SCF Done:  E(RHF) =  -2360.14842890     A.U. after   13 cycles

 1\1\GINC-SE284\Stability\RHF\Aug-CC-pVDZ\C1B1Cl5\OHZDE\09-Apr-2025\0\\
 #t hf aug-cc-pvdz symm=none int=(grid=ultrafine) guess=(read,tcheck) s
 table=(opt,rrhf)\\title\\0,1\Cl,0,1.837003,1.508188,-0.114021\Cl,0,1.8
 37003,-1.508187,-0.114021\B,0,0.960956,0.,-0.106412\C,0,-0.647029,0.,-
 0.025786\Cl,0,-1.39685,1.454099,-0.750615\Cl,0,-1.396849,-1.454098,-0.
 750618\Cl,0,-0.934578,-0.000002,1.769673\\Version=ES64L-G16RevC.01\HF=
 -2360.1484289\RMSD=3.787e-09\Dipole=0.1688381,-0.0000014,-0.0663713\Qu
 adrupole=-1.1367867,0.233513,0.9032737,-0.0000065,-0.0281062,0.\PG=Unk

 Normal termination of Gaussian 16 at Wed Apr  9 00:19:43 2025.
 Gaussian 16:  ES64L-G16RevC.01  3-Jul-2019

 ----------------------------------------------------------------------
 #t hf aug-cc-pvdz iop(5/13=1,5/36=2,99/5=2) pseudo=read geom=check gue
 ss=(read,tcheck) scf=(maxcycle=1)
 ----------------------------------------------------------------------
 -----
 title
 -----
 Structure from the checkpoint file:  "BDE49_nonexpt_262_mol1.chk"
 Charge =  0 Multiplicity = 1

                         Standard orientation:
 ---------------------------------------------------------------------
 Center     Atomic      Atomic             Coordinates (Angstroms)
 Number     Number       Type             X           Y           Z
 ---------------------------------------------------------------------
      1         17           0        1.837003    1.508188   -0.114021
      2         17           0        1.837003   -1.508187   -0.114021
      3          5           0        0.960956   -0.000000   -0.106412
      4          6           0       -0.647029    0.000000   -0.025786
      5         17           0       -1.396850    1.454099   -0.750615
      6         17           0       -1.396849   -1.454098   -0.750618
      7         17           0       -0.934578   -0.000002    1.769673
 ---------------------------------------------------------------------

 SCF Done:  E(RHF) =  -2360.25550688     A.U. after    2 cycles

 The electronic state is 1-A.
 Alpha  occ. eigenvalues -- -103.70330-103.69870-103.69870-103.69329-103.69329
 Alpha  occ. eigenvalues --  -11.44895 -10.73577 -10.73164 -10.73148 -10.72839
 Alpha  occ. eigenvalues --  -10.72808  -8.39287  -8.38962  -8.38949  -8.38877
 Alpha  occ. eigenvalues --   -8.38871  -8.38533  -8.38532  -8.38531  -8.38529
 Alpha  occ. eigenvalues --   -8.38523  -8.38518  -8.38287  -8.38285  -8.38251
 Alpha  occ. eigenvalues --   -8.38247  -7.77574  -1.26979  -1.20558  -1.17603
 Alpha  occ. eigenvalues --   -1.16756  -1.16082  -0.90229  -0.72703  -0.65819
 Alpha  occ. eigenvalues --   -0.65785  -0.64533  -0.59715  -0.55734  -0.52816
 Alpha  occ. eigenvalues --   -0.52768  -0.51385  -0.50190  -0.49886  -0.48597
 Alpha  occ. eigenvalues --   -0.47679  -0.46940  -0.46797
 Alpha virt. eigenvalues --    0.03828   0.04714   0.05569   0.05718   0.05885
 Alpha virt. eigenvalues --    0.08052   0.09139   0.10081   0.11767   0.11962
 Alpha virt. eigenvalues --    0.12683   0.14376   0.14472   0.16477   0.17325

 Mulliken charges:
               1
     1  Cl  -0.254822
     2  Cl  -0.254821
     3  B    1.035264
     4  C   -0.501385
     5  Cl  -0.011074
     6  Cl  -0.011074
     7  Cl  -0.002087
 Sum of Mulliken charges =  -0.00000

 Dipole moment (field-independent basis, Debye):
    X=              0.4214    Y=             -0.0000    Z=             -0.1895  Tot=              0.4621

 Test job not archived.
 1\1\GINC-SE284\SP\RHF\Aug-CC-pVDZ\C1B1Cl5\OHZDE\09-Apr-2025\0\\#t hf a
 ug-cc-pvdz iop(5/13=1,5/36=2,99/5=2) pseudo=read geom=check guess=(rea
 d,tcheck) scf=(maxcycle=1)\\title\\0,1\Cl,0,1.837003,1.508188,-0.11402
 1\Cl,0,1.837003,-1.508187,-0.114021\B,0,0.960956,0.,-0.106412\C,0,-0.6
 47029,0.,-0.025786\Cl,0,-1.39685,1.454099,-0.750615\Cl,0,-1.396849,-1.
 454098,-0.750618\Cl,0,-0.934578,-0.000002,1.769673\\Version=ES64L-G16R
 evC.01\State=1-A\HF=-2360.2555069\RMSD=2.984e-03\Dipole=0.1658028,-0.0
 000014,-0.0745411\Quadrupole=-1.2028294,0.2471373,0.9556921,-0.0000066

 Normal termination of Gaussian 16 at Wed Apr  9 00:19:47 2025.
