 Gaussian 16, Revision C.01,

 ----------------------------------------------------------------------
 #t hf aug-cc-pvdz symm=none int=(grid=ultrafine) guess=(read,tcheck) s
 table=opt
 ----------------------------------------------------------------------
 -----
 title
 -----
 Symbolic Z-matrix:
 Charge =  0 Multiplicity = 2

 SCF Done:  E(UHF) =  -688.199142957     A.U. after   15 cycles

 1\1\GINC-SE273\Stability\UHF\Aug-CC-pVDZ\H3S1Si1\OHZDE\08-Apr-2025\0\\
 #t hf aug-cc-pvdz symm=none int=(grid=ultrafine) guess=(read,tcheck) s
 table=opt\\title\\0,2\S,0,-1.068456,-0.084145,0.032919\Si,0,1.085911,0
 .023102,-0.103063\H,0,-1.276084,1.218151,-0.232835\H,0,1.553535,-1.301
 349,0.377841\H,0,1.615091,1.1061,0.771164\\Version=ES64L-G16RevC.01\HF
 =-688.199143\S2=0.756238\S2-1=0.\S2A=0.750019\RMSD=8.151e-09\Dipole=0.
 3221832,0.3449408,-0.0879177\Quadrupole=0.1078914,1.2432329,-1.3511243
 ,-1.2684302,0.1631473,-0.4501371\PG=Unknown\\@

 Normal termination of Gaussian 16 at Tue Apr  8 23:54:52 2025.
 Gaussian 16:  ES64L-G16RevC.01  3-Jul-2019

 ----------------------------------------------------------------------
 #t hf aug-cc-pvdz iop(5/13=1,5/36=2,99/5=2) pseudo=read geom=check gue
 ss=(read,tcheck) scf=(maxcycle=1)
 ----------------------------------------------------------------------
 -----
 title
 -----
 Structure from the checkpoint file:  "BDE49_nonexpt_2007_mol2.chk"
 Charge =  0 Multiplicity = 2

                         Standard orientation:
 ---------------------------------------------------------------------
 Center     Atomic      Atomic             Coordinates (Angstroms)
 Number     Number       Type             X           Y           Z
 ---------------------------------------------------------------------
      1         16           0       -1.068456   -0.084145    0.032919
      2         14           0        1.085911    0.023102   -0.103063
      3          1           0       -1.276084    1.218151   -0.232835
      4          1           0        1.553535   -1.301349    0.377841
      5          1           0        1.615091    1.106100    0.771164
 ---------------------------------------------------------------------

 SCF Done:  E(UHF) =  -688.238675714     A.U. after    2 cycles

 The electronic state is 2-A.
 Alpha  occ. eigenvalues --  -93.54084 -69.10508  -8.83994  -6.85629  -6.18109
 Alpha  occ. eigenvalues --   -6.17962  -6.17667  -3.96844  -3.96092  -3.96003
 Alpha  occ. eigenvalues --   -0.96221  -0.70037  -0.55626  -0.49586  -0.46490
 Alpha  occ. eigenvalues --   -0.41001  -0.32397
 Alpha virt. eigenvalues --    0.03603   0.04627   0.06041   0.06966   0.07827
 Alpha virt. eigenvalues --    0.08839   0.11866   0.13058   0.14316   0.14535
 Alpha virt. eigenvalues --    0.15377   0.17624   0.17985   0.19900   0.22565

  Beta  occ. eigenvalues --  -93.53980 -69.09950  -8.83877  -6.84763  -6.18022
  Beta  occ. eigenvalues --   -6.17788  -6.17363  -3.95723  -3.95640  -3.94785
  Beta  occ. eigenvalues --   -0.95334  -0.66146  -0.54908  -0.48514  -0.44520
  Beta  occ. eigenvalues --   -0.38328
  Beta virt. eigenvalues --    0.02400   0.04073   0.04893   0.06173   0.07846
  Beta virt. eigenvalues --    0.08702   0.09145   0.12360   0.13853   0.14760
  Beta virt. eigenvalues --    0.15173   0.16591   0.18825   0.19850   0.21129

 Mulliken charges and spin densities:
               1          2
     1  S   -0.419119   0.073631
     2  Si   0.561364   0.861539
     3  H    0.049354  -0.010258
     4  H   -0.117568   0.022626
     5  H   -0.074030   0.052462
 Sum of Mulliken charges =   0.00000   1.00000

 Dipole moment (field-independent basis, Debye):
    X=              0.7848    Y=              0.8410    Z=             -0.2735  Tot=              1.1824
                          Isotropic Fermi Contact Couplings
        Atom                 a.u.       MegaHertz       Gauss      10(-4) cm-1
     1  S(33)              0.03859      13.25586       4.73002       4.42168
     2  Si(29)             0.62423    -554.76678    -197.95458    -185.05028
     3  H(1)              -0.00019      -0.83982      -0.29967      -0.28013
     4  H(1)               0.00626      27.99472       9.98921       9.33803
     5  H(1)               0.01568      70.06775      25.00191      23.37208
 --------------------------------------------------------
       Center         ----  Spin Dipole Couplings  ----
                      3XX-RR        3YY-RR        3ZZ-RR

 Normal termination of Gaussian 16 at Tue Apr  8 23:54:54 2025.
