 Gaussian 16, Revision C.01,

 ----------------------------------------------------------------------
 #t hf aug-cc-pvdz symm=none int=(grid=ultrafine) guess=(read,tcheck) s
 table=(opt,rrhf)
 ----------------------------------------------------------------------
 -----
 title
 -----
 Symbolic Z-matrix:
 Charge =  0 Multiplicity = 1

 SCF Done:  E(RHF) =  -238.028789465     A.U. after   13 cycles
 Normal termination of Gaussian 16 at Wed Apr  9 00:34:15 2025.
 Gaussian 16:  ES64L-G16RevC.01  3-Jul-2019

 ----------------------------------------------------------------------
 #t hf aug-cc-pvdz iop(5/13=1,5/36=2,99/5=2) pseudo=read geom=check gue
 ss=(read,tcheck) scf=(maxcycle=1)
 ----------------------------------------------------------------------
 -----
 title
 -----
 Structure from the checkpoint file:  "BDE49_nonexpt_481_mol1.chk"
 Charge =  0 Multiplicity = 1

                         Standard orientation:
 ---------------------------------------------------------------------
 Center     Atomic      Atomic             Coordinates (Angstroms)
 Number     Number       Type             X           Y           Z
 ---------------------------------------------------------------------
      1          1           0       -2.085453   -0.129214    1.037087
      2          1           0       -2.085640   -0.129293   -1.037057
      3          5           0       -1.513554   -0.074492   -0.000039
      4          6           0        0.039312    0.134747   -0.000191
      5          8           0        0.619629    1.167049    0.000023
      6          9           0        0.727329   -1.057101    0.000125
 ---------------------------------------------------------------------

 SCF Done:  E(RHF) =  -238.110810941     A.U. after    2 cycles

 The electronic state is 1-A.
 Alpha  occ. eigenvalues --  -26.15545 -20.61126 -11.43014  -7.67876  -1.69350
 Alpha  occ. eigenvalues --   -1.41002  -0.93224  -0.82527  -0.76870  -0.75505
 Alpha  occ. eigenvalues --   -0.70020  -0.61934  -0.59446  -0.53446  -0.50457
 Alpha virt. eigenvalues --    0.02007   0.04001   0.04379   0.05269   0.07823
 Alpha virt. eigenvalues --    0.09196   0.09502   0.12416   0.12684   0.13675
 Alpha virt. eigenvalues --    0.15386   0.17577   0.21843   0.23091   0.24831

 Mulliken charges:
               1
     1  H    0.273496
     2  H    0.273548
     3  B   -0.346946
     4  C    0.622815
     5  O   -0.410752
     6  F   -0.412161
 Sum of Mulliken charges =  -0.00000

 Dipole moment (field-independent basis, Debye):
    X=             -3.0195    Y=             -0.7962    Z=             -0.0007  Tot=              3.1227

 Test job not archived.
 1\1\GINC-SE253\SP\RHF\Aug-CC-pVDZ\C1H2B1F1O1\OHZDE\09-Apr-2025\0\\#t h
 f aug-cc-pvdz iop(5/13=1,5/36=2,99/5=2) pseudo=read geom=check guess=(
 read,tcheck) scf=(maxcycle=1)\\title\\0,1\H,0,-2.085453,-0.12921,1.037
 087\H,0,-2.08564,-0.129289,-1.037057\B,0,-1.513554,-0.074489,-0.000039
 \C,0,0.039312,0.134747,-0.000191\O,0,0.619631,1.167048,0.000023\F,0,0.
 727327,-1.057103,0.000125\\Version=ES64L-G16RevC.01\State=1-A\HF=-238.
 1108109\RMSD=4.582e-03\Dipole=-1.1879489,-0.3132396,-0.0002623\Quadrup
 ole=0.5277439,-1.6359129,1.108169,-0.421356,-0.0004299,0.0001085\PG=C0

 Normal termination of Gaussian 16 at Wed Apr  9 00:34:17 2025.
