 Gaussian 16, Revision C.01,

 ----------------------------------------------------------------------
 #t hf aug-cc-pvdz symm=none int=(grid=ultrafine) guess=(read,tcheck) s
 table=(opt,rrhf)
 ----------------------------------------------------------------------
 -----
 title
 -----
 Symbolic Z-matrix:
 Charge =  0 Multiplicity = 1

 SCF Done:  E(RHF) =  -1058.32319862     A.U. after   12 cycles
 Normal termination of Gaussian 16 at Wed Apr  9 00:14:35 2025.
 Gaussian 16:  ES64L-G16RevC.01  3-Jul-2019

 ----------------------------------------------------------------------
 #t hf aug-cc-pvdz iop(5/13=1,5/36=2,99/5=2) pseudo=read geom=check gue
 ss=(read,tcheck) scf=(maxcycle=1)
 ----------------------------------------------------------------------
 -----
 title
 -----
 Structure from the checkpoint file:  "BDE49_nonexpt_251_mol1.chk"
 Charge =  0 Multiplicity = 1

                         Standard orientation:
 ---------------------------------------------------------------------
 Center     Atomic      Atomic             Coordinates (Angstroms)
 Number     Number       Type             X           Y           Z
 ---------------------------------------------------------------------
      1          5           0       -0.140089   -0.125726    0.000319
      2         17           0       -1.861616   -0.531541   -0.000111
      3         17           0        0.338467    1.589553   -0.000092
      4          8           0        0.746830   -1.117694    0.000174
      5          6           0        2.172051   -0.945010    0.000061
      6          1           0        2.605633   -1.943075   -0.000038
      7          1           0        2.490770   -0.401502    0.891028
      8          1           0        2.490628   -0.401389   -0.890888
 ---------------------------------------------------------------------

 SCF Done:  E(RHF) =  -1058.40814922     A.U. after    2 cycles

 The electronic state is 1-A.
 Alpha  occ. eigenvalues -- -103.67012-103.66258 -20.61595 -11.31768 -10.70488
 Alpha  occ. eigenvalues --  -10.69731  -8.36181  -8.35956  -8.35940  -8.35432
 Alpha  occ. eigenvalues --   -8.35201  -8.35177  -7.75681  -1.37447  -1.17337
 Alpha  occ. eigenvalues --   -1.14341  -0.97655  -0.75802  -0.68352  -0.67678
 Alpha  occ. eigenvalues --   -0.65082  -0.57210  -0.54460  -0.52330  -0.50201
 Alpha  occ. eigenvalues --   -0.49424  -0.47780  -0.46596
 Alpha virt. eigenvalues --    0.03170   0.05185   0.05233   0.05808   0.07407
 Alpha virt. eigenvalues --    0.07611   0.08056   0.12244   0.12607   0.13708
 Alpha virt. eigenvalues --    0.13729   0.15234   0.16261   0.17135   0.17301

 Mulliken charges:
               1
     1  B    0.577937
     2  Cl  -0.350842
     3  Cl  -0.318091
     4  O   -0.342275
     5  C    0.898212
     6  H   -0.211522
     7  H   -0.126716
     8  H   -0.126703
 Sum of Mulliken charges =   0.00000

 Dipole moment (field-independent basis, Debye):
    X=              2.7256    Y=             -0.4078    Z=              0.0007  Tot=              2.7559

 Test job not archived.
 1\1\GINC-SE345\SP\RHF\Aug-CC-pVDZ\C1H3B1Cl2O1\OHZDE\09-Apr-2025\0\\#t
 hf aug-cc-pvdz iop(5/13=1,5/36=2,99/5=2) pseudo=read geom=check guess=
 (read,tcheck) scf=(maxcycle=1)\\title\\0,1\B,0,0.140089,-0.125726,-0.0
 00319\Cl,0,1.861616,-0.53154,0.000111\Cl,0,-0.338468,1.589553,0.000092
 \O,0,-0.74683,-1.117694,-0.000174\C,0,-2.172051,-0.945011,-0.000061\H,
 0,-2.605632,-1.943076,0.000038\H,0,-2.49077,-0.401503,-0.891028\H,0,-2
 .490628,-0.40139,0.890888\\Version=ES64L-G16RevC.01\State=1-A\HF=-1058
 .4081492\RMSD=2.499e-03\Dipole=-1.0723213,-0.1604249,-0.000292\Quadrup

 Normal termination of Gaussian 16 at Wed Apr  9 00:14:38 2025.
