 Gaussian 16, Revision C.01,

 ----------------------------------------------------------------------
 #t hf aug-cc-pvdz symm=none int=(grid=ultrafine) guess=(read,tcheck) s
 table=(opt,rrhf)
 ----------------------------------------------------------------------
 -----
 title
 -----
 Symbolic Z-matrix:
 Charge =  0 Multiplicity = 1

 SCF Done:  E(RHF) =  -1223.74608968     A.U. after   14 cycles
 Normal termination of Gaussian 16 at Tue Apr  8 22:49:10 2025.
 Gaussian 16:  ES64L-G16RevC.01  3-Jul-2019

 ----------------------------------------------------------------------
 #t hf aug-cc-pvdz iop(5/13=1,5/36=2,99/5=2) pseudo=read geom=check gue
 ss=(read,tcheck) scf=(maxcycle=1)
 ----------------------------------------------------------------------
 -----
 title
 -----
 Structure from the checkpoint file:  "BDE49_expt_1718_mol1.chk"
 Charge =  0 Multiplicity = 1

                         Standard orientation:
 ---------------------------------------------------------------------
 Center     Atomic      Atomic             Coordinates (Angstroms)
 Number     Number       Type             X           Y           Z
 ---------------------------------------------------------------------
      1          6           0       -0.236084   -0.000003    0.888332
      2          8           0       -0.537127    0.000002    2.053108
      3          6           0        1.231530    0.000001    0.449909
      4          8           0       -1.073903   -0.000001   -0.140951
      5         17           0        1.626399    1.485673   -0.476285
      6         17           0        1.626407   -1.485671   -0.476281
      7          1           0        1.852063    0.000004    1.338184
      8          6           0       -2.492873    0.000001    0.181053
      9          6           0       -3.252486   -0.000005   -1.127684
     10          1           0       -2.706349    0.883830    0.785986
     11          1           0       -2.706350   -0.883821    0.785996
     12          1           0       -3.011168    0.886148   -1.717891
     13          1           0       -4.327021   -0.000003   -0.927697
     14          1           0       -3.011169   -0.886166   -1.717880
 ---------------------------------------------------------------------

 SCF Done:  E(RHF) =  -1223.88036051     A.U. after    2 cycles

 The electronic state is 1-A.
 Alpha  occ. eigenvalues -- -103.68594-103.68594 -20.63738 -20.59028 -11.42767
 Alpha  occ. eigenvalues --  -11.39785 -11.31706 -11.24641 -10.71851 -10.71847
 Alpha  occ. eigenvalues --   -8.37574  -8.37571  -8.37253  -8.37253  -8.37242
 Alpha  occ. eigenvalues --   -8.37239  -1.44784  -1.35451  -1.22951  -1.15172
 Alpha  occ. eigenvalues --   -1.05889  -0.96945  -0.88250  -0.81044  -0.72980
 Alpha  occ. eigenvalues --   -0.71933  -0.71468  -0.64405  -0.63179  -0.60395
 Alpha  occ. eigenvalues --   -0.58780  -0.56664  -0.53669  -0.53357  -0.53051
 Alpha  occ. eigenvalues --   -0.50093  -0.48503  -0.48197  -0.46996  -0.46213
 Alpha virt. eigenvalues --    0.03380   0.04675   0.05059   0.05060   0.06318
 Alpha virt. eigenvalues --    0.07601   0.08013   0.08219   0.10519   0.11650
 Alpha virt. eigenvalues --    0.11763   0.12251   0.12825   0.14711   0.15296

 Mulliken charges:
               1
     1  C    0.299843
     2  O   -0.413310
     3  C   -0.008674
     4  O   -0.421669
     5  Cl  -0.037285
     6  Cl  -0.037285
     7  H    0.071642
     8  C    0.665106
     9  C    0.274765
    10  H   -0.150107
    11  H   -0.150107
    12  H   -0.042006
    13  H   -0.008905
    14  H   -0.042008
 Sum of Mulliken charges =  -0.00000

 Dipole moment (field-independent basis, Debye):
    X=             -1.7578    Y=             -0.0000    Z=             -0.7359  Tot=              1.9056

 Test job not archived.
 1\1\GINC-SE227\SP\RHF\Aug-CC-pVDZ\C4H6Cl2O2\OHZDE\08-Apr-2025\0\\#t hf
  aug-cc-pvdz iop(5/13=1,5/36=2,99/5=2) pseudo=read geom=check guess=(r
 ead,tcheck) scf=(maxcycle=1)\\title\\0,1\C,0,0.236084,0.000003,0.88833
 2\O,0,0.537127,-0.000002,2.053108\C,0,-1.23153,-0.000001,0.449909\O,0,
 1.073903,0.000001,-0.140951\Cl,0,-1.626399,-1.485673,-0.476285\Cl,0,-1
 .626407,1.485671,-0.476281\H,0,-1.852063,-0.000004,1.338184\C,0,2.4928
 73,-0.000001,0.181053\C,0,3.252486,0.000006,-1.127684\H,0,2.706349,-0.
 88383,0.785986\H,0,2.70635,0.883821,0.785996\H,0,3.011168,-0.886148,-1

 Normal termination of Gaussian 16 at Tue Apr  8 22:49:15 2025.
