 Gaussian 16, Revision C.01,

 ----------------------------------------------------------------------
 #t hf aug-cc-pvdz symm=none int=(grid=ultrafine) guess=(read,tcheck) s
 table=(opt,rrhf)
 ----------------------------------------------------------------------
 -----
 title
 -----
 Symbolic Z-matrix:
 Charge =  0 Multiplicity = 1

 SCF Done:  E(RHF) =  -499.122197356     A.U. after   11 cycles

 1\1\GINC-SE343\Stability\RHF\Aug-CC-pVDZ\C1H3Cl1\OHZDE\08-Apr-2025\0\\
 #t hf aug-cc-pvdz symm=none int=(grid=ultrafine) guess=(read,tcheck) s
 table=(opt,rrhf)\\title\\0,1\C,0,-1.140421,0.000006,0.\Cl,0,0.663591,-
 0.000001,0.\H,0,-1.479528,-0.495631,0.906136\H,0,-1.479513,-0.536955,-
 0.882282\H,0,-1.479485,1.03257,-0.023859\\Version=ES64L-G16RevC.01\HF=
 -499.1221974\RMSD=1.746e-09\Dipole=-0.8834751,-0.000002,-0.0000006\Qua
 drupole=0.9756609,-0.4877612,-0.4878997,0.0000443,-0.0000133,0.0000004
 \PG=Unknown\\@

 Normal termination of Gaussian 16 at Tue Apr  8 22:36:21 2025.
 Gaussian 16:  ES64L-G16RevC.01  3-Jul-2019

 ----------------------------------------------------------------------
 #t hf aug-cc-pvdz iop(5/13=1,5/36=2,99/5=2) pseudo=read geom=check gue
 ss=(read,tcheck) scf=(maxcycle=1)
 ----------------------------------------------------------------------
 -----
 title
 -----
 Structure from the checkpoint file:  "BDE49_expt_118_mol1.chk"
 Charge =  0 Multiplicity = 1

                         Standard orientation:
 ---------------------------------------------------------------------
 Center     Atomic      Atomic             Coordinates (Angstroms)
 Number     Number       Type             X           Y           Z
 ---------------------------------------------------------------------
      1          6           0       -1.140421    0.000006   -0.000000
      2         17           0        0.663591   -0.000001    0.000000
      3          1           0       -1.479528   -0.490538    0.908903
      4          1           0       -1.479513   -0.541897   -0.879255
      5          1           0       -1.479484    1.032420   -0.029654
 ---------------------------------------------------------------------

 SCF Done:  E(RHF) =  -499.156097207     A.U. after    2 cycles

 The electronic state is 1-A.
 Alpha  occ. eigenvalues -- -103.65114 -11.30535 -10.68382  -8.34103  -8.33805
 Alpha  occ. eigenvalues --   -8.33805  -1.15679  -0.92836  -0.62247  -0.62246
 Alpha  occ. eigenvalues --   -0.55314  -0.44826  -0.44826
 Alpha virt. eigenvalues --    0.03292   0.05775   0.05775   0.07619   0.13781
 Alpha virt. eigenvalues --    0.15052   0.15052   0.15768   0.16809   0.16809
 Alpha virt. eigenvalues --    0.22231   0.26660   0.26661   0.29808   0.35074

 Mulliken charges:
               1
     1  C    0.203420
     2  Cl  -0.205900
     3  H    0.000824
     4  H    0.000827
     5  H    0.000830
 Sum of Mulliken charges =   0.00000

 Dipole moment (field-independent basis, Debye):
    X=             -2.2984    Y=             -0.0000    Z=             -0.0000  Tot=              2.2984

 Test job not archived.
 1\1\GINC-SE343\SP\RHF\Aug-CC-pVDZ\C1H3Cl1\OHZDE\08-Apr-2025\0\\#t hf a
 ug-cc-pvdz iop(5/13=1,5/36=2,99/5=2) pseudo=read geom=check guess=(rea
 d,tcheck) scf=(maxcycle=1)\\title\\0,1\C,0,-1.140421,0.000006,0.\Cl,0,
 0.663591,-0.000001,0.\H,0,-1.479528,-0.495631,0.906136\H,0,-1.479513,-
 0.536955,-0.882282\H,0,-1.479485,1.03257,-0.023859\\Version=ES64L-G16R
 evC.01\State=1-A\HF=-499.1560972\RMSD=2.775e-03\Dipole=-0.9042548,-0.0
 000021,-0.0000007\Quadrupole=1.0183543,-0.5091077,-0.5092466,0.0000452
 ,-0.0000136,0.0000004\PG=C01 [X(C1H3Cl1)]\\@

 Normal termination of Gaussian 16 at Tue Apr  8 22:36:22 2025.
