 Gaussian 16, Revision C.01,

 ----------------------------------------------------------------------
 #t hf aug-cc-pvdz symm=none int=(grid=ultrafine) guess=(read,tcheck) s
 table=(opt,rrhf)
 ----------------------------------------------------------------------
 -----
 title
 -----
 Symbolic Z-matrix:
 Charge =  0 Multiplicity = 1

 SCF Done:  E(RHF) =  -1406.83842791     A.U. after   15 cycles
 Normal termination of Gaussian 16 at Tue Apr  8 23:16:54 2025.
 Gaussian 16:  ES64L-G16RevC.01  3-Jul-2019

 ----------------------------------------------------------------------
 #t hf aug-cc-pvdz iop(5/13=1,5/36=2,99/5=2) pseudo=read geom=check gue
 ss=(read,tcheck) scf=(maxcycle=1)
 ----------------------------------------------------------------------
 -----
 title
 -----
 Structure from the checkpoint file:  "BDE49_nonexpt_1061_mol1.chk"
 Charge =  0 Multiplicity = 1

                         Standard orientation:
 ---------------------------------------------------------------------
 Center     Atomic      Atomic             Coordinates (Angstroms)
 Number     Number       Type             X           Y           Z
 ---------------------------------------------------------------------
      1         17           0        2.562498   -0.272901    0.000328
      2          8           0        0.939548   -0.904385   -0.000051
      3          6           0       -0.079629   -0.003633   -0.000327
      4         16           0        0.012790    1.616686   -0.000066
      5         16           0       -1.520769   -1.029611   -0.000158
      6          6           0       -2.850746    0.205558    0.000028
      7          1           0       -3.772656   -0.378854    0.000141
      8          1           0       -2.798251    0.824261   -0.893720
      9          1           0       -2.798024    0.824242    0.893776
 ---------------------------------------------------------------------

 SCF Done:  E(RHF) =  -1406.94524977     A.U. after    2 cycles

 The electronic state is 1-A.
 Alpha  occ. eigenvalues -- -103.74352 -93.57968 -93.52422 -20.70388 -11.43012
 Alpha  occ. eigenvalues --  -11.28730 -10.76947  -8.87756  -8.82427  -8.42713
 Alpha  occ. eigenvalues --   -8.42248  -8.42234  -6.21895  -6.21640  -6.21320
 Alpha  occ. eigenvalues --   -6.16638  -6.16148  -6.16013  -1.43818  -1.16666
 Alpha  occ. eigenvalues --   -1.08064  -1.01403  -0.91003  -0.79334  -0.68999
 Alpha  occ. eigenvalues --   -0.68623  -0.64316  -0.61415  -0.59348  -0.53186
 Alpha  occ. eigenvalues --   -0.50468  -0.50319  -0.48378  -0.43083  -0.36156
 Alpha  occ. eigenvalues --   -0.36018
 Alpha virt. eigenvalues --    0.02384   0.03507   0.05298   0.05677   0.06781
 Alpha virt. eigenvalues --    0.07133   0.08805   0.09424   0.11977   0.12477
 Alpha virt. eigenvalues --    0.12517   0.13874   0.14657   0.15131   0.16314

 Mulliken charges:
               1
     1  Cl   0.364121
     2  O   -0.590116
     3  C   -0.199259
     4  S    0.053573
     5  S    0.400680
     6  C    0.108171
     7  H   -0.097753
     8  H   -0.019713
     9  H   -0.019703
 Sum of Mulliken charges =  -0.00000

 Dipole moment (field-independent basis, Debye):
    X=             -1.7481    Y=             -0.0204    Z=              0.0003  Tot=              1.7482

 Test job not archived.
 1\1\GINC-SE284\SP\RHF\Aug-CC-pVDZ\C2H3Cl1O1S2\OHZDE\08-Apr-2025\0\\#t
 hf aug-cc-pvdz iop(5/13=1,5/36=2,99/5=2) pseudo=read geom=check guess=
 (read,tcheck) scf=(maxcycle=1)\\title\\0,1\Cl,0,2.562498,-0.272901,0.0
 00328\O,0,0.939548,-0.904385,-0.000051\C,0,-0.079629,-0.003633,-0.0003
 27\S,0,0.01279,1.616686,-0.000066\S,0,-1.520769,-1.029611,-0.000158\C,
 0,-2.850746,0.205558,0.000028\H,0,-3.772656,-0.378855,0.000141\H,0,-2.
 798251,0.824261,-0.89372\H,0,-2.798024,0.824242,0.893776\\Version=ES64
 L-G16RevC.01\State=1-A\HF=-1406.9452498\RMSD=4.759e-03\Dipole=-0.68774

 Normal termination of Gaussian 16 at Tue Apr  8 23:16:58 2025.
