 Gaussian 16, Revision C.01,

 ----------------------------------------------------------------------
 #t hf aug-cc-pvdz symm=none int=(grid=ultrafine) guess=(read,tcheck) s
 table=(opt,rrhf)
 ----------------------------------------------------------------------
 -----
 title
 -----
 Symbolic Z-matrix:
 Charge =  0 Multiplicity = 1

 SCF Done:  E(RHF) =  -764.837809376     A.U. after   14 cycles
 Normal termination of Gaussian 16 at Tue Apr  8 22:34:48 2025.
 Gaussian 16:  ES64L-G16RevC.01  3-Jul-2019

 ----------------------------------------------------------------------
 #t hf aug-cc-pvdz iop(5/13=1,5/36=2,99/5=2) pseudo=read geom=check gue
 ss=(read,tcheck) scf=(maxcycle=1)
 ----------------------------------------------------------------------
 -----
 title
 -----
 Structure from the checkpoint file:  "BDE49_expt_1132_mol1.chk"
 Charge =  0 Multiplicity = 1

                         Standard orientation:
 ---------------------------------------------------------------------
 Center     Atomic      Atomic             Coordinates (Angstroms)
 Number     Number       Type             X           Y           Z
 ---------------------------------------------------------------------
      1          6           0       -1.083257    0.160090   -0.000020
      2          8           0       -1.293235    1.347800    0.000010
      3          8           0       -2.051278   -0.774813   -0.000011
      4          6           0        0.288201   -0.486036   -0.000023
      5          6           0       -3.403820   -0.276387    0.000013
      6          1           0       -4.037926   -1.159733    0.000014
      7          1           0       -3.586772    0.329334   -0.888610
      8          1           0       -3.586747    0.329319    0.888651
      9          6           0        1.390185    0.561088    0.000014
     10          1           0        0.366728   -1.137683   -0.874445
     11          1           0        0.366713   -1.137731    0.874366
     12          1           0        1.350026    1.191257    0.884936
     13         17           0        3.022717   -0.231911    0.000004
     14          1           0        1.350038    1.191306   -0.884873
 ---------------------------------------------------------------------

 SCF Done:  E(RHF) =  -764.954439711     A.U. after    2 cycles

 The electronic state is 1-A.
 Alpha  occ. eigenvalues -- -103.65253 -20.62944 -20.57567 -11.40863 -11.31319
 Alpha  occ. eigenvalues --  -11.30776 -11.27466 -10.68514  -8.34233  -8.33951
 Alpha  occ. eigenvalues --   -8.33940  -1.43319  -1.33907  -1.16702  -1.06023
 Alpha  occ. eigenvalues --   -0.98044  -0.87651  -0.79235  -0.72751  -0.70627
 Alpha  occ. eigenvalues --   -0.70166  -0.66130  -0.61655  -0.58031  -0.57939
 Alpha  occ. eigenvalues --   -0.55404  -0.53782  -0.53485  -0.49308  -0.48397
 Alpha  occ. eigenvalues --   -0.44930  -0.44912
 Alpha virt. eigenvalues --    0.03136   0.04661   0.04894   0.05000   0.06237
 Alpha virt. eigenvalues --    0.06679   0.07351   0.08376   0.10689   0.11926
 Alpha virt. eigenvalues --    0.13600   0.13744   0.14397   0.14768   0.14865

 Mulliken charges:
               1
     1  C    0.361834
     2  O   -0.435489
     3  O   -0.540357
     4  C    0.191135
     5  C    0.769490
     6  H   -0.254518
     7  H   -0.057973
     8  H   -0.057975
     9  C    0.129591
    10  H    0.022754
    11  H    0.022752
    12  H    0.001228
    13  Cl  -0.153699
    14  H    0.001226
 Sum of Mulliken charges =  -0.00000

 Dipole moment (field-independent basis, Debye):
    X=             -2.5862    Y=             -1.0986    Z=             -0.0000  Tot=              2.8099

 Test job not archived.
 1\1\GINC-SE071\SP\RHF\Aug-CC-pVDZ\C4H7Cl1O2\OHZDE\08-Apr-2025\0\\#t hf
  aug-cc-pvdz iop(5/13=1,5/36=2,99/5=2) pseudo=read geom=check guess=(r
 ead,tcheck) scf=(maxcycle=1)\\title\\0,1\C,0,-1.083257,0.16009,-0.0000
 2\O,0,-1.293235,1.3478,0.00001\O,0,-2.051278,-0.774813,-0.000011\C,0,0
 .288201,-0.486036,-0.000023\C,0,-3.40382,-0.276387,0.000013\H,0,-4.037
 926,-1.159733,0.000014\H,0,-3.586772,0.329334,-0.88861\H,0,-3.586747,0
 .329319,0.888651\C,0,1.390185,0.561088,0.000014\H,0,0.366728,-1.137683
 ,-0.874445\H,0,0.366713,-1.137731,0.874366\H,0,1.350026,1.191257,0.884

 Normal termination of Gaussian 16 at Tue Apr  8 22:34:53 2025.
