 Gaussian 16, Revision C.01,

 ----------------------------------------------------------------------
 #t hf aug-cc-pvdz symm=none int=(grid=ultrafine) guess=(read,tcheck) s
 table=(opt,rrhf)
 ----------------------------------------------------------------------
 -----
 title
 -----
 Symbolic Z-matrix:
 Charge =  0 Multiplicity = 1

 SCF Done:  E(RHF) =  -1367.88232284     A.U. after   14 cycles
 Normal termination of Gaussian 16 at Wed Apr  9 00:16:35 2025.
 Gaussian 16:  ES64L-G16RevC.01  3-Jul-2019

 ----------------------------------------------------------------------
 #t hf aug-cc-pvdz iop(5/13=1,5/36=2,99/5=2) pseudo=read geom=check gue
 ss=(read,tcheck) scf=(maxcycle=1)
 ----------------------------------------------------------------------
 -----
 title
 -----
 Structure from the checkpoint file:  "BDE49_nonexpt_2572_mol1.chk"
 Charge =  0 Multiplicity = 1

                         Standard orientation:
 ---------------------------------------------------------------------
 Center     Atomic      Atomic             Coordinates (Angstroms)
 Number     Number       Type             X           Y           Z
 ---------------------------------------------------------------------
      1         17           0        2.294974    0.150458   -0.000041
      2         16           0        0.528770   -0.892638    0.000023
      3          6           0       -0.678794    0.460446    0.000054
      4          8           0       -0.424230    1.621187    0.000104
      5         16           0       -2.371169   -0.158531   -0.000048
      6          1           0       -2.069561   -1.471251   -0.000046
 ---------------------------------------------------------------------

 SCF Done:  E(RHF) =  -1367.97877250     A.U. after    2 cycles

 The electronic state is 1-A.
 Alpha  occ. eigenvalues -- -103.70288 -93.63309 -93.59608 -20.61527 -11.43731
 Alpha  occ. eigenvalues --  -10.73435  -8.92768  -8.89411  -8.39175  -8.38796
 Alpha  occ. eigenvalues --   -8.38769  -6.26833  -6.26556  -6.26156  -6.23519
 Alpha  occ. eigenvalues --   -6.23341  -6.22945  -1.42003  -1.19548  -1.06534
 Alpha  occ. eigenvalues --   -0.96616  -0.77993  -0.69508  -0.67505  -0.62708
 Alpha  occ. eigenvalues --   -0.57939  -0.53688  -0.52868  -0.50579  -0.44119
 Alpha  occ. eigenvalues --   -0.42988  -0.39822
 Alpha virt. eigenvalues --    0.02568   0.04067   0.07132   0.07724   0.08390
 Alpha virt. eigenvalues --    0.09662   0.10786   0.11621   0.11836   0.12973
 Alpha virt. eigenvalues --    0.13734   0.14088   0.16159   0.16440   0.17519

 Mulliken charges:
               1
     1  Cl  -0.272826
     2  S    0.452306
     3  C   -0.266747
     4  O   -0.325236
     5  S    0.328316
     6  H    0.084187
 Sum of Mulliken charges =   0.00000

 Dipole moment (field-independent basis, Debye):
    X=             -1.3185    Y=             -3.0933    Z=             -0.0001  Tot=              3.3626

 Test job not archived.
 1\1\GINC-SE398\SP\RHF\Aug-CC-pVDZ\C1H1Cl1O1S2\OHZDE\09-Apr-2025\0\\#t
 hf aug-cc-pvdz iop(5/13=1,5/36=2,99/5=2) pseudo=read geom=check guess=
 (read,tcheck) scf=(maxcycle=1)\\title\\0,1\Cl,0,-2.294974,0.150457,0.0
 00041\S,0,-0.52877,-0.892638,-0.000023\C,0,0.678794,0.460446,-0.000054
 \O,0,0.42423,1.621187,-0.000104\S,0,2.371169,-0.158531,0.000048\H,0,2.
 069561,-1.471251,0.000046\\Version=ES64L-G16RevC.01\State=1-A\HF=-1367
 .9787725\RMSD=5.482e-03\Dipole=0.5187246,-1.2170141,0.0000423\Quadrupo
 le=2.2565851,-0.9482354,-1.3083497,-2.4763313,0.0000908,0.0001897\PG=C

 Normal termination of Gaussian 16 at Wed Apr  9 00:16:37 2025.
