 Gaussian 16, Revision C.01,

 ----------------------------------------------------------------------
 #t hf aug-cc-pvdz symm=none int=(grid=ultrafine) guess=(read,tcheck) s
 table=(opt,rrhf)
 ----------------------------------------------------------------------
 -----
 title
 -----
 Symbolic Z-matrix:
 Charge =  0 Multiplicity = 1

 SCF Done:  E(RHF) =  -444.271717728     A.U. after   11 cycles
 Normal termination of Gaussian 16 at Wed Apr  9 00:01:27 2025.
 Gaussian 16:  ES64L-G16RevC.01  3-Jul-2019

 ----------------------------------------------------------------------
 #t hf aug-cc-pvdz iop(5/13=1,5/36=2,99/5=2) pseudo=read geom=check gue
 ss=(read,tcheck) scf=(maxcycle=1)
 ----------------------------------------------------------------------
 -----
 title
 -----
 Structure from the checkpoint file:  "BDE49_nonexpt_2178_mol1.chk"
 Charge =  0 Multiplicity = 1

                         Standard orientation:
 ---------------------------------------------------------------------
 Center     Atomic      Atomic             Coordinates (Angstroms)
 Number     Number       Type             X           Y           Z
 ---------------------------------------------------------------------
      1         14           0        0.002780    0.065364    0.354935
      2          8           0       -0.117174    1.586988   -0.303002
      3          1           0        0.563019    2.231570   -0.097890
      4          6           0       -1.532567   -0.842429   -0.191614
      5          1           0       -1.570923   -0.920493   -1.281900
      6          1           0       -2.433230   -0.320835    0.142247
      7          6           0        1.563019   -0.809231   -0.208611
      8          1           0        1.577949   -0.935431   -1.295284
      9          1           0        1.630803   -1.802445    0.247577
     10          1           0        2.462867   -0.256477    0.079119
     11          1           0       -1.555192   -1.855280    0.221950
     12          1           0        0.040471    0.158353    1.840449
 ---------------------------------------------------------------------

 SCF Done:  E(RHF) =  -444.357884076     A.U. after    2 cycles

 The electronic state is 1-A.
 Alpha  occ. eigenvalues --  -69.07721 -20.56119 -11.21296 -11.20956  -6.82517
 Alpha  occ. eigenvalues --   -3.93456  -3.93309  -3.93285  -1.29049  -0.95003
 Alpha  occ. eigenvalues --   -0.92272  -0.73452  -0.62545  -0.57715  -0.57006
 Alpha  occ. eigenvalues --   -0.54771  -0.54542  -0.53409  -0.52665  -0.44117
 Alpha  occ. eigenvalues --   -0.43275
 Alpha virt. eigenvalues --    0.03068   0.04651   0.05068   0.05428   0.07007
 Alpha virt. eigenvalues --    0.07029   0.07531   0.07994   0.08988   0.09896
 Alpha virt. eigenvalues --    0.10855   0.13485   0.15515   0.16327   0.16606

 Mulliken charges:
               1
     1  Si   1.578337
     2  O   -0.804885
     3  H    0.108345
     4  C    0.325425
     5  H   -0.158962
     6  H   -0.274533
     7  C    0.298728
     8  H   -0.204183
     9  H   -0.236402
    10  H   -0.284619
    11  H   -0.240040
    12  H   -0.107210
 Sum of Mulliken charges =   0.00000

 Dipole moment (field-independent basis, Debye):
    X=              1.1869    Y=             -0.2896    Z=              0.2942  Tot=              1.2567

 Test job not archived.
 1\1\GINC-SE361\SP\RHF\Aug-CC-pVDZ\C2H8O1Si1\OHZDE\09-Apr-2025\0\\#t hf
  aug-cc-pvdz iop(5/13=1,5/36=2,99/5=2) pseudo=read geom=check guess=(r
 ead,tcheck) scf=(maxcycle=1)\\title\\0,1\Si,0,0.00278,0.065364,0.35493
 5\O,0,-0.117175,1.586988,-0.303002\H,0,0.563018,2.23157,-0.09789\C,0,-
 1.532567,-0.84243,-0.191614\H,0,-1.570923,-0.920494,-1.2819\H,0,-2.433
 23,-0.320836,0.142247\C,0,1.563019,-0.80923,-0.208611\H,0,1.577949,-0.
 93543,-1.295284\H,0,1.630804,-1.802444,0.247577\H,0,2.462867,-0.256476
 ,0.079119\H,0,-1.555191,-1.855281,0.22195\H,0,0.040471,0.158353,1.8404

 Normal termination of Gaussian 16 at Wed Apr  9 00:01:30 2025.
