 Gaussian 16, Revision C.01,

 ----------------------------------------------------------------------
 #t hf aug-cc-pvdz symm=none int=(grid=ultrafine) guess=(read,tcheck) s
 table=(opt,rrhf)
 ----------------------------------------------------------------------
 -----
 title
 -----
 Symbolic Z-matrix:
 Charge =  0 Multiplicity = 1

 SCF Done:  E(RHF) =  -733.361789823     A.U. after   12 cycles
 Normal termination of Gaussian 16 at Tue Apr  8 22:48:15 2025.
 Gaussian 16:  ES64L-G16RevC.01  3-Jul-2019

 ----------------------------------------------------------------------
 #t hf aug-cc-pvdz iop(5/13=1,5/36=2,99/5=2) pseudo=read geom=check gue
 ss=(read,tcheck) scf=(maxcycle=1)
 ----------------------------------------------------------------------
 -----
 title
 -----
 Structure from the checkpoint file:  "BDE49_expt_1667_mol1.chk"
 Charge =  0 Multiplicity = 1

                         Standard orientation:
 ---------------------------------------------------------------------
 Center     Atomic      Atomic             Coordinates (Angstroms)
 Number     Number       Type             X           Y           Z
 ---------------------------------------------------------------------
      1          6           0       -1.939256    0.408905    0.374776
      2          6           0       -0.566644    0.782060   -0.176812
      3          6           0        0.602838   -0.052608    0.353442
      4          1           0       -0.402192    1.836644    0.082935
      5          1           0       -0.600926    0.733592   -1.270890
      6          6           0       -3.045530    1.362572   -0.049020
      7          1           0       -2.825022    2.366641    0.327937
      8          1           0       -4.011394    1.050010    0.349985
      9          1           0       -3.121110    1.412152   -1.137665
     10         17           0       -2.396642   -1.295675   -0.166010
     11          1           0       -1.901281    0.326194    1.462158
     12          6           0        1.958669    0.400291   -0.200151
     13          1           0        0.439465   -1.105342    0.103281
     14          1           0        0.620361    0.005926    1.449418
     15          6           0        3.138430   -0.426367    0.324002
     16          1           0        2.121468    1.457632    0.047182
     17          1           0        1.938751    0.344364   -1.296184
     18          6           0        4.490057    0.027385   -0.234570
     19          1           0        2.975995   -1.481974    0.076035
     20          1           0        3.158737   -0.371457    1.419169
     21          1           0        4.512967   -0.049924   -1.326070
     22          1           0        5.308952   -0.581406    0.158056
     23          1           0        4.696761    1.069991    0.026822
 ---------------------------------------------------------------------

 SCF Done:  E(RHF) =  -733.465939650     A.U. after    2 cycles

 The electronic state is 1-A.
 Alpha  occ. eigenvalues -- -103.63596 -11.30928 -11.24370 -11.24164 -11.23058
 Alpha  occ. eigenvalues --  -11.22928 -11.22866 -11.22321 -10.66877  -8.32583
 Alpha  occ. eigenvalues --   -8.32325  -8.32314  -1.15713  -1.07628  -1.03545
 Alpha  occ. eigenvalues --   -0.99486  -0.92700  -0.84380  -0.79292  -0.79160
 Alpha  occ. eigenvalues --   -0.66432  -0.63609  -0.61482  -0.60367  -0.58806
 Alpha  occ. eigenvalues --   -0.57267  -0.54167  -0.53916  -0.52451  -0.50378
 Alpha  occ. eigenvalues --   -0.49475  -0.47909  -0.47022  -0.46708  -0.45875
 Alpha  occ. eigenvalues --   -0.43506  -0.43332
 Alpha virt. eigenvalues --    0.03357   0.03725   0.04257   0.04805   0.05559
 Alpha virt. eigenvalues --    0.05736   0.06032   0.07014   0.07815   0.07934
 Alpha virt. eigenvalues --    0.08414   0.09320   0.10622   0.10806   0.11145

 Mulliken charges:
               1
     1  C   -0.189804
     2  C    0.148755
     3  C    0.133558
     4  H   -0.121299
     5  H   -0.151805
     6  C    0.775475
     7  H   -0.028196
     8  H   -0.060845
     9  H   -0.029637
    10  Cl  -0.225059
    11  H   -0.127013
    12  C    0.131248
    13  H   -0.183728
    14  H   -0.179496
    15  C    0.420849
    16  H   -0.193981
    17  H   -0.176115
    18  C    0.616150
    19  H   -0.150365
    20  H   -0.162209
    21  H   -0.092535
    22  H   -0.064662
    23  H   -0.089287
 Sum of Mulliken charges =  -0.00000

 Dipole moment (field-independent basis, Debye):
    X=              0.8361    Y=              2.3466    Z=              0.6410  Tot=              2.5723

 Test job not archived.
 1\1\GINC-SE092\SP\RHF\Aug-CC-pVDZ\C7H15Cl1\OHZDE\08-Apr-2025\0\\#t hf
 aug-cc-pvdz iop(5/13=1,5/36=2,99/5=2) pseudo=read geom=check guess=(re
 ad,tcheck) scf=(maxcycle=1)\\title\\0,1\C,0,-1.939256,0.408905,0.37477
 6\C,0,-0.566644,0.78206,-0.176812\C,0,0.602838,-0.052608,0.353442\H,0,
 -0.402192,1.836644,0.082935\H,0,-0.600926,0.733592,-1.27089\C,0,-3.045
 53,1.362572,-0.04902\H,0,-2.825022,2.366641,0.327937\H,0,-4.011394,1.0
 5001,0.349985\H,0,-3.12111,1.412152,-1.137665\Cl,0,-2.396642,-1.295675
 ,-0.16601\H,0,-1.901281,0.326194,1.462158\C,0,1.958669,0.400291,-0.200

 Normal termination of Gaussian 16 at Tue Apr  8 22:48:28 2025.
