 Gaussian 16, Revision C.01,

 ----------------------------------------------------------------------
 #t hf aug-cc-pvdz symm=none int=(grid=ultrafine) guess=(read,tcheck) s
 table=(opt,rrhf)
 ----------------------------------------------------------------------
 -----
 title
 -----
 Symbolic Z-matrix:
 Charge =  0 Multiplicity = 1

 SCF Done:  E(RHF) =  -969.602980555     A.U. after   12 cycles

 1\1\GINC-SE332\Stability\RHF\Aug-CC-pVDZ\B2Cl2H2\OHZDE\08-Apr-2025\0\\
 #t hf aug-cc-pvdz symm=none int=(grid=ultrafine) guess=(read,tcheck) s
 table=(opt,rrhf)\\title\\0,1\B,0,0.716539,0.759016,-0.431847\B,0,-0.71
 6534,0.759003,0.431854\Cl,0,-2.023595,-0.307703,-0.08283\Cl,0,2.023593
 ,-0.307705,0.082828\H,0,-0.941111,1.435925,1.383701\H,0,0.94111,1.4359
 24,-1.383705\\Version=ES64L-G16RevC.01\HF=-969.6029806\RMSD=9.370e-09\
 Dipole=0.0000032,0.522544,0.0000042\Quadrupole=-2.6416901,1.8199324,0.
 8217577,0.0000333,0.1856071,-0.000008\PG=Unknown\\@

 Normal termination of Gaussian 16 at Tue Apr  8 23:20:50 2025.
 Gaussian 16:  ES64L-G16RevC.01  3-Jul-2019

 ----------------------------------------------------------------------
 #t hf aug-cc-pvdz iop(5/13=1,5/36=2,99/5=2) pseudo=read geom=check gue
 ss=(read,tcheck) scf=(maxcycle=1)
 ----------------------------------------------------------------------
 -----
 title
 -----
 Structure from the checkpoint file:  "BDE49_nonexpt_11_mol1.chk"
 Charge =  0 Multiplicity = 1

                         Standard orientation:
 ---------------------------------------------------------------------
 Center     Atomic      Atomic             Coordinates (Angstroms)
 Number     Number       Type             X           Y           Z
 ---------------------------------------------------------------------
      1          5           0       -0.716539    0.759016    0.431847
      2          5           0        0.716534    0.759003   -0.431854
      3         17           0        2.023595   -0.307703    0.082830
      4         17           0       -2.023593   -0.307705   -0.082828
      5          1           0        0.941111    1.435925   -1.383701
      6          1           0       -0.941110    1.435924    1.383705
 ---------------------------------------------------------------------

 SCF Done:  E(RHF) =  -969.653998391     A.U. after    2 cycles

 The electronic state is 1-A.
 Alpha  occ. eigenvalues -- -103.67083-103.67082 -10.70544 -10.70544  -8.36230
 Alpha  occ. eigenvalues --   -8.36228  -8.36029  -8.36028  -8.35977  -8.35976
 Alpha  occ. eigenvalues --   -7.67801  -7.67726  -1.16550  -1.15845  -0.74778
 Alpha  occ. eigenvalues --   -0.66384  -0.57264  -0.56652  -0.54530  -0.50199
 Alpha  occ. eigenvalues --   -0.49841  -0.47886  -0.42234
 Alpha virt. eigenvalues --    0.03793   0.04089   0.04440   0.04503   0.06644
 Alpha virt. eigenvalues --    0.06982   0.07528   0.08373   0.08459   0.09441
 Alpha virt. eigenvalues --    0.13618   0.14333   0.14965   0.15569   0.15908

 Mulliken charges:
               1
     1  B    0.180484
     2  B    0.180485
     3  Cl  -0.348780
     4  Cl  -0.348782
     5  H    0.168296
     6  H    0.168297
 Sum of Mulliken charges =  -0.00000

 Dipole moment (field-independent basis, Debye):
    X=             -0.0000    Y=              1.4240    Z=             -0.0000  Tot=              1.4240

 Test job not archived.
 1\1\GINC-SE332\SP\RHF\Aug-CC-pVDZ\B2Cl2H2\OHZDE\08-Apr-2025\0\\#t hf a
 ug-cc-pvdz iop(5/13=1,5/36=2,99/5=2) pseudo=read geom=check guess=(rea
 d,tcheck) scf=(maxcycle=1)\\title\\0,1\B,0,0.716539,0.759016,-0.431847
 \B,0,-0.716534,0.759003,0.431854\Cl,0,-2.023595,-0.307703,-0.08283\Cl,
 0,2.023593,-0.307705,0.082828\H,0,-0.941111,1.435925,1.383701\H,0,0.94
 111,1.435924,-1.383705\\Version=ES64L-G16RevC.01\State=1-A\HF=-969.653
 9984\RMSD=2.894e-03\Dipole=0.0000033,0.5602437,0.0000046\Quadrupole=-2
 .8037934,1.9205971,0.8831963,0.0000347,0.1752406,-0.0000077\PG=C01 [X(

 Normal termination of Gaussian 16 at Tue Apr  8 23:20:52 2025.
