 Gaussian 16, Revision C.01,

 ----------------------------------------------------------------------
 #t hf aug-cc-pvdz symm=none int=(grid=ultrafine) guess=(read,tcheck) s
 table=(opt,rrhf)
 ----------------------------------------------------------------------
 -----
 title
 -----
 Symbolic Z-matrix:
 Charge =  0 Multiplicity = 1

 SCF Done:  E(RHF) =  -704.516260033     A.U. after   13 cycles
 Normal termination of Gaussian 16 at Tue Apr  8 22:46:10 2025.
 Gaussian 16:  ES64L-G16RevC.01  3-Jul-2019

 ----------------------------------------------------------------------
 #t hf aug-cc-pvdz iop(5/13=1,5/36=2,99/5=2) pseudo=read geom=check gue
 ss=(read,tcheck) scf=(maxcycle=1)
 ----------------------------------------------------------------------
 -----
 title
 -----
 Structure from the checkpoint file:  "BDE49_expt_1599_mol1.chk"
 Charge =  0 Multiplicity = 1

                         Standard orientation:
 ---------------------------------------------------------------------
 Center     Atomic      Atomic             Coordinates (Angstroms)
 Number     Number       Type             X           Y           Z
 ---------------------------------------------------------------------
      1         16           0       -0.648900   -0.200748    0.104380
      2          6           0        1.053377    0.128118   -0.492276
      3          6           0       -1.649568    1.122188   -0.595991
      4          8           0       -0.664948   -0.050372    1.549181
      5          8           0       -1.094272   -1.438480   -0.510975
      6          1           0       -1.359845    2.078799   -0.165472
      7          1           0       -2.675355    0.879562   -0.317013
      8          1           0       -1.547070    1.117737   -1.680642
      9          6           0        1.594718    1.443974    0.065737
     10          1           0        1.018319    2.308786   -0.269887
     11          1           0        2.625160    1.585607   -0.271320
     12          1           0        1.588601    1.427026    1.157114
     13          6           0        1.912067   -1.081393   -0.110601
     14          1           0        0.945733    0.176957   -1.580312
     15          1           0        2.916166   -0.955574   -0.523251
     16          1           0        1.486148   -2.005609   -0.501223
     17          1           0        1.994744   -1.167843    0.975058
 ---------------------------------------------------------------------

 SCF Done:  E(RHF) =  -704.686878371     A.U. after    2 cycles

 The electronic state is 1-A.
 Alpha  occ. eigenvalues --  -93.76902 -20.54949 -20.54869 -11.29438 -11.28506
 Alpha  occ. eigenvalues --  -11.25489 -11.24606  -9.03738  -6.38378  -6.38150
 Alpha  occ. eigenvalues --   -6.38073  -1.40928  -1.29530  -1.09998  -1.02858
 Alpha  occ. eigenvalues --   -0.95613  -0.88403  -0.78168  -0.70309  -0.67142
 Alpha  occ. eigenvalues --   -0.66351  -0.64631  -0.61137  -0.60343  -0.58992
 Alpha  occ. eigenvalues --   -0.56607  -0.56152  -0.51891  -0.51760  -0.50941
 Alpha  occ. eigenvalues --   -0.49627  -0.48298  -0.43347
 Alpha virt. eigenvalues --    0.02686   0.03879   0.04492   0.04905   0.06159
 Alpha virt. eigenvalues --    0.06489   0.06957   0.07660   0.08334   0.09120
 Alpha virt. eigenvalues --    0.11623   0.12357   0.13519   0.14116   0.14233

 Mulliken charges:
               1
     1  S    2.463859
     2  C   -1.374765
     3  C    0.057557
     4  O   -1.165100
     5  O   -1.141833
     6  H    0.001170
     7  H    0.039760
     8  H   -0.005220
     9  C    0.742399
    10  H   -0.128082
    11  H   -0.032603
    12  H    0.035394
    13  C    0.704523
    14  H   -0.146823
    15  H   -0.032181
    16  H   -0.039624
    17  H    0.021568
 Sum of Mulliken charges =  -0.00000

 Dipole moment (field-independent basis, Debye):
    X=              2.1266    Y=              3.9292    Z=             -2.9298  Tot=              5.3427

 Test job not archived.
 1\1\GINC-SE457\SP\RHF\Aug-CC-pVDZ\C4H10O2S1\OHZDE\08-Apr-2025\0\\#t hf
  aug-cc-pvdz iop(5/13=1,5/36=2,99/5=2) pseudo=read geom=check guess=(r
 ead,tcheck) scf=(maxcycle=1)\\title\\0,1\S,0,-0.6489,-0.200748,0.10438
 \C,0,1.053377,0.128118,-0.492276\C,0,-1.649568,1.122188,-0.595991\O,0,
 -0.664948,-0.050372,1.549181\O,0,-1.094272,-1.43848,-0.510975\H,0,-1.3
 59845,2.078799,-0.165472\H,0,-2.675355,0.879562,-0.317013\H,0,-1.54707
 ,1.117737,-1.680642\C,0,1.594718,1.443974,0.065737\H,0,1.018319,2.3087
 86,-0.269887\H,0,2.62516,1.585607,-0.27132\H,0,1.588601,1.427026,1.157

 Normal termination of Gaussian 16 at Tue Apr  8 22:46:17 2025.
