 Gaussian 16, Revision C.01,

 ----------------------------------------------------------------------
 #t hf aug-cc-pvdz symm=none int=(grid=ultrafine) guess=(read,tcheck) s
 table=(opt,rrhf)
 ----------------------------------------------------------------------
 -----
 title
 -----
 Symbolic Z-matrix:
 Charge =  0 Multiplicity = 1

 SCF Done:  E(RHF) =  -639.450394416     A.U. after   12 cycles
 Normal termination of Gaussian 16 at Wed Apr  9 00:07:29 2025.
 Gaussian 16:  ES64L-G16RevC.01  3-Jul-2019

 ----------------------------------------------------------------------
 #t hf aug-cc-pvdz iop(5/13=1,5/36=2,99/5=2) pseudo=read geom=check gue
 ss=(read,tcheck) scf=(maxcycle=1)
 ----------------------------------------------------------------------
 -----
 title
 -----
 Structure from the checkpoint file:  "BDE49_nonexpt_2232_mol1.chk"
 Charge =  0 Multiplicity = 1

                         Standard orientation:
 ---------------------------------------------------------------------
 Center     Atomic      Atomic             Coordinates (Angstroms)
 Number     Number       Type             X           Y           Z
 ---------------------------------------------------------------------
      1          8           0       -0.287025   -0.256172   -0.349682
      2         14           0        1.107909   -0.682806    0.437552
      3          6           0        2.506042   -0.349137   -0.767901
      4          6           0        2.608608    1.102435   -1.270299
      5          1           0        2.376671   -1.029265   -1.617780
      6          1           0        3.444298   -0.650733   -0.284560
      7          1           0        2.787295    1.802312   -0.448650
      8          1           0        1.686750    1.409645   -1.769822
      9          6           0       -1.639162   -0.495331    0.065596
     10          6           0       -2.501343    0.676248   -0.408922
     11          6           0       -2.106507    2.022924    0.199000
     12          1           0       -3.546524    0.450324   -0.168202
     13          1           0       -2.430043    0.723658   -1.501405
     14          1           0       -1.073891    2.272822   -0.051513
     15          1           0       -2.195128    2.006774    1.290229
     16          6           0        1.304554    0.268846    2.044398
     17          1           0        2.222838   -0.038104    2.556052
     18          1           0        0.471532    0.078032    2.727505
     19          1           0        1.356480    1.347896    1.874419
     20          6           0       -2.118811   -1.832502   -0.495067
     21          1           0       -1.680719   -0.533013    1.165155
     22          1           0       -3.145809   -2.040369   -0.180869
     23          1           0       -1.483300   -2.650126   -0.147512
     24          1           0       -2.085608   -1.814320   -1.587725
     25          1           0        3.429866    1.221655   -1.983128
     26          1           0       -2.748680    2.825443   -0.173317
     27          1           0        1.079155   -2.134862    0.772021
 ---------------------------------------------------------------------

 SCF Done:  E(RHF) =  -639.597027860     A.U. after    2 cycles

 The electronic state is 1-A.
 Alpha  occ. eigenvalues --  -69.06987 -20.54558 -11.29238 -11.22643 -11.22374
 Alpha  occ. eigenvalues --  -11.22227 -11.21933 -11.21141 -11.20927  -6.81833
 Alpha  occ. eigenvalues --   -3.92729  -3.92588  -3.92565  -1.29352  -1.05029
 Alpha  occ. eigenvalues --   -1.00575  -0.97764  -0.93326  -0.86528  -0.83663
 Alpha  occ. eigenvalues --   -0.79083  -0.70963  -0.62956  -0.61337  -0.60904
 Alpha  occ. eigenvalues --   -0.59740  -0.57911  -0.57517  -0.55672  -0.55251
 Alpha  occ. eigenvalues --   -0.54373  -0.52877  -0.51324  -0.50968  -0.50006
 Alpha  occ. eigenvalues --   -0.48903  -0.48449  -0.46134  -0.44892  -0.42099
 Alpha  occ. eigenvalues --   -0.41115
 Alpha virt. eigenvalues --    0.03176   0.04162   0.04409   0.04484   0.05613
 Alpha virt. eigenvalues --    0.05730   0.05924   0.06255   0.06393   0.07996
 Alpha virt. eigenvalues --    0.08134   0.08336   0.08610   0.08813   0.08941

 Mulliken charges:
               1
     1  O   -0.978009
     2  Si   1.460044
     3  C    0.221113
     4  C    0.330727
     5  H   -0.344495
     6  H   -0.239079
     7  H   -0.124529
     8  H   -0.108441
     9  C   -0.215250
    10  C    0.373898
    11  C    0.575192
    12  H   -0.062025
    13  H   -0.112365
    14  H   -0.095374
    15  H   -0.089888
    16  C    0.402720
    17  H   -0.283671
    18  H   -0.364304
    19  H   -0.178778
    20  C    0.532397
    21  H   -0.257577
    22  H   -0.058522
    23  H   -0.115216
    24  H    0.002552
    25  H   -0.120105
    26  H   -0.101088
    27  H   -0.049925
 Sum of Mulliken charges =  -0.00000

 Dipole moment (field-independent basis, Debye):
    X=             -0.4272    Y=             -0.0335    Z=              0.6785  Tot=              0.8025

 Test job not archived.
 1\1\GINC-SE109\SP\RHF\Aug-CC-pVDZ\C7H18O1Si1\OHZDE\09-Apr-2025\0\\#t h
 f aug-cc-pvdz iop(5/13=1,5/36=2,99/5=2) pseudo=read geom=check guess=(
 read,tcheck) scf=(maxcycle=1)\\title\\0,1\O,0,-0.287025,-0.256172,-0.3
 49682\Si,0,1.107909,-0.682806,0.437552\C,0,2.506042,-0.349137,-0.76790
 1\C,0,2.608608,1.102435,-1.270299\H,0,2.376671,-1.029265,-1.61778\H,0,
 3.444298,-0.650733,-0.28456\H,0,2.787295,1.802312,-0.44865\H,0,1.68675
 ,1.409645,-1.769822\C,0,-1.639162,-0.495331,0.065596\C,0,-2.501343,0.6
 76248,-0.408922\C,0,-2.106507,2.022924,0.199\H,0,-3.546524,0.450324,-0

 Normal termination of Gaussian 16 at Wed Apr  9 00:07:48 2025.
