 Gaussian 16, Revision C.01,

 ----------------------------------------------------------------------
 #t hf aug-cc-pvdz symm=none int=(grid=ultrafine) guess=(read,tcheck) s
 table=(opt,rrhf)
 ----------------------------------------------------------------------
 -----
 title
 -----
 Symbolic Z-matrix:
 Charge =  0 Multiplicity = 1

 SCF Done:  E(RHF) =  -483.306382188     A.U. after   12 cycles
 Normal termination of Gaussian 16 at Wed Apr  9 00:01:13 2025.
 Gaussian 16:  ES64L-G16RevC.01  3-Jul-2019

 ----------------------------------------------------------------------
 #t hf aug-cc-pvdz iop(5/13=1,5/36=2,99/5=2) pseudo=read geom=check gue
 ss=(read,tcheck) scf=(maxcycle=1)
 ----------------------------------------------------------------------
 -----
 title
 -----
 Structure from the checkpoint file:  "BDE49_nonexpt_2167_mol1.chk"
 Charge =  0 Multiplicity = 1

                         Standard orientation:
 ---------------------------------------------------------------------
 Center     Atomic      Atomic             Coordinates (Angstroms)
 Number     Number       Type             X           Y           Z
 ---------------------------------------------------------------------
      1         14           0       -0.472483    0.065404    0.333336
      2          8           0       -0.446241    1.591022   -0.329255
      3          1           0       -1.091549    2.235909   -0.033211
      4          6           0        1.067123   -0.786933   -0.306023
      5          6           0        2.385343   -0.084885    0.066128
      6          1           0        0.977662   -0.868008   -1.396309
      7          1           0        1.066272   -1.817111    0.072321
      8          1           0        2.513144   -0.029806    1.151288
      9          1           0        2.406465    0.937310   -0.318870
     10          6           0       -2.028073   -0.869164   -0.139960
     11          1           0       -2.100880   -0.994866   -1.224280
     12          1           0       -2.929608   -0.350058    0.200156
     13          1           0       -2.032326   -1.864339    0.316859
     14          1           0        3.251728   -0.614507   -0.340692
     15          1           0       -0.422573    0.167530    1.819197
 ---------------------------------------------------------------------

 SCF Done:  E(RHF) =  -483.403961814     A.U. after    2 cycles

 The electronic state is 1-A.
 Alpha  occ. eigenvalues --  -69.07400 -20.56063 -11.22313 -11.21296 -11.21262
 Alpha  occ. eigenvalues --   -6.82238  -3.93169  -3.93019  -3.92998  -1.28964
 Alpha  occ. eigenvalues --   -1.00680  -0.93729  -0.83688  -0.73407  -0.63038
 Alpha  occ. eigenvalues --   -0.59181  -0.58442  -0.56347  -0.55793  -0.54079
 Alpha  occ. eigenvalues --   -0.52041  -0.50316  -0.48785  -0.43497  -0.41652
 Alpha virt. eigenvalues --    0.03111   0.04468   0.04787   0.05234   0.06432
 Alpha virt. eigenvalues --    0.06587   0.07076   0.07522   0.08512   0.09203
 Alpha virt. eigenvalues --    0.09721   0.10466   0.10879   0.13773   0.14867

 Mulliken charges:
               1
     1  Si   1.472371
     2  O   -0.833083
     3  H    0.105846
     4  C    0.187970
     5  C    0.188572
     6  H   -0.157183
     7  H   -0.205829
     8  H   -0.123852
     9  H   -0.102822
    10  C    0.302229
    11  H   -0.206135
    12  H   -0.290266
    13  H   -0.218019
    14  H   -0.076284
    15  H   -0.043514
 Sum of Mulliken charges =  -0.00000

 Dipole moment (field-independent basis, Debye):
    X=             -1.0827    Y=             -0.2808    Z=              0.3928  Tot=              1.1855

 Test job not archived.
 1\1\GINC-SE099\SP\RHF\Aug-CC-pVDZ\C3H10O1Si1\OHZDE\09-Apr-2025\0\\#t h
 f aug-cc-pvdz iop(5/13=1,5/36=2,99/5=2) pseudo=read geom=check guess=(
 read,tcheck) scf=(maxcycle=1)\\title\\0,1\Si,0,-0.472483,0.065404,0.33
 3336\O,0,-0.446241,1.591022,-0.329255\H,0,-1.091549,2.235909,-0.033211
 \C,0,1.067123,-0.786933,-0.306023\C,0,2.385343,-0.084885,0.066128\H,0,
 0.977662,-0.868008,-1.396309\H,0,1.066272,-1.817111,0.072321\H,0,2.513
 144,-0.029806,1.151288\H,0,2.406465,0.93731,-0.31887\C,0,-2.028073,-0.
 869164,-0.13996\H,0,-2.10088,-0.994866,-1.22428\H,0,-2.929608,-0.35005

 Normal termination of Gaussian 16 at Wed Apr  9 00:01:18 2025.
