 Gaussian 16, Revision C.01,

 ----------------------------------------------------------------------
 #t hf aug-cc-pvdz symm=none int=(grid=ultrafine) guess=(read,tcheck) s
 table=(opt,rrhf)
 ----------------------------------------------------------------------
 -----
 title
 -----
 Symbolic Z-matrix:
 Charge =  0 Multiplicity = 1

 SCF Done:  E(RHF) =  -713.262884693     A.U. after   14 cycles
 Normal termination of Gaussian 16 at Wed Apr  9 00:10:40 2025.
 Gaussian 16:  ES64L-G16RevC.01  3-Jul-2019

 ----------------------------------------------------------------------
 #t hf aug-cc-pvdz iop(5/13=1,5/36=2,99/5=2) pseudo=read geom=check gue
 ss=(read,tcheck) scf=(maxcycle=1)
 ----------------------------------------------------------------------
 -----
 title
 -----
 Structure from the checkpoint file:  "BDE49_nonexpt_2383_mol1.chk"
 Charge =  0 Multiplicity = 1

                         Standard orientation:
 ---------------------------------------------------------------------
 Center     Atomic      Atomic             Coordinates (Angstroms)
 Number     Number       Type             X           Y           Z
 ---------------------------------------------------------------------
      1         14           0       -2.081862   -0.617321   -0.194349
      2         14           0       -0.408009    0.919549    0.448856
      3          6           0        1.159522    0.767055   -0.644714
      4          1           0       -0.111403    0.761326    1.893775
      5          1           0       -0.912181    2.297661    0.230082
      6          1           0       -2.389643   -0.461340   -1.636429
      7          1           0       -3.323272   -0.385126    0.583729
      8          7           0        2.147961   -0.029929   -0.585781
      9          1           0       -1.627203   -2.008743    0.043336
     10          6           0        2.209226   -1.051973    0.441471
     11          1           0        2.298020   -2.027498   -0.045733
     12          1           0        1.351238   -1.075314    1.128123
     13          1           0        3.123387   -0.907720    1.025103
     14          1           0        1.201039    1.494563   -1.465166
 ---------------------------------------------------------------------

 SCF Done:  E(RHF) =  -713.344723534     A.U. after    2 cycles

 The electronic state is 1-A.
 Alpha  occ. eigenvalues --  -69.07238 -69.06744 -15.63828 -11.27838 -11.26440
 Alpha  occ. eigenvalues --   -6.82637  -6.82160  -3.93401  -3.93388  -3.93354
 Alpha  occ. eigenvalues --   -3.92912  -3.92912  -3.92884  -1.19513  -0.96044
 Alpha  occ. eigenvalues --   -0.79591  -0.72517  -0.66908  -0.64414  -0.59577
 Alpha  occ. eigenvalues --   -0.57655  -0.52193  -0.50045  -0.48919  -0.47668
 Alpha  occ. eigenvalues --   -0.43958  -0.39565  -0.37040
 Alpha virt. eigenvalues --    0.03308   0.03914   0.04526   0.05092   0.06067
 Alpha virt. eigenvalues --    0.06693   0.07060   0.07751   0.08011   0.09005
 Alpha virt. eigenvalues --    0.09086   0.09568   0.10067   0.10231   0.10959

 Mulliken charges:
               1
     1  Si  -0.170375
     2  Si   0.104865
     3  C    0.242951
     4  H    0.134472
     5  H   -0.016289
     6  H    0.059616
     7  H    0.035063
     8  N   -0.509429
     9  H    0.059431
    10  C    0.838720
    11  H   -0.123417
    12  H   -0.168365
    13  H   -0.137578
    14  H   -0.349663
 Sum of Mulliken charges =  -0.00000

 Dipole moment (field-independent basis, Debye):
    X=             -0.9696    Y=             -0.1627    Z=              0.9396  Tot=              1.3599

 Test job not archived.
 1\1\GINC-SE179\SP\RHF\Aug-CC-pVDZ\C2H9N1Si2\OHZDE\09-Apr-2025\0\\#t hf
  aug-cc-pvdz iop(5/13=1,5/36=2,99/5=2) pseudo=read geom=check guess=(r
 ead,tcheck) scf=(maxcycle=1)\\title\\0,1\Si,0,-2.081862,-0.617321,-0.1
 94349\Si,0,-0.408009,0.919549,0.448856\C,0,1.159522,0.767055,-0.644714
 \H,0,-0.111403,0.761326,1.893775\H,0,-0.912181,2.297661,0.230082\H,0,-
 2.389643,-0.46134,-1.636429\H,0,-3.323272,-0.385126,0.583729\N,0,2.147
 961,-0.029929,-0.585781\H,0,-1.627203,-2.008743,0.043336\C,0,2.209226,
 -1.051973,0.441471\H,0,2.29802,-2.027498,-0.045733\H,0,1.351238,-1.075

 Normal termination of Gaussian 16 at Wed Apr  9 00:10:46 2025.
