 Gaussian 16, Revision C.01,

 ----------------------------------------------------------------------
 #t hf aug-cc-pvdz symm=none int=(grid=ultrafine) guess=(read,tcheck) s
 table=(opt,rrhf)
 ----------------------------------------------------------------------
 -----
 title
 -----
 Symbolic Z-matrix:
 Charge =  0 Multiplicity = 1

 SCF Done:  E(RHF) =  -546.057289691     A.U. after   15 cycles
 Normal termination of Gaussian 16 at Wed Apr  9 00:44:38 2025.
 Gaussian 16:  ES64L-G16RevC.01  3-Jul-2019

 ----------------------------------------------------------------------
 #t hf aug-cc-pvdz iop(5/13=1,5/36=2,99/5=2) pseudo=read geom=check gue
 ss=(read,tcheck) scf=(maxcycle=1)
 ----------------------------------------------------------------------
 -----
 title
 -----
 Structure from the checkpoint file:  "BDE49_nonexpt_802_mol1.chk"
 Charge =  0 Multiplicity = 1

                         Standard orientation:
 ---------------------------------------------------------------------
 Center     Atomic      Atomic             Coordinates (Angstroms)
 Number     Number       Type             X           Y           Z
 ---------------------------------------------------------------------
      1          6           0       -1.924244   -1.205430    0.108418
      2          6           0       -0.552491   -1.204087   -0.133298
      3          6           0        0.158867   -0.000066   -0.264159
      4          6           0       -2.612639    0.000076    0.229954
      5          6           0       -1.924162    1.205512    0.108180
      6          6           0       -0.552410    1.204029   -0.133534
      7          1           0       -2.455991   -2.146331    0.198798
      8          1           0       -0.033337   -2.152327   -0.231606
      9          1           0       -0.033193    2.152216   -0.232026
     10          1           0       -3.680847    0.000131    0.416320
     11          1           0       -2.455846    2.146467    0.198376
     12          5           0        2.788788    0.000318    1.320520
     13         14           0        2.029528   -0.000155   -0.543683
     14          1           0        2.397725   -1.205862   -1.328321
     15          1           0        2.397772    1.205141   -1.328932
     16          1           0        2.974492   -1.018506    1.911736
     17          1           0        2.974363    1.019449    1.911250
 ---------------------------------------------------------------------

 SCF Done:  E(RHF) =  -546.154308556     A.U. after    2 cycles

 The electronic state is 1-A.
 Alpha  occ. eigenvalues --  -69.04914 -11.25110 -11.25105 -11.25063 -11.24781
 Alpha  occ. eigenvalues --  -11.24762 -11.23817  -7.62273  -6.80408  -3.91184
 Alpha  occ. eigenvalues --   -3.91160  -3.91085  -1.14244  -1.01258  -1.00939
 Alpha  occ. eigenvalues --   -0.82886  -0.82709  -0.73663  -0.69727  -0.64596
 Alpha  occ. eigenvalues --   -0.63092  -0.62531  -0.59430  -0.55168  -0.51156
 Alpha  occ. eigenvalues --   -0.50847  -0.49868  -0.46273  -0.45440  -0.41410
 Alpha  occ. eigenvalues --   -0.34366  -0.33620
 Alpha virt. eigenvalues --    0.03139   0.03222   0.04058   0.04381   0.04684
 Alpha virt. eigenvalues --    0.05317   0.06205   0.06851   0.07379   0.07605
 Alpha virt. eigenvalues --    0.08272   0.08866   0.10111   0.10239   0.10899

 Mulliken charges:
               1
     1  C    0.742519
     2  C    0.424389
     3  C   -0.385142
     4  C    0.496466
     5  C    0.742521
     6  C    0.424438
     7  H   -0.445217
     8  H   -0.587155
     9  H   -0.587138
    10  H   -0.435131
    11  H   -0.445218
    12  B   -0.523460
    13  Si  -0.251962
    14  H    0.052152
    15  H    0.052206
    16  H    0.362873
    17  H    0.362859
 Sum of Mulliken charges =   0.00000

 Dipole moment (field-independent basis, Debye):
    X=             -0.4654    Y=              0.0001    Z=              0.2803  Tot=              0.5433

 Test job not archived.
 1\1\GINC-SE365\SP\RHF\Aug-CC-pVDZ\C6H9B1Si1\OHZDE\09-Apr-2025\0\\#t hf
  aug-cc-pvdz iop(5/13=1,5/36=2,99/5=2) pseudo=read geom=check guess=(r
 ead,tcheck) scf=(maxcycle=1)\\title\\0,1\C,0,-1.924244,-1.20543,0.1084
 18\C,0,-0.552491,-1.204087,-0.133298\C,0,0.158867,-0.000066,-0.264159\
 C,0,-2.612639,0.000076,0.229954\C,0,-1.924162,1.205512,0.10818\C,0,-0.
 55241,1.204029,-0.133534\H,0,-2.455991,-2.146331,0.198798\H,0,-0.03333
 7,-2.152327,-0.231606\H,0,-0.033193,2.152216,-0.232026\H,0,-3.680847,0
 .000131,0.41632\H,0,-2.455846,2.146467,0.198376\B,0,2.788788,0.000318,

 Normal termination of Gaussian 16 at Wed Apr  9 00:44:44 2025.
