 Gaussian 16, Revision C.01,

 ----------------------------------------------------------------------
 #t hf aug-cc-pvdz symm=none int=(grid=ultrafine) guess=(read,tcheck) s
 table=(opt,rrhf)
 ----------------------------------------------------------------------
 -----
 title
 -----
 Symbolic Z-matrix:
 Charge =  0 Multiplicity = 1

 SCF Done:  E(RHF) =  -1518.68561503     A.U. after   14 cycles
 Normal termination of Gaussian 16 at Wed Apr  9 00:16:42 2025.
 Gaussian 16:  ES64L-G16RevC.01  3-Jul-2019

 ----------------------------------------------------------------------
 #t hf aug-cc-pvdz iop(5/13=1,5/36=2,99/5=2) pseudo=read geom=check gue
 ss=(read,tcheck) scf=(maxcycle=1)
 ----------------------------------------------------------------------
 -----
 title
 -----
 Structure from the checkpoint file:  "BDE49_nonexpt_2578_mol1.chk"
 Charge =  0 Multiplicity = 1

                         Standard orientation:
 ---------------------------------------------------------------------
 Center     Atomic      Atomic             Coordinates (Angstroms)
 Number     Number       Type             X           Y           Z
 ---------------------------------------------------------------------
      1         17           0        2.347643    0.379560   -0.394093
      2         16           0        0.953046   -0.103069    1.042618
      3         16           0       -0.766335   -0.587456   -0.125139
      4          8           0       -1.692749   -0.936723    0.920031
      5          8           0       -1.199222    0.795709   -0.807138
      6          6           0       -1.763835    1.836433    0.033019
      7          1           0       -2.116073    2.589972   -0.667389
      8          1           0       -0.990354    2.253537    0.679951
      9          1           0       -2.589185    1.438018    0.621122
     10          8           0       -0.435366   -1.447016   -1.214376
 ---------------------------------------------------------------------

 SCF Done:  E(RHF) =  -1518.89418397     A.U. after    2 cycles

 The electronic state is 1-A.
 Alpha  occ. eigenvalues -- -103.71265 -93.86595 -93.64577 -20.66454 -20.60851
 Alpha  occ. eigenvalues --  -20.60421 -11.33449 -10.74398  -9.12526  -8.93944
 Alpha  occ. eigenvalues --   -8.40136  -8.39763  -8.39728  -6.47172  -6.47067
 Alpha  occ. eigenvalues --   -6.46897  -6.27955  -6.27714  -6.27291  -1.50095
 Alpha  occ. eigenvalues --   -1.38228  -1.36115  -1.20218  -1.02268  -0.98378
 Alpha  occ. eigenvalues --   -0.84852  -0.76435  -0.74374  -0.72654  -0.67522
 Alpha  occ. eigenvalues --   -0.66410  -0.60449  -0.58744  -0.56627  -0.55724
 Alpha  occ. eigenvalues --   -0.54781  -0.54499  -0.53757  -0.53142  -0.46520
 Alpha  occ. eigenvalues --   -0.41709
 Alpha virt. eigenvalues --    0.02348   0.03088   0.04830   0.05759   0.05876
 Alpha virt. eigenvalues --    0.08490   0.09452   0.10725   0.11617   0.12125
 Alpha virt. eigenvalues --    0.13223   0.13739   0.14332   0.15224   0.15793

 Mulliken charges:
               1
     1  Cl  -0.268180
     2  S    0.300628
     3  S    2.414773
     4  O   -0.978412
     5  O   -0.930769
     6  C    0.669035
     7  H   -0.188068
     8  H   -0.058180
     9  H   -0.039414
    10  O   -0.921413
 Sum of Mulliken charges =  -0.00000

 Dipole moment (field-independent basis, Debye):
    X=              0.0159    Y=              4.0322    Z=              1.7120  Tot=              4.3806

 Test job not archived.
 1\1\GINC-SE361\SP\RHF\Aug-CC-pVDZ\C1H3Cl1O3S2\OHZDE\09-Apr-2025\0\\#t
 hf aug-cc-pvdz iop(5/13=1,5/36=2,99/5=2) pseudo=read geom=check guess=
 (read,tcheck) scf=(maxcycle=1)\\title\\0,1\Cl,0,2.347643,0.37956,-0.39
 4093\S,0,0.953046,-0.103069,1.042618\S,0,-0.766335,-0.587456,-0.125139
 \O,0,-1.692749,-0.936723,0.920031\O,0,-1.199222,0.795709,-0.807138\C,0
 ,-1.763835,1.836433,0.033019\H,0,-2.116073,2.589972,-0.667389\H,0,-0.9
 90354,2.253537,0.679951\H,0,-2.589185,1.438018,0.621122\O,0,-0.435366,
 -1.447016,-1.214376\\Version=ES64L-G16RevC.01\State=1-A\HF=-1518.89418

 Normal termination of Gaussian 16 at Wed Apr  9 00:16:46 2025.
