 Gaussian 16, Revision C.01,

 ----------------------------------------------------------------------
 #t hf aug-cc-pvdz symm=none int=(grid=ultrafine) guess=(read,tcheck) s
 table=(opt,rrhf)
 ----------------------------------------------------------------------
 -----
 title
 -----
 Symbolic Z-matrix:
 Charge =  0 Multiplicity = 1

 SCF Done:  E(RHF) =  -598.126156375     A.U. after   13 cycles
 Normal termination of Gaussian 16 at Wed Apr  9 00:34:46 2025.
 Gaussian 16:  ES64L-G16RevC.01  3-Jul-2019

 ----------------------------------------------------------------------
 #t hf aug-cc-pvdz iop(5/13=1,5/36=2,99/5=2) pseudo=read geom=check gue
 ss=(read,tcheck) scf=(maxcycle=1)
 ----------------------------------------------------------------------
 -----
 title
 -----
 Structure from the checkpoint file:  "BDE49_nonexpt_482_mol1.chk"
 Charge =  0 Multiplicity = 1

                         Standard orientation:
 ---------------------------------------------------------------------
 Center     Atomic      Atomic             Coordinates (Angstroms)
 Number     Number       Type             X           Y           Z
 ---------------------------------------------------------------------
      1          1           0       -0.016717    1.622539    1.002595
      2          1           0       -0.016732    1.622595   -1.002504
      3          5           0       -0.081505    0.962336    0.000027
      4          6           0        1.245226    0.132393   -0.000006
      5          8           0        2.203667   -0.457755   -0.000030
      6         17           0       -1.450572   -0.305243    0.000003
 ---------------------------------------------------------------------

 SCF Done:  E(RHF) =  -598.189207413     A.U. after    2 cycles

 The electronic state is 1-A.
 Alpha  occ. eigenvalues -- -103.63344 -20.75681 -11.47406 -10.66688  -8.32382
 Alpha  occ. eigenvalues --   -8.32168  -8.32149  -7.64583  -1.56255  -1.11837
 Alpha  occ. eigenvalues --   -0.91603  -0.82691  -0.73427  -0.73125  -0.59899
 Alpha  occ. eigenvalues --   -0.53395  -0.51938  -0.44775  -0.42943
 Alpha virt. eigenvalues --    0.03657   0.04371   0.04864   0.05557   0.06480
 Alpha virt. eigenvalues --    0.06804   0.09508   0.10592   0.11808   0.12148
 Alpha virt. eigenvalues --    0.12491   0.15471   0.17730   0.18881   0.19163

 Mulliken charges:
               1
     1  H    0.091181
     2  H    0.091183
     3  B    0.189153
     4  C    0.234611
     5  O   -0.103307
     6  Cl  -0.502819
 Sum of Mulliken charges =  -0.00000

 Dipole moment (field-independent basis, Debye):
    X=              3.1416    Y=              0.4927    Z=             -0.0000  Tot=              3.1800

 Test job not archived.
 1\1\GINC-SE044\SP\RHF\Aug-CC-pVDZ\C1H2B1Cl1O1\OHZDE\09-Apr-2025\0\\#t
 hf aug-cc-pvdz iop(5/13=1,5/36=2,99/5=2) pseudo=read geom=check guess=
 (read,tcheck) scf=(maxcycle=1)\\title\\0,1\H,0,-0.016717,1.622539,1.00
 2595\H,0,-0.016732,1.622595,-1.002504\B,0,-0.081505,0.962336,0.000027\
 C,0,1.245226,0.132393,-0.000006\O,0,2.203667,-0.457755,-0.00003\Cl,0,-
 1.450572,-0.305243,0.000003\\Version=ES64L-G16RevC.01\State=1-A\HF=-59
 8.1892074\RMSD=3.760e-03\Dipole=1.235993,0.1938388,-0.0000046\Quadrupo
 le=-0.6071985,-0.0129729,0.6201714,0.5953006,0.000026,-0.0000239\PG=C0

 Normal termination of Gaussian 16 at Wed Apr  9 00:34:48 2025.
