 Gaussian 16, Revision C.01,

 ----------------------------------------------------------------------
 #t hf aug-cc-pvdz symm=none int=(grid=ultrafine) guess=(read,tcheck) s
 table=(opt,rrhf)
 ----------------------------------------------------------------------
 -----
 title
 -----
 Symbolic Z-matrix:
 Charge =  0 Multiplicity = 1

 SCF Done:  E(RHF) =  -628.885785182     A.U. after   16 cycles
 Normal termination of Gaussian 16 at Tue Apr  8 23:14:49 2025.
 Gaussian 16:  ES64L-G16RevC.01  3-Jul-2019

 ----------------------------------------------------------------------
 #t hf aug-cc-pvdz iop(5/13=1,5/36=2,99/5=2) pseudo=read geom=check gue
 ss=(read,tcheck) scf=(maxcycle=1)
 ----------------------------------------------------------------------
 -----
 title
 -----
 Structure from the checkpoint file:  "BDE49_nonexpt_1020_mol1.chk"
 Charge =  0 Multiplicity = 1

                         Standard orientation:
 ---------------------------------------------------------------------
 Center     Atomic      Atomic             Coordinates (Angstroms)
 Number     Number       Type             X           Y           Z
 ---------------------------------------------------------------------
      1         17           0        1.586366   -0.259019    0.047445
      2          7           0       -1.145502    0.525785    0.282758
      3          8           0       -0.122497    0.898647   -0.352235
      4          6           0       -1.813927   -0.705420   -0.105633
      5          1           0       -1.174499    0.788456    1.270089
      6          1           0       -1.154017   -1.552667    0.118724
      7          1           0       -2.011800   -0.676567   -1.176439
      8          1           0       -2.745854   -0.793046    0.453438
 ---------------------------------------------------------------------

 SCF Done:  E(RHF) =  -628.954108169     A.U. after    2 cycles

 The electronic state is 1-A.
 Alpha  occ. eigenvalues -- -103.62050 -20.74073 -15.77340 -11.30998 -10.64976
 Alpha  occ. eigenvalues --   -8.30631  -8.30386  -8.30373  -1.48904  -1.13657
 Alpha  occ. eigenvalues --   -1.05536  -0.94440  -0.79422  -0.72875  -0.69210
 Alpha  occ. eigenvalues --   -0.60699  -0.58057  -0.56357  -0.42744  -0.42299
 Alpha  occ. eigenvalues --   -0.37265
 Alpha virt. eigenvalues --   -0.00327   0.02276   0.03885   0.05534   0.05963
 Alpha virt. eigenvalues --    0.10323   0.12489   0.13202   0.14538   0.15126
 Alpha virt. eigenvalues --    0.16053   0.17010   0.18403   0.18699   0.19941

 Mulliken charges:
               1
     1  Cl  -0.320789
     2  N    0.014362
     3  O   -0.331669
     4  C    0.840843
     5  H    0.066824
     6  H   -0.043368
     7  H   -0.125736
     8  H   -0.100468
 Sum of Mulliken charges =  -0.00000

 Dipole moment (field-independent basis, Debye):
    X=             -5.7692    Y=             -0.2502    Z=              1.4325  Tot=              5.9496

 Test job not archived.
 1\1\GINC-SE184\SP\RHF\Aug-CC-pVDZ\C1H4Cl1N1O1\OHZDE\08-Apr-2025\0\\#t
 hf aug-cc-pvdz iop(5/13=1,5/36=2,99/5=2) pseudo=read geom=check guess=
 (read,tcheck) scf=(maxcycle=1)\\title\\0,1\Cl,0,1.586366,-0.259019,0.0
 47445\N,0,-1.145502,0.525785,0.282758\O,0,-0.122497,0.898647,-0.352235
 \C,0,-1.813927,-0.70542,-0.105633\H,0,-1.174499,0.788456,1.270089\H,0,
 -1.154017,-1.552667,0.118724\H,0,-2.0118,-0.676567,-1.176439\H,0,-2.74
 5854,-0.793046,0.453438\\Version=ES64L-G16RevC.01\State=1-A\HF=-628.95
 41082\RMSD=2.508e-03\Dipole=-2.2697645,-0.0984338,0.5635752\Quadrupole

 Normal termination of Gaussian 16 at Tue Apr  8 23:14:51 2025.
