 Gaussian 16, Revision C.01,

 ----------------------------------------------------------------------
 #t hf aug-cc-pvdz symm=none int=(grid=ultrafine) guess=(read,tcheck) s
 table=(opt,rrhf)
 ----------------------------------------------------------------------
 -----
 title
 -----
 Symbolic Z-matrix:
 Charge =  0 Multiplicity = 1

 SCF Done:  E(RHF) =  -726.651996114     A.U. after   12 cycles
 Normal termination of Gaussian 16 at Tue Apr  8 23:40:13 2025.
 Gaussian 16:  ES64L-G16RevC.01  3-Jul-2019

 ----------------------------------------------------------------------
 #t hf aug-cc-pvdz iop(5/13=1,5/36=2,99/5=2) pseudo=read geom=check gue
 ss=(read,tcheck) scf=(maxcycle=1)
 ----------------------------------------------------------------------
 -----
 title
 -----
 Structure from the checkpoint file:  "BDE49_nonexpt_1664_mol1.chk"
 Charge =  0 Multiplicity = 1

                         Standard orientation:
 ---------------------------------------------------------------------
 Center     Atomic      Atomic             Coordinates (Angstroms)
 Number     Number       Type             X           Y           Z
 ---------------------------------------------------------------------
      1         14           0        0.054239    0.958722    0.163669
      2          6           0       -1.603974    0.248820   -0.414228
      3         15           0        1.722454   -0.565354   -0.183412
      4          7           0       -1.905826   -1.000242    0.307937
      5          1           0       -1.624117    0.167000   -1.512899
      6          1           0       -2.363086    0.992443   -0.147276
      7          1           0       -1.320215   -1.755918   -0.033160
      8          1           0       -2.865913   -1.286270    0.142653
      9          1           0        1.460611   -1.306334    0.999066
     10          1           0        2.719699    0.237687    0.428897
     11          1           0       -0.039079    1.378968    1.581107
     12          1           0        0.400561    2.139396   -0.668756
 ---------------------------------------------------------------------

 SCF Done:  E(RHF) =  -726.722888811     A.U. after    2 cycles

 The electronic state is 1-A.
 Alpha  occ. eigenvalues --  -81.24538 -69.06823 -15.61871 -11.25680  -7.75093
 Alpha  occ. eigenvalues --   -6.82058  -4.89039  -4.88953  -4.88732  -3.92818
 Alpha  occ. eigenvalues --   -3.92801  -3.92770  -1.14599  -0.89572  -0.79717
 Alpha  occ. eigenvalues --   -0.67718  -0.64789  -0.61662  -0.55247  -0.51889
 Alpha  occ. eigenvalues --   -0.48378  -0.46178  -0.42737  -0.38548  -0.35076
 Alpha virt. eigenvalues --    0.03295   0.04471   0.04557   0.05295   0.06714
 Alpha virt. eigenvalues --    0.07207   0.07996   0.08194   0.09549   0.10089
 Alpha virt. eigenvalues --    0.10690   0.11914   0.12767   0.13135   0.14372

 Mulliken charges:
               1
     1  Si   0.564907
     2  C    0.432076
     3  P   -0.573935
     4  N   -0.351804
     5  H   -0.179736
     6  H   -0.262821
     7  H    0.019495
     8  H   -0.010472
     9  H    0.199409
    10  H    0.148638
    11  H    0.025730
    12  H   -0.011485
 Sum of Mulliken charges =  -0.00000

 Dipole moment (field-independent basis, Debye):
    X=             -1.1475    Y=             -0.1158    Z=             -0.7160  Tot=              1.3575

 Test job not archived.
 1\1\GINC-SE073\SP\RHF\Aug-CC-pVDZ\C1H8N1P1Si1\OHZDE\08-Apr-2025\0\\#t
 hf aug-cc-pvdz iop(5/13=1,5/36=2,99/5=2) pseudo=read geom=check guess=
 (read,tcheck) scf=(maxcycle=1)\\title\\0,1\Si,0,0.054239,0.958722,0.16
 3669\C,0,-1.603974,0.24882,-0.414228\P,0,1.722454,-0.565354,-0.183412\
 N,0,-1.905826,-1.000242,0.307937\H,0,-1.624117,0.167,-1.512899\H,0,-2.
 363086,0.992443,-0.147276\H,0,-1.320215,-1.755918,-0.03316\H,0,-2.8659
 13,-1.28627,0.142653\H,0,1.460611,-1.306334,0.999066\H,0,2.719699,0.23
 7687,0.428897\H,0,-0.039079,1.378968,1.581107\H,0,0.400561,2.139396,-0

 Normal termination of Gaussian 16 at Tue Apr  8 23:40:17 2025.
