 Gaussian 16, Revision C.01,

 ----------------------------------------------------------------------
 #t hf aug-cc-pvdz symm=none int=(grid=ultrafine) guess=(read,tcheck) s
 table=(opt,rrhf)
 ----------------------------------------------------------------------
 -----
 title
 -----
 Symbolic Z-matrix:
 Charge =  0 Multiplicity = 1

 SCF Done:  E(RHF) =  -854.927853401     A.U. after   16 cycles
 Normal termination of Gaussian 16 at Tue Apr  8 23:14:36 2025.
 Gaussian 16:  ES64L-G16RevC.01  3-Jul-2019

 ----------------------------------------------------------------------
 #t hf aug-cc-pvdz iop(5/13=1,5/36=2,99/5=2) pseudo=read geom=check gue
 ss=(read,tcheck) scf=(maxcycle=1)
 ----------------------------------------------------------------------
 -----
 title
 -----
 Structure from the checkpoint file:  "BDE49_expt_858_mol1.chk"
 Charge =  0 Multiplicity = 1

                         Standard orientation:
 ---------------------------------------------------------------------
 Center     Atomic      Atomic             Coordinates (Angstroms)
 Number     Number       Type             X           Y           Z
 ---------------------------------------------------------------------
      1          6           0       -1.520036   -2.291916    0.000002
      2          6           0       -0.247322   -1.750104    0.000000
      3          6           0       -0.031108   -0.358384   -0.000001
      4          6           0       -2.623424   -1.436424    0.000002
      5          6           0       -2.439122   -0.064587    0.000001
      6          6           0       -1.154867    0.504824   -0.000001
      7          6           0        1.369725    0.140236   -0.000003
      8          1           0       -3.629843   -1.839856    0.000004
      9          1           0       -3.300083    0.594349    0.000001
     10         16           0       -1.139675    2.278137   -0.000003
     11          1           0        0.201630    2.409875   -0.000008
     12          1           0        0.616619   -2.399130    0.000000
     13          1           0       -1.654526   -3.366701    0.000003
     14          8           0        1.722328    1.305201   -0.000002
     15          8           0        2.273621   -0.860768    0.000002
     16          6           0        3.654284   -0.458057    0.000005
     17          1           0        3.880246    0.133371    0.888321
     18          1           0        3.880251    0.133364   -0.888315
     19          1           0        4.224127   -1.384454    0.000010
 ---------------------------------------------------------------------

 SCF Done:  E(RHF) =  -855.086832686     A.U. after    2 cycles

 The electronic state is 1-A.
 Alpha  occ. eigenvalues --  -93.53720 -20.62559 -20.57079 -11.41094 -11.30687
 Alpha  occ. eigenvalues --  -11.30482 -11.27264 -11.26919 -11.26753 -11.25577
 Alpha  occ. eigenvalues --  -11.25267  -8.83591  -6.17815  -6.17610  -6.17206
 Alpha  occ. eigenvalues --   -1.43115  -1.33257  -1.16883  -1.05868  -1.05270
 Alpha  occ. eigenvalues --   -0.98379  -0.94303  -0.87288  -0.82562  -0.79867
 Alpha  occ. eigenvalues --   -0.74611  -0.70371  -0.69282  -0.68273  -0.65712
 Alpha  occ. eigenvalues --   -0.63947  -0.59845  -0.58594  -0.57825  -0.55054
 Alpha  occ. eigenvalues --   -0.54615  -0.52584  -0.52502  -0.49170  -0.48431
 Alpha  occ. eigenvalues --   -0.44974  -0.41656  -0.36411  -0.31267
 Alpha virt. eigenvalues --    0.03056   0.03586   0.04412   0.05575   0.05634
 Alpha virt. eigenvalues --    0.06033   0.06282   0.07174   0.07444   0.09306
 Alpha virt. eigenvalues --    0.10652   0.11014   0.11117   0.11290   0.12476

 Mulliken charges:
               1
     1  C    0.177925
     2  C    0.448917
     3  C    1.573518
     4  C    0.315357
     5  C    0.456641
     6  C   -0.237930
     7  C   -0.321053
     8  H   -0.436252
     9  H   -0.493234
    10  S    0.235802
    11  H    0.117612
    12  H   -0.700838
    13  H   -0.452335
    14  O   -0.489050
    15  O   -0.567269
    16  C    0.733358
    17  H   -0.043293
    18  H   -0.043292
    19  H   -0.274586
 Sum of Mulliken charges =  -0.00000

 Dipole moment (field-independent basis, Debye):
    X=              0.5694    Y=             -2.9788    Z=              0.0000  Tot=              3.0327

 Test job not archived.
 1\1\GINC-SE252\SP\RHF\Aug-CC-pVDZ\C8H8O2S1\OHZDE\08-Apr-2025\0\\#t hf
 aug-cc-pvdz iop(5/13=1,5/36=2,99/5=2) pseudo=read geom=check guess=(re
 ad,tcheck) scf=(maxcycle=1)\\title\\0,1\C,0,-1.520036,-2.291916,0.0000
 02\C,0,-0.247322,-1.750104,0.\C,0,-0.031108,-0.358384,-0.000001\C,0,-2
 .623424,-1.436424,0.000002\C,0,-2.439122,-0.064587,0.000001\C,0,-1.154
 867,0.504824,-0.000001\C,0,1.369725,0.140236,-0.000003\H,0,-3.629843,-
 1.839856,0.000004\H,0,-3.300083,0.594349,0.000001\S,0,-1.139675,2.2781
 37,-0.000003\H,0,0.20163,2.409875,-0.000008\H,0,0.616619,-2.39913,0.\H

 Normal termination of Gaussian 16 at Tue Apr  8 23:14:47 2025.
