 Gaussian 16, Revision C.01,

 ----------------------------------------------------------------------
 #t hf aug-cc-pvdz symm=none int=(grid=ultrafine) guess=(read,tcheck) s
 table=(opt,rrhf)
 ----------------------------------------------------------------------
 -----
 title
 -----
 Symbolic Z-matrix:
 Charge =  0 Multiplicity = 1

 SCF Done:  E(RHF) =  -923.703687524     A.U. after   11 cycles

 1\1\GINC-SE393\Stability\RHF\Aug-CC-pVDZ\C1F6Si1\OHZDE\08-Apr-2025\0\\
 #t hf aug-cc-pvdz symm=none int=(grid=ultrafine) guess=(read,tcheck) s
 table=(opt,rrhf)\\title\\0,1\C,0,-1.068338,0.000019,0.000001\Si,0,0.83
 5616,0.000008,0.000006\F,0,1.359814,-0.010547,-1.484214\F,0,-1.555702,
 1.086171,-0.636812\F,0,1.359745,-1.280133,0.751226\F,0,-1.555688,0.008
 409,1.259049\F,0,1.35986,1.290636,0.732991\F,0,-1.555652,-1.09456,-0.6
 22251\\Version=ES64L-G16RevC.01\HF=-923.7036875\RMSD=6.334e-09\Dipole=
 0.2211289,0.0000484,0.0000206\Quadrupole=-0.1099407,0.0549334,0.055007

 Normal termination of Gaussian 16 at Tue Apr  8 23:48:23 2025.
 Gaussian 16:  ES64L-G16RevC.01  3-Jul-2019

 ----------------------------------------------------------------------
 #t hf aug-cc-pvdz iop(5/13=1,5/36=2,99/5=2) pseudo=read geom=check gue
 ss=(read,tcheck) scf=(maxcycle=1)
 ----------------------------------------------------------------------
 -----
 title
 -----
 Structure from the checkpoint file:  "BDE49_nonexpt_1836_mol1.chk"
 Charge =  0 Multiplicity = 1

                         Standard orientation:
 ---------------------------------------------------------------------
 Center     Atomic      Atomic             Coordinates (Angstroms)
 Number     Number       Type             X           Y           Z
 ---------------------------------------------------------------------
      1          6           0        1.068338    0.000019   -0.000001
      2         14           0       -0.835616    0.000008   -0.000006
      3          9           0       -1.359814   -0.038979    1.483740
      4          9           0        1.555702    1.073772    0.657503
      5          9           0       -1.359745   -1.265507   -0.775612
      6          9           0        1.555688    0.032527   -1.258657
      7          9           0       -1.359860    1.304441   -0.708131
      8          9           0        1.555652   -1.106280    0.601168
 ---------------------------------------------------------------------

 SCF Done:  E(RHF) =  -923.988706193     A.U. after    2 cycles

 The electronic state is 1-A.
 Alpha  occ. eigenvalues --  -69.26025 -26.19188 -26.19188 -26.19174 -26.17518
 Alpha  occ. eigenvalues --  -26.17517 -26.17517 -11.54279  -6.99695  -4.10748
 Alpha  occ. eigenvalues --   -4.10748  -4.10550  -1.78386  -1.71891  -1.71497
 Alpha  occ. eigenvalues --   -1.71497  -1.70137  -1.70137  -1.05458  -0.92520
 Alpha  occ. eigenvalues --   -0.90098  -0.90098  -0.88129  -0.84128  -0.84128
 Alpha  occ. eigenvalues --   -0.80064  -0.79583  -0.79583  -0.78910  -0.78910
 Alpha  occ. eigenvalues --   -0.76791  -0.76791  -0.75269  -0.75221  -0.75221
 Alpha  occ. eigenvalues --   -0.74152  -0.59323
 Alpha virt. eigenvalues --    0.05077   0.05705   0.05705   0.05821   0.10301
 Alpha virt. eigenvalues --    0.11185   0.11185   0.17182   0.17182   0.18749
 Alpha virt. eigenvalues --    0.18749   0.19180   0.21875   0.23362   0.24390

 Mulliken charges:
               1
     1  C    0.773961
     2  Si   2.529738
     3  F   -0.773783
     4  F   -0.327449
     5  F   -0.773774
     6  F   -0.327454
     7  F   -0.773784
     8  F   -0.327454
 Sum of Mulliken charges =  -0.00000

 Dipole moment (field-independent basis, Debye):
    X=             -0.6560    Y=              0.0001    Z=             -0.0001  Tot=              0.6560

 Test job not archived.
 1\1\GINC-SE393\SP\RHF\Aug-CC-pVDZ\C1F6Si1\OHZDE\08-Apr-2025\0\\#t hf a
 ug-cc-pvdz iop(5/13=1,5/36=2,99/5=2) pseudo=read geom=check guess=(rea
 d,tcheck) scf=(maxcycle=1)\\title\\0,1\C,0,-1.068338,0.000019,0.000001
 \Si,0,0.835616,0.000008,0.000006\F,0,1.359814,-0.010547,-1.484214\F,0,
 -1.555702,1.086171,-0.636812\F,0,1.359745,-1.280133,0.751226\F,0,-1.55
 5688,0.008409,1.259049\F,0,1.35986,1.290636,0.732991\F,0,-1.555652,-1.
 09456,-0.622251\\Version=ES64L-G16RevC.01\State=1-A\HF=-923.9887062\RM
 SD=5.559e-03\Dipole=0.2581045,0.0000549,0.0000228\Quadrupole=-0.179769

 Normal termination of Gaussian 16 at Tue Apr  8 23:48:27 2025.
