 Gaussian 16, Revision C.01,

 ----------------------------------------------------------------------
 #t hf aug-cc-pvdz symm=none int=(grid=ultrafine) guess=(read,tcheck) s
 table=opt
 ----------------------------------------------------------------------
 -----
 title
 -----
 Symbolic Z-matrix:
 Charge =  0 Multiplicity = 2

 SCF Done:  E(UHF) =  -464.125712013     A.U. after   24 cycles
 Normal termination of Gaussian 16 at Wed Apr  9 00:32:57 2025.
 Gaussian 16:  ES64L-G16RevC.01  3-Jul-2019

 ----------------------------------------------------------------------
 #t hf aug-cc-pvdz iop(5/13=1,5/36=2,99/5=2) pseudo=read geom=check gue
 ss=(read,tcheck) scf=(maxcycle=1)
 ----------------------------------------------------------------------
 -----
 title
 -----
 Structure from the checkpoint file:  "BDE49_nonexpt_413_mol2.chk"
 Charge =  0 Multiplicity = 2

                         Standard orientation:
 ---------------------------------------------------------------------
 Center     Atomic      Atomic             Coordinates (Angstroms)
 Number     Number       Type             X           Y           Z
 ---------------------------------------------------------------------
      1          9           0       -3.107805   -0.792355    0.021305
      2          5           0       -2.135103   -0.166914   -0.573494
      3          6           0       -0.820425    0.405949    0.076297
      4          8           0       -0.759457    1.493367    0.576678
      5          8           0        0.245548   -0.470927   -0.063440
      6          6           0        1.582412   -0.022072   -0.130527
      7          8           0        1.880841    1.064883   -0.505804
      8          6           0        2.499373   -1.134204    0.289971
      9          1           0        2.273813   -2.041065   -0.274445
     10          1           0        2.336280   -1.357394    1.347419
     11          1           0        3.532056   -0.832398    0.128834
 ---------------------------------------------------------------------

 SCF Done:  E(UHF) =  -464.284870585     A.U. after    2 cycles

 The electronic state is 2-A.
 Alpha  occ. eigenvalues --  -26.18254 -20.65280 -20.60456 -20.59420 -11.42727
 Alpha  occ. eigenvalues --  -11.41497 -11.27404  -7.74969  -1.72756  -1.46121
 Alpha  occ. eigenvalues --   -1.40006  -1.35313  -1.05128  -0.94376  -0.88911
 Alpha  occ. eigenvalues --   -0.82116  -0.78367  -0.77514  -0.75564  -0.72610
 Alpha  occ. eigenvalues --   -0.70992  -0.66219  -0.63750  -0.60706  -0.59544
 Alpha  occ. eigenvalues --   -0.56394  -0.52413  -0.52292  -0.48530  -0.39201
 Alpha virt. eigenvalues --    0.02774   0.04133   0.04752   0.04872   0.05902
 Alpha virt. eigenvalues --    0.06137   0.06798   0.08408   0.09806   0.11294
 Alpha virt. eigenvalues --    0.12218   0.12649   0.13484   0.14584   0.15068

  Beta  occ. eigenvalues --  -26.17924 -20.65327 -20.59875 -20.59427 -11.42709
  Beta  occ. eigenvalues --  -11.41423 -11.27402  -7.73010  -1.71826  -1.45989
  Beta  occ. eigenvalues --   -1.39412  -1.34875  -1.05029  -0.93341  -0.87977
  Beta  occ. eigenvalues --   -0.79537  -0.78277  -0.76470  -0.74733  -0.72439
  Beta  occ. eigenvalues --   -0.70825  -0.65576  -0.63111  -0.60443  -0.58999
  Beta  occ. eigenvalues --   -0.55223  -0.51921  -0.50877  -0.47096
  Beta virt. eigenvalues --    0.02433   0.03358   0.04682   0.04924   0.05815
  Beta virt. eigenvalues --    0.06129   0.06744   0.07563   0.10017   0.10989
  Beta virt. eigenvalues --    0.12150   0.12652   0.13073   0.14179   0.14921

 Mulliken charges and spin densities:
               1          2
     1  F   -0.257831  -0.051167
     2  B    0.277070   0.977839
     3  C    0.575741  -0.043876
     4  O   -0.371364   0.131615
     5  O   -0.559634  -0.019253
     6  C    0.371720   0.003404
     7  O   -0.371198   0.000583
     8  C    0.262625   0.000685
     9  H    0.033387   0.000409
    10  H    0.041196  -0.000103
    11  H   -0.001713  -0.000135
 Sum of Mulliken charges =  -0.00000   1.00000

 Dipole moment (field-independent basis, Debye):
    X=              0.8207    Y=             -4.1008    Z=             -0.0843  Tot=              4.1830
                          Isotropic Fermi Contact Couplings
        Atom                 a.u.       MegaHertz       Gauss      10(-4) cm-1
     1  F(19)              0.06551     275.60815      98.34384      91.93298
     2  B(11)              0.35536     509.71494     181.87897     170.02260
     3  C(13)              0.06427      72.25684      25.78304      24.10229
     4  O(17)              0.04708     -28.53786     -10.18302      -9.51921
     5  O(17)             -0.00138       0.83709       0.29869       0.27922
     6  C(13)              0.00225       2.52998       0.90276       0.84391
     7  O(17)             -0.00042       0.25408       0.09066       0.08475
     8  C(13)              0.00020       0.22914       0.08176       0.07643

 Normal termination of Gaussian 16 at Wed Apr  9 00:33:02 2025.
