 Gaussian 16, Revision C.01,

 ----------------------------------------------------------------------
 #t hf aug-cc-pvdz symm=none int=(grid=ultrafine) guess=(read,tcheck) s
 table=(opt,rrhf)
 ----------------------------------------------------------------------
 -----
 title
 -----
 Symbolic Z-matrix:
 Charge =  0 Multiplicity = 1

 SCF Done:  E(RHF) =  -266.889066527     A.U. after   13 cycles
 Normal termination of Gaussian 16 at Tue Apr  8 22:41:30 2025.
 Gaussian 16:  ES64L-G16RevC.01  3-Jul-2019

 ----------------------------------------------------------------------
 #t hf aug-cc-pvdz iop(5/13=1,5/36=2,99/5=2) pseudo=read geom=check gue
 ss=(read,tcheck) scf=(maxcycle=1)
 ----------------------------------------------------------------------
 -----
 title
 -----
 Structure from the checkpoint file:  "BDE49_expt_1442_mol1.chk"
 Charge =  0 Multiplicity = 1

                         Standard orientation:
 ---------------------------------------------------------------------
 Center     Atomic      Atomic             Coordinates (Angstroms)
 Number     Number       Type             X           Y           Z
 ---------------------------------------------------------------------
      1          6           0        0.563747    0.106740    0.000051
      2          8           0        1.677984   -0.667165   -0.000023
      3          8           0        0.612663    1.309897   -0.000008
      4          1           0        2.433060   -0.060290   -0.000060
      5          6           0       -0.691200   -0.736042    0.000016
      6          6           0       -1.971010    0.094606   -0.000013
      7          1           0       -0.639808   -1.397423    0.871325
      8          1           0       -0.639770   -1.397424   -0.871291
      9          1           0       -2.019901    0.738897    0.879676
     10          1           0       -2.848121   -0.556344   -0.000033
     11          1           0       -2.019861    0.738898   -0.879703
 ---------------------------------------------------------------------

 SCF Done:  E(RHF) =  -266.975807506     A.U. after    2 cycles

 The electronic state is 1-A.
 Alpha  occ. eigenvalues --  -20.62586 -20.56701 -11.40035 -11.26055 -11.23551
 Alpha  occ. eigenvalues --   -1.42644  -1.32876  -1.05945  -0.91716  -0.80461
 Alpha  occ. eigenvalues --   -0.71990  -0.70136  -0.67029  -0.61180  -0.60238
 Alpha  occ. eigenvalues --   -0.54141  -0.53183  -0.50982  -0.50263  -0.46964
 Alpha virt. eigenvalues --    0.03330   0.04258   0.05131   0.05386   0.06739
 Alpha virt. eigenvalues --    0.07917   0.10990   0.11599   0.12136   0.13378
 Alpha virt. eigenvalues --    0.14534   0.15729   0.16463   0.16721   0.17051

 Mulliken charges:
               1
     1  C    0.426503
     2  O   -0.488893
     3  O   -0.458248
     4  H    0.179109
     5  C    0.000768
     6  C    0.449474
     7  H    0.026263
     8  H    0.026255
     9  H   -0.053349
    10  H   -0.054538
    11  H   -0.053344
 Sum of Mulliken charges =  -0.00000

 Dipole moment (field-independent basis, Debye):
    X=             -0.3159    Y=             -1.9006    Z=              0.0001  Tot=              1.9267

 Test job not archived.
 1\1\GINC-SE252\SP\RHF\Aug-CC-pVDZ\C3H6O2\OHZDE\08-Apr-2025\0\\#t hf au
 g-cc-pvdz iop(5/13=1,5/36=2,99/5=2) pseudo=read geom=check guess=(read
 ,tcheck) scf=(maxcycle=1)\\title\\0,1\C,0,0.563747,0.10674,0.000051\O,
 0,1.677984,-0.667165,-0.000023\O,0,0.612663,1.309897,-0.000008\H,0,2.4
 3306,-0.06029,-0.00006\C,0,-0.6912,-0.736042,0.000016\C,0,-1.97101,0.0
 94606,-0.000013\H,0,-0.639808,-1.397423,0.871325\H,0,-0.63977,-1.39742
 4,-0.871291\H,0,-2.019901,0.738897,0.879676\H,0,-2.848121,-0.556344,-0
 .000033\H,0,-2.019861,0.738898,-0.879703\\Version=ES64L-G16RevC.01\Sta

 Normal termination of Gaussian 16 at Tue Apr  8 22:41:34 2025.
