 Gaussian 16, Revision C.01,

 ----------------------------------------------------------------------
 #t hf aug-cc-pvdz symm=none int=(grid=ultrafine) guess=(read,tcheck) s
 table=opt
 ----------------------------------------------------------------------
 -----
 title
 -----
 Symbolic Z-matrix:
 Charge =  0 Multiplicity = 2

 SCF Done:  E(UHF) =  -1309.07134696     A.U. after   18 cycles
 Normal termination of Gaussian 16 at Tue Apr  8 23:03:06 2025.
 Gaussian 16:  ES64L-G16RevC.01  3-Jul-2019

 ----------------------------------------------------------------------
 #t hf aug-cc-pvdz iop(5/13=1,5/36=2,99/5=2) pseudo=read geom=check gue
 ss=(read,tcheck) scf=(maxcycle=1)
 ----------------------------------------------------------------------
 -----
 title
 -----
 Structure from the checkpoint file:  "BDE49_expt_381_mol2.chk"
 Charge =  0 Multiplicity = 2

                         Standard orientation:
 ---------------------------------------------------------------------
 Center     Atomic      Atomic             Coordinates (Angstroms)
 Number     Number       Type             X           Y           Z
 ---------------------------------------------------------------------
      1          6           0        0.144708    0.895346    1.373181
      2         16           0       -0.849568    1.560001    0.000000
      3          6           0        0.144708    0.895346   -1.373181
      4         16           0        0.144708   -0.925357   -1.556202
      5          1           0        1.173448    1.248669   -1.288230
      6          1           0       -0.291270    1.285197   -2.292667
      7         16           0        0.144708   -0.925357    1.556202
      8          1           0       -0.291270    1.285197    2.292667
      9          1           0        1.173448    1.248669    1.288230
     10          6           0        0.726245   -1.449342   -0.000000
     11          1           0        1.104093   -2.464420   -0.000000
 ---------------------------------------------------------------------

 SCF Done:  E(UHF) =  -1309.16963425     A.U. after    2 cycles

 The electronic state is 2-A'.
 Alpha  occ. eigenvalues --  -93.55617 -93.55615 -93.55134 -11.31463 -11.31447
 Alpha  occ. eigenvalues --  -11.30444  -8.85364  -8.85351  -8.84860  -6.19480
 Alpha  occ. eigenvalues --   -6.19464  -6.19269  -6.19238  -6.19056  -6.19019
 Alpha  occ. eigenvalues --   -6.18965  -6.18780  -6.18422  -1.12770  -1.03995
 Alpha  occ. eigenvalues --   -1.03667  -0.87629  -0.85865  -0.75524  -0.66377
 Alpha  occ. eigenvalues --   -0.62418  -0.57762  -0.57163  -0.55088  -0.53694
 Alpha  occ. eigenvalues --   -0.52248  -0.45081  -0.43412  -0.36272  -0.35096
 Alpha  occ. eigenvalues --   -0.30446
 Alpha virt. eigenvalues --    0.03688   0.04378   0.04662   0.05234   0.07252
 Alpha virt. eigenvalues --    0.08042   0.08190   0.10140   0.12035   0.12615
 Alpha virt. eigenvalues --    0.12689   0.13685   0.13798   0.15449   0.15499

  Beta  occ. eigenvalues --  -93.55586 -93.55583 -93.55138 -11.31398 -11.31382
  Beta  occ. eigenvalues --  -11.27996  -8.85331  -8.85318  -8.84863  -6.19544
  Beta  occ. eigenvalues --   -6.19508  -6.19316  -6.19281  -6.18985  -6.18793
  Beta  occ. eigenvalues --   -6.18755  -6.18741  -6.18428  -1.11358  -1.03229
  Beta  occ. eigenvalues --   -1.01225  -0.87332  -0.84012  -0.73208  -0.65906
  Beta  occ. eigenvalues --   -0.62107  -0.56790  -0.55521  -0.53946  -0.53575
  Beta  occ. eigenvalues --   -0.46792  -0.43607  -0.39781  -0.34827  -0.34729
  Beta virt. eigenvalues --    0.03357   0.04394   0.04686   0.05263   0.07195
  Beta virt. eigenvalues --    0.07264   0.08230   0.08237   0.10292   0.12181
  Beta virt. eigenvalues --    0.12835   0.13307   0.13750   0.14153   0.15493

 Mulliken charges and spin densities:
               1          2
     1  C   -0.382809   0.000400
     2  S    0.475797  -0.009278
     3  C   -0.382809   0.000400
     4  S    0.487269  -0.015631
     5  H   -0.006641   0.005532
     6  H   -0.047135  -0.003520
     7  S    0.487269  -0.015631
     8  H   -0.047135  -0.003520
     9  H   -0.006641   0.005532
    10  C   -0.293366   1.138616
    11  H   -0.283797  -0.102900
 Sum of Mulliken charges =  -0.00000   1.00000

 Dipole moment (field-independent basis, Debye):
    X=              1.3589    Y=              1.0830    Z=              0.0000  Tot=              1.7377
                          Isotropic Fermi Contact Couplings
        Atom                 a.u.       MegaHertz       Gauss      10(-4) cm-1
     1  C(13)              0.01375      15.46126       5.51696       5.15732
     2  S(33)              0.00826       2.83582       1.01189       0.94593
     3  C(13)              0.01375      15.46126       5.51696       5.15732
     4  S(33)              0.00501       1.72020       0.61381       0.57380
     5  H(1)               0.00126       5.62377       2.00670       1.87589
     6  H(1)              -0.00107      -4.78233      -1.70646      -1.59522
     7  S(33)              0.00501       1.72020       0.61381       0.57380
     8  H(1)              -0.00107      -4.78233      -1.70646      -1.59522

 Normal termination of Gaussian 16 at Tue Apr  8 23:03:10 2025.
