 Gaussian 16, Revision C.01,

 ----------------------------------------------------------------------
 #t hf aug-cc-pvdz symm=none int=(grid=ultrafine) guess=(read,tcheck) s
 table=(opt,rrhf)
 ----------------------------------------------------------------------
 -----
 title
 -----
 Symbolic Z-matrix:
 Charge =  0 Multiplicity = 1

 SCF Done:  E(RHF) =  -593.880405312     A.U. after   12 cycles

 1\1\GINC-SE088\Stability\RHF\Aug-CC-pVDZ\C5H12S1\OHZDE\08-Apr-2025\0\\
 #t hf aug-cc-pvdz symm=none int=(grid=ultrafine) guess=(read,tcheck) s
 table=(opt,rrhf)\\title\\0,1\C,0,-0.423922,-1.019483,0.548441\C,0,0.87
 5837,-0.24162,0.781681\C,0,1.801063,-0.171099,-0.437222\H,0,1.408643,-
 0.725067,1.6115\H,0,0.643622,0.772768,1.126352\C,0,3.086033,0.616394,-
 0.167128\H,0,1.25881,0.280443,-1.273464\H,0,2.055822,-1.191073,-0.7509
 81\H,0,2.86435,1.651285,0.112144\H,0,3.728336,0.643384,-1.051367\H,0,3
 .663663,0.170827,0.649077\S,0,-1.610043,-0.273355,-0.635669\H,0,-0.954

 Normal termination of Gaussian 16 at Tue Apr  8 22:46:03 2025.
 Gaussian 16:  ES64L-G16RevC.01  3-Jul-2019

 ----------------------------------------------------------------------
 #t hf aug-cc-pvdz iop(5/13=1,5/36=2,99/5=2) pseudo=read geom=check gue
 ss=(read,tcheck) scf=(maxcycle=1)
 ----------------------------------------------------------------------
 -----
 title
 -----
 Structure from the checkpoint file:  "BDE49_expt_1567_mol1.chk"
 Charge =  0 Multiplicity = 1

                         Standard orientation:
 ---------------------------------------------------------------------
 Center     Atomic      Atomic             Coordinates (Angstroms)
 Number     Number       Type             X           Y           Z
 ---------------------------------------------------------------------
      1          6           0       -0.423922   -1.019483    0.548441
      2          6           0        0.875837   -0.241620    0.781681
      3          6           0        1.801063   -0.171099   -0.437222
      4          1           0        1.408643   -0.725067    1.611500
      5          1           0        0.643622    0.772768    1.126352
      6          6           0        3.086033    0.616394   -0.167128
      7          1           0        1.258810    0.280443   -1.273464
      8          1           0        2.055822   -1.191073   -0.750981
      9          1           0        2.864350    1.651285    0.112144
     10          1           0        3.728336    0.643384   -1.051367
     11          1           0        3.663663    0.170827    0.649077
     12         16           0       -1.610043   -0.273355   -0.635669
     13          1           0       -0.954664   -1.183463    1.490350
     14          1           0       -0.205829   -2.005757    0.128540
     15          6           0       -2.254223    1.111305    0.358401
     16          1           0       -1.478775    1.843455    0.587153
     17          1           0       -2.709509    0.748486    1.282151
     18          1           0       -3.022503    1.595417   -0.245794
 ---------------------------------------------------------------------

 SCF Done:  E(RHF) =  -593.965004504     A.U. after    2 cycles

 The electronic state is 1-A.
 Alpha  occ. eigenvalues --  -93.52008 -11.26407 -11.26046 -11.23532 -11.22674
 Alpha  occ. eigenvalues --  -11.22316  -8.81718  -6.15871  -6.15656  -6.15347
 Alpha  occ. eigenvalues --   -1.07982  -1.02596  -0.96918  -0.88553  -0.81719
 Alpha  occ. eigenvalues --   -0.76759  -0.64169  -0.61417  -0.59550  -0.58844
 Alpha  occ. eigenvalues --   -0.57732  -0.54868  -0.53458  -0.48730  -0.48207
 Alpha  occ. eigenvalues --   -0.47437  -0.46530  -0.41671  -0.33198
 Alpha virt. eigenvalues --    0.03482   0.04319   0.04365   0.05001   0.06134
 Alpha virt. eigenvalues --    0.06216   0.06891   0.07201   0.08289   0.08854
 Alpha virt. eigenvalues --    0.09287   0.09421   0.11906   0.12645   0.13250

 Mulliken charges:
               1
     1  C    0.262762
     2  C    0.118189
     3  C    0.039136
     4  H   -0.104891
     5  H   -0.215880
     6  C    0.414862
     7  H   -0.122719
     8  H   -0.136246
     9  H   -0.080235
    10  H   -0.065563
    11  H   -0.070656
    12  S    0.393570
    13  H   -0.106766
    14  H   -0.127679
    15  C    0.095062
    16  H   -0.100436
    17  H   -0.087490
    18  H   -0.105020
 Sum of Mulliken charges =   0.00000

 Dipole moment (field-independent basis, Debye):
    X=              0.5581    Y=              0.4901    Z=              1.5629  Tot=              1.7304

 Test job not archived.
 1\1\GINC-SE088\SP\RHF\Aug-CC-pVDZ\C5H12S1\OHZDE\08-Apr-2025\0\\#t hf a
 ug-cc-pvdz iop(5/13=1,5/36=2,99/5=2) pseudo=read geom=check guess=(rea
 d,tcheck) scf=(maxcycle=1)\\title\\0,1\C,0,-0.423922,-1.019483,0.54844
 1\C,0,0.875837,-0.24162,0.781681\C,0,1.801063,-0.171099,-0.437222\H,0,
 1.408643,-0.725067,1.6115\H,0,0.643622,0.772768,1.126352\C,0,3.086033,
 0.616394,-0.167128\H,0,1.25881,0.280443,-1.273464\H,0,2.055822,-1.1910
 73,-0.750981\H,0,2.86435,1.651285,0.112144\H,0,3.728336,0.643384,-1.05
 1367\H,0,3.663663,0.170827,0.649077\S,0,-1.610043,-0.273355,-0.635669\

 Normal termination of Gaussian 16 at Tue Apr  8 22:46:11 2025.
