 Gaussian 16, Revision C.01,

 ----------------------------------------------------------------------
 #t hf aug-cc-pvdz symm=none int=(grid=ultrafine) guess=(read,tcheck) s
 table=(opt,rrhf)
 ----------------------------------------------------------------------
 -----
 title
 -----
 Symbolic Z-matrix:
 Charge =  0 Multiplicity = 1

 SCF Done:  E(RHF) =  -1195.10262828     A.U. after   13 cycles
 Normal termination of Gaussian 16 at Wed Apr  9 00:30:27 2025.
 Gaussian 16:  ES64L-G16RevC.01  3-Jul-2019

 ----------------------------------------------------------------------
 #t hf aug-cc-pvdz iop(5/13=1,5/36=2,99/5=2) pseudo=read geom=check gue
 ss=(read,tcheck) scf=(maxcycle=1)
 ----------------------------------------------------------------------
 -----
 title
 -----
 Structure from the checkpoint file:  "BDE49_nonexpt_37_mol1.chk"
 Charge =  0 Multiplicity = 1

                         Standard orientation:
 ---------------------------------------------------------------------
 Center     Atomic      Atomic             Coordinates (Angstroms)
 Number     Number       Type             X           Y           Z
 ---------------------------------------------------------------------
      1          5           0       -0.753655    0.010858    0.487295
      2          5           0        0.753655   -0.010858   -0.487295
      3          6           0       -1.338466   -1.378423    0.154791
      4          8           0       -1.712472   -2.402014   -0.135611
      5         17           0       -2.000581    1.291661   -0.062518
      6          6           0        1.338466    1.378423   -0.154792
      7          8           0        1.712470    2.402014    0.135611
      8         17           0        2.000582   -1.291661    0.062518
      9          1           0        0.542675   -0.012367   -1.667119
     10          1           0       -0.542675    0.012366    1.667119
 ---------------------------------------------------------------------

 SCF Done:  E(RHF) =  -1195.22344743     A.U. after    2 cycles

 The electronic state is 1-A.
 Alpha  occ. eigenvalues -- -103.64345-103.64345 -20.74829 -20.74829 -11.46831
 Alpha  occ. eigenvalues --  -11.46831 -10.67663 -10.67663  -8.33357  -8.33356
 Alpha  occ. eigenvalues --   -8.33154  -8.33154  -8.33134  -8.33133  -7.64783
 Alpha  occ. eigenvalues --   -7.64736  -1.55305  -1.55183  -1.13154  -1.12411
 Alpha  occ. eigenvalues --   -0.92577  -0.90715  -0.83189  -0.80965  -0.72849
 Alpha  occ. eigenvalues --   -0.72839  -0.72210  -0.72158  -0.60300  -0.58593
 Alpha  occ. eigenvalues --   -0.55179  -0.51138  -0.50862  -0.46968  -0.45487
 Alpha  occ. eigenvalues --   -0.44782  -0.39116
 Alpha virt. eigenvalues --    0.03018   0.03784   0.04180   0.04764   0.05202
 Alpha virt. eigenvalues --    0.05239   0.06316   0.07231   0.07333   0.07397
 Alpha virt. eigenvalues --    0.09140   0.10567   0.11278   0.12243   0.12467

 Mulliken charges:
               1
     1  B    0.149498
     2  B    0.149498
     3  C    0.259071
     4  O   -0.153573
     5  Cl  -0.586892
     6  C    0.259072
     7  O   -0.153574
     8  Cl  -0.586892
     9  H    0.331896
    10  H    0.331896
 Sum of Mulliken charges =  -0.00000

 Dipole moment (field-independent basis, Debye):
    X=             -0.0000    Y=             -0.0000    Z=             -0.0000  Tot=              0.0000

 Test job not archived.
 1\1\GINC-SE177\SP\RHF\Aug-CC-pVDZ\C2H2B2Cl2O2\OHZDE\09-Apr-2025\0\\#t
 hf aug-cc-pvdz iop(5/13=1,5/36=2,99/5=2) pseudo=read geom=check guess=
 (read,tcheck) scf=(maxcycle=1)\\title\\0,1\B,0,0.753655,0.010857,-0.48
 7295\B,0,-0.753655,-0.010857,0.487295\C,0,1.338464,-1.378425,-0.154791
 \O,0,1.712468,-2.402016,0.135611\Cl,0,2.000583,1.291658,0.062518\C,0,-
 1.338464,1.378425,0.154792\O,0,-1.712467,2.402017,-0.135611\Cl,0,-2.00
 0584,-1.291658,-0.062518\H,0,-0.542675,-0.012366,1.667119\H,0,0.542675
 ,0.012365,-1.667119\\Version=ES64L-G16RevC.01\State=1-A\HF=-1195.22344

 Normal termination of Gaussian 16 at Wed Apr  9 00:30:32 2025.
