 Gaussian 16, Revision C.01,

 ----------------------------------------------------------------------
 #t hf aug-cc-pvdz symm=none int=(grid=ultrafine) guess=(read,tcheck) s
 table=(opt,rrhf)
 ----------------------------------------------------------------------
 -----
 title
 -----
 Symbolic Z-matrix:
 Charge =  0 Multiplicity = 1

 SCF Done:  E(RHF) =  -619.757956849     A.U. after   14 cycles
 Normal termination of Gaussian 16 at Tue Apr  8 23:54:57 2025.
 Gaussian 16:  ES64L-G16RevC.01  3-Jul-2019

 ----------------------------------------------------------------------
 #t hf aug-cc-pvdz iop(5/13=1,5/36=2,99/5=2) pseudo=read geom=check gue
 ss=(read,tcheck) scf=(maxcycle=1)
 ----------------------------------------------------------------------
 -----
 title
 -----
 Structure from the checkpoint file:  "BDE49_nonexpt_1991_mol1.chk"
 Charge =  0 Multiplicity = 1

                         Standard orientation:
 ---------------------------------------------------------------------
 Center     Atomic      Atomic             Coordinates (Angstroms)
 Number     Number       Type             X           Y           Z
 ---------------------------------------------------------------------
      1          6           0        0.092159    0.000001   -0.206025
      2          6           0       -0.622560   -1.205524   -0.109783
      3         14           0        1.934511    0.000002   -0.447551
      4          6           0       -0.622562    1.205524   -0.109781
      5          6           0       -2.001388   -1.207214    0.082805
      6          6           0       -2.691089   -0.000001    0.180122
      7          6           0       -2.001389    1.207213    0.082807
      8          1           0       -0.098028    2.152668   -0.189273
      9          1           0       -3.765285   -0.000002    0.328360
     10          1           0       -2.537758    2.146759    0.154870
     11          1           0       -0.098026   -2.152667   -0.189277
     12          1           0       -2.537756   -2.146761    0.154867
     13          9           0        2.700899   -0.000004    0.977664
     14          1           0        2.363287    1.223137   -1.156842
     15          1           0        2.363288   -1.223127   -1.156851
 ---------------------------------------------------------------------

 SCF Done:  E(RHF) =  -619.892374857     A.U. after    2 cycles

 The electronic state is 1-A.
 Alpha  occ. eigenvalues --  -69.11232 -26.09724 -11.26186 -11.26183 -11.26066
 Alpha  occ. eigenvalues --  -11.25469 -11.25460 -11.24241  -6.85960  -3.96837
 Alpha  occ. eigenvalues --   -3.96686  -3.96681  -1.62258  -1.15143  -1.02143
 Alpha  occ. eigenvalues --   -1.01902  -0.83956  -0.83783  -0.78857  -0.72228
 Alpha  occ. eigenvalues --   -0.71081  -0.70834  -0.65319  -0.63976  -0.62671
 Alpha  occ. eigenvalues --   -0.60314  -0.55663  -0.51613  -0.50821  -0.48672
 Alpha  occ. eigenvalues --   -0.46230  -0.35498  -0.35119
 Alpha virt. eigenvalues --    0.03114   0.03963   0.04081   0.05606   0.05783
 Alpha virt. eigenvalues --    0.05915   0.07160   0.08036   0.08614   0.09128
 Alpha virt. eigenvalues --    0.10110   0.10400   0.12134   0.12844   0.13485

 Mulliken charges:
               1
     1  C   -0.705502
     2  C    0.513914
     3  Si   1.065458
     4  C    0.513912
     5  C    0.750424
     6  C    0.510604
     7  C    0.750425
     8  H   -0.585321
     9  H   -0.431815
    10  H   -0.434074
    11  H   -0.585322
    12  H   -0.434073
    13  F   -0.805863
    14  H   -0.061385
    15  H   -0.061384
 Sum of Mulliken charges =  -0.00000

 Dipole moment (field-independent basis, Debye):
    X=             -2.1354    Y=              0.0000    Z=             -1.2719  Tot=              2.4855

 Test job not archived.
 1\1\GINC-SE253\SP\RHF\Aug-CC-pVDZ\C6H7F1Si1\OHZDE\08-Apr-2025\0\\#t hf
  aug-cc-pvdz iop(5/13=1,5/36=2,99/5=2) pseudo=read geom=check guess=(r
 ead,tcheck) scf=(maxcycle=1)\\title\\0,1\C,0,0.092159,0.000001,-0.2060
 25\C,0,-0.62256,-1.205524,-0.109783\Si,0,1.934511,0.000002,-0.447551\C
 ,0,-0.622562,1.205524,-0.109781\C,0,-2.001388,-1.207214,0.082805\C,0,-
 2.691089,-0.000001,0.180122\C,0,-2.001389,1.207213,0.082807\H,0,-0.098
 028,2.152668,-0.189273\H,0,-3.765285,-0.000002,0.32836\H,0,-2.537758,2
 .146759,0.15487\H,0,-0.098026,-2.152667,-0.189277\H,0,-2.537756,-2.146

 Normal termination of Gaussian 16 at Tue Apr  8 23:55:03 2025.
