 Gaussian 16, Revision C.01,

 ----------------------------------------------------------------------
 #t hf aug-cc-pvdz symm=none int=(grid=ultrafine) guess=(read,tcheck) s
 table=(opt,rrhf)
 ----------------------------------------------------------------------
 -----
 title
 -----
 Symbolic Z-matrix:
 Charge =  0 Multiplicity = 1

 SCF Done:  E(RHF) =  -484.875272486     A.U. after   13 cycles
 Normal termination of Gaussian 16 at Wed Apr  9 00:41:38 2025.
 Gaussian 16:  ES64L-G16RevC.01  3-Jul-2019

 ----------------------------------------------------------------------
 #t hf aug-cc-pvdz iop(5/13=1,5/36=2,99/5=2) pseudo=read geom=check gue
 ss=(read,tcheck) scf=(maxcycle=1)
 ----------------------------------------------------------------------
 -----
 title
 -----
 Structure from the checkpoint file:  "BDE49_nonexpt_727_mol1.chk"
 Charge =  0 Multiplicity = 1

                         Standard orientation:
 ---------------------------------------------------------------------
 Center     Atomic      Atomic             Coordinates (Angstroms)
 Number     Number       Type             X           Y           Z
 ---------------------------------------------------------------------
      1          5           0        0.855935    0.076588   -0.017898
      2          6           0        1.033100    1.638330   -0.120265
      3          1           0        0.891405    2.050695    0.890691
      4          1           0        0.297325    2.141910   -0.753611
      5          1           0        2.035312    1.942565   -0.438856
      6         15           0       -0.841679   -0.731293   -0.315330
      7          6           0        2.108889   -0.849578    0.208739
      8          1           0        2.827046   -0.714716   -0.611024
      9          1           0        1.900452   -1.917913    0.303207
     10          1           0        2.641482   -0.527164    1.113821
     11          6           0       -2.157582    0.431592    0.309143
     12          1           0       -2.004116    0.744531    1.342539
     13          1           0       -3.133492   -0.049649    0.224279
     14          1           0       -2.170445    1.318236   -0.327846
     15          1           0       -0.845892   -1.724109    0.690531
 ---------------------------------------------------------------------

 SCF Done:  E(RHF) =  -484.943254913     A.U. after    2 cycles

 The electronic state is 1-A.
 Alpha  occ. eigenvalues --  -81.22689 -11.23819 -11.20863 -11.20651  -7.73346
 Alpha  occ. eigenvalues --   -7.61102  -4.87414  -4.87345  -4.87060  -0.97081
 Alpha  occ. eigenvalues --   -0.95111  -0.92001  -0.75006  -0.60760  -0.58799
 Alpha  occ. eigenvalues --   -0.57610  -0.55977  -0.55470  -0.54257  -0.53325
 Alpha  occ. eigenvalues --   -0.48783  -0.45340  -0.41886  -0.31844
 Alpha virt. eigenvalues --    0.03135   0.04436   0.04906   0.05143   0.06424
 Alpha virt. eigenvalues --    0.06702   0.06873   0.07674   0.08146   0.08922
 Alpha virt. eigenvalues --    0.09180   0.09605   0.10201   0.10716   0.12046

 Mulliken charges:
               1
     1  B    0.660329
     2  C    0.486022
     3  H   -0.092059
     4  H   -0.308495
     5  H   -0.339656
     6  P   -0.048447
     7  C    0.470689
     8  H   -0.095638
     9  H   -0.380583
    10  H   -0.159676
    11  C    0.210286
    12  H   -0.184606
    13  H   -0.235748
    14  H   -0.158263
    15  H    0.175846
 Sum of Mulliken charges =   0.00000

 Dipole moment (field-independent basis, Debye):
    X=              0.1135    Y=              0.9343    Z=              1.0116  Tot=              1.3817

 Test job not archived.
 1\1\GINC-SE186\SP\RHF\Aug-CC-pVDZ\C3H10B1P1\OHZDE\09-Apr-2025\0\\#t hf
  aug-cc-pvdz iop(5/13=1,5/36=2,99/5=2) pseudo=read geom=check guess=(r
 ead,tcheck) scf=(maxcycle=1)\\title\\0,1\B,0,0.855935,0.076588,-0.0178
 98\C,0,1.0331,1.63833,-0.120265\H,0,0.891405,2.050695,0.890691\H,0,0.2
 97325,2.14191,-0.753611\H,0,2.035312,1.942565,-0.438856\P,0,-0.841679,
 -0.731293,-0.31533\C,0,2.108889,-0.849578,0.208739\H,0,2.827046,-0.714
 716,-0.611024\H,0,1.900452,-1.917913,0.303207\H,0,2.641482,-0.527164,1
 .113821\C,0,-2.157582,0.431592,0.309143\H,0,-2.004116,0.744531,1.34253

 Normal termination of Gaussian 16 at Wed Apr  9 00:41:43 2025.
