 Gaussian 16, Revision C.01,

 ----------------------------------------------------------------------
 #t hf aug-cc-pvdz symm=none int=(grid=ultrafine) guess=(read,tcheck) s
 table=(opt,rrhf)
 ----------------------------------------------------------------------
 -----
 title
 -----
 Symbolic Z-matrix:
 Charge =  0 Multiplicity = 1

 SCF Done:  E(RHF) =  -143.402453699     A.U. after   13 cycles
 Normal termination of Gaussian 16 at Wed Apr  9 00:47:55 2025.
 Gaussian 16:  ES64L-G16RevC.01  3-Jul-2019

 ----------------------------------------------------------------------
 #t hf aug-cc-pvdz iop(5/13=1,5/36=2,99/5=2) pseudo=read geom=check gue
 ss=(read,tcheck) scf=(maxcycle=1)
 ----------------------------------------------------------------------
 -----
 title
 -----
 Structure from the checkpoint file:  "BDE49_nonexpt_88_mol1.chk"
 Charge =  0 Multiplicity = 1

                         Standard orientation:
 ---------------------------------------------------------------------
 Center     Atomic      Atomic             Coordinates (Angstroms)
 Number     Number       Type             X           Y           Z
 ---------------------------------------------------------------------
      1          5           0        1.921764   -0.364865    0.000066
      2          5           0        0.608643    0.623086   -0.000217
      3          6           0       -0.824249    0.099589   -0.000019
      4          7           0       -1.902787   -0.321355    0.000111
      5          1           0        2.433653   -0.725079   -1.016878
      6          1           0        2.434451   -0.723441    1.017187
      7          1           0        0.744862    1.809367   -0.000213
 ---------------------------------------------------------------------

 SCF Done:  E(RHF) =  -143.445621666     A.U. after    2 cycles

 The electronic state is 1-A.
 Alpha  occ. eigenvalues --  -15.66281 -11.27901  -7.65961  -7.63482  -1.20033
 Alpha  occ. eigenvalues --   -0.82809  -0.70574  -0.60095  -0.55585  -0.52205
 Alpha  occ. eigenvalues --   -0.51811  -0.48484  -0.44740
 Alpha virt. eigenvalues --    0.02125   0.02959   0.03489   0.03945   0.05130
 Alpha virt. eigenvalues --    0.06381   0.06856   0.07325   0.08641   0.09068
 Alpha virt. eigenvalues --    0.13053   0.13072   0.13647   0.13836   0.14535

 Mulliken charges:
               1
     1  B   -0.245656
     2  B   -0.022073
     3  C   -0.062931
     4  N   -0.234760
     5  H    0.193613
     6  H    0.193690
     7  H    0.178117
 Sum of Mulliken charges =   0.00000

 Dipole moment (field-independent basis, Debye):
    X=              3.1059    Y=              0.9831    Z=             -0.0005  Tot=              3.2578

 Test job not archived.
 1\1\GINC-SE132\SP\RHF\Aug-CC-pVDZ\C1H3B2N1\OHZDE\09-Apr-2025\0\\#t hf
 aug-cc-pvdz iop(5/13=1,5/36=2,99/5=2) pseudo=read geom=check guess=(re
 ad,tcheck) scf=(maxcycle=1)\\title\\0,1\B,0,1.921764,-0.364865,0.00006
 6\B,0,0.608643,0.623086,-0.000217\C,0,-0.824249,0.099589,-0.000019\N,0
 ,-1.902787,-0.321355,0.000111\H,0,2.433653,-0.725079,-1.016878\H,0,2.4
 34451,-0.723441,1.017187\H,0,0.744862,1.809367,-0.000213\\Version=ES64
 L-G16RevC.01\State=1-A\HF=-143.4456217\RMSD=3.798e-03\Dipole=1.2219533
 ,0.3867701,-0.0002095\Quadrupole=-3.1390693,1.4674639,1.6716054,-0.178

 Normal termination of Gaussian 16 at Wed Apr  9 00:47:57 2025.
