 Gaussian 16, Revision C.01,

 ----------------------------------------------------------------------
 #t hf aug-cc-pvdz symm=none int=(grid=ultrafine) guess=(read,tcheck) s
 table=(opt,rrhf)
 ----------------------------------------------------------------------
 -----
 title
 -----
 Symbolic Z-matrix:
 Charge =  0 Multiplicity = 1

 SCF Done:  E(RHF) =  -484.074882294     A.U. after   12 cycles
 Normal termination of Gaussian 16 at Tue Apr  8 23:48:21 2025.
 Gaussian 16:  ES64L-G16RevC.01  3-Jul-2019

 ----------------------------------------------------------------------
 #t hf aug-cc-pvdz iop(5/13=1,5/36=2,99/5=2) pseudo=read geom=check gue
 ss=(read,tcheck) scf=(maxcycle=1)
 ----------------------------------------------------------------------
 -----
 title
 -----
 Structure from the checkpoint file:  "BDE49_nonexpt_1832_mol1.chk"
 Charge =  0 Multiplicity = 1

                         Standard orientation:
 ---------------------------------------------------------------------
 Center     Atomic      Atomic             Coordinates (Angstroms)
 Number     Number       Type             X           Y           Z
 ---------------------------------------------------------------------
      1          6           0       -1.070099   -0.804433    0.601973
      2         14           0        0.644352   -0.953854   -0.204047
      3          6           0        1.504892    0.698941   -0.310085
      4          1           0        0.465769   -1.527667   -1.562835
      5          1           0        1.493091   -1.874060    0.594361
      6          6           0       -2.036212   -0.010995   -0.227306
      7          6           0       -2.474421    1.216139    0.048670
      8          6           0        2.691423    0.953992    0.247527
      9          1           0       -2.376762   -0.491546   -1.143285
     10          1           0       -2.169171    1.742175    0.948350
     11          1           0       -3.157919    1.735080   -0.613507
     12          1           0        1.010927    1.504383   -0.852654
     13          1           0        3.239248    0.197995    0.803787
     14          1           0        3.170802    1.926866    0.172963
     15          1           0       -0.946630   -0.356003    1.593208
     16          1           0       -1.443787   -1.825124    0.751597
 ---------------------------------------------------------------------

 SCF Done:  E(RHF) =  -484.160394069     A.U. after    2 cycles

 The electronic state is 1-A.
 Alpha  occ. eigenvalues --  -69.05943 -11.25139 -11.25068 -11.22988 -11.22962
 Alpha  occ. eigenvalues --  -11.22783  -6.81209  -3.92001  -3.91976  -3.91963
 Alpha  occ. eigenvalues --   -1.05969  -1.02778  -0.92887  -0.79031  -0.76055
 Alpha  occ. eigenvalues --   -0.68338  -0.64315  -0.62120  -0.59414  -0.56485
 Alpha  occ. eigenvalues --   -0.54338  -0.50314  -0.47498  -0.46800  -0.44839
 Alpha  occ. eigenvalues --   -0.38245  -0.34937
 Alpha virt. eigenvalues --    0.03317   0.04337   0.04406   0.04981   0.05918
 Alpha virt. eigenvalues --    0.06340   0.06685   0.06981   0.07874   0.08362
 Alpha virt. eigenvalues --    0.09490   0.09903   0.10557   0.11047   0.13072

 Mulliken charges:
               1
     1  C    0.140202
     2  Si   0.699367
     3  C    0.167303
     4  H    0.032346
     5  H   -0.071052
     6  C    0.596393
     7  C    0.430782
     8  C    0.549082
     9  H   -0.441888
    10  H   -0.313646
    11  H   -0.308058
    12  H   -0.447517
    13  H   -0.312807
    14  H   -0.258416
    15  H   -0.315734
    16  H   -0.146357
 Sum of Mulliken charges =  -0.00000

 Dipole moment (field-independent basis, Debye):
    X=              0.1583    Y=              0.2355    Z=              0.3286  Tot=              0.4341

 Test job not archived.
 1\1\GINC-SE226\SP\RHF\Aug-CC-pVDZ\C5H10Si1\OHZDE\08-Apr-2025\0\\#t hf
 aug-cc-pvdz iop(5/13=1,5/36=2,99/5=2) pseudo=read geom=check guess=(re
 ad,tcheck) scf=(maxcycle=1)\\title\\0,1\C,0,-1.070099,-0.804433,0.6019
 73\Si,0,0.644352,-0.953854,-0.204047\C,0,1.504892,0.698941,-0.310085\H
 ,0,0.465769,-1.527667,-1.562835\H,0,1.493091,-1.87406,0.594361\C,0,-2.
 036212,-0.010995,-0.227306\C,0,-2.474421,1.216139,0.04867\C,0,2.691423
 ,0.953992,0.247527\H,0,-2.376762,-0.491546,-1.143285\H,0,-2.169171,1.7
 42175,0.94835\H,0,-3.157919,1.73508,-0.613507\H,0,1.010927,1.504383,-0

 Normal termination of Gaussian 16 at Tue Apr  8 23:48:26 2025.
