 Gaussian 16, Revision C.01,

 ----------------------------------------------------------------------
 #t hf aug-cc-pvdz symm=none int=(grid=ultrafine) guess=(read,tcheck) s
 table=opt
 ----------------------------------------------------------------------
 -----
 title
 -----
 Symbolic Z-matrix:
 Charge =  0 Multiplicity = 2

 SCF Done:  E(UHF) =  -544.107781067     A.U. after   20 cycles
 Normal termination of Gaussian 16 at Wed Apr  9 00:29:24 2025.
 Gaussian 16:  ES64L-G16RevC.01  3-Jul-2019

 ----------------------------------------------------------------------
 #t hf aug-cc-pvdz iop(5/13=1,5/36=2,99/5=2) pseudo=read geom=check gue
 ss=(read,tcheck) scf=(maxcycle=1)
 ----------------------------------------------------------------------
 -----
 title
 -----
 Structure from the checkpoint file:  "BDE49_nonexpt_362_mol2.chk"
 Charge =  0 Multiplicity = 2

                         Standard orientation:
 ---------------------------------------------------------------------
 Center     Atomic      Atomic             Coordinates (Angstroms)
 Number     Number       Type             X           Y           Z
 ---------------------------------------------------------------------
      1          9           0       -2.341134   -0.215592    0.164315
      2          5           0       -1.179946   -0.837084    0.112991
      3         15           0        0.420681   -0.038425   -0.555691
      4          6           0        1.747450   -0.959151    0.361747
      5          6           0        0.454204    1.652318    0.234477
      6          1           0        1.658945   -2.021510    0.127414
      7          1           0        1.686435   -0.831282    1.444225
      8          1           0        2.724560   -0.614690    0.016746
      9          1           0       -0.427045    2.208483   -0.090746
     10          1           0        1.340585    2.190616   -0.108855
     11          1           0        0.466308    1.611506    1.325453
 ---------------------------------------------------------------------

 SCF Done:  E(UHF) =  -544.206316557     A.U. after    2 cycles

 The electronic state is 2-A.
 Alpha  occ. eigenvalues --  -81.24900 -26.14491 -11.24755 -11.24502  -7.75440
 Alpha  occ. eigenvalues --   -7.70493  -4.89562  -4.89385  -4.89092  -1.68742
 Alpha  occ. eigenvalues --   -0.98810  -0.94308  -0.85694  -0.78230  -0.74666
 Alpha  occ. eigenvalues --   -0.72326  -0.60187  -0.59396  -0.57037  -0.56650
 Alpha  occ. eigenvalues --   -0.50811  -0.47033  -0.36154  -0.31156
 Alpha virt. eigenvalues --    0.03041   0.04661   0.04976   0.05038   0.06698
 Alpha virt. eigenvalues --    0.06791   0.06894   0.07591   0.08086   0.09611
 Alpha virt. eigenvalues --    0.09882   0.12155   0.13684   0.14877   0.15158

  Beta  occ. eigenvalues --  -81.24797 -26.14146 -11.24715 -11.24513  -7.75305
  Beta  occ. eigenvalues --   -7.68712  -4.89336  -4.89203  -4.88950  -1.67778
  Beta  occ. eigenvalues --   -0.98544  -0.94224  -0.84455  -0.75175  -0.74636
  Beta  occ. eigenvalues --   -0.70703  -0.59659  -0.59339  -0.56849  -0.56589
  Beta  occ. eigenvalues --   -0.47522  -0.46664  -0.33099
  Beta virt. eigenvalues --    0.02846   0.04344   0.04847   0.05241   0.06768
  Beta virt. eigenvalues --    0.06865   0.07078   0.07454   0.07608   0.09181
  Beta virt. eigenvalues --    0.10676   0.10931   0.12455   0.14821   0.15398

 Mulliken charges and spin densities:
               1          2
     1  F   -0.392757  -0.040183
     2  B    0.498369   0.998034
     3  P    0.360667   0.074813
     4  C    0.242304  -0.023137
     5  C    0.214338   0.001350
     6  H   -0.161908  -0.006481
     7  H   -0.163472   0.003255
     8  H   -0.130213  -0.009083
     9  H   -0.174394  -0.001039
    10  H   -0.131305   0.003183
    11  H   -0.161629  -0.000712
 Sum of Mulliken charges =  -0.00000   1.00000

 Dipole moment (field-independent basis, Debye):
    X=              1.8431    Y=              0.5480    Z=              0.9762  Tot=              2.1564
                          Isotropic Fermi Contact Couplings
        Atom                 a.u.       MegaHertz       Gauss      10(-4) cm-1
     1  F(19)              0.06199     260.83204      93.07136      87.00421
     2  B(11)              0.29641     425.15484     151.70582     141.81639
     3  P(31)              0.07514     136.09197      48.56100      45.39540
     4  C(13)              0.00071       0.79570       0.28393       0.26542
     5  C(13)              0.00658       7.39789       2.63975       2.46767
     6  H(1)              -0.00005      -0.20730      -0.07397      -0.06915
     7  H(1)               0.00029       1.29280       0.46130       0.43123
     8  H(1)              -0.00071      -3.18680      -1.13713      -1.06300

 Normal termination of Gaussian 16 at Wed Apr  9 00:29:28 2025.
