 Gaussian 16, Revision C.01,

 ----------------------------------------------------------------------
 #t hf aug-cc-pvdz symm=none int=(grid=ultrafine) guess=(read,tcheck) s
 table=(opt,rrhf)
 ----------------------------------------------------------------------
 -----
 title
 -----
 Symbolic Z-matrix:
 Charge =  0 Multiplicity = 1

 SCF Done:  E(RHF) =  -786.223429761     A.U. after   15 cycles
 Normal termination of Gaussian 16 at Wed Apr  9 00:44:01 2025.
 Gaussian 16:  ES64L-G16RevC.01  3-Jul-2019

 ----------------------------------------------------------------------
 #t hf aug-cc-pvdz iop(5/13=1,5/36=2,99/5=2) pseudo=read geom=check gue
 ss=(read,tcheck) scf=(maxcycle=1)
 ----------------------------------------------------------------------
 -----
 title
 -----
 Structure from the checkpoint file:  "BDE49_nonexpt_745_mol1.chk"
 Charge =  0 Multiplicity = 1

                         Standard orientation:
 ---------------------------------------------------------------------
 Center     Atomic      Atomic             Coordinates (Angstroms)
 Number     Number       Type             X           Y           Z
 ---------------------------------------------------------------------
      1          6           0       -2.482808   -1.483337    0.329436
      2          6           0       -1.186087   -1.510904   -0.172867
      3          6           0       -3.103949   -0.260248    0.566757
      4          6           0       -2.423106    0.920747    0.289450
      5          6           0       -1.122383    0.914785   -0.227906
      6          6           0       -0.486801   -0.327914   -0.456399
      7          1           0       -3.001706   -2.412356    0.537451
      8          1           0       -0.705961   -2.466948   -0.349342
      9          5           0        2.282788   -0.101670    0.434661
     10          8           0        3.619399   -0.328335    0.335778
     11          8           0        1.764018    0.351939    1.612567
     12          1           0       -2.911311    1.873852    0.465890
     13          1           0       -4.113379   -0.224694    0.960637
     14          6           0       -0.436191    2.225558   -0.540173
     15          1           0       -1.120905    3.064505   -0.405034
     16          1           0       -0.070943    2.245574   -1.571351
     17          1           0        0.429841    2.399919    0.106728
     18          1           0        0.800505    0.383129    1.609444
     19          1           0        4.075438   -0.172352    1.171831
     20         15           0        1.214176   -0.364819   -1.186252
     21          1           0        1.372462   -1.770948   -1.222318
 ---------------------------------------------------------------------

 SCF Done:  E(RHF) =  -786.382318995     A.U. after    2 cycles

 The electronic state is 1-A.
 Alpha  occ. eigenvalues --  -81.24195 -20.59020 -20.58611 -11.26410 -11.25859
 Alpha  occ. eigenvalues --  -11.25427 -11.25264 -11.24983 -11.24953 -11.24115
 Alpha  occ. eigenvalues --   -7.74762  -7.67612  -4.88930  -4.88762  -4.88521
 Alpha  occ. eigenvalues --   -1.35176  -1.31543  -1.15310  -1.04848  -1.01909
 Alpha  occ. eigenvalues --   -0.93979  -0.85022  -0.81933  -0.79511  -0.76921
 Alpha  occ. eigenvalues --   -0.73918  -0.68484  -0.65558  -0.63433  -0.62844
 Alpha  occ. eigenvalues --   -0.60134  -0.59280  -0.58450  -0.58110  -0.56074
 Alpha  occ. eigenvalues --   -0.54311  -0.52825  -0.50584  -0.50184  -0.48297
 Alpha  occ. eigenvalues --   -0.44789  -0.37765  -0.34194  -0.31478
 Alpha virt. eigenvalues --    0.02898   0.03716   0.03936   0.04914   0.05659
 Alpha virt. eigenvalues --    0.05908   0.06886   0.07187   0.07405   0.07681
 Alpha virt. eigenvalues --    0.08742   0.09380   0.09514   0.10067   0.10565

 Mulliken charges:
               1
     1  C    0.442015
     2  C    0.591681
     3  C    0.423475
     4  C    0.934671
     5  C   -0.169844
     6  C   -0.661083
     7  H   -0.452767
     8  H   -0.598134
     9  B    0.897701
    10  O   -0.563978
    11  O   -0.442660
    12  H   -0.591365
    13  H   -0.450308
    14  C    0.695104
    15  H   -0.259940
    16  H    0.125297
    17  H   -0.000421
    18  H    0.266779
    19  H    0.191806
    20  P   -0.435499
    21  H    0.057471
 Sum of Mulliken charges =  -0.00000

 Dipole moment (field-independent basis, Debye):
    X=             -1.6327    Y=              0.1983    Z=              1.4167  Tot=              2.1707

 Test job not archived.
 1\1\GINC-SE460\SP\RHF\Aug-CC-pVDZ\C7H10B1O2P1\OHZDE\09-Apr-2025\0\\#t
 hf aug-cc-pvdz iop(5/13=1,5/36=2,99/5=2) pseudo=read geom=check guess=
 (read,tcheck) scf=(maxcycle=1)\\title\\0,1\C,0,-2.482808,-1.483337,0.3
 29436\C,0,-1.186087,-1.510904,-0.172867\C,0,-3.103949,-0.260248,0.5667
 57\C,0,-2.423106,0.920747,0.28945\C,0,-1.122383,0.914785,-0.227906\C,0
 ,-0.486801,-0.327914,-0.456399\H,0,-3.001706,-2.412356,0.537451\H,0,-0
 .705961,-2.466948,-0.349342\B,0,2.282788,-0.10167,0.434661\O,0,3.61939
 9,-0.328335,0.335778\O,0,1.764018,0.351939,1.612567\H,0,-2.911311,1.87

 Normal termination of Gaussian 16 at Wed Apr  9 00:44:15 2025.
