 Gaussian 16, Revision C.01,

 ----------------------------------------------------------------------
 #t hf aug-cc-pvdz symm=none int=(grid=ultrafine) guess=(read,tcheck) s
 table=(opt,rrhf)
 ----------------------------------------------------------------------
 -----
 title
 -----
 Symbolic Z-matrix:
 Charge =  0 Multiplicity = 1

 SCF Done:  E(RHF) =  -846.421959439     A.U. after   14 cycles
 Normal termination of Gaussian 16 at Wed Apr  9 00:00:52 2025.
 Gaussian 16:  ES64L-G16RevC.01  3-Jul-2019

 ----------------------------------------------------------------------
 #t hf aug-cc-pvdz iop(5/13=1,5/36=2,99/5=2) pseudo=read geom=check gue
 ss=(read,tcheck) scf=(maxcycle=1)
 ----------------------------------------------------------------------
 -----
 title
 -----
 Structure from the checkpoint file:  "BDE49_nonexpt_2123_mol1.chk"
 Charge =  0 Multiplicity = 1

                         Standard orientation:
 ---------------------------------------------------------------------
 Center     Atomic      Atomic             Coordinates (Angstroms)
 Number     Number       Type             X           Y           Z
 ---------------------------------------------------------------------
      1         14           0        2.121960    0.016674    0.448418
      2          7           0        0.372433   -0.423089    0.275035
      3          7           0       -0.372371    0.422579   -0.275810
      4         14           0       -2.122068   -0.016818   -0.448399
      5          6           0       -2.538231   -1.701772    0.250372
      6          1           0       -1.912390   -2.473874   -0.203476
      7          1           0       -3.586637   -1.949298    0.058043
      8          1           0       -2.369016   -1.731794    1.329872
      9          6           0        2.537947    1.701994   -0.249575
     10          1           0        2.369059    1.732405   -1.329117
     11          1           0        3.586236    1.949688   -0.056828
     12          1           0        1.911784    2.473767    0.204385
     13          6           0        3.079554   -1.372056   -0.368953
     14          1           0        2.924840   -1.373244   -1.451840
     15          1           0        2.762941   -2.342640    0.020911
     16          1           0        4.151945   -1.263847   -0.181635
     17          6           0       -3.079120    1.372465    0.368685
     18          1           0       -2.924075    1.374054    1.451523
     19          1           0       -4.151595    1.264438    0.181740
     20          1           0       -2.762401    2.342819   -0.021667
     21          1           0        2.341351   -0.019995    1.916765
     22          1           0       -2.341866    0.019307   -1.916691
 ---------------------------------------------------------------------

 SCF Done:  E(RHF) =  -846.561196408     A.U. after    2 cycles

 The electronic state is 1-A.
 Alpha  occ. eigenvalues --  -69.06631 -69.06630 -15.66106 -15.65993 -11.21589
 Alpha  occ. eigenvalues --  -11.21588 -11.21305 -11.21305  -6.81781  -6.81776
 Alpha  occ. eigenvalues --   -3.92619  -3.92613  -3.92524  -3.92521  -3.92510
 Alpha  occ. eigenvalues --   -3.92510  -1.26066  -0.96325  -0.94693  -0.92660
 Alpha  occ. eigenvalues --   -0.92092  -0.85039  -0.67696  -0.63249  -0.59336
 Alpha  occ. eigenvalues --   -0.57965  -0.57125  -0.56840  -0.55274  -0.54900
 Alpha  occ. eigenvalues --   -0.54868  -0.54808  -0.53170  -0.52964  -0.50442
 Alpha  occ. eigenvalues --   -0.45674  -0.44245  -0.44224  -0.43021  -0.31316
 Alpha virt. eigenvalues --    0.03104   0.03546   0.04104   0.04382   0.05818
 Alpha virt. eigenvalues --    0.06080   0.06864   0.07218   0.07359   0.07550
 Alpha virt. eigenvalues --    0.07630   0.08338   0.08524   0.09365   0.09543

 Mulliken charges:
               1
     1  Si   1.312813
     2  N   -0.698319
     3  N   -0.698239
     4  Si   1.312611
     5  C    0.368815
     6  H   -0.265707
     7  H   -0.221240
     8  H   -0.150267
     9  C    0.368842
    10  H   -0.150238
    11  H   -0.221240
    12  H   -0.265721
    13  C    0.359642
    14  H   -0.176628
    15  H   -0.288723
    16  H   -0.262011
    17  C    0.359593
    18  H   -0.176618
    19  H   -0.261994
    20  H   -0.288698
    21  H    0.021598
    22  H    0.021728
 Sum of Mulliken charges =   0.00000

 Dipole moment (field-independent basis, Debye):
    X=             -0.0000    Y=              0.0007    Z=              0.0009  Tot=              0.0011

 Test job not archived.
 1\1\GINC-SE424\SP\RHF\Aug-CC-pVDZ\C4H14N2Si2\OHZDE\09-Apr-2025\0\\#t h
 f aug-cc-pvdz iop(5/13=1,5/36=2,99/5=2) pseudo=read geom=check guess=(
 read,tcheck) scf=(maxcycle=1)\\title\\0,1\Si,0,2.12196,0.016674,0.4484
 18\N,0,0.372433,-0.423089,0.275035\N,0,-0.372371,0.422579,-0.27581\Si,
 0,-2.122068,-0.016818,-0.448399\C,0,-2.538231,-1.701772,0.250372\H,0,-
 1.91239,-2.473874,-0.203476\H,0,-3.586637,-1.949298,0.058043\H,0,-2.36
 9016,-1.731794,1.329872\C,0,2.537947,1.701994,-0.249575\H,0,2.369059,1
 .732405,-1.329117\H,0,3.586236,1.949688,-0.056828\H,0,1.911784,2.47376

 Normal termination of Gaussian 16 at Wed Apr  9 00:01:03 2025.
