 Gaussian 16, Revision C.01,

 ----------------------------------------------------------------------
 #t hf aug-cc-pvdz symm=none int=(grid=ultrafine) guess=(read,tcheck) s
 table=(opt,rrhf)
 ----------------------------------------------------------------------
 -----
 title
 -----
 Symbolic Z-matrix:
 Charge =  0 Multiplicity = 1

 SCF Done:  E(RHF) =  -430.534678887     A.U. after   16 cycles
 Normal termination of Gaussian 16 at Tue Apr  8 22:37:00 2025.
 Gaussian 16:  ES64L-G16RevC.01  3-Jul-2019

 ----------------------------------------------------------------------
 #t hf aug-cc-pvdz iop(5/13=1,5/36=2,99/5=2) pseudo=read geom=check gue
 ss=(read,tcheck) scf=(maxcycle=1)
 ----------------------------------------------------------------------
 -----
 title
 -----
 Structure from the checkpoint file:  "BDE49_expt_1188_mol1.chk"
 Charge =  0 Multiplicity = 1

                         Standard orientation:
 ---------------------------------------------------------------------
 Center     Atomic      Atomic             Coordinates (Angstroms)
 Number     Number       Type             X           Y           Z
 ---------------------------------------------------------------------
      1          7           0       -1.916157   -1.174868    0.000040
      2          6           0       -2.477494    0.036670    0.000034
      3          6           0       -1.717677    1.205963   -0.000008
      4          7           0       -0.385032    1.171083   -0.000038
      5          6           0        0.183177   -0.039370   -0.000033
      6          6           0       -0.582402   -1.208169    0.000005
      7          1           0       -0.091930   -2.174178   -0.000003
      8          1           0       -3.562471    0.078317    0.000066
      9          1           0       -2.189728    2.183475   -0.000011
     10          6           0        1.692012   -0.133736   -0.000099
     11          8           0        2.257599   -1.213928    0.000040
     12          7           0        2.316483    1.067529    0.000013
     13          1           0        1.768172    1.913165    0.000020
     14          1           0        3.322409    1.096291    0.000107
 ---------------------------------------------------------------------

 SCF Done:  E(RHF) =  -430.660364177     A.U. after    2 cycles

 The electronic state is 1-A.
 Alpha  occ. eigenvalues --  -20.54644 -15.68031 -15.66995 -15.65451 -11.38065
 Alpha  occ. eigenvalues --  -11.31277 -11.31262 -11.31074 -11.30768  -1.35877
 Alpha  occ. eigenvalues --   -1.29586  -1.21027  -1.18105  -1.06862  -0.92982
 Alpha  occ. eigenvalues --   -0.90832  -0.82240  -0.76114  -0.73325  -0.71475
 Alpha  occ. eigenvalues --   -0.67966  -0.65392  -0.62349  -0.61590  -0.57451
 Alpha  occ. eigenvalues --   -0.56839  -0.50902  -0.46854  -0.45051  -0.42369
 Alpha  occ. eigenvalues --   -0.41787  -0.37264
 Alpha virt. eigenvalues --    0.02550   0.03366   0.04488   0.05069   0.05708
 Alpha virt. eigenvalues --    0.06946   0.07140   0.09642   0.09977   0.11048
 Alpha virt. eigenvalues --    0.11444   0.11502   0.12646   0.13446   0.14389

 Mulliken charges:
               1
     1  N   -0.490607
     2  C    0.517645
     3  C    0.706453
     4  N   -0.778868
     5  C    0.735251
     6  C    0.461953
     7  H   -0.326628
     8  H   -0.276013
     9  H   -0.334978
    10  C    0.348815
    11  O   -0.510729
    12  N   -0.095382
    13  H    0.035204
    14  H    0.007885
 Sum of Mulliken charges =  -0.00000

 Dipole moment (field-independent basis, Debye):
    X=             -1.7597    Y=              4.1128    Z=             -0.0001  Tot=              4.4735

 Test job not archived.
 1\1\GINC-SE398\SP\RHF\Aug-CC-pVDZ\C5H5N3O1\OHZDE\08-Apr-2025\0\\#t hf
 aug-cc-pvdz iop(5/13=1,5/36=2,99/5=2) pseudo=read geom=check guess=(re
 ad,tcheck) scf=(maxcycle=1)\\title\\0,1\N,0,1.916157,-1.174868,-0.0000
 4\C,0,2.477494,0.03667,-0.000034\C,0,1.717677,1.205963,0.000008\N,0,0.
 385032,1.171083,0.000038\C,0,-0.183177,-0.03937,0.000033\C,0,0.582402,
 -1.208169,-0.000005\H,0,0.09193,-2.174178,0.000003\H,0,3.562471,0.0783
 17,-0.000066\H,0,2.189728,2.183475,0.000011\C,0,-1.692012,-0.133736,0.
 000099\O,0,-2.257599,-1.213928,-0.00004\N,0,-2.316483,1.067529,-0.0000

 Normal termination of Gaussian 16 at Tue Apr  8 22:37:05 2025.
