 Gaussian 16, Revision C.01,

 ----------------------------------------------------------------------
 #t hf aug-cc-pvdz symm=none int=(grid=ultrafine) guess=(read,tcheck) s
 table=(opt,rrhf)
 ----------------------------------------------------------------------
 -----
 title
 -----
 Symbolic Z-matrix:
 Charge =  0 Multiplicity = 1

 SCF Done:  E(RHF) =  -650.767758637     A.U. after   15 cycles
 Normal termination of Gaussian 16 at Wed Apr  9 00:02:32 2025.
 Gaussian 16:  ES64L-G16RevC.01  3-Jul-2019

 ----------------------------------------------------------------------
 #t hf aug-cc-pvdz iop(5/13=1,5/36=2,99/5=2) pseudo=read geom=check gue
 ss=(read,tcheck) scf=(maxcycle=1)
 ----------------------------------------------------------------------
 -----
 title
 -----
 Structure from the checkpoint file:  "BDE49_nonexpt_2189_mol1.chk"
 Charge =  0 Multiplicity = 1

                         Standard orientation:
 ---------------------------------------------------------------------
 Center     Atomic      Atomic             Coordinates (Angstroms)
 Number     Number       Type             X           Y           Z
 ---------------------------------------------------------------------
      1          6           0       -2.189081    1.015900    0.003678
      2          6           0       -2.066597   -0.384384    0.007702
      3          6           0       -0.786941   -0.951798    0.005235
      4          6           0       -1.051427    1.810511   -0.003648
      5          6           0        0.225802    1.251825   -0.006712
      6          6           0        0.344043   -0.139459   -0.002051
      7          1           0       -3.174057    1.470101    0.012176
      8          1           0       -0.651872   -2.027248    0.013839
      9          1           0       -1.157475    2.889720   -0.008203
     10          1           0        1.103993    1.886357   -0.013959
     11          8           0        1.557735   -0.777531   -0.006713
     12         14           0        3.100193   -0.164782    0.001420
     13          7           0       -3.198004   -1.195113    0.074621
     14          1           0       -4.049598   -0.776708   -0.268683
     15          1           0       -3.075275   -2.139619   -0.258689
     16          1           0        3.976775   -1.349388   -0.001282
     17          1           0        3.342684    0.657234    1.209100
     18          1           0        3.351473    0.666952   -1.198046
 ---------------------------------------------------------------------

 SCF Done:  E(RHF) =  -650.908512728     A.U. after    2 cycles

 The electronic state is 1-A.
 Alpha  occ. eigenvalues --  -69.10089 -20.58550 -15.63409 -11.31866 -11.29588
 Alpha  occ. eigenvalues --  -11.25239 -11.22975 -11.22927 -11.22799  -6.84890
 Alpha  occ. eigenvalues --   -3.95803  -3.95656  -3.95626  -1.34245  -1.19935
 Alpha  occ. eigenvalues --   -1.11324  -1.00584  -0.98284  -0.84411  -0.83715
 Alpha  occ. eigenvalues --   -0.75059  -0.70324  -0.69201  -0.65559  -0.63128
 Alpha  occ. eigenvalues --   -0.62614  -0.61653  -0.59441  -0.55306  -0.53328
 Alpha  occ. eigenvalues --   -0.52327  -0.50711  -0.47740  -0.47263  -0.43984
 Alpha  occ. eigenvalues --   -0.32945  -0.29876
 Alpha virt. eigenvalues --    0.03164   0.03630   0.03918   0.05118   0.05639
 Alpha virt. eigenvalues --    0.06398   0.06964   0.07592   0.09129   0.09338
 Alpha virt. eigenvalues --    0.10091   0.11179   0.11684   0.12076   0.12343

 Mulliken charges:
               1
     1  C    0.736003
     2  C    0.415165
     3  C    0.524245
     4  C    0.408798
     5  C    0.637771
     6  C    0.279574
     7  H   -0.572998
     8  H   -0.606049
     9  H   -0.429028
    10  H   -0.626433
    11  O   -0.888648
    12  Si   0.278012
    13  N   -0.313451
    14  H   -0.034913
    15  H   -0.034204
    16  H    0.041947
    17  H    0.092255
    18  H    0.091953
 Sum of Mulliken charges =  -0.00000

 Dipole moment (field-independent basis, Debye):
    X=             -0.9987    Y=              0.1216    Z=             -0.9501  Tot=              1.3837

 Test job not archived.
 1\1\GINC-SE345\SP\RHF\Aug-CC-pVDZ\C6H9N1O1Si1\OHZDE\09-Apr-2025\0\\#t
 hf aug-cc-pvdz iop(5/13=1,5/36=2,99/5=2) pseudo=read geom=check guess=
 (read,tcheck) scf=(maxcycle=1)\\title\\0,1\C,0,2.189081,1.0159,-0.0036
 78\C,0,2.066597,-0.384384,-0.007702\C,0,0.786941,-0.951798,-0.005235\C
 ,0,1.051427,1.810511,0.003648\C,0,-0.225802,1.251825,0.006712\C,0,-0.3
 44043,-0.139459,0.002051\H,0,3.174057,1.470101,-0.012176\H,0,0.651872,
 -2.027248,-0.013839\H,0,1.157475,2.88972,0.008203\H,0,-1.103993,1.8863
 57,0.013959\O,0,-1.557735,-0.777531,0.006713\Si,0,-3.100193,-0.164782,

 Normal termination of Gaussian 16 at Wed Apr  9 00:02:41 2025.
