 Gaussian 16, Revision C.01,

 ----------------------------------------------------------------------
 #t hf aug-cc-pvdz symm=none int=(grid=ultrafine) guess=(read,tcheck) s
 table=opt
 ----------------------------------------------------------------------
 -----
 title
 -----
 Symbolic Z-matrix:
 Charge =  0 Multiplicity = 2

 SCF Done:  E(UHF) =  -593.284031810     A.U. after   16 cycles

 1\1\GINC-SE336\Stability\UHF\Aug-CC-pVDZ\C5H11S1\OHZDE\09-Apr-2025\0\\
 #t hf aug-cc-pvdz symm=none int=(grid=ultrafine) guess=(read,tcheck) s
 table=opt\\title\\0,2\S,0,2.117204,0.003017,-0.000007\C,0,0.517026,0.8
 50013,-0.000113\C,0,-0.767031,-0.012837,0.000004\C,0,-1.967084,0.95457
 6,-0.000114\H,0,-1.959779,1.598327,0.885076\H,0,-2.909174,0.398924,-0.
 000038\H,0,-1.959788,1.5981,-0.885468\C,0,-0.817346,-0.893257,1.25962\
 H,0,-0.798442,-0.283841,2.16908\H,0,0.03274,-1.579273,1.293006\H,0,-1.
 734023,-1.489569,1.275881\C,0,-0.81736,-0.893581,-1.259385\H,0,-0.7984

 Normal termination of Gaussian 16 at Wed Apr  9 00:23:30 2025.
 Gaussian 16:  ES64L-G16RevC.01  3-Jul-2019

 ----------------------------------------------------------------------
 #t hf aug-cc-pvdz iop(5/13=1,5/36=2,99/5=2) pseudo=read geom=check gue
 ss=(read,tcheck) scf=(maxcycle=1)
 ----------------------------------------------------------------------
 -----
 title
 -----
 Structure from the checkpoint file:  "BDE49_nonexpt_2711_mol2.chk"
 Charge =  0 Multiplicity = 2

                         Standard orientation:
 ---------------------------------------------------------------------
 Center     Atomic      Atomic             Coordinates (Angstroms)
 Number     Number       Type             X           Y           Z
 ---------------------------------------------------------------------
      1         16           0        2.117204    0.003017   -0.000007
      2          6           0        0.517026    0.850013   -0.000113
      3          6           0       -0.767031   -0.012837    0.000004
      4          6           0       -1.967084    0.954576   -0.000114
      5          1           0       -1.959779    1.598327    0.885076
      6          1           0       -2.909174    0.398924   -0.000038
      7          1           0       -1.959788    1.598100   -0.885468
      8          6           0       -0.817346   -0.893257    1.259620
      9          1           0       -0.798442   -0.283841    2.169080
     10          1           0        0.032740   -1.579273    1.293006
     11          1           0       -1.734023   -1.489569    1.275881
     12          6           0       -0.817360   -0.893581   -1.259385
     13          1           0       -0.798468   -0.284399   -2.169002
     14          1           0       -1.734036   -1.489898   -1.275483
     15          1           0        0.032727   -1.579603   -1.292607
     16          1           0        0.531874    1.516623   -0.872380
     17          1           0        0.531875    1.516856    0.871975
 ---------------------------------------------------------------------

 SCF Done:  E(UHF) =  -593.362844897     A.U. after    2 cycles

 The electronic state is 2-A.
 Alpha  occ. eigenvalues --  -93.54674 -11.27101 -11.25421 -11.22960 -11.22416
 Alpha  occ. eigenvalues --  -11.22407  -8.84368  -6.19737  -6.18059  -6.17627
 Alpha  occ. eigenvalues --   -1.11128  -1.00784  -0.93433  -0.93183  -0.85545
 Alpha  occ. eigenvalues --   -0.73689  -0.63761  -0.63078  -0.60354  -0.58006
 Alpha  occ. eigenvalues --   -0.55328  -0.53114  -0.51986  -0.50278  -0.48062
 Alpha  occ. eigenvalues --   -0.47079  -0.45093  -0.42014  -0.36373
 Alpha virt. eigenvalues --    0.03393   0.04598   0.04624   0.05115   0.06606
 Alpha virt. eigenvalues --    0.06872   0.07079   0.07371   0.07502   0.09203
 Alpha virt. eigenvalues --    0.09366   0.09953   0.12451   0.13732   0.14320

  Beta  occ. eigenvalues --  -93.53778 -11.27229 -11.25421 -11.22965 -11.22413
  Beta  occ. eigenvalues --  -11.22404  -8.83370  -6.17525  -6.17079  -6.15807
  Beta  occ. eigenvalues --   -1.10789  -0.97835  -0.93406  -0.93157  -0.80164
  Beta  occ. eigenvalues --   -0.72636  -0.62988  -0.62885  -0.60034  -0.56956
  Beta  occ. eigenvalues --   -0.55137  -0.52659  -0.51947  -0.49780  -0.47886
  Beta  occ. eigenvalues --   -0.46742  -0.44347  -0.34220
  Beta virt. eigenvalues --    0.02339   0.03404   0.04603   0.04785   0.05154
  Beta virt. eigenvalues --    0.06616   0.06874   0.07108   0.07554   0.07760
  Beta virt. eigenvalues --    0.09214   0.09406   0.10053   0.12506   0.13854

 Mulliken charges and spin densities:
               1          2
     1  S    0.240855   1.107450
     2  C    0.630805  -0.127377
     3  C   -4.041741  -0.014166
     4  C    1.269786   0.003705
     5  H   -0.036419  -0.000837
     6  H   -0.034850  -0.000020
     7  H   -0.036420  -0.000837
     8  C    1.139969   0.010540
     9  H   -0.024766   0.000761
    10  H   -0.008503  -0.013931
    11  H   -0.019822  -0.000053
    12  C    1.139974   0.010540
    13  H   -0.024768   0.000761
    14  H   -0.019823  -0.000053
    15  H   -0.008503  -0.013931
    16  H   -0.082884   0.018724
    17  H   -0.082890   0.018724
 Sum of Mulliken charges =  -0.00000   1.00000

 Dipole moment (field-independent basis, Debye):
    X=             -1.6964    Y=              0.6027    Z=             -0.0001  Tot=              1.8003
                          Isotropic Fermi Contact Couplings
        Atom                 a.u.       MegaHertz       Gauss      10(-4) cm-1
     1  S(33)              0.18566      63.77017      22.75478      21.27144
     2  C(13)             -0.02795     -31.42595     -11.21356     -10.48257
     3  C(13)             -0.00047      -0.52492      -0.18730      -0.17509
     4  C(13)             -0.00129      -1.45269      -0.51836      -0.48457
     5  H(1)               0.00002       0.07994       0.02853       0.02667
     6  H(1)              -0.00019      -0.83744      -0.29882      -0.27934
     7  H(1)               0.00002       0.07993       0.02852       0.02666
     8  C(13)             -0.00044      -0.49697      -0.17733      -0.16577

 Normal termination of Gaussian 16 at Wed Apr  9 00:23:37 2025.
