 Gaussian 16, Revision C.01,

 ----------------------------------------------------------------------
 #t hf aug-cc-pvdz symm=none int=(grid=ultrafine) guess=(read,tcheck) s
 table=(opt,rrhf)
 ----------------------------------------------------------------------
 -----
 title
 -----
 Symbolic Z-matrix:
 Charge =  0 Multiplicity = 1

 SCF Done:  E(RHF) =  -463.452710851     A.U. after   12 cycles
 Normal termination of Gaussian 16 at Tue Apr  8 23:58:41 2025.
 Gaussian 16:  ES64L-G16RevC.01  3-Jul-2019

 ----------------------------------------------------------------------
 #t hf aug-cc-pvdz iop(5/13=1,5/36=2,99/5=2) pseudo=read geom=check gue
 ss=(read,tcheck) scf=(maxcycle=1)
 ----------------------------------------------------------------------
 -----
 title
 -----
 Structure from the checkpoint file:  "BDE49_nonexpt_2101_mol1.chk"
 Charge =  0 Multiplicity = 1

                         Standard orientation:
 ---------------------------------------------------------------------
 Center     Atomic      Atomic             Coordinates (Angstroms)
 Number     Number       Type             X           Y           Z
 ---------------------------------------------------------------------
      1          7           0       -0.706068    1.667389   -0.218949
      2         14           0       -0.464615    0.047896    0.343499
      3          1           0       -0.182205    2.429377    0.185999
      4          1           0       -0.918212    1.854578   -1.188656
      5          6           0        1.104409   -0.798011   -0.286872
      6          6           0        2.407776   -0.040729    0.019748
      7          1           0        1.007486   -0.950590   -1.369913
      8          1           0        1.144691   -1.804063    0.151084
      9          1           0        2.398858    0.959108   -0.424910
     10          1           0        3.286107   -0.564340   -0.369525
     11          6           0       -1.958103   -0.981138   -0.140680
     12          1           0       -2.870791   -0.576505    0.303798
     13          1           0       -1.847295   -2.018093    0.190336
     14          1           0       -2.092755   -0.997092   -1.227441
     15          1           0        2.552470    0.082977    1.097585
     16          1           0       -0.355758    0.161641    1.822128
 ---------------------------------------------------------------------

 SCF Done:  E(RHF) =  -463.540720903     A.U. after    2 cycles

 The electronic state is 1-A.
 Alpha  occ. eigenvalues --  -69.05648 -15.58988 -11.22503 -11.20920 -11.20674
 Alpha  occ. eigenvalues --   -6.80653  -3.91541  -3.91460  -3.91394  -1.08985
 Alpha  occ. eigenvalues --   -1.00430  -0.93006  -0.83318  -0.66920  -0.64450
 Alpha  occ. eigenvalues --   -0.60147  -0.57705  -0.55376  -0.55241  -0.51452
 Alpha  occ. eigenvalues --   -0.49948  -0.48536  -0.44170  -0.43985  -0.37450
 Alpha virt. eigenvalues --    0.03090   0.04335   0.04610   0.04748   0.06691
 Alpha virt. eigenvalues --    0.06871   0.06998   0.07159   0.07897   0.09152
 Alpha virt. eigenvalues --    0.09538   0.10448   0.10499   0.12874   0.14287

 Mulliken charges:
               1
     1  N   -0.512000
     2  Si   1.379578
     3  H   -0.086081
     4  H   -0.037670
     5  C    0.178264
     6  C    0.197497
     7  H   -0.217579
     8  H   -0.229822
     9  H   -0.124179
    10  H   -0.082983
    11  C    0.406511
    12  H   -0.311803
    13  H   -0.251349
    14  H   -0.173701
    15  H   -0.118845
    16  H   -0.015840
 Sum of Mulliken charges =  -0.00000

 Dipole moment (field-independent basis, Debye):
    X=              0.4790    Y=              0.2420    Z=             -1.0012  Tot=              1.1360

 Test job not archived.
 1\1\GINC-SE339\SP\RHF\Aug-CC-pVDZ\C3H11N1Si1\OHZDE\08-Apr-2025\0\\#t h
 f aug-cc-pvdz iop(5/13=1,5/36=2,99/5=2) pseudo=read geom=check guess=(
 read,tcheck) scf=(maxcycle=1)\\title\\0,1\N,0,-0.706068,1.667389,-0.21
 8949\Si,0,-0.464615,0.047896,0.343499\H,0,-0.182205,2.429377,0.185999\
 H,0,-0.918212,1.854578,-1.188656\C,0,1.104409,-0.798011,-0.286872\C,0,
 2.407776,-0.040729,0.019748\H,0,1.007486,-0.95059,-1.369913\H,0,1.1446
 91,-1.804063,0.151084\H,0,2.398858,0.959108,-0.42491\H,0,3.286107,-0.5
 6434,-0.369525\C,0,-1.958103,-0.981138,-0.14068\H,0,-2.870791,-0.57650

 Normal termination of Gaussian 16 at Tue Apr  8 23:58:46 2025.
