 Gaussian 16, Revision C.01,

 ----------------------------------------------------------------------
 #t hf aug-cc-pvdz symm=none int=(grid=ultrafine) guess=(read,tcheck) s
 table=opt
 ----------------------------------------------------------------------
 -----
 title
 -----
 Symbolic Z-matrix:
 Charge =  0 Multiplicity = 2

 SCF Done:  E(UHF) =  -1081.58559537     A.U. after   17 cycles
 Normal termination of Gaussian 16 at Wed Apr  9 00:29:44 2025.
 Gaussian 16:  ES64L-G16RevC.01  3-Jul-2019

 ----------------------------------------------------------------------
 #t hf aug-cc-pvdz iop(5/13=1,5/36=2,99/5=2) pseudo=read geom=check gue
 ss=(read,tcheck) scf=(maxcycle=1)
 ----------------------------------------------------------------------
 -----
 title
 -----
 Structure from the checkpoint file:  "BDE49_nonexpt_364_mol2.chk"
 Charge =  0 Multiplicity = 2

                         Standard orientation:
 ---------------------------------------------------------------------
 Center     Atomic      Atomic             Coordinates (Angstroms)
 Number     Number       Type             X           Y           Z
 ---------------------------------------------------------------------
      1          9           0        0.854754    1.998703   -0.351999
      2          5           0        0.244028    1.397390    0.627341
      3          6           0       -0.068363   -0.146102    0.663722
      4         17           0        1.187405   -1.164821   -0.139338
      5         17           0       -1.673962   -0.219308   -0.190061
      6          1           0       -0.231273   -0.568466    1.648736
 ---------------------------------------------------------------------

 SCF Done:  E(UHF) =  -1081.68416254     A.U. after    2 cycles

 The electronic state is 2-A.
 Alpha  occ. eigenvalues -- -103.69076-103.68450 -26.16891 -11.38103 -10.72309
 Alpha  occ. eigenvalues --  -10.71697  -8.38033  -8.37701  -8.37695  -8.37499
 Alpha  occ. eigenvalues --   -8.37084  -8.37075  -7.74200  -1.71508  -1.22339
 Alpha  occ. eigenvalues --   -1.15276  -0.93676  -0.87433  -0.80211  -0.77096
 Alpha  occ. eigenvalues --   -0.68151  -0.63572  -0.60443  -0.49971  -0.49511
 Alpha  occ. eigenvalues --   -0.47464  -0.47103  -0.38689
 Alpha virt. eigenvalues --    0.03352   0.04042   0.05373   0.06079   0.07696
 Alpha virt. eigenvalues --    0.08063   0.10050   0.11174   0.13095   0.13954
 Alpha virt. eigenvalues --    0.14759   0.16739   0.17216   0.17944   0.18237

  Beta  occ. eigenvalues -- -103.69074-103.68394 -26.16576 -11.37809 -10.72307
  Beta  occ. eigenvalues --  -10.71638  -8.38009  -8.37717  -8.37692  -8.37276
  Beta  occ. eigenvalues --   -8.37053  -8.37036  -7.72204  -1.70583  -1.21991
  Beta  occ. eigenvalues --   -1.15014  -0.92358  -0.86510  -0.77385  -0.77201
  Beta  occ. eigenvalues --   -0.66588  -0.62270  -0.59998  -0.49852  -0.48994
  Beta  occ. eigenvalues --   -0.47250  -0.46312
  Beta virt. eigenvalues --    0.02312   0.04847   0.04898   0.05824   0.06801
  Beta virt. eigenvalues --    0.08120   0.08708   0.11786   0.12799   0.14086
  Beta virt. eigenvalues --    0.14845   0.15222   0.16947   0.17894   0.18379

 Mulliken charges and spin densities:
               1          2
     1  F   -0.291036  -0.042929
     2  B    0.615799   1.012014
     3  C   -0.134252  -0.000930
     4  Cl  -0.133744   0.039793
     5  Cl  -0.121095   0.002933
     6  H    0.064328  -0.010881
 Sum of Mulliken charges =  -0.00000   1.00000

 Dipole moment (field-independent basis, Debye):
    X=             -0.1826    Y=             -0.0290    Z=              1.9480  Tot=              1.9568
                          Isotropic Fermi Contact Couplings
        Atom                 a.u.       MegaHertz       Gauss      10(-4) cm-1
     1  F(19)              0.07080     297.86744     106.28651      99.35788
     2  B(11)              0.37955     544.41143     194.25953     181.59611
     3  C(13)              0.11509     129.38688      46.16846      43.15882
     4  Cl(35)             0.01417       6.21395       2.21729       2.07275
     5  Cl(35)            -0.00431      -1.89195      -0.67509      -0.63109
     6  H(1)               0.00016       0.69823       0.24914       0.23290
 --------------------------------------------------------
       Center         ----  Spin Dipole Couplings  ----

 1\1\GINC-SE184\SP\UHF\Aug-CC-pVDZ\C1H1B1Cl2F1(2)\OHZDE\09-Apr-2025\0\\
 #t hf aug-cc-pvdz iop(5/13=1,5/36=2,99/5=2) pseudo=read geom=check gue
 ss=(read,tcheck) scf=(maxcycle=1)\\title\\0,2\F,0,0.854756,1.998702,-0
 .351999\B,0,0.244029,1.39739,0.627341\C,0,-0.068363,-0.146102,0.663722
 \Cl,0,1.187404,-1.164822,-0.139338\Cl,0,-1.673962,-0.219307,-0.190061\
 H,0,-0.231273,-0.568466,1.648736\\Version=ES64L-G16RevC.01\State=2-A\H
 F=-1081.6841625\S2=0.754026\S2-1=0.\S2A=0.750009\RMSD=3.675e-03\Dipole
 =-0.0718527,-0.0114195,0.7663994\Quadrupole=-0.311858,-1.4989623,1.810

 Normal termination of Gaussian 16 at Wed Apr  9 00:29:47 2025.
