 Gaussian 16, Revision C.01,

 ----------------------------------------------------------------------
 #t hf aug-cc-pvdz symm=none int=(grid=ultrafine) guess=(read,tcheck) s
 table=opt
 ----------------------------------------------------------------------
 -----
 title
 -----
 Symbolic Z-matrix:
 Charge =  0 Multiplicity = 2

 SCF Done:  E(UHF) =  -573.365682927     A.U. after   19 cycles
 Normal termination of Gaussian 16 at Tue Apr  8 23:14:48 2025.
 Gaussian 16:  ES64L-G16RevC.01  3-Jul-2019

 ----------------------------------------------------------------------
 #t hf aug-cc-pvdz iop(5/13=1,5/36=2,99/5=2) pseudo=read geom=check gue
 ss=(read,tcheck) scf=(maxcycle=1)
 ----------------------------------------------------------------------
 -----
 title
 -----
 Structure from the checkpoint file:  "BDE49_nonexpt_1024_mol2.chk"
 Charge =  0 Multiplicity = 2

                         Standard orientation:
 ---------------------------------------------------------------------
 Center     Atomic      Atomic             Coordinates (Angstroms)
 Number     Number       Type             X           Y           Z
 ---------------------------------------------------------------------
      1          8           0       -1.606850   -0.432950   -0.000034
      2          6           0       -0.678526    0.485888   -0.000007
      3         17           0        1.085457   -0.100819    0.000018
      4          1           0       -0.763408    1.131081    0.891137
      5          1           0       -0.763398    1.131114   -0.891125
 ---------------------------------------------------------------------

 SCF Done:  E(UHF) =  -573.421623788     A.U. after    2 cycles

 The electronic state is 2-A.
 Alpha  occ. eigenvalues -- -103.65399 -20.68852 -11.38563 -10.68706  -8.34387
 Alpha  occ. eigenvalues --   -8.34126  -8.34122  -1.45172  -1.14619  -0.92383
 Alpha  occ. eigenvalues --   -0.79213  -0.72240  -0.67966  -0.58855  -0.50764
 Alpha  occ. eigenvalues --   -0.46845  -0.45619
 Alpha virt. eigenvalues --    0.03223   0.05173   0.07798   0.08761   0.12904
 Alpha virt. eigenvalues --    0.14943   0.15076   0.16478   0.16479   0.20268
 Alpha virt. eigenvalues --    0.20902   0.23732   0.26964   0.28469   0.29574

  Beta  occ. eigenvalues -- -103.65420 -20.64768 -11.38923 -10.68729  -8.34448
  Beta  occ. eigenvalues --   -8.34150  -8.34139  -1.32959  -1.13910  -0.88974
  Beta  occ. eigenvalues --   -0.68561  -0.66274  -0.65207  -0.48427  -0.46766
  Beta  occ. eigenvalues --   -0.46015
  Beta virt. eigenvalues --    0.03246   0.03631   0.05240   0.07849   0.08867
  Beta virt. eigenvalues --    0.12886   0.14973   0.15605   0.16502   0.16527
  Beta virt. eigenvalues --    0.20386   0.20801   0.27259   0.27879   0.28620

 Mulliken charges and spin densities:
               1          2
     1  O   -0.285977   1.028549
     2  C    0.394645  -0.171993
     3  Cl  -0.191573  -0.012703
     4  H    0.041458   0.078074
     5  H    0.041447   0.078073
 Sum of Mulliken charges =  -0.00000   1.00000

 Dipole moment (field-independent basis, Debye):
    X=             -1.2532    Y=              2.0631    Z=              0.0000  Tot=              2.4139
                          Isotropic Fermi Contact Couplings
        Atom                 a.u.       MegaHertz       Gauss      10(-4) cm-1
     1  O(17)              0.28632    -173.56385     -61.93190     -57.89467
     2  C(13)             -0.07096     -79.77453     -28.46553     -26.60992
     3  Cl(35)            -0.01713      -7.50874      -2.67931      -2.50465
     4  H(1)               0.03347     149.61891      53.38775      49.90750
     5  H(1)               0.03347     149.61582      53.38664      49.90647
 --------------------------------------------------------
       Center         ----  Spin Dipole Couplings  ----
                      3XX-RR        3YY-RR        3ZZ-RR

 Normal termination of Gaussian 16 at Tue Apr  8 23:14:51 2025.
