 Gaussian 16, Revision C.01,

 ----------------------------------------------------------------------
 #t hf aug-cc-pvdz symm=none int=(grid=ultrafine) guess=(read,tcheck) s
 table=(opt,rrhf)
 ----------------------------------------------------------------------
 -----
 title
 -----
 Symbolic Z-matrix:
 Charge =  0 Multiplicity = 1

 SCF Done:  E(RHF) =  -1018.84737122     A.U. after   15 cycles
 Normal termination of Gaussian 16 at Tue Apr  8 23:46:26 2025.
 Gaussian 16:  ES64L-G16RevC.01  3-Jul-2019

 ----------------------------------------------------------------------
 #t hf aug-cc-pvdz iop(5/13=1,5/36=2,99/5=2) pseudo=read geom=check gue
 ss=(read,tcheck) scf=(maxcycle=1)
 ----------------------------------------------------------------------
 -----
 title
 -----
 Structure from the checkpoint file:  "BDE49_nonexpt_1774_mol1.chk"
 Charge =  0 Multiplicity = 1

                         Standard orientation:
 ---------------------------------------------------------------------
 Center     Atomic      Atomic             Coordinates (Angstroms)
 Number     Number       Type             X           Y           Z
 ---------------------------------------------------------------------
      1          6           0       -0.530990   -1.201861   -0.283885
      2          6           0       -1.890308   -1.200087    0.009912
      3          6           0       -2.593489    0.000001    0.160104
      4          6           0       -1.890308    1.200089    0.009913
      5          6           0       -0.530989    1.201862   -0.283883
      6          6           0        0.178215    0.000001   -0.435673
      7          1           0       -0.018147   -2.152324   -0.393863
      8          1           0       -2.414166   -2.143617    0.125508
      9         14           0        1.995880    0.000002   -0.818204
     10          6           0       -4.074456   -0.000002    0.447819
     11          1           0       -0.018146    2.152326   -0.393859
     12         17           0        3.150368   -0.000002    0.930150
     13          1           0       -4.370209   -0.884792    1.015790
     14          1           0       -4.651899   -0.000110   -0.483223
     15          1           0       -4.370248    0.884888    1.015613
     16          1           0       -2.414166    2.143618    0.125511
     17          1           0        2.376182    1.219433   -1.557504
     18          1           0        2.376182   -1.219426   -1.557509
 ---------------------------------------------------------------------

 SCF Done:  E(RHF) =  -1018.96886090     A.U. after    2 cycles

 The electronic state is 1-A.
 Alpha  occ. eigenvalues -- -103.64081 -69.10964 -11.26708 -11.26106 -11.26102
 Alpha  occ. eigenvalues --  -11.24907 -11.24903 -11.24493 -11.24093 -10.67511
 Alpha  occ. eigenvalues --   -8.33202  -8.32982  -8.32981  -6.85864  -3.96656
 Alpha  occ. eigenvalues --   -3.96547  -3.96546  -1.15453  -1.12323  -1.04792
 Alpha  occ. eigenvalues --   -1.01938  -0.94088  -0.83970  -0.81218  -0.72815
 Alpha  occ. eigenvalues --   -0.66346  -0.65453  -0.63782  -0.59925  -0.58836
 Alpha  occ. eigenvalues --   -0.55474  -0.55021  -0.53148  -0.52087  -0.49951
 Alpha  occ. eigenvalues --   -0.49737  -0.48855  -0.44887  -0.44332  -0.35038
 Alpha  occ. eigenvalues --   -0.34165
 Alpha virt. eigenvalues --    0.03086   0.03973   0.03985   0.05053   0.05370
 Alpha virt. eigenvalues --    0.05813   0.06089   0.07180   0.07990   0.08673
 Alpha virt. eigenvalues --    0.08851   0.09392   0.09867   0.10618   0.11165

 Mulliken charges:
               1
     1  C    0.429742
     2  C    1.089523
     3  C   -0.433041
     4  C    1.089499
     5  C    0.429731
     6  C   -0.809644
     7  H   -0.621995
     8  H   -0.579821
     9  Si   0.763071
    10  C    0.527465
    11  H   -0.621990
    12  Cl  -0.582960
    13  H   -0.084146
    14  H    0.088785
    15  H   -0.084207
    16  H   -0.579821
    17  H   -0.010095
    18  H   -0.010095
 Sum of Mulliken charges =   0.00000

 Dipole moment (field-independent basis, Debye):
    X=             -2.9876    Y=             -0.0000    Z=             -1.1170  Tot=              3.1896

 Test job not archived.
 1\1\GINC-SE419\SP\RHF\Aug-CC-pVDZ\C7H9Cl1Si1\OHZDE\08-Apr-2025\0\\#t h
 f aug-cc-pvdz iop(5/13=1,5/36=2,99/5=2) pseudo=read geom=check guess=(
 read,tcheck) scf=(maxcycle=1)\\title\\0,1\C,0,-0.53099,-1.201861,-0.28
 3885\C,0,-1.890308,-1.200087,0.009912\C,0,-2.593489,0.000001,0.160104\
 C,0,-1.890308,1.200089,0.009913\C,0,-0.530989,1.201862,-0.283883\C,0,0
 .178215,0.000001,-0.435673\H,0,-0.018147,-2.152324,-0.393863\H,0,-2.41
 4166,-2.143617,0.125508\Si,0,1.99588,0.000002,-0.818204\C,0,-4.074456,
 -0.000002,0.447819\H,0,-0.018146,2.152326,-0.393859\Cl,0,3.150368,-0.0

 Normal termination of Gaussian 16 at Tue Apr  8 23:46:34 2025.
