 Gaussian 16, Revision C.01,

 ----------------------------------------------------------------------
 #t hf aug-cc-pvdz symm=none int=(grid=ultrafine) guess=(read,tcheck) s
 table=opt
 ----------------------------------------------------------------------
 -----
 title
 -----
 Symbolic Z-matrix:
 Charge =  0 Multiplicity = 2

 SCF Done:  E(UHF) =  -765.683453530     A.U. after   16 cycles
 Normal termination of Gaussian 16 at Wed Apr  9 00:30:24 2025.
 Gaussian 16:  ES64L-G16RevC.01  3-Jul-2019

 ----------------------------------------------------------------------
 #t hf aug-cc-pvdz iop(5/13=1,5/36=2,99/5=2) pseudo=read geom=check gue
 ss=(read,tcheck) scf=(maxcycle=1)
 ----------------------------------------------------------------------
 -----
 title
 -----
 Structure from the checkpoint file:  "BDE49_nonexpt_380_mol2.chk"
 Charge =  0 Multiplicity = 2

                         Standard orientation:
 ---------------------------------------------------------------------
 Center     Atomic      Atomic             Coordinates (Angstroms)
 Number     Number       Type             X           Y           Z
 ---------------------------------------------------------------------
      1          9           0        3.073416    0.114799    0.001554
      2          5           0        1.871629   -0.414052   -0.057807
      3         15           0       -0.771663   -0.055498   -0.114523
      4          8           0       -1.166330   -0.890585   -1.236360
      5          8           0       -0.968559   -0.695415    1.337770
      6          1           0       -1.570894   -1.448929    1.314893
      7          8           0       -1.485299    1.358375   -0.073962
      8          1           0       -1.153038    1.958543    0.604644
      9          8           0        0.780186    0.397616   -0.018279
 ---------------------------------------------------------------------

 SCF Done:  E(UHF) =  -765.912187771     A.U. after    2 cycles

 The electronic state is 2-A.
 Alpha  occ. eigenvalues --  -81.47646 -26.15718 -20.64448 -20.64111 -20.63885
 Alpha  occ. eigenvalues --  -20.54912  -7.95496  -7.76425  -5.10203  -5.10078
 Alpha  occ. eigenvalues --   -5.10047  -1.70335  -1.42757  -1.38135  -1.37593
 Alpha  occ. eigenvalues --   -1.28796  -0.91629  -0.86039  -0.81667  -0.80771
 Alpha  occ. eigenvalues --   -0.76863  -0.76458  -0.71167  -0.68965  -0.65352
 Alpha  occ. eigenvalues --   -0.63743  -0.62290  -0.59677  -0.57727  -0.51992
 Alpha  occ. eigenvalues --   -0.51526  -0.41037
 Alpha virt. eigenvalues --    0.02673   0.04139   0.05361   0.05589   0.06675
 Alpha virt. eigenvalues --    0.09167   0.09492   0.11076   0.11652   0.12137
 Alpha virt. eigenvalues --    0.13918   0.17781   0.18029   0.21094   0.22056

  Beta  occ. eigenvalues --  -81.47646 -26.15372 -20.64125 -20.64113 -20.63883
  Beta  occ. eigenvalues --  -20.54918  -7.95495  -7.74199  -5.10205  -5.10076
  Beta  occ. eigenvalues --   -5.10046  -1.69227  -1.42364  -1.37622  -1.37369
  Beta  occ. eigenvalues --   -1.28803  -0.91008  -0.84988  -0.81240  -0.79781
  Beta  occ. eigenvalues --   -0.76422  -0.74509  -0.70403  -0.68627  -0.64902
  Beta  occ. eigenvalues --   -0.63236  -0.62189  -0.59616  -0.57597  -0.51944
  Beta  occ. eigenvalues --   -0.51500
  Beta virt. eigenvalues --    0.02097   0.04027   0.04405   0.05883   0.06565
  Beta virt. eigenvalues --    0.07194   0.09533   0.10416   0.11564   0.13841
  Beta virt. eigenvalues --    0.14328   0.16583   0.18008   0.18152   0.21184

 Mulliken charges and spin densities:
               1          2
     1  F   -0.430924  -0.049795
     2  B    0.507620   1.039782
     3  P    2.506686  -0.006089
     4  O   -0.798069   0.000845
     5  O   -0.677195  -0.002045
     6  H    0.168993   0.000164
     7  O   -0.632993  -0.002161
     8  H    0.157265  -0.000358
     9  O   -0.801382   0.019656
 Sum of Mulliken charges =  -0.00000   1.00000

 Dipole moment (field-independent basis, Debye):
    X=             -0.5602    Y=              0.7542    Z=              3.4112  Tot=              3.5382
                          Isotropic Fermi Contact Couplings
        Atom                 a.u.       MegaHertz       Gauss      10(-4) cm-1
     1  F(19)              0.09948     418.55721     149.35162     139.61566
     2  B(11)              0.48610     697.24693     248.79504     232.57654
     3  P(31)              0.00140       2.53419       0.90426       0.84531
     4  O(17)              0.00004      -0.02684      -0.00958      -0.00895
     5  O(17)             -0.00076       0.46184       0.16479       0.15405
     6  H(1)              -0.00004      -0.19379      -0.06915      -0.06464
     7  O(17)              0.00097      -0.58643      -0.20925      -0.19561
     8  H(1)              -0.00002      -0.10605      -0.03784      -0.03538

 Normal termination of Gaussian 16 at Wed Apr  9 00:30:28 2025.
