 Gaussian 16, Revision C.01,

 ----------------------------------------------------------------------
 #t hf aug-cc-pvdz symm=none int=(grid=ultrafine) guess=(read,tcheck) s
 table=(opt,rrhf)
 ----------------------------------------------------------------------
 -----
 title
 -----
 Symbolic Z-matrix:
 Charge =  0 Multiplicity = 1

 SCF Done:  E(RHF) =  -896.495957832     A.U. after   16 cycles
 Normal termination of Gaussian 16 at Tue Apr  8 23:07:39 2025.
 Gaussian 16:  ES64L-G16RevC.01  3-Jul-2019

 ----------------------------------------------------------------------
 #t hf aug-cc-pvdz iop(5/13=1,5/36=2,99/5=2) pseudo=read geom=check gue
 ss=(read,tcheck) scf=(maxcycle=1)
 ----------------------------------------------------------------------
 -----
 title
 -----
 Structure from the checkpoint file:  "BDE49_expt_486_mol1.chk"
 Charge =  0 Multiplicity = 1

                         Standard orientation:
 ---------------------------------------------------------------------
 Center     Atomic      Atomic             Coordinates (Angstroms)
 Number     Number       Type             X           Y           Z
 ---------------------------------------------------------------------
      1          6           0        1.319517   -1.104603    0.000001
      2          6           0       -0.060612   -0.925872   -0.000014
      3          6           0        2.168788   -0.004662   -0.000001
      4          6           0        1.652576    1.287012   -0.000017
      5          6           0        0.276326    1.467426   -0.000032
      6          6           0       -0.595217    0.369328   -0.000029
      7          1           0       -0.725451   -1.775160   -0.000014
      8          1           0        1.732107   -2.105360    0.000013
      9          1           0        2.318052    2.140443   -0.000018
     10          1           0       -0.124601    2.476349   -0.000044
     11          7           0       -1.978954    0.637382   -0.000046
     12          6           0       -3.032770   -0.252749   -0.000017
     13          8           0       -2.902941   -1.461435   -0.000008
     14          6           0       -4.405956    0.399968    0.000077
     15          1           0       -4.386957    1.491790   -0.000574
     16          1           0       -4.951370    0.054265    0.880438
     17          1           0       -4.951974    0.053199   -0.879479
     18          1           0       -2.222791    1.615481   -0.000049
     19         17           0        3.909016   -0.243311    0.000018
 ---------------------------------------------------------------------

 SCF Done:  E(RHF) =  -896.645986136     A.U. after    2 cycles

 The electronic state is 1-A.
 Alpha  occ. eigenvalues -- -103.66387 -20.55113 -15.68102 -11.38525 -11.31193
 Alpha  occ. eigenvalues --  -11.30852 -11.26708 -11.26347 -11.26283 -11.26210
 Alpha  occ. eigenvalues --  -11.25129 -10.69651  -8.35388  -8.35086  -8.35066
 Alpha  occ. eigenvalues --   -1.36525  -1.23824  -1.19352  -1.12789  -1.03213
 Alpha  occ. eigenvalues --   -1.03100  -0.98004  -0.87136  -0.84670  -0.79337
 Alpha  occ. eigenvalues --   -0.74289  -0.70162  -0.67001  -0.64819  -0.63997
 Alpha  occ. eigenvalues --   -0.63481  -0.61186  -0.60627  -0.57656  -0.57010
 Alpha  occ. eigenvalues --   -0.54036  -0.54029  -0.52607  -0.49670  -0.46678
 Alpha  occ. eigenvalues --   -0.44979  -0.44237  -0.36003  -0.31789
 Alpha virt. eigenvalues --    0.02107   0.03556   0.04466   0.05365   0.05652
 Alpha virt. eigenvalues --    0.06183   0.07719   0.08240   0.08486   0.09404
 Alpha virt. eigenvalues --    0.10202   0.10657   0.11581   0.11914   0.12556

 Mulliken charges:
               1
     1  C    0.778139
     2  C    0.773473
     3  C   -0.216954
     4  C    0.704136
     5  C    1.115811
     6  C   -0.070325
     7  H   -0.646146
     8  H   -0.447201
     9  H   -0.440276
    10  H   -0.716822
    11  N   -0.411563
    12  C    0.080331
    13  O   -0.540788
    14  C    0.549049
    15  H   -0.190738
    16  H    0.041506
    17  H    0.041412
    18  H   -0.035757
    19  Cl  -0.367286
 Sum of Mulliken charges =   0.00000

 Dipole moment (field-independent basis, Debye):
    X=             -2.8846    Y=              4.1918    Z=              0.0001  Tot=              5.0885

 Test job not archived.
 1\1\GINC-SE074\SP\RHF\Aug-CC-pVDZ\C8H8Cl1N1O1\OHZDE\08-Apr-2025\0\\#t
 hf aug-cc-pvdz iop(5/13=1,5/36=2,99/5=2) pseudo=read geom=check guess=
 (read,tcheck) scf=(maxcycle=1)\\title\\0,1\C,0,1.319517,-1.104603,0.00
 0001\C,0,-0.060612,-0.925872,-0.000014\C,0,2.168788,-0.004662,-0.00000
 1\C,0,1.652576,1.287012,-0.000017\C,0,0.276326,1.467426,-0.000032\C,0,
 -0.595217,0.369328,-0.000029\H,0,-0.725451,-1.77516,-0.000014\H,0,1.73
 2107,-2.10536,0.000013\H,0,2.318052,2.140443,-0.000018\H,0,-0.124601,2
 .476349,-0.000044\N,0,-1.978954,0.637382,-0.000046\C,0,-3.03277,-0.252

 Normal termination of Gaussian 16 at Tue Apr  8 23:07:51 2025.
