 Gaussian 16, Revision C.01,

 ----------------------------------------------------------------------
 #t hf aug-cc-pvdz symm=none int=(grid=ultrafine) guess=(read,tcheck) s
 table=(opt,rrhf)
 ----------------------------------------------------------------------
 -----
 title
 -----
 Symbolic Z-matrix:
 Charge =  0 Multiplicity = 1

 SCF Done:  E(RHF) =  -657.378161181     A.U. after   16 cycles
 Normal termination of Gaussian 16 at Wed Apr  9 00:34:12 2025.
 Gaussian 16:  ES64L-G16RevC.01  3-Jul-2019

 ----------------------------------------------------------------------
 #t hf aug-cc-pvdz iop(5/13=1,5/36=2,99/5=2) pseudo=read geom=check gue
 ss=(read,tcheck) scf=(maxcycle=1)
 ----------------------------------------------------------------------
 -----
 title
 -----
 Structure from the checkpoint file:  "BDE49_nonexpt_436_mol1.chk"
 Charge =  0 Multiplicity = 1

                         Standard orientation:
 ---------------------------------------------------------------------
 Center     Atomic      Atomic             Coordinates (Angstroms)
 Number     Number       Type             X           Y           Z
 ---------------------------------------------------------------------
      1          9           0        3.579818    1.130746   -0.000238
      2          9           0        3.579818   -1.130746   -0.000240
      3          5           0        2.885811    0.000000    0.000310
      4          6           0        1.336119    0.000000    0.000173
      5          6           0        0.622508   -1.209344    0.000115
      6          6           0       -0.766857   -1.219009    0.000007
      7          6           0       -1.435217    0.000000   -0.000045
      8          6           0        0.622508    1.209344    0.000118
      9          1           0        1.162088    2.149043    0.000164
     10          6           0       -0.766857    1.219009    0.000010
     11          1           0       -1.335467    2.138175   -0.000033
     12          7           0       -2.921193    0.000000   -0.000166
     13          8           0       -3.483994   -1.084603    0.000086
     14          8           0       -3.483994    1.084603    0.000088
     15          1           0        1.162088   -2.149043    0.000159
     16          1           0       -1.335467   -2.138175   -0.000038
 ---------------------------------------------------------------------

 SCF Done:  E(RHF) =  -657.594895796     A.U. after    2 cycles

 The electronic state is 1-A.
 Alpha  occ. eigenvalues --  -26.15446 -26.15438 -20.63136 -20.63127 -15.93329
 Alpha  occ. eigenvalues --  -11.34141 -11.29537 -11.29532 -11.29376 -11.29366
 Alpha  occ. eigenvalues --  -11.27734  -7.75766  -1.70727  -1.68501  -1.56409
 Alpha  occ. eigenvalues --   -1.38023  -1.20275  -1.09695  -1.06108  -0.97104
 Alpha  occ. eigenvalues --   -0.89368  -0.88449  -0.84759  -0.83327  -0.80382
 Alpha  occ. eigenvalues --   -0.79762  -0.78450  -0.75242  -0.73997  -0.73742
 Alpha  occ. eigenvalues --   -0.73228  -0.69663  -0.67501  -0.66382  -0.64162
 Alpha  occ. eigenvalues --   -0.55408  -0.55352  -0.54531  -0.52836  -0.52173
 Alpha  occ. eigenvalues --   -0.48684  -0.40078  -0.38417
 Alpha virt. eigenvalues --    0.00454   0.02700   0.03561   0.04696   0.04729
 Alpha virt. eigenvalues --    0.05801   0.06317   0.06924   0.07481   0.08492
 Alpha virt. eigenvalues --    0.09606   0.10922   0.11772   0.12616   0.12659

 Mulliken charges:
               1
     1  F   -0.521547
     2  F   -0.521547
     3  B    0.932387
     4  C    0.452913
     5  C    0.516932
     6  C    0.259045
     7  C    1.166312
     8  C    0.516932
     9  H   -0.576226
    10  C    0.259045
    11  H   -0.451357
    12  N    0.094236
    13  O   -0.549770
    14  O   -0.549770
    15  H   -0.576226
    16  H   -0.451357
 Sum of Mulliken charges =  -0.00000

 Dipole moment (field-independent basis, Debye):
    X=              2.5707    Y=              0.0000    Z=              0.0014  Tot=              2.5707

 Test job not archived.
 1\1\GINC-SE329\SP\RHF\Aug-CC-pVDZ\C6H4B1F2N1O2\OHZDE\09-Apr-2025\0\\#t
  hf aug-cc-pvdz iop(5/13=1,5/36=2,99/5=2) pseudo=read geom=check guess
 =(read,tcheck) scf=(maxcycle=1)\\title\\0,1\F,0,3.579818,1.130746,-0.0
 00238\F,0,3.579818,-1.130746,-0.00024\B,0,2.885811,0.,0.00031\C,0,1.33
 6119,0.,0.000173\C,0,0.622508,-1.209344,0.000115\C,0,-0.766857,-1.2190
 09,0.000007\C,0,-1.435217,0.,-0.000045\C,0,0.622508,1.209344,0.000118\
 H,0,1.162088,2.149043,0.000164\C,0,-0.766857,1.219009,0.00001\H,0,-1.3
 35467,2.138175,-0.000033\N,0,-2.921193,0.,-0.000166\O,0,-3.483994,-1.0

 Normal termination of Gaussian 16 at Wed Apr  9 00:34:20 2025.
