 Gaussian 16, Revision C.01,

 ----------------------------------------------------------------------
 #t hf aug-cc-pvdz symm=none int=(grid=ultrafine) guess=(read,tcheck) s
 table=opt
 ----------------------------------------------------------------------
 -----
 title
 -----
 Symbolic Z-matrix:
 Charge =  0 Multiplicity = 2

 SCF Done:  E(UHF) =  -496.925051739     A.U. after   15 cycles
 Normal termination of Gaussian 16 at Tue Apr  8 22:57:34 2025.
 Gaussian 16:  ES64L-G16RevC.01  3-Jul-2019

 ----------------------------------------------------------------------
 #t hf aug-cc-pvdz iop(5/13=1,5/36=2,99/5=2) pseudo=read geom=check gue
 ss=(read,tcheck) scf=(maxcycle=1)
 ----------------------------------------------------------------------
 -----
 title
 -----
 Structure from the checkpoint file:  "BDE49_expt_1952_mol2.chk"
 Charge =  0 Multiplicity = 2

                         Standard orientation:
 ---------------------------------------------------------------------
 Center     Atomic      Atomic             Coordinates (Angstroms)
 Number     Number       Type             X           Y           Z
 ---------------------------------------------------------------------
      1         16           0        0.000000    0.000000    0.590216
      2          9           0        0.000000    0.000000   -1.049272
 ---------------------------------------------------------------------

 SCF Done:  E(UHF) =  -496.982243649     A.U. after    2 cycles

 Unable to determine electronic state:  an orbital has unidentified symmetry.
 Alpha  occ. eigenvalues --  -93.65566 -26.15951  -8.94403  -6.29612  -6.28133
 Alpha  occ. eigenvalues --   -6.27364  -1.67764  -0.99516  -0.77637  -0.76431
 Alpha  occ. eigenvalues --   -0.70546  -0.48375  -0.41800
 Alpha virt. eigenvalues --    0.04324   0.10216   0.10462   0.11456   0.15463
 Alpha virt. eigenvalues --    0.25661   0.27669   0.28316   0.33086   0.33159
 Alpha virt. eigenvalues --    0.42031   0.44640   0.45242   0.55380   0.75418

  Beta  occ. eigenvalues --  -93.64647 -26.15483  -8.93383  -6.27711  -6.26808
  Beta  occ. eigenvalues --   -6.25473  -1.66447  -0.92370  -0.75926  -0.72810
  Beta  occ. eigenvalues --   -0.66736  -0.39657
  Beta virt. eigenvalues --   -0.01261   0.05462   0.10610   0.11588   0.12999
  Beta virt. eigenvalues --    0.16518   0.26043   0.28255   0.28342   0.37089
  Beta virt. eigenvalues --    0.37207   0.44862   0.45467   0.46156   0.56696

 Mulliken charges and spin densities:
               1          2
     1  S    0.555301   0.987155
     2  F   -0.555301   0.012845
 Sum of Mulliken charges =  -0.00000   1.00000

 Dipole moment (field-independent basis, Debye):
    X=             -0.0000    Y=              0.0000    Z=              1.7439  Tot=              1.7439
                          Isotropic Fermi Contact Couplings
        Atom                 a.u.       MegaHertz       Gauss      10(-4) cm-1
     1  S(33)              0.21106      72.49235      25.86707      24.18085
     2  F(19)              0.04640     195.23193      69.66361      65.12236
 --------------------------------------------------------
       Center         ----  Spin Dipole Couplings  ----
                      3XX-RR        3YY-RR        3ZZ-RR
 --------------------------------------------------------
     1   Atom        3.616873     -1.001337     -2.615536
     2   Atom        0.373083     -0.108083     -0.265000

 Normal termination of Gaussian 16 at Tue Apr  8 22:57:35 2025.
