 Gaussian 16, Revision C.01,

 ----------------------------------------------------------------------
 #t hf aug-cc-pvdz symm=none int=(grid=ultrafine) guess=(read,tcheck) s
 table=(opt,rrhf)
 ----------------------------------------------------------------------
 -----
 title
 -----
 Symbolic Z-matrix:
 Charge =  0 Multiplicity = 1

 SCF Done:  E(RHF) =  -307.022603113     A.U. after   11 cycles

 1\1\GINC-SE048\Stability\RHF\Aug-CC-pVDZ\C4H10O2\OHZDE\08-Apr-2025\0\\
 #t hf aug-cc-pvdz symm=none int=(grid=ultrafine) guess=(read,tcheck) s
 table=(opt,rrhf)\\title\\0,1\C,0,0.644737,-0.400995,0.000001\O,0,1.719
 943,0.517456,-0.000002\C,0,-0.644737,0.400995,-0.000001\C,0,2.983223,-
 0.113711,-0.000001\H,0,0.676533,-1.048506,0.888778\H,0,0.676532,-1.048
 51,-0.888774\H,0,3.121879,-0.741716,0.892142\H,0,3.738232,0.673156,-0.
 000003\H,0,3.121879,-0.74172,-0.892142\O,0,-1.719943,-0.517456,0.00000
 2\H,0,-0.676533,1.048506,-0.888778\H,0,-0.676532,1.04851,0.888774\C,0,

 Normal termination of Gaussian 16 at Tue Apr  8 22:31:41 2025.
 Gaussian 16:  ES64L-G16RevC.01  3-Jul-2019

 ----------------------------------------------------------------------
 #t hf aug-cc-pvdz iop(5/13=1,5/36=2,99/5=2) pseudo=read geom=check gue
 ss=(read,tcheck) scf=(maxcycle=1)
 ----------------------------------------------------------------------
 -----
 title
 -----
 Structure from the checkpoint file:  "BDE49_expt_1074_mol1.chk"
 Charge =  0 Multiplicity = 1

                         Standard orientation:
 ---------------------------------------------------------------------
 Center     Atomic      Atomic             Coordinates (Angstroms)
 Number     Number       Type             X           Y           Z
 ---------------------------------------------------------------------
      1          6           0       -0.644737    0.400995    0.000001
      2          8           0       -1.719943   -0.517456   -0.000002
      3          6           0        0.644737   -0.400995   -0.000001
      4          6           0       -2.983223    0.113711   -0.000001
      5          1           0       -0.676533    1.048506    0.888778
      6          1           0       -0.676532    1.048510   -0.888774
      7          1           0       -3.121879    0.741716    0.892142
      8          1           0       -3.738232   -0.673156   -0.000003
      9          1           0       -3.121879    0.741720   -0.892142
     10          8           0        1.719943    0.517456    0.000002
     11          1           0        0.676533   -1.048506   -0.888778
     12          1           0        0.676532   -1.048510    0.888774
     13          6           0        2.983223   -0.113711    0.000001
     14          1           0        3.738232    0.673156    0.000003
     15          1           0        3.121880   -0.741716   -0.892142
     16          1           0        3.121879   -0.741719    0.892142
 ---------------------------------------------------------------------

 SCF Done:  E(RHF) =  -307.124961199     A.U. after    2 cycles

 The electronic state is 1-A.
 Alpha  occ. eigenvalues --  -20.57207 -20.57206 -11.28360 -11.28353 -11.28333
 Alpha  occ. eigenvalues --  -11.28283  -1.34077  -1.33011  -1.02488  -0.93708
 Alpha  occ. eigenvalues --   -0.88144  -0.83177  -0.69567  -0.67996  -0.66425
 Alpha  occ. eigenvalues --   -0.65335  -0.62571  -0.60368  -0.57767  -0.51904
 Alpha  occ. eigenvalues --   -0.51280  -0.49924  -0.48116  -0.43884  -0.43640
 Alpha virt. eigenvalues --    0.03620   0.04228   0.05231   0.05281   0.06058
 Alpha virt. eigenvalues --    0.06399   0.06799   0.08353   0.08637   0.08942
 Alpha virt. eigenvalues --    0.10902   0.12200   0.14681   0.15278   0.15360

 Mulliken charges:
               1
     1  C    0.618833
     2  O   -0.626484
     3  C    0.618833
     4  C    0.679655
     5  H   -0.139904
     6  H   -0.139902
     7  H   -0.063788
     8  H   -0.264622
     9  H   -0.063787
    10  O   -0.626484
    11  H   -0.139904
    12  H   -0.139902
    13  C    0.679656
    14  H   -0.264622
    15  H   -0.063788
    16  H   -0.063788
 Sum of Mulliken charges =  -0.00000

 Dipole moment (field-independent basis, Debye):
    X=              0.0000    Y=             -0.0000    Z=              0.0000  Tot=              0.0000

 Test job not archived.
 1\1\GINC-SE048\SP\RHF\Aug-CC-pVDZ\C4H10O2\OHZDE\08-Apr-2025\0\\#t hf a
 ug-cc-pvdz iop(5/13=1,5/36=2,99/5=2) pseudo=read geom=check guess=(rea
 d,tcheck) scf=(maxcycle=1)\\title\\0,1\C,0,0.644737,-0.400995,0.000001
 \O,0,1.719943,0.517456,-0.000002\C,0,-0.644737,0.400995,-0.000001\C,0,
 2.983223,-0.113711,-0.000001\H,0,0.676533,-1.048506,0.888778\H,0,0.676
 532,-1.04851,-0.888774\H,0,3.121879,-0.741716,0.892142\H,0,3.738232,0.
 673156,-0.000003\H,0,3.121879,-0.74172,-0.892142\O,0,-1.719943,-0.5174
 56,0.000002\H,0,-0.676533,1.048506,-0.888778\H,0,-0.676532,1.04851,0.8

 Normal termination of Gaussian 16 at Tue Apr  8 22:31:45 2025.
