 Gaussian 16, Revision C.01,

 ----------------------------------------------------------------------
 #t hf aug-cc-pvdz symm=none int=(grid=ultrafine) guess=(read,tcheck) s
 table=(opt,rrhf)
 ----------------------------------------------------------------------
 -----
 title
 -----
 Symbolic Z-matrix:
 Charge =  0 Multiplicity = 1

 SCF Done:  E(RHF) =  -384.632512549     A.U. after   14 cycles
 Normal termination of Gaussian 16 at Tue Apr  8 23:06:16 2025.
 Gaussian 16:  ES64L-G16RevC.01  3-Jul-2019

 ----------------------------------------------------------------------
 #t hf aug-cc-pvdz iop(5/13=1,5/36=2,99/5=2) pseudo=read geom=check gue
 ss=(read,tcheck) scf=(maxcycle=1)
 ----------------------------------------------------------------------
 -----
 title
 -----
 Structure from the checkpoint file:  "BDE49_expt_457_mol1.chk"
 Charge =  0 Multiplicity = 1

                         Standard orientation:
 ---------------------------------------------------------------------
 Center     Atomic      Atomic             Coordinates (Angstroms)
 Number     Number       Type             X           Y           Z
 ---------------------------------------------------------------------
      1          6           0        0.726488    1.207427   -0.000384
      2          6           0       -0.664607    1.204679   -0.005306
      3          6           0       -1.383677   -0.000000   -0.006251
      4          6           0        1.405780    0.000000    0.001825
      5          6           0        0.726489   -1.207427   -0.000384
      6          6           0       -0.664607   -1.204679   -0.005309
      7          1           0        1.284925    2.135421    0.002284
      8          1           0       -1.200017    2.148345   -0.013184
      9          1           0       -1.200017   -2.148345   -0.013194
     10          1           0        1.284926   -2.135420    0.002283
     11          7           0       -2.781158   -0.000003   -0.075353
     12          1           0       -3.223006   -0.834057    0.283235
     13          1           0       -3.223005    0.834078    0.283175
     14          9           0        2.763235    0.000000    0.008635
 ---------------------------------------------------------------------

 SCF Done:  E(RHF) =  -384.752860681     A.U. after    2 cycles

 The electronic state is 1-A.
 Alpha  occ. eigenvalues --  -26.12373 -15.63654 -11.32479 -11.29574 -11.25584
 Alpha  occ. eigenvalues --  -11.25582 -11.24970 -11.24969  -1.66011  -1.20414
 Alpha  occ. eigenvalues --   -1.13099  -1.02518  -0.99507  -0.86543  -0.84797
 Alpha  occ. eigenvalues --   -0.76302  -0.74545  -0.73890  -0.70375  -0.67705
 Alpha  occ. eigenvalues --   -0.62716  -0.60724  -0.59255  -0.57324  -0.53983
 Alpha  occ. eigenvalues --   -0.50806  -0.45688  -0.35503  -0.30315
 Alpha virt. eigenvalues --    0.02929   0.03614   0.04320   0.05660   0.06237
 Alpha virt. eigenvalues --    0.08757   0.09738   0.10071   0.10651   0.12595
 Alpha virt. eigenvalues --    0.13442   0.13514   0.13860   0.14161   0.14243

 Mulliken charges:
               1
     1  C    0.339954
     2  C    0.717656
     3  C    0.252029
     4  C    0.294056
     5  C    0.339963
     6  C    0.717624
     7  H   -0.408599
     8  H   -0.552102
     9  H   -0.552094
    10  H   -0.408601
    11  N   -0.325577
    12  H   -0.036030
    13  H   -0.036021
    14  F   -0.342259
 Sum of Mulliken charges =  -0.00000

 Dipole moment (field-independent basis, Debye):
    X=             -3.1414    Y=              0.0000    Z=              1.0134  Tot=              3.3008

 Test job not archived.
 1\1\GINC-SE099\SP\RHF\Aug-CC-pVDZ\C6H6F1N1\OHZDE\08-Apr-2025\0\\#t hf
 aug-cc-pvdz iop(5/13=1,5/36=2,99/5=2) pseudo=read geom=check guess=(re
 ad,tcheck) scf=(maxcycle=1)\\title\\0,1\C,0,0.726488,1.207427,-0.00038
 4\C,0,-0.664607,1.204679,-0.005306\C,0,-1.383677,0.,-0.006251\C,0,1.40
 578,0.,0.001825\C,0,0.726489,-1.207427,-0.000384\C,0,-0.664607,-1.2046
 79,-0.005309\H,0,1.284925,2.135421,0.002284\H,0,-1.200017,2.148345,-0.
 013184\H,0,-1.200017,-2.148345,-0.013194\H,0,1.284926,-2.13542,0.00228
 3\N,0,-2.781158,-0.000003,-0.075353\H,0,-3.223006,-0.834057,0.283235\H

 Normal termination of Gaussian 16 at Tue Apr  8 23:06:22 2025.
