 Gaussian 16, Revision C.01,

 ----------------------------------------------------------------------
 #t hf aug-cc-pvdz symm=none int=(grid=ultrafine) guess=(read,tcheck) s
 table=opt
 ----------------------------------------------------------------------
 -----
 title
 -----
 Symbolic Z-matrix:
 Charge =  0 Multiplicity = 2

 SCF Done:  E(UHF) =  -675.865860061     A.U. after   20 cycles
 Normal termination of Gaussian 16 at Wed Apr  9 00:52:40 2025.
 Gaussian 16:  ES64L-G16RevC.01  3-Jul-2019

 ----------------------------------------------------------------------
 #t hf aug-cc-pvdz iop(5/13=1,5/36=2,99/5=2) pseudo=read geom=check gue
 ss=(read,tcheck) scf=(maxcycle=1)
 ----------------------------------------------------------------------
 -----
 title
 -----
 Structure from the checkpoint file:  "BDE49_nonexpt_956_mol2.chk"
 Charge =  0 Multiplicity = 2

                         Standard orientation:
 ---------------------------------------------------------------------
 Center     Atomic      Atomic             Coordinates (Angstroms)
 Number     Number       Type             X           Y           Z
 ---------------------------------------------------------------------
      1          9           0        2.324116    0.754717    0.701711
      2          9           0        2.937890   -0.857068   -0.653845
      3          8           0       -1.635550    2.156697   -0.197105
      4          6           0       -0.436910    1.821950    0.535762
      5          1           0       -0.570638    1.927985    1.616001
      6          1           0        0.422336    2.417974    0.216185
      7          6           0       -0.447450    0.374996   -0.020771
      8          7           0        1.867076   -0.479682    0.172324
      9          6           0        0.796552   -0.103210   -0.766694
     10          1           0        1.172416    0.658463   -1.454905
     11          1           0        0.584928   -1.021283   -1.319485
     12          6           0       -1.576864    0.917924   -0.936017
     13          1           0       -1.267808    1.078029   -1.976217
     14          1           0       -2.521567    0.375009   -0.914898
     15          6           0       -0.929482   -0.642246    1.042078
     16          7           0       -1.083123   -1.991486    0.542462
     17          9           0       -2.217622   -1.963251   -0.273145
     18          1           0       -1.874623   -0.289893    1.471690
     19          1           0       -0.182848   -0.727756    1.836331
 ---------------------------------------------------------------------

 SCF Done:  E(UHF) =  -676.079139153     A.U. after    2 cycles

 The electronic state is 2-A.
 Alpha  occ. eigenvalues --  -26.17471 -26.17235 -26.16095 -20.58556 -15.85245
 Alpha  occ. eigenvalues --  -15.77924 -11.31799 -11.31358 -11.31324 -11.30341
 Alpha  occ. eigenvalues --  -11.29709  -1.72217  -1.68858  -1.66500  -1.36422
 Alpha  occ. eigenvalues --   -1.21467  -1.18311  -1.06574  -0.96280  -0.95072
 Alpha  occ. eigenvalues --   -0.91042  -0.82559  -0.82178  -0.81158  -0.79822
 Alpha  occ. eigenvalues --   -0.78255  -0.76606  -0.75537  -0.72883  -0.71048
 Alpha  occ. eigenvalues --   -0.70509  -0.68836  -0.67586  -0.64814  -0.61458
 Alpha  occ. eigenvalues --   -0.60737  -0.58492  -0.58013  -0.54179  -0.51290
 Alpha  occ. eigenvalues --   -0.49867  -0.48502  -0.48085  -0.44553
 Alpha virt. eigenvalues --    0.03422   0.03556   0.04797   0.05082   0.06129
 Alpha virt. eigenvalues --    0.06353   0.06905   0.08103   0.09613   0.11267
 Alpha virt. eigenvalues --    0.12198   0.12745   0.13224   0.13625   0.14011

  Beta  occ. eigenvalues --  -26.17472 -26.17235 -26.15828 -20.58548 -15.85241
  Beta  occ. eigenvalues --  -15.74381 -11.31808 -11.31367 -11.31345 -11.30669
  Beta  occ. eigenvalues --  -11.29484  -1.72219  -1.67696  -1.66503  -1.36383
  Beta  occ. eigenvalues --   -1.19946  -1.13827  -1.04501  -0.96236  -0.94370
  Beta  occ. eigenvalues --   -0.89545  -0.82454  -0.81975  -0.80941  -0.77745
  Beta  occ. eigenvalues --   -0.76312  -0.75527  -0.73693  -0.72232  -0.71036
  Beta  occ. eigenvalues --   -0.69592  -0.68267  -0.67281  -0.64639  -0.61155
  Beta  occ. eigenvalues --   -0.60601  -0.57949  -0.55195  -0.51679  -0.50737
  Beta  occ. eigenvalues --   -0.48467  -0.47645  -0.44865
  Beta virt. eigenvalues --    0.03420   0.03564   0.04803   0.05085   0.06066
  Beta virt. eigenvalues --    0.06210   0.06871   0.07756   0.08346   0.09751
  Beta virt. eigenvalues --    0.11654   0.12312   0.13070   0.13395   0.13880

 Mulliken charges and spin densities:
               1          2
     1  F   -0.370377   0.000022
     2  F   -0.357596  -0.000131
     3  O   -0.753141   0.001133
     4  C    1.114898  -0.000317
     5  H   -0.189595   0.003679
     6  H   -0.213460   0.000254
     7  C   -1.693729   0.097264
     8  N   -0.030265   0.003363
     9  C    1.453188  -0.005302
    10  H   -0.092043  -0.000487
    11  H   -0.035187  -0.002787
    12  C    1.118351  -0.010775
    13  H   -0.238716   0.000311
    14  H   -0.135136   0.001882
    15  C    1.030104  -0.238264
    16  N   -0.220053   1.113507
    17  F   -0.414778  -0.012719
    18  H    0.001825   0.039103
    19  H    0.025710   0.010266
 Sum of Mulliken charges =  -0.00000   1.00000

 Dipole moment (field-independent basis, Debye):
    X=             -0.4916    Y=              0.4318    Z=              0.0763  Tot=              0.6587
                          Isotropic Fermi Contact Couplings
        Atom                 a.u.       MegaHertz       Gauss      10(-4) cm-1
     1  F(19)              0.00003       0.12246       0.04370       0.04085
     2  F(19)             -0.00014      -0.59908      -0.21377      -0.19983
     3  O(17)              0.00054      -0.32538      -0.11610      -0.10854
     4  C(13)             -0.00275      -3.09607      -1.10476      -1.03274
     5  H(1)               0.00006       0.27668       0.09873       0.09229
     6  H(1)               0.00032       1.42738       0.50933       0.47612
     7  C(13)              0.04406      49.53714      17.67608      16.52381
     8  N(14)              0.00015       0.04762       0.01699       0.01588

 Normal termination of Gaussian 16 at Wed Apr  9 00:52:53 2025.
