 Gaussian 16, Revision C.01,

 ----------------------------------------------------------------------
 #t hf aug-cc-pvdz symm=none int=(grid=ultrafine) guess=(read,tcheck) s
 table=(opt,rrhf)
 ----------------------------------------------------------------------
 -----
 title
 -----
 Symbolic Z-matrix:
 Charge =  0 Multiplicity = 1

 SCF Done:  E(RHF) =  -575.894820837     A.U. after   15 cycles
 Normal termination of Gaussian 16 at Wed Apr  9 00:00:13 2025.
 Gaussian 16:  ES64L-G16RevC.01  3-Jul-2019

 ----------------------------------------------------------------------
 #t hf aug-cc-pvdz iop(5/13=1,5/36=2,99/5=2) pseudo=read geom=check gue
 ss=(read,tcheck) scf=(maxcycle=1)
 ----------------------------------------------------------------------
 -----
 title
 -----
 Structure from the checkpoint file:  "BDE49_nonexpt_2126_mol1.chk"
 Charge =  0 Multiplicity = 1

                         Standard orientation:
 ---------------------------------------------------------------------
 Center     Atomic      Atomic             Coordinates (Angstroms)
 Number     Number       Type             X           Y           Z
 ---------------------------------------------------------------------
      1          6           0        0.064350   -0.196577    0.091309
      2          6           0       -0.839159   -1.251206   -0.110008
      3          6           0       -2.210980   -1.019649   -0.189054
      4          6           0       -2.704497    0.278166   -0.073590
      5          6           0       -1.823137    1.340943    0.119817
      6          6           0       -0.453281    1.104044    0.203100
      7          7           0        2.770714    0.793416   -0.460039
      8          1           0       -2.892898   -1.848396   -0.345725
      9          1           0       -3.771515    0.461581   -0.137995
     10          1           0       -2.204334    2.352795    0.206025
     11          1           0        0.227518    1.936966    0.345210
     12          1           0       -0.466850   -2.266105   -0.213432
     13         14           0        1.903898   -0.521396    0.243722
     14          1           0        2.638849    1.033206   -1.432525
     15          1           0        3.717970    0.982667   -0.166479
     16          1           0        2.142204   -1.866829   -0.350621
     17          1           0        2.359710   -0.574588    1.654265
 ---------------------------------------------------------------------

 SCF Done:  E(RHF) =  -576.009037112     A.U. after    2 cycles

 The electronic state is 1-A.
 Alpha  occ. eigenvalues --  -69.07093 -15.60006 -11.24841 -11.24782 -11.24590
 Alpha  occ. eigenvalues --  -11.24379 -11.24340 -11.22823  -6.82139  -3.92988
 Alpha  occ. eigenvalues --   -3.92894  -3.92867  -1.13894  -1.09874  -1.00826
 Alpha  occ. eigenvalues --   -1.00492  -0.82485  -0.82224  -0.72280  -0.67966
 Alpha  occ. eigenvalues --   -0.65436  -0.62881  -0.62677  -0.59027  -0.56072
 Alpha  occ. eigenvalues --   -0.53701  -0.50792  -0.49402  -0.47559  -0.44981
 Alpha  occ. eigenvalues --   -0.39678  -0.33951  -0.33846
 Alpha virt. eigenvalues --    0.03105   0.03916   0.04210   0.05155   0.05412
 Alpha virt. eigenvalues --    0.05815   0.07152   0.07889   0.08116   0.08533
 Alpha virt. eigenvalues --    0.09687   0.10272   0.10676   0.11364   0.13063

 Mulliken charges:
               1
     1  C   -0.244328
     2  C    0.409966
     3  C    0.614841
     4  C    0.577080
     5  C    0.663564
     6  C    0.428652
     7  N   -0.476273
     8  H   -0.442065
     9  H   -0.441821
    10  H   -0.440227
    11  H   -0.656579
    12  H   -0.600852
    13  Si   0.744749
    14  H   -0.015701
    15  H   -0.036802
    16  H   -0.083049
    17  H   -0.001155
 Sum of Mulliken charges =  -0.00000

 Dipole moment (field-independent basis, Debye):
    X=              0.2560    Y=              0.4859    Z=             -0.8471  Tot=              1.0095

 Test job not archived.
 1\1\GINC-SE341\SP\RHF\Aug-CC-pVDZ\C6H9N1Si1\OHZDE\09-Apr-2025\0\\#t hf
  aug-cc-pvdz iop(5/13=1,5/36=2,99/5=2) pseudo=read geom=check guess=(r
 ead,tcheck) scf=(maxcycle=1)\\title\\0,1\C,0,0.06435,-0.196577,0.09130
 9\C,0,-0.839159,-1.251206,-0.110008\C,0,-2.21098,-1.019649,-0.189054\C
 ,0,-2.704497,0.278166,-0.07359\C,0,-1.823137,1.340943,0.119817\C,0,-0.
 453281,1.104044,0.2031\N,0,2.770714,0.793416,-0.460039\H,0,-2.892898,-
 1.848396,-0.345725\H,0,-3.771515,0.461581,-0.137995\H,0,-2.204334,2.35
 2795,0.206025\H,0,0.227518,1.936966,0.34521\H,0,-0.46685,-2.266105,-0.

 Normal termination of Gaussian 16 at Wed Apr  9 00:00:20 2025.
