 Gaussian 16, Revision C.01,

 ----------------------------------------------------------------------
 #t hf aug-cc-pvdz symm=none int=(grid=ultrafine) guess=(read,tcheck) s
 table=(opt,rrhf)
 ----------------------------------------------------------------------
 -----
 title
 -----
 Symbolic Z-matrix:
 Charge =  0 Multiplicity = 1

 SCF Done:  E(RHF) =  -859.715491676     A.U. after   14 cycles
 Normal termination of Gaussian 16 at Wed Apr  9 00:10:39 2025.
 Gaussian 16:  ES64L-G16RevC.01  3-Jul-2019

 ----------------------------------------------------------------------
 #t hf aug-cc-pvdz iop(5/13=1,5/36=2,99/5=2) pseudo=read geom=check gue
 ss=(read,tcheck) scf=(maxcycle=1)
 ----------------------------------------------------------------------
 -----
 title
 -----
 Structure from the checkpoint file:  "BDE49_nonexpt_2399_mol1.chk"
 Charge =  0 Multiplicity = 1

                         Standard orientation:
 ---------------------------------------------------------------------
 Center     Atomic      Atomic             Coordinates (Angstroms)
 Number     Number       Type             X           Y           Z
 ---------------------------------------------------------------------
      1         14           0       -2.138083   -0.690999   -0.226215
      2         14           0       -0.673773    1.097596    0.244694
      3          1           0       -3.497366   -0.131970   -0.425505
      4          1           0       -2.165588   -1.659769    0.889359
      5          1           0       -1.703870   -1.360452   -1.473937
      6          8           0        0.916671    0.860068   -0.411689
      7          1           0       -0.543256    1.385044    1.687886
      8          1           0       -1.022642    2.331502   -0.488210
      9          7           0        1.607856   -0.275233    0.010548
     10          8           0        1.009087   -0.998487    0.789863
     11          8           0        2.704707   -0.402842   -0.443441
 ---------------------------------------------------------------------

 SCF Done:  E(RHF) =  -859.850168837     A.U. after    2 cycles

 The electronic state is 1-A.
 Alpha  occ. eigenvalues --  -69.12746 -69.08006 -20.67217 -20.65908 -20.65086
 Alpha  occ. eigenvalues --  -16.00043  -6.87589  -6.83423  -3.98469  -3.98297
 Alpha  occ. eigenvalues --   -3.98238  -3.94181  -3.94173  -3.94163  -1.62027
 Alpha  occ. eigenvalues --   -1.42452  -1.37289  -0.94326  -0.83189  -0.79621
 Alpha  occ. eigenvalues --   -0.79161  -0.75139  -0.68844  -0.62118  -0.59704
 Alpha  occ. eigenvalues --   -0.56346  -0.54504  -0.51918  -0.51209  -0.49982
 Alpha  occ. eigenvalues --   -0.49052  -0.42240
 Alpha virt. eigenvalues --    0.03409   0.03793   0.04941   0.06072   0.06598
 Alpha virt. eigenvalues --    0.06845   0.07161   0.07841   0.08408   0.08548
 Alpha virt. eigenvalues --    0.09955   0.10434   0.11791   0.13333   0.13491

 Mulliken charges:
               1
     1  Si  -0.288980
     2  Si   0.681230
     3  H    0.022309
     4  H    0.107670
     5  H    0.067777
     6  O   -0.730736
     7  H    0.052204
     8  H    0.058886
     9  N    0.803150
    10  O   -0.369127
    11  O   -0.404383
 Sum of Mulliken charges =   0.00000

 Dipole moment (field-independent basis, Debye):
    X=             -2.9043    Y=              1.2553    Z=              0.1981  Tot=              3.1702

 Test job not archived.
 1\1\GINC-SE424\SP\RHF\Aug-CC-pVDZ\H5N1O3Si2\OHZDE\09-Apr-2025\0\\#t hf
  aug-cc-pvdz iop(5/13=1,5/36=2,99/5=2) pseudo=read geom=check guess=(r
 ead,tcheck) scf=(maxcycle=1)\\title\\0,1\Si,0,-2.138083,-0.690999,-0.2
 26215\Si,0,-0.673773,1.097596,0.244694\H,0,-3.497366,-0.13197,-0.42550
 5\H,0,-2.165588,-1.659769,0.889359\H,0,-1.70387,-1.360452,-1.473937\O,
 0,0.916671,0.860068,-0.411689\H,0,-0.543256,1.385044,1.687886\H,0,-1.0
 22642,2.331502,-0.48821\N,0,1.607856,-0.275233,0.010548\O,0,1.009087,-
 0.998487,0.789863\O,0,2.704707,-0.402842,-0.443441\\Version=ES64L-G16R

 Normal termination of Gaussian 16 at Wed Apr  9 00:10:46 2025.
