 Gaussian 16, Revision C.01,

 ----------------------------------------------------------------------
 #t hf aug-cc-pvdz symm=none int=(grid=ultrafine) guess=(read,tcheck) s
 table=(opt,rrhf)
 ----------------------------------------------------------------------
 -----
 title
 -----
 Symbolic Z-matrix:
 Charge =  0 Multiplicity = 1

 SCF Done:  E(RHF) =  -322.599611995     A.U. after   16 cycles
 Normal termination of Gaussian 16 at Tue Apr  8 23:19:51 2025.
 Gaussian 16:  ES64L-G16RevC.01  3-Jul-2019

 ----------------------------------------------------------------------
 #t hf aug-cc-pvdz iop(5/13=1,5/36=2,99/5=2) pseudo=read geom=check gue
 ss=(read,tcheck) scf=(maxcycle=1)
 ----------------------------------------------------------------------
 -----
 title
 -----
 Structure from the checkpoint file:  "BDE49_nonexpt_1172_mol1.chk"
 Charge =  0 Multiplicity = 1

                         Standard orientation:
 ---------------------------------------------------------------------
 Center     Atomic      Atomic             Coordinates (Angstroms)
 Number     Number       Type             X           Y           Z
 ---------------------------------------------------------------------
      1          9           0       -1.925634   -0.686352    0.000041
      2          8           0       -1.162043    0.730050   -0.000015
      3          7           0        0.084076    0.641159   -0.000020
      4          7           0        0.743596   -0.386528   -0.000024
      5          6           0        2.193955   -0.168166    0.000005
      6          1           0        2.602739   -0.663256    0.882761
      7          1           0        2.464112    0.889820    0.000032
      8          1           0        2.602766   -0.663217   -0.882760
 ---------------------------------------------------------------------

 SCF Done:  E(RHF) =  -322.701169939     A.U. after    2 cycles

 The electronic state is 1-A.
 Alpha  occ. eigenvalues --  -26.13728 -20.78693 -15.82023 -15.73203 -11.30319
 Alpha  occ. eigenvalues --   -1.62170  -1.51518  -1.31453  -1.02666  -0.88751
 Alpha  occ. eigenvalues --   -0.77257  -0.76621  -0.73929  -0.68256  -0.68232
 Alpha  occ. eigenvalues --   -0.62763  -0.61827  -0.57372  -0.48048  -0.44759
 Alpha virt. eigenvalues --    0.01106   0.02992   0.04884   0.04925   0.08686
 Alpha virt. eigenvalues --    0.10694   0.12133   0.13679   0.13997   0.14794
 Alpha virt. eigenvalues --    0.16102   0.19282   0.20471   0.21139   0.21713

 Mulliken charges:
               1
     1  F   -0.411192
     2  O   -0.077410
     3  N    0.246620
     4  N   -0.311060
     5  C    0.779568
     6  H   -0.068318
     7  H   -0.089888
     8  H   -0.068320
 Sum of Mulliken charges =  -0.00000

 Dipole moment (field-independent basis, Debye):
    X=              4.5997    Y=              1.3563    Z=             -0.0000  Tot=              4.7955

 Test job not archived.
 1\1\GINC-SE460\SP\RHF\Aug-CC-pVDZ\C1H3F1N2O1\OHZDE\08-Apr-2025\0\\#t h
 f aug-cc-pvdz iop(5/13=1,5/36=2,99/5=2) pseudo=read geom=check guess=(
 read,tcheck) scf=(maxcycle=1)\\title\\0,1\F,0,1.925634,-0.686352,-0.00
 0041\O,0,1.162043,0.73005,0.000015\N,0,-0.084076,0.641159,0.00002\N,0,
 -0.743596,-0.386528,0.000024\C,0,-2.193955,-0.168166,-0.000005\H,0,-2.
 602739,-0.663256,-0.882761\H,0,-2.464112,0.88982,-0.000032\H,0,-2.6027
 66,-0.663217,0.88276\\Version=ES64L-G16RevC.01\State=1-A\HF=-322.70116
 99\RMSD=4.199e-03\Dipole=-1.8096513,0.5335961,0.000019\Quadrupole=0.62

 Normal termination of Gaussian 16 at Tue Apr  8 23:19:53 2025.
