 Gaussian 16, Revision C.01,

 ----------------------------------------------------------------------
 #t hf aug-cc-pvdz symm=none int=(grid=ultrafine) guess=(read,tcheck) s
 table=(opt,rrhf)
 ----------------------------------------------------------------------
 -----
 title
 -----
 Symbolic Z-matrix:
 Charge =  0 Multiplicity = 1

 SCF Done:  E(RHF) =  -434.361760656     A.U. after   16 cycles
 Normal termination of Gaussian 16 at Tue Apr  8 22:37:04 2025.
 Gaussian 16:  ES64L-G16RevC.01  3-Jul-2019

 ----------------------------------------------------------------------
 #t hf aug-cc-pvdz iop(5/13=1,5/36=2,99/5=2) pseudo=read geom=check gue
 ss=(read,tcheck) scf=(maxcycle=1)
 ----------------------------------------------------------------------
 -----
 title
 -----
 Structure from the checkpoint file:  "BDE49_expt_1182_mol1.chk"
 Charge =  0 Multiplicity = 1

                         Standard orientation:
 ---------------------------------------------------------------------
 Center     Atomic      Atomic             Coordinates (Angstroms)
 Number     Number       Type             X           Y           Z
 ---------------------------------------------------------------------
      1          6           0       -0.469779    1.177247   -0.145740
      2          6           0       -1.863090    1.147387   -0.132133
      3          6           0        0.227932   -0.024247   -0.006773
      4          6           0       -0.511134   -1.200337    0.122201
      5          6           0       -1.899459   -1.118265    0.137404
      6          7           0       -2.576023    0.029250    0.014726
      7          1           0        0.001395   -2.149750    0.207771
      8          1           0       -2.499802   -2.015987    0.250805
      9          6           0        1.729496   -0.124619   -0.031461
     10          8           0        2.417076    1.006724    0.263045
     11          1           0        1.820503    1.689702    0.590936
     12          8           0        2.310368   -1.139584   -0.296164
     13          1           0       -2.429706    2.066686   -0.248404
     14          1           0        0.036418    2.124484   -0.300227
 ---------------------------------------------------------------------

 SCF Done:  E(RHF) =  -434.491546794     A.U. after    2 cycles

 The electronic state is 1-A.
 Alpha  occ. eigenvalues --  -20.64196 -20.57807 -15.65895 -11.42072 -11.31159
 Alpha  occ. eigenvalues --  -11.30814 -11.30436 -11.28795 -11.27735  -1.43748
 Alpha  occ. eigenvalues --   -1.34918  -1.25760  -1.11721  -1.05566  -0.92756
 Alpha  occ. eigenvalues --   -0.88648  -0.85463  -0.79276  -0.71209  -0.69175
 Alpha  occ. eigenvalues --   -0.67888  -0.67352  -0.65901  -0.63002  -0.60185
 Alpha  occ. eigenvalues --   -0.56813  -0.54816  -0.51777  -0.49402  -0.43965
 Alpha  occ. eigenvalues --   -0.41196  -0.37451
 Alpha virt. eigenvalues --    0.02366   0.03610   0.04145   0.04424   0.06029
 Alpha virt. eigenvalues --    0.06280   0.08227   0.08631   0.09720   0.10056
 Alpha virt. eigenvalues --    0.10969   0.11482   0.12302   0.12938   0.13760

 Mulliken charges:
               1
     1  C    0.948271
     2  C    0.270282
     3  C   -0.086433
     4  C    0.869461
     5  C    0.306210
     6  N   -0.405539
     7  H   -0.489396
     8  H   -0.308616
     9  C    0.491828
    10  O   -0.477369
    11  H    0.188067
    12  O   -0.426932
    13  H   -0.320662
    14  H   -0.559172
 Sum of Mulliken charges =  -0.00000

 Dipole moment (field-independent basis, Debye):
    X=             -2.1957    Y=              2.5656    Z=              0.8895  Tot=              3.4921

 Test job not archived.
 1\1\GINC-SE393\SP\RHF\Aug-CC-pVDZ\C6H5N1O2\OHZDE\08-Apr-2025\0\\#t hf
 aug-cc-pvdz iop(5/13=1,5/36=2,99/5=2) pseudo=read geom=check guess=(re
 ad,tcheck) scf=(maxcycle=1)\\title\\0,1\C,0,-0.469779,1.177247,-0.1457
 4\C,0,-1.86309,1.147387,-0.132133\C,0,0.227932,-0.024247,-0.006773\C,0
 ,-0.511134,-1.200337,0.122201\C,0,-1.899459,-1.118265,0.137404\N,0,-2.
 576023,0.02925,0.014726\H,0,0.001395,-2.14975,0.207771\H,0,-2.499802,-
 2.015987,0.250805\C,0,1.729496,-0.124619,-0.031461\O,0,2.417076,1.0067
 24,0.263045\H,0,1.820503,1.689702,0.590936\O,0,2.310368,-1.139584,-0.2

 Normal termination of Gaussian 16 at Tue Apr  8 22:37:10 2025.
