 Gaussian 16, Revision C.01,

 ----------------------------------------------------------------------
 #t hf aug-cc-pvdz symm=none int=(grid=ultrafine) guess=(read,tcheck) s
 table=(opt,rrhf)
 ----------------------------------------------------------------------
 -----
 title
 -----
 Symbolic Z-matrix:
 Charge =  0 Multiplicity = 1

 SCF Done:  E(RHF) =  -1026.73719835     A.U. after   16 cycles
 Normal termination of Gaussian 16 at Tue Apr  8 23:17:22 2025.
 Gaussian 16:  ES64L-G16RevC.01  3-Jul-2019

 ----------------------------------------------------------------------
 #t hf aug-cc-pvdz iop(5/13=1,5/36=2,99/5=2) pseudo=read geom=check gue
 ss=(read,tcheck) scf=(maxcycle=1)
 ----------------------------------------------------------------------
 -----
 title
 -----
 Structure from the checkpoint file:  "BDE49_expt_447_mol1.chk"
 Charge =  0 Multiplicity = 1

                         Standard orientation:
 ---------------------------------------------------------------------
 Center     Atomic      Atomic             Coordinates (Angstroms)
 Number     Number       Type             X           Y           Z
 ---------------------------------------------------------------------
      1          6           0       -3.311931   -0.953597    0.877033
      2          6           0       -2.054490   -1.533554    0.921206
      3          6           0       -3.534997    0.201017    0.119431
      4          6           0       -2.470565    0.762231   -0.587048
      5          6           0       -1.202617    0.181554   -0.531663
      6          6           0       -0.978745   -0.970054    0.219722
      7          7           0        0.303261   -1.559704    0.335761
      8         16           0        1.487153   -1.473697   -0.870491
      9          6           0        2.642682   -0.260205   -0.230759
     10          6           0        2.484542    0.366175    1.004236
     11          6           0        3.745253    0.044473   -1.035444
     12          6           0        4.684497    0.973430   -0.599446
     13          6           0        3.430135    1.297312    1.429541
     14          6           0        4.531804    1.604918    0.634569
     15          1           0        1.628127    0.122360    1.619945
     16          1           0        3.301426    1.783444    2.390457
     17          1           0        5.264161    2.329318    0.971293
     18          1           0        3.869461   -0.441704   -1.997897
     19          1           0        5.537733    1.204420   -1.227539
     20          1           0       -1.903417   -2.435152    1.507071
     21          1           0       -4.144334   -1.386876    1.418087
     22          1           0       -2.606274    1.654584   -1.183184
     23          1           0       -0.384665    0.630597   -1.080678
     24          1           0        0.335125   -2.408319    0.881407
     25          8           0       -4.812470    0.690756    0.136095
     26          6           0       -5.091775    1.858557   -0.618802
     27          1           0       -4.502236    2.715131   -0.271238
     28          1           0       -6.149726    2.066992   -0.466432
     29          1           0       -4.905648    1.702700   -1.687979
 ---------------------------------------------------------------------

 SCF Done:  E(RHF) =  -1026.94868752     A.U. after    2 cycles

 The electronic state is 1-A.
 Alpha  occ. eigenvalues --  -93.57485 -20.59423 -15.65848 -11.30224 -11.29453
 Alpha  occ. eigenvalues --  -11.28777 -11.27934 -11.25175 -11.25047 -11.24994
 Alpha  occ. eigenvalues --  -11.24733 -11.24536 -11.24434 -11.24432 -11.24233
 Alpha  occ. eigenvalues --  -11.24152  -8.86824  -6.21092  -6.20778  -6.20436
 Alpha  occ. eigenvalues --   -1.36299  -1.21813  -1.15203  -1.12612  -1.04029
 Alpha  occ. eigenvalues --   -1.01778  -1.01541  -1.00113  -0.94270  -0.90742
 Alpha  occ. eigenvalues --   -0.84305  -0.83421  -0.81472  -0.79283  -0.72948
 Alpha  occ. eigenvalues --   -0.70917  -0.70271  -0.67458  -0.66213  -0.64470
 Alpha  occ. eigenvalues --   -0.63664  -0.62704  -0.60732  -0.59936  -0.59683
 Alpha  occ. eigenvalues --   -0.58417  -0.57100  -0.54182  -0.53293  -0.52511
 Alpha  occ. eigenvalues --   -0.52167  -0.51394  -0.50311  -0.48755  -0.47470
 Alpha  occ. eigenvalues --   -0.41547  -0.41007  -0.34793  -0.34557  -0.30926
 Alpha  occ. eigenvalues --   -0.28664
 Alpha virt. eigenvalues --    0.03272   0.03551   0.03676   0.04259   0.04807
 Alpha virt. eigenvalues --    0.05506   0.05556   0.05883   0.06501   0.07468
 Alpha virt. eigenvalues --    0.07726   0.08186   0.08998   0.09801   0.10320

 Mulliken charges:
               1
     1  C    0.887406
     2  C    1.105656
     3  C    0.575560
     4  C    0.637657
     5  C    0.299064
     6  C   -0.207414
     7  N   -0.705980
     8  S    0.645770
     9  C    0.179808
    10  C    0.394254
    11  C    0.053700
    12  C    0.571222
    13  C    0.582556
    14  C    0.577752
    15  H   -0.693726
    16  H   -0.461505
    17  H   -0.448257
    18  H   -0.518619
    19  H   -0.447557
    20  H   -0.669324
    21  H   -0.586726
    22  H   -0.717937
    23  H   -0.649091
    24  H   -0.103104
    25  O   -0.706610
    26  C    0.912298
    27  H   -0.100961
    28  H   -0.308700
    29  H   -0.097195
 Sum of Mulliken charges =  -0.00000

 Dipole moment (field-independent basis, Debye):
    X=              0.2502    Y=              0.9909    Z=              0.1446  Tot=              1.0322

 Test job not archived.
 1\1\GINC-SE044\SP\RHF\Aug-CC-pVDZ\C13H13N1O1S1\OHZDE\08-Apr-2025\0\\#t
  hf aug-cc-pvdz iop(5/13=1,5/36=2,99/5=2) pseudo=read geom=check guess
 =(read,tcheck) scf=(maxcycle=1)\\title\\0,1\C,0,-3.311931,-0.953597,0.
 877033\C,0,-2.05449,-1.533554,0.921206\C,0,-3.534997,0.201017,0.119431
 \C,0,-2.470565,0.762231,-0.587048\C,0,-1.202617,0.181554,-0.531663\C,0
 ,-0.978745,-0.970054,0.219722\N,0,0.303261,-1.559704,0.335761\S,0,1.48
 7153,-1.473697,-0.870491\C,0,2.642682,-0.260205,-0.230759\C,0,2.484542
 ,0.366175,1.004236\C,0,3.745253,0.044473,-1.035444\C,0,4.684497,0.9734

 Normal termination of Gaussian 16 at Tue Apr  8 23:17:57 2025.
