 Gaussian 16, Revision C.01,

 ----------------------------------------------------------------------
 #t hf aug-cc-pvdz symm=none int=(grid=ultrafine) guess=(read,tcheck) s
 table=(opt,rrhf)
 ----------------------------------------------------------------------
 -----
 title
 -----
 Symbolic Z-matrix:
 Charge =  0 Multiplicity = 1

 SCF Done:  E(RHF) =  -560.168031141     A.U. after   13 cycles
 Normal termination of Gaussian 16 at Wed Apr  9 00:04:15 2025.
 Gaussian 16:  ES64L-G16RevC.01  3-Jul-2019

 ----------------------------------------------------------------------
 #t hf aug-cc-pvdz iop(5/13=1,5/36=2,99/5=2) pseudo=read geom=check gue
 ss=(read,tcheck) scf=(maxcycle=1)
 ----------------------------------------------------------------------
 -----
 title
 -----
 Structure from the checkpoint file:  "BDE49_nonexpt_2220_mol1.chk"
 Charge =  0 Multiplicity = 1

                         Standard orientation:
 ---------------------------------------------------------------------
 Center     Atomic      Atomic             Coordinates (Angstroms)
 Number     Number       Type             X           Y           Z
 ---------------------------------------------------------------------
      1          6           0       -3.239502   -0.892563   -0.045191
      2          6           0       -1.973944   -0.157004   -0.497698
      3          1           0       -3.863551   -0.252250    0.586025
      4          1           0       -2.988908   -1.786065    0.534835
      5          1           0       -3.843370   -1.208619   -0.900588
      6          6           0       -1.091062    0.307088    0.676357
      7          1           0       -2.256804    0.709515   -1.106486
      8          1           0       -1.390452   -0.810173   -1.155070
      9         14           0        0.457245    1.244416    0.185708
     10          1           0       -0.805419   -0.553944    1.292880
     11          1           0       -1.665563    0.970161    1.338858
     12          8           0        1.456983    0.340908   -0.804400
     13          6           0        2.217617   -0.751944   -0.524732
     14          6           0        2.383975   -1.338696    0.658636
     15          1           0        1.909990   -0.984130    1.566028
     16          1           0        3.029485   -2.203116    0.735830
     17          1           0        2.712798   -1.121158   -1.417657
     18          1           0        1.199083    1.668131    1.398355
     19          1           0        0.122921    2.421276   -0.641969
 ---------------------------------------------------------------------

 SCF Done:  E(RHF) =  -560.288007693     A.U. after    2 cycles

 The electronic state is 1-A.
 Alpha  occ. eigenvalues --  -69.09050 -20.58136 -11.31307 -11.23760 -11.22698
 Alpha  occ. eigenvalues --  -11.22534 -11.22262  -6.83877  -3.94797  -3.94641
 Alpha  occ. eigenvalues --   -3.94611  -1.33746  -1.04905  -1.01868  -0.92720
 Alpha  occ. eigenvalues --   -0.83611  -0.80690  -0.69892  -0.67899  -0.63869
 Alpha  occ. eigenvalues --   -0.62333  -0.60616  -0.57307  -0.55224  -0.54842
 Alpha  occ. eigenvalues --   -0.53928  -0.51426  -0.48886  -0.47743  -0.46084
 Alpha  occ. eigenvalues --   -0.42887  -0.35570
 Alpha virt. eigenvalues --    0.03290   0.04271   0.04450   0.04598   0.05771
 Alpha virt. eigenvalues --    0.06019   0.06681   0.06994   0.07227   0.08492
 Alpha virt. eigenvalues --    0.09053   0.09169   0.09972   0.10560   0.11633

 Mulliken charges:
               1
     1  C    0.419696
     2  C    0.004135
     3  H   -0.065071
     4  H   -0.062406
     5  H   -0.069002
     6  C    0.208019
     7  H   -0.145543
     8  H   -0.188438
     9  Si   0.631107
    10  H   -0.168490
    11  H   -0.201429
    12  O   -0.734290
    13  C    0.640196
    14  C    0.601314
    15  H   -0.394934
    16  H   -0.285927
    17  H   -0.419818
    18  H    0.094926
    19  H    0.135956
 Sum of Mulliken charges =  -0.00000

 Dipole moment (field-independent basis, Debye):
    X=             -0.7618    Y=             -0.5149    Z=              0.5967  Tot=              1.0962

 Test job not archived.
 1\1\GINC-SE253\SP\RHF\Aug-CC-pVDZ\C5H12O1Si1\OHZDE\09-Apr-2025\0\\#t h
 f aug-cc-pvdz iop(5/13=1,5/36=2,99/5=2) pseudo=read geom=check guess=(
 read,tcheck) scf=(maxcycle=1)\\title\\0,1\C,0,-3.239502,-0.892563,-0.0
 45191\C,0,-1.973944,-0.157004,-0.497698\H,0,-3.863551,-0.25225,0.58602
 5\H,0,-2.988908,-1.786065,0.534835\H,0,-3.84337,-1.208619,-0.900588\C,
 0,-1.091062,0.307088,0.676357\H,0,-2.256804,0.709515,-1.106486\H,0,-1.
 390452,-0.810173,-1.15507\Si,0,0.457245,1.244416,0.185708\H,0,-0.80541
 9,-0.553944,1.29288\H,0,-1.665563,0.970161,1.338858\O,0,1.456983,0.340

 Normal termination of Gaussian 16 at Wed Apr  9 00:04:23 2025.
