 Gaussian 16, Revision C.01,

 ----------------------------------------------------------------------
 #t hf aug-cc-pvdz symm=none int=(grid=ultrafine) guess=(read,tcheck) s
 table=(opt,rrhf)
 ----------------------------------------------------------------------
 -----
 title
 -----
 Symbolic Z-matrix:
 Charge =  0 Multiplicity = 1

 SCF Done:  E(RHF) =  -634.777847458     A.U. after   15 cycles
 Normal termination of Gaussian 16 at Wed Apr  9 00:05:39 2025.
 Gaussian 16:  ES64L-G16RevC.01  3-Jul-2019

 ----------------------------------------------------------------------
 #t hf aug-cc-pvdz iop(5/13=1,5/36=2,99/5=2) pseudo=read geom=check gue
 ss=(read,tcheck) scf=(maxcycle=1)
 ----------------------------------------------------------------------
 -----
 title
 -----
 Structure from the checkpoint file:  "BDE49_nonexpt_2242_mol1.chk"
 Charge =  0 Multiplicity = 1

                         Standard orientation:
 ---------------------------------------------------------------------
 Center     Atomic      Atomic             Coordinates (Angstroms)
 Number     Number       Type             X           Y           Z
 ---------------------------------------------------------------------
      1          6           0       -3.724355    0.562681   -0.000000
      2         14           0       -2.220785   -0.534688    0.000001
      3          1           0       -4.635655   -0.043104    0.000002
      4          1           0       -3.740705    1.202789   -0.885658
      5          1           0       -3.740704    1.202793    0.885654
      6          8           0       -0.902443    0.483804   -0.000003
      7          6           0        0.439706    0.223636   -0.000001
      8          6           0        1.305068    1.320545   -0.000002
      9          6           0        0.960436   -1.072647    0.000001
     10          6           0        2.341323   -1.262882    0.000002
     11          6           0        3.207509   -0.173378    0.000002
     12          6           0        2.680341    1.118290   -0.000000
     13          1           0        0.878828    2.316318   -0.000003
     14          1           0        3.344269    1.975638   -0.000001
     15          1           0        0.295349   -1.929023    0.000001
     16          1           0        2.736859   -2.272499    0.000004
     17          1           0        4.280056   -0.327229    0.000003
     18          1           0       -2.183965   -1.403976   -1.201242
     19          1           0       -2.183962   -1.403971    1.201247
 ---------------------------------------------------------------------

 SCF Done:  E(RHF) =  -634.916600800     A.U. after    2 cycles

 The electronic state is 1-A.
 Alpha  occ. eigenvalues --  -69.09500 -20.58217 -11.31564 -11.24993 -11.24871
 Alpha  occ. eigenvalues --  -11.24200 -11.23757 -11.23720 -11.22282  -6.84308
 Alpha  occ. eigenvalues --   -3.95223  -3.95067  -3.95044  -1.34058  -1.13690
 Alpha  occ. eigenvalues --   -1.01372  -1.00132  -0.94813  -0.84629  -0.82977
 Alpha  occ. eigenvalues --   -0.74637  -0.69256  -0.66221  -0.63174  -0.61753
 Alpha  occ. eigenvalues --   -0.61573  -0.59307  -0.56610  -0.55919  -0.54937
 Alpha  occ. eigenvalues --   -0.52065  -0.49473  -0.49250  -0.46175  -0.45658
 Alpha  occ. eigenvalues --   -0.34399  -0.32052
 Alpha virt. eigenvalues --    0.03213   0.03965   0.04183   0.05223   0.05284
 Alpha virt. eigenvalues --    0.05676   0.06831   0.07359   0.07893   0.08514
 Alpha virt. eigenvalues --    0.09021   0.09980   0.10807   0.10976   0.11937

 Mulliken charges:
               1
     1  C    0.213661
     2  Si   0.811173
     3  H   -0.274280
     4  H   -0.196144
     5  H   -0.196147
     6  O   -0.868814
     7  C    0.425086
     8  C    0.278521
     9  C    0.386125
    10  C    0.553465
    11  C    0.459634
    12  C    0.731315
    13  H   -0.548576
    14  H   -0.428319
    15  H   -0.629897
    16  H   -0.436302
    17  H   -0.450836
    18  H    0.085167
    19  H    0.085168
 Sum of Mulliken charges =  -0.00000

 Dipole moment (field-independent basis, Debye):
    X=             -0.5814    Y=             -0.3156    Z=              0.0000  Tot=              0.6615

 Test job not archived.
 1\1\GINC-SE453\SP\RHF\Aug-CC-pVDZ\C7H10O1Si1\OHZDE\09-Apr-2025\0\\#t h
 f aug-cc-pvdz iop(5/13=1,5/36=2,99/5=2) pseudo=read geom=check guess=(
 read,tcheck) scf=(maxcycle=1)\\title\\0,1\C,0,-3.724355,0.562681,0.\Si
 ,0,-2.220785,-0.534688,0.000001\H,0,-4.635655,-0.043104,0.000002\H,0,-
 3.740705,1.202789,-0.885658\H,0,-3.740704,1.202793,0.885654\O,0,-0.902
 443,0.483804,-0.000003\C,0,0.439706,0.223636,-0.000001\C,0,1.305068,1.
 320545,-0.000002\C,0,0.960436,-1.072647,0.000001\C,0,2.341323,-1.26288
 2,0.000002\C,0,3.207509,-0.173378,0.000002\C,0,2.680341,1.11829,0.\H,0

 Normal termination of Gaussian 16 at Wed Apr  9 00:05:48 2025.
