 Gaussian 16, Revision C.01,

 ----------------------------------------------------------------------
 #t hf aug-cc-pvdz symm=none int=(grid=ultrafine) guess=(read,tcheck) s
 table=(opt,rrhf)
 ----------------------------------------------------------------------
 -----
 title
 -----
 Symbolic Z-matrix:
 Charge =  0 Multiplicity = 1

 SCF Done:  E(RHF) =  -1164.39387641     A.U. after   13 cycles
 Normal termination of Gaussian 16 at Tue Apr  8 23:51:35 2025.
 Gaussian 16:  ES64L-G16RevC.01  3-Jul-2019

 ----------------------------------------------------------------------
 #t hf aug-cc-pvdz iop(5/13=1,5/36=2,99/5=2) pseudo=read geom=check gue
 ss=(read,tcheck) scf=(maxcycle=1)
 ----------------------------------------------------------------------
 -----
 title
 -----
 Structure from the checkpoint file:  "BDE49_nonexpt_1930_mol1.chk"
 Charge =  0 Multiplicity = 1

                         Standard orientation:
 ---------------------------------------------------------------------
 Center     Atomic      Atomic             Coordinates (Angstroms)
 Number     Number       Type             X           Y           Z
 ---------------------------------------------------------------------
      1         14           0        2.819924    0.197395    0.031082
      2          6           0        1.023209    0.372221   -0.550819
      3         16           0       -0.096826   -0.650221    0.476050
      4         16           0       -1.962737   -0.442141   -0.422545
      5          1           0        3.662042    1.061410   -0.828955
      6          1           0        3.267658   -1.206945   -0.092033
      7          6           0       -2.639801    1.071733    0.351416
      8          1           0       -3.653933    1.178851   -0.041577
      9          1           0       -2.056249    1.950223    0.077448
     10          1           0       -2.679891    0.961611    1.434065
     11          1           0        2.952357    0.633645    1.438947
     12          1           0        0.951415    0.048457   -1.591587
     13          1           0        0.730239    1.423294   -0.491110
 ---------------------------------------------------------------------

 SCF Done:  E(RHF) =  -1164.48500431     A.U. after    2 cycles

 The electronic state is 1-A.
 Alpha  occ. eigenvalues --  -93.55869 -93.55619 -69.07329 -11.27270 -11.26503
 Alpha  occ. eigenvalues --   -8.85387  -8.85175  -6.82626  -6.19528  -6.19286
 Alpha  occ. eigenvalues --   -6.19226  -6.19024  -6.18921  -6.18706  -3.93409
 Alpha  occ. eigenvalues --   -3.93401  -3.93388  -1.06451  -0.99910  -0.89570
 Alpha  occ. eigenvalues --   -0.78142  -0.69950  -0.61085  -0.60133  -0.59900
 Alpha  occ. eigenvalues --   -0.55019  -0.49682  -0.49012  -0.48229  -0.47478
 Alpha  occ. eigenvalues --   -0.42213  -0.35888  -0.35118
 Alpha virt. eigenvalues --    0.03289   0.04060   0.05110   0.05227   0.05964
 Alpha virt. eigenvalues --    0.06906   0.07218   0.08130   0.08749   0.09204
 Alpha virt. eigenvalues --    0.09873   0.10086   0.11300   0.12878   0.14097

 Mulliken charges:
               1
     1  Si   0.524585
     2  C   -0.221389
     3  S    0.124510
     4  S    0.065713
     5  H   -0.031447
     6  H   -0.034967
     7  C    0.076427
     8  H   -0.070483
     9  H   -0.071831
    10  H   -0.031559
    11  H   -0.034905
    12  H   -0.131054
    13  H   -0.163600
 Sum of Mulliken charges =  -0.00000

 Dipole moment (field-independent basis, Debye):
    X=             -0.0274    Y=              2.2457    Z=             -0.3623  Tot=              2.2749

 Test job not archived.
 1\1\GINC-SE344\SP\RHF\Aug-CC-pVDZ\C2H8S2Si1\OHZDE\08-Apr-2025\0\\#t hf
  aug-cc-pvdz iop(5/13=1,5/36=2,99/5=2) pseudo=read geom=check guess=(r
 ead,tcheck) scf=(maxcycle=1)\\title\\0,1\Si,0,2.819924,0.197395,0.0310
 82\C,0,1.023209,0.372221,-0.550819\S,0,-0.096826,-0.650221,0.47605\S,0
 ,-1.962737,-0.442141,-0.422545\H,0,3.662042,1.06141,-0.828955\H,0,3.26
 7658,-1.206945,-0.092033\C,0,-2.639801,1.071733,0.351416\H,0,-3.653933
 ,1.178851,-0.041577\H,0,-2.056249,1.950223,0.077448\H,0,-2.679891,0.96
 1611,1.434065\H,0,2.952357,0.633645,1.438947\H,0,0.951415,0.048457,-1.

 Normal termination of Gaussian 16 at Tue Apr  8 23:51:40 2025.
