 Gaussian 16, Revision C.01,

 ----------------------------------------------------------------------
 #t hf aug-cc-pvdz symm=none int=(grid=ultrafine) guess=(read,tcheck) s
 table=opt
 ----------------------------------------------------------------------
 -----
 title
 -----
 Symbolic Z-matrix:
 Charge =  0 Multiplicity = 2

 SCF Done:  E(UHF) =  -271.733437159     A.U. after   16 cycles
 Normal termination of Gaussian 16 at Wed Apr  9 00:19:00 2025.
 Gaussian 16:  ES64L-G16RevC.01  3-Jul-2019

 ----------------------------------------------------------------------
 #t hf aug-cc-pvdz iop(5/13=1,5/36=2,99/5=2) pseudo=read geom=check gue
 ss=(read,tcheck) scf=(maxcycle=1)
 ----------------------------------------------------------------------
 -----
 title
 -----
 Structure from the checkpoint file:  "BDE49_nonexpt_260_mol2.chk"
 Charge =  0 Multiplicity = 2

                         Standard orientation:
 ---------------------------------------------------------------------
 Center     Atomic      Atomic             Coordinates (Angstroms)
 Number     Number       Type             X           Y           Z
 ---------------------------------------------------------------------
      1          8           0        1.231580   -0.879453   -0.067233
      2          7           0       -1.193642   -0.821946    0.006445
      3          6           0        0.046917    1.259757   -0.322770
      4          6           0       -1.259878    0.636347    0.177890
      5          6           0        1.263343    0.530724    0.244242
      6          5           0        0.026080   -1.497354   -0.127841
      7          1           0        2.189461    0.925327   -0.177435
      8          1           0        1.309959    0.641571    1.333685
      9          1           0        0.090697    2.317118   -0.043653
     10          1           0        0.079012    1.205163   -1.415757
     11          1           0       -2.072345   -1.312645   -0.003570
     12          1           0       -2.104014    1.040614   -0.389737
     13          1           0       -1.422612    0.897903    1.232253
 ---------------------------------------------------------------------

 SCF Done:  E(UHF) =  -271.821820309     A.U. after    2 cycles

 The electronic state is 2-A.
 Alpha  occ. eigenvalues --  -20.56652 -15.61208 -11.29673 -11.27838 -11.24478
 Alpha  occ. eigenvalues --   -7.64110  -1.32482  -1.15986  -1.03557  -0.91521
 Alpha  occ. eigenvalues --   -0.83206  -0.72811  -0.68930  -0.64254  -0.62304
 Alpha  occ. eigenvalues --   -0.61197  -0.59523  -0.54741  -0.52953  -0.47409
 Alpha  occ. eigenvalues --   -0.47118  -0.38687  -0.32469
 Alpha virt. eigenvalues --    0.03038   0.04147   0.04372   0.04895   0.06674
 Alpha virt. eigenvalues --    0.06839   0.07119   0.07473   0.07582   0.09532
 Alpha virt. eigenvalues --    0.12608   0.13200   0.14025   0.14525   0.14790

  Beta  occ. eigenvalues --  -20.56570 -15.61185 -11.29527 -11.27712 -11.24498
  Beta  occ. eigenvalues --   -7.62066  -1.32091  -1.15665  -1.03175  -0.90991
  Beta  occ. eigenvalues --   -0.82342  -0.72362  -0.68089  -0.63790  -0.61278
  Beta  occ. eigenvalues --   -0.60943  -0.58982  -0.54552  -0.52291  -0.47149
  Beta  occ. eigenvalues --   -0.46895  -0.39206
  Beta virt. eigenvalues --    0.03030   0.04114   0.04388   0.04528   0.06513
  Beta virt. eigenvalues --    0.06722   0.07121   0.07495   0.07741   0.09554
  Beta virt. eigenvalues --    0.10537   0.13206   0.13971   0.14379   0.14754

 Mulliken charges and spin densities:
               1          2
     1  O   -0.474149  -0.096630
     2  N   -0.287885  -0.065334
     3  C   -0.031788  -0.016705
     4  C    0.782808   0.022345
     5  C    0.879012   0.054997
     6  B   -0.041693   1.115408
     7  H   -0.186862  -0.000075
     8  H   -0.151508  -0.005242
     9  H   -0.032088   0.001954
    10  H   -0.092354  -0.004274
    11  H   -0.095187  -0.000817
    12  H   -0.138862  -0.001751
    13  H   -0.129445  -0.003875
 Sum of Mulliken charges =  -0.00000   1.00000

 Dipole moment (field-independent basis, Debye):
    X=             -1.7956    Y=              2.7830    Z=              0.4599  Tot=              3.3438
                          Isotropic Fermi Contact Couplings
        Atom                 a.u.       MegaHertz       Gauss      10(-4) cm-1
     1  O(17)              0.12133     -73.54829     -26.24386     -24.53307
     2  N(14)              0.06263      20.23734       7.22119       6.75045
     3  C(13)             -0.00451      -5.06730      -1.80814      -1.69027
     4  C(13)              0.02413      27.12396       9.67850       9.04758
     5  C(13)              0.02378      26.72824       9.53730       8.91558
     6  B(11)              0.38821     556.83445     198.69238     185.73998
     7  H(1)              -0.00072      -3.21937      -1.14875      -1.07387
     8  H(1)              -0.00102      -4.54366      -1.62129      -1.51560

 Normal termination of Gaussian 16 at Wed Apr  9 00:19:04 2025.
