 Gaussian 16, Revision C.01,

 ----------------------------------------------------------------------
 #t hf aug-cc-pvdz symm=none int=(grid=ultrafine) guess=(read,tcheck) s
 table=(opt,rrhf)
 ----------------------------------------------------------------------
 -----
 title
 -----
 Symbolic Z-matrix:
 Charge =  0 Multiplicity = 1

 SCF Done:  E(RHF) =  -518.446694593     A.U. after   12 cycles
 Normal termination of Gaussian 16 at Tue Apr  8 23:50:50 2025.
 Gaussian 16:  ES64L-G16RevC.01  3-Jul-2019

 ----------------------------------------------------------------------
 #t hf aug-cc-pvdz iop(5/13=1,5/36=2,99/5=2) pseudo=read geom=check gue
 ss=(read,tcheck) scf=(maxcycle=1)
 ----------------------------------------------------------------------
 -----
 title
 -----
 Structure from the checkpoint file:  "BDE49_nonexpt_1901_mol1.chk"
 Charge =  0 Multiplicity = 1

                         Standard orientation:
 ---------------------------------------------------------------------
 Center     Atomic      Atomic             Coordinates (Angstroms)
 Number     Number       Type             X           Y           Z
 ---------------------------------------------------------------------
      1          6           0        0.918467   -0.603378    0.567848
      2         14           0       -0.801554   -1.083149   -0.039881
      3          7           0       -1.661343    0.330341   -0.544768
      4          1           0       -1.475175   -1.813221    1.072739
      5          1           0       -0.728894   -1.957632   -1.231852
      6          7           0        1.616398    0.177842   -0.449576
      7          6           0       -2.206848    1.335263    0.364901
      8          1           0       -2.164936    0.270755   -1.417965
      9          1           0       -1.546596    1.450665    1.228935
     10          1           0       -3.205819    1.084353    0.747845
     11          1           0       -2.266747    2.313149   -0.123444
     12          6           0        2.914482    0.685519   -0.024999
     13          1           0        1.021452    0.943492   -0.747919
     14          1           0        3.600149   -0.151293    0.140518
     15          1           0        2.881501    1.276447    0.908318
     16          1           0        3.340963    1.311046   -0.813615
     17          1           0        1.473768   -1.532103    0.758487
     18          1           0        0.850102   -0.093273    1.550198
 ---------------------------------------------------------------------

 SCF Done:  E(RHF) =  -518.549562175     A.U. after    2 cycles

 The electronic state is 1-A.
 Alpha  occ. eigenvalues --  -69.06322 -15.60370 -15.59666 -11.26604 -11.24942
 Alpha  occ. eigenvalues --  -11.23810  -6.81401  -3.92274  -3.92187  -3.92142
 Alpha  occ. eigenvalues --   -1.16112  -1.13128  -0.93659  -0.89652  -0.84107
 Alpha  occ. eigenvalues --   -0.70175  -0.64018  -0.63418  -0.59967  -0.59596
 Alpha  occ. eigenvalues --   -0.58093  -0.55870  -0.53763  -0.50993  -0.49702
 Alpha  occ. eigenvalues --   -0.46321  -0.43791  -0.36916  -0.35528
 Alpha virt. eigenvalues --    0.03164   0.04014   0.04257   0.04448   0.06192
 Alpha virt. eigenvalues --    0.06354   0.06736   0.07483   0.07765   0.08942
 Alpha virt. eigenvalues --    0.09493   0.09688   0.09835   0.11166   0.11906

 Mulliken charges:
               1
     1  C    0.563442
     2  Si   0.603420
     3  N   -0.562050
     4  H    0.021044
     5  H    0.102797
     6  N   -0.536876
     7  C    0.796448
     8  H   -0.135318
     9  H   -0.234974
    10  H   -0.117436
    11  H   -0.193534
    12  C    0.694895
    13  H   -0.001189
    14  H   -0.151826
    15  H   -0.086675
    16  H   -0.233772
    17  H   -0.313939
    18  H   -0.214456
 Sum of Mulliken charges =  -0.00000

 Dipole moment (field-independent basis, Debye):
    X=             -0.8156    Y=              1.3405    Z=              0.5258  Tot=              1.6549

 Test job not archived.
 1\1\GINC-SE403\SP\RHF\Aug-CC-pVDZ\C3H12N2Si1\OHZDE\08-Apr-2025\0\\#t h
 f aug-cc-pvdz iop(5/13=1,5/36=2,99/5=2) pseudo=read geom=check guess=(
 read,tcheck) scf=(maxcycle=1)\\title\\0,1\C,0,0.918467,-0.603378,0.567
 848\Si,0,-0.801554,-1.083149,-0.039881\N,0,-1.661343,0.330341,-0.54476
 8\H,0,-1.475175,-1.813221,1.072739\H,0,-0.728894,-1.957632,-1.231852\N
 ,0,1.616398,0.177842,-0.449576\C,0,-2.206848,1.335263,0.364901\H,0,-2.
 164936,0.270755,-1.417965\H,0,-1.546596,1.450665,1.228935\H,0,-3.20581
 9,1.084353,0.747845\H,0,-2.266747,2.313149,-0.123444\C,0,2.914482,0.68

 Normal termination of Gaussian 16 at Tue Apr  8 23:50:56 2025.
