 Gaussian 16, Revision C.01,

 ----------------------------------------------------------------------
 #t hf aug-cc-pvdz symm=none int=(grid=ultrafine) guess=(read,tcheck) s
 table=(opt,rrhf)
 ----------------------------------------------------------------------
 -----
 title
 -----
 Symbolic Z-matrix:
 Charge =  0 Multiplicity = 1

 SCF Done:  E(RHF) =  -561.387603794     A.U. after   11 cycles
 Normal termination of Gaussian 16 at Tue Apr  8 22:43:24 2025.
 Gaussian 16:  ES64L-G16RevC.01  3-Jul-2019

 ----------------------------------------------------------------------
 #t hf aug-cc-pvdz iop(5/13=1,5/36=2,99/5=2) pseudo=read geom=check gue
 ss=(read,tcheck) scf=(maxcycle=1)
 ----------------------------------------------------------------------
 -----
 title
 -----
 Structure from the checkpoint file:  "BDE49_expt_1491_mol1.chk"
 Charge =  0 Multiplicity = 1

                         Standard orientation:
 ---------------------------------------------------------------------
 Center     Atomic      Atomic             Coordinates (Angstroms)
 Number     Number       Type             X           Y           Z
 ---------------------------------------------------------------------
      1          6           0       -1.892230   -0.462249    0.000013
      2          8           0       -0.785545    0.432383   -0.000022
      3         14           0        0.828054    0.032649    0.000001
      4          6           0        1.730183    1.670588   -0.000062
      5          1           0        1.469660    2.259774   -0.883726
      6          1           0        2.814970    1.524715   -0.000051
      7          1           0        1.469652    2.259847    0.883552
      8          6           0        1.258131   -0.966873    1.533471
      9          1           0        1.011889   -0.417210    2.446830
     10          1           0        2.329395   -1.192094    1.559214
     11          1           0        0.724552   -1.922031    1.562781
     12          6           0        1.258145   -0.967000   -1.533382
     13          1           0        1.011913   -0.417411   -2.446788
     14          1           0        0.724565   -1.922159   -1.562619
     15          1           0        2.329409   -1.192223   -1.559096
     16          6           0       -3.182545    0.340820   -0.000026
     17          1           0       -1.853830   -1.111433    0.885382
     18          1           0       -1.853824   -1.111509   -0.885300
     19          1           0       -3.233099    0.979505    0.884803
     20          1           0       -4.050659   -0.325069    0.000000
     21          1           0       -3.233093    0.979429   -0.884911
 ---------------------------------------------------------------------

 SCF Done:  E(RHF) =  -561.512371091     A.U. after    2 cycles

 The electronic state is 1-A.
 Alpha  occ. eigenvalues --  -69.06666 -20.54392 -11.28787 -11.22205 -11.20585
 Alpha  occ. eigenvalues --  -11.20581 -11.20269  -6.81469  -3.92395  -3.92246
 Alpha  occ. eigenvalues --   -3.92224  -1.29085  -1.00403  -0.95300  -0.91721
 Alpha  occ. eigenvalues --   -0.91606  -0.83637  -0.69682  -0.65100  -0.59211
 Alpha  occ. eigenvalues --   -0.58361  -0.56367  -0.55876  -0.55382  -0.54603
 Alpha  occ. eigenvalues --   -0.53549  -0.52947  -0.52465  -0.52157  -0.46915
 Alpha  occ. eigenvalues --   -0.46211  -0.42317  -0.41376
 Alpha virt. eigenvalues --    0.03036   0.04318   0.04607   0.04643   0.05977
 Alpha virt. eigenvalues --    0.06126   0.06369   0.06781   0.06896   0.08330
 Alpha virt. eigenvalues --    0.08736   0.09101   0.09243   0.09963   0.11469

 Mulliken charges:
               1
     1  C    0.704152
     2  O   -1.042252
     3  Si   1.904460
     4  C    0.443364
     5  H   -0.289511
     6  H   -0.294280
     7  H   -0.289508
     8  C    0.484296
     9  H   -0.288373
    10  H   -0.256735
    11  H   -0.322690
    12  C    0.484299
    13  H   -0.288374
    14  H   -0.322692
    15  H   -0.256736
    16  C    0.241155
    17  H   -0.206707
    18  H   -0.206707
    19  H   -0.077186
    20  H   -0.042791
    21  H   -0.077184
 Sum of Mulliken charges =  -0.00000

 Dipole moment (field-independent basis, Debye):
    X=             -0.0154    Y=             -1.1096    Z=              0.0000  Tot=              1.1097

 Test job not archived.
 1\1\GINC-SE328\SP\RHF\Aug-CC-pVDZ\C5H14O1Si1\OHZDE\08-Apr-2025\0\\#t h
 f aug-cc-pvdz iop(5/13=1,5/36=2,99/5=2) pseudo=read geom=check guess=(
 read,tcheck) scf=(maxcycle=1)\\title\\0,1\C,0,-1.89223,-0.462249,0.000
 013\O,0,-0.785545,0.432383,-0.000022\Si,0,0.828054,0.032649,0.000001\C
 ,0,1.730183,1.670588,-0.000062\H,0,1.46966,2.259774,-0.883726\H,0,2.81
 497,1.524715,-0.000051\H,0,1.469652,2.259847,0.883552\C,0,1.258131,-0.
 966873,1.533471\H,0,1.011889,-0.41721,2.44683\H,0,2.329395,-1.192094,1
 .559214\H,0,0.724552,-1.922031,1.562781\C,0,1.258145,-0.967,-1.533382\

 Normal termination of Gaussian 16 at Tue Apr  8 22:43:33 2025.
