 Gaussian 16, Revision C.01,

 ----------------------------------------------------------------------
 #t hf aug-cc-pvdz symm=none int=(grid=ultrafine) guess=(read,tcheck) s
 table=(opt,rrhf)
 ----------------------------------------------------------------------
 -----
 title
 -----
 Symbolic Z-matrix:
 Charge =  0 Multiplicity = 1

 SCF Done:  E(RHF) =  -650.123938882     A.U. after   15 cycles

 1\1\GINC-SE080\Stability\RHF\Aug-CC-pVDZ\C8H11P1\OHZDE\08-Apr-2025\0\\
 #t hf aug-cc-pvdz symm=none int=(grid=ultrafine) guess=(read,tcheck) s
 table=(opt,rrhf)\\title\\0,1\P,0,-1.640491,-0.652052,0.\C,0,0.162237,-
 0.220242,0.\C,0,1.083637,-1.274049,-0.000002\C,0,0.653568,1.092701,0.0
 00001\C,0,2.022487,1.342971,0.000001\C,0,2.928066,0.281782,0.\C,0,2.45
 6456,-1.027491,-0.000002\H,0,3.994628,0.477364,0.\H,0,3.154268,-1.8576
 06,-0.000003\H,0,0.718776,-2.295801,-0.000003\H,0,-0.033816,1.932096,0
 .000003\H,0,2.384817,2.365336,0.000003\C,0,-2.256608,0.379157,1.418485

 Normal termination of Gaussian 16 at Tue Apr  8 23:27:28 2025.
 Gaussian 16:  ES64L-G16RevC.01  3-Jul-2019

 ----------------------------------------------------------------------
 #t hf aug-cc-pvdz iop(5/13=1,5/36=2,99/5=2) pseudo=read geom=check gue
 ss=(read,tcheck) scf=(maxcycle=1)
 ----------------------------------------------------------------------
 -----
 title
 -----
 Structure from the checkpoint file:  "BDE49_nonexpt_1320_mol1.chk"
 Charge =  0 Multiplicity = 1

                         Standard orientation:
 ---------------------------------------------------------------------
 Center     Atomic      Atomic             Coordinates (Angstroms)
 Number     Number       Type             X           Y           Z
 ---------------------------------------------------------------------
      1         15           0       -1.640491   -0.652052    0.000000
      2          6           0        0.162237   -0.220242    0.000000
      3          6           0        1.083637   -1.274049   -0.000002
      4          6           0        0.653568    1.092701    0.000001
      5          6           0        2.022487    1.342971    0.000001
      6          6           0        2.928066    0.281782    0.000000
      7          6           0        2.456456   -1.027491   -0.000002
      8          1           0        3.994628    0.477364    0.000000
      9          1           0        3.154268   -1.857606   -0.000003
     10          1           0        0.718776   -2.295801   -0.000003
     11          1           0       -0.033816    1.932096    0.000003
     12          1           0        2.384817    2.365336    0.000003
     13          6           0       -2.256608    0.379157    1.418485
     14          1           0       -3.346219    0.298970    1.461548
     15          1           0       -1.852966   -0.016819    2.352772
     16          1           0       -1.986172    1.435578    1.336984
     17          6           0       -2.256608    0.379159   -1.418484
     18          1           0       -1.852966   -0.016814   -2.352772
     19          1           0       -1.986172    1.435580   -1.336981
     20          1           0       -3.346219    0.298973   -1.461547
 ---------------------------------------------------------------------

 SCF Done:  E(RHF) =  -650.240997488     A.U. after    2 cycles

 The electronic state is 1-A.
 Alpha  occ. eigenvalues --  -81.24983 -11.24995 -11.24947 -11.24768 -11.24726
 Alpha  occ. eigenvalues --  -11.24588 -11.24554 -11.23143 -11.23142  -7.75200
 Alpha  occ. eigenvalues --   -4.89287  -4.89151  -4.88906  -1.14348  -1.01907
 Alpha  occ. eigenvalues --   -1.01181  -0.97065  -0.93007  -0.83117  -0.82619
 Alpha  occ. eigenvalues --   -0.72784  -0.68054  -0.63318  -0.62749  -0.59714
 Alpha  occ. eigenvalues --   -0.58743  -0.57878  -0.55941  -0.55468  -0.54095
 Alpha  occ. eigenvalues --   -0.50921  -0.49947  -0.45722  -0.44962  -0.34231
 Alpha  occ. eigenvalues --   -0.33965  -0.32457
 Alpha virt. eigenvalues --    0.03302   0.03943   0.04335   0.04970   0.05320
 Alpha virt. eigenvalues --    0.05965   0.06831   0.07548   0.07576   0.07752
 Alpha virt. eigenvalues --    0.08687   0.09731   0.10589   0.10732   0.12403

 Mulliken charges:
               1
     1  P    0.164240
     2  C    0.120426
     3  C    0.333248
     4  C    0.506120
     5  C    0.498453
     6  C    0.621648
     7  C    0.645551
     8  H   -0.445517
     9  H   -0.445309
    10  H   -0.570844
    11  H   -0.683469
    12  H   -0.449985
    13  C    0.338687
    14  H   -0.159574
    15  H   -0.144459
    16  H   -0.181934
    17  C    0.338688
    18  H   -0.144461
    19  H   -0.181934
    20  H   -0.159575
 Sum of Mulliken charges =  -0.00000

 Dipole moment (field-independent basis, Debye):
    X=              0.3531    Y=              1.2624    Z=              0.0000  Tot=              1.3109

 Test job not archived.
 1\1\GINC-SE080\SP\RHF\Aug-CC-pVDZ\C8H11P1\OHZDE\08-Apr-2025\0\\#t hf a
 ug-cc-pvdz iop(5/13=1,5/36=2,99/5=2) pseudo=read geom=check guess=(rea
 d,tcheck) scf=(maxcycle=1)\\title\\0,1\P,0,-1.640491,-0.652052,0.\C,0,
 0.162237,-0.220242,0.\C,0,1.083637,-1.274049,-0.000002\C,0,0.653568,1.
 092701,0.000001\C,0,2.022487,1.342971,0.000001\C,0,2.928066,0.281782,0
 .\C,0,2.456456,-1.027491,-0.000002\H,0,3.994628,0.477364,0.\H,0,3.1542
 68,-1.857606,-0.000003\H,0,0.718776,-2.295801,-0.000003\H,0,-0.033816,
 1.932096,0.000003\H,0,2.384817,2.365336,0.000003\C,0,-2.256608,0.37915

 Normal termination of Gaussian 16 at Tue Apr  8 23:27:39 2025.
