 Gaussian 16, Revision C.01,

 ----------------------------------------------------------------------
 #t hf aug-cc-pvdz symm=none int=(grid=ultrafine) guess=(read,tcheck) s
 table=(opt,rrhf)
 ----------------------------------------------------------------------
 -----
 title
 -----
 Symbolic Z-matrix:
 Charge =  0 Multiplicity = 1

 SCF Done:  E(RHF) =  -666.397043708     A.U. after   15 cycles
 Normal termination of Gaussian 16 at Tue Apr  8 23:37:15 2025.
 Gaussian 16:  ES64L-G16RevC.01  3-Jul-2019

 ----------------------------------------------------------------------
 #t hf aug-cc-pvdz iop(5/13=1,5/36=2,99/5=2) pseudo=read geom=check gue
 ss=(read,tcheck) scf=(maxcycle=1)
 ----------------------------------------------------------------------
 -----
 title
 -----
 Structure from the checkpoint file:  "BDE49_nonexpt_1552_mol1.chk"
 Charge =  0 Multiplicity = 1

                         Standard orientation:
 ---------------------------------------------------------------------
 Center     Atomic      Atomic             Coordinates (Angstroms)
 Number     Number       Type             X           Y           Z
 ---------------------------------------------------------------------
      1          6           0        0.960210   -0.044278   -0.113761
      2          7           0       -1.869985    0.129684    0.175252
      3          6           0       -1.913192   -0.939575    1.170817
      4          1           0       -1.386768   -1.842837    0.839107
      5          1           0       -2.956849   -1.198467    1.378095
      6          1           0       -1.461443   -0.596040    2.103758
      7          8           0        0.800219   -1.152628   -0.576991
      8          6           0        2.327669    0.487644    0.299753
      9          6           0       -2.674226   -0.136526   -1.016948
     10          1           0       -2.627360    0.718650   -1.693410
     11          1           0       -3.720676   -0.286746   -0.728755
     12          1           0       -2.334841   -1.027465   -1.562116
     13          6           0        3.490932   -0.399326   -0.141441
     14          1           0        2.311815    0.596780    1.392046
     15          1           0        2.429651    1.507661   -0.091540
     16          1           0        3.374875   -1.412031    0.247695
     17          1           0        4.441508    0.003965    0.215174
     18          1           0        3.535614   -0.472432   -1.230157
     19         15           0       -0.517778    1.135896   -0.001988
     20          1           0       -0.299085    1.476117    1.358575
 ---------------------------------------------------------------------

 SCF Done:  E(RHF) =  -666.527141116     A.U. after    2 cycles

 The electronic state is 1-A.
 Alpha  occ. eigenvalues --  -81.28194 -20.56780 -15.62251 -11.33880 -11.26200
 Alpha  occ. eigenvalues --  -11.26118 -11.25284 -11.23113  -7.78254  -4.92424
 Alpha  occ. eigenvalues --   -4.92185  -4.91977  -1.35497  -1.17696  -1.04783
 Alpha  occ. eigenvalues --   -0.95516  -0.91177  -0.87463  -0.78266  -0.72217
 Alpha  occ. eigenvalues --   -0.66387  -0.64213  -0.63493  -0.62859  -0.61171
 Alpha  occ. eigenvalues --   -0.57628  -0.55376  -0.54707  -0.53484  -0.52096
 Alpha  occ. eigenvalues --   -0.51656  -0.50778  -0.49725  -0.42920  -0.36941
 Alpha  occ. eigenvalues --   -0.33600
 Alpha virt. eigenvalues --    0.03216   0.04008   0.04522   0.04950   0.05922
 Alpha virt. eigenvalues --    0.06013   0.06512   0.07271   0.07569   0.08166
 Alpha virt. eigenvalues --    0.08792   0.09307   0.10417   0.11231   0.11798

 Mulliken charges:
               1
     1  C   -0.053620
     2  N   -0.761263
     3  C    0.728577
     4  H   -0.023660
     5  H   -0.200128
     6  H   -0.234883
     7  O   -0.549180
     8  C   -0.072440
     9  C    0.725307
    10  H   -0.238426
    11  H   -0.184214
    12  H   -0.018649
    13  C    0.569678
    14  H   -0.007845
    15  H   -0.038415
    16  H   -0.060989
    17  H   -0.044159
    18  H   -0.063361
    19  P    0.442556
    20  H    0.085111
 Sum of Mulliken charges =   0.00000

 Dipole moment (field-independent basis, Debye):
    X=              0.1255    Y=              1.2456    Z=              1.4800  Tot=              1.9385

 Test job not archived.
 1\1\GINC-SE252\SP\RHF\Aug-CC-pVDZ\C5H12N1O1P1\OHZDE\08-Apr-2025\0\\#t
 hf aug-cc-pvdz iop(5/13=1,5/36=2,99/5=2) pseudo=read geom=check guess=
 (read,tcheck) scf=(maxcycle=1)\\title\\0,1\C,0,-0.96021,0.044278,-0.11
 3761\N,0,1.869985,-0.129684,0.175252\C,0,1.913192,0.939575,1.170817\H,
 0,1.386768,1.842837,0.839107\H,0,2.956849,1.198467,1.378095\H,0,1.4614
 43,0.59604,2.103758\O,0,-0.800219,1.152628,-0.576991\C,0,-2.327669,-0.
 487644,0.299753\C,0,2.674226,0.136526,-1.016948\H,0,2.62736,-0.71865,-
 1.69341\H,0,3.720676,0.286746,-0.728755\H,0,2.334841,1.027465,-1.56211

 Normal termination of Gaussian 16 at Tue Apr  8 23:37:24 2025.
