 Gaussian 16, Revision C.01,

 ----------------------------------------------------------------------
 #t hf aug-cc-pvdz symm=none int=(grid=ultrafine) guess=(read,tcheck) s
 table=(opt,rrhf)
 ----------------------------------------------------------------------
 -----
 title
 -----
 Symbolic Z-matrix:
 Charge =  0 Multiplicity = 1

 SCF Done:  E(RHF) =  -734.289520876     A.U. after   14 cycles
 Normal termination of Gaussian 16 at Wed Apr  9 00:19:05 2025.
 Gaussian 16:  ES64L-G16RevC.01  3-Jul-2019

 ----------------------------------------------------------------------
 #t hf aug-cc-pvdz iop(5/13=1,5/36=2,99/5=2) pseudo=read geom=check gue
 ss=(read,tcheck) scf=(maxcycle=1)
 ----------------------------------------------------------------------
 -----
 title
 -----
 Structure from the checkpoint file:  "BDE49_nonexpt_2623_mol1.chk"
 Charge =  0 Multiplicity = 1

                         Standard orientation:
 ---------------------------------------------------------------------
 Center     Atomic      Atomic             Coordinates (Angstroms)
 Number     Number       Type             X           Y           Z
 ---------------------------------------------------------------------
      1          9           0       -1.854559    0.525995    0.309332
      2         16           0       -0.807605   -0.624226   -0.285574
      3          6           0        0.715237    0.142329    0.344561
      4          9           0        1.677741   -0.802046    0.167455
      5          9           0        1.066876    1.245704   -0.354184
      6          1           0        0.619732    0.406766    1.398393
 ---------------------------------------------------------------------

 SCF Done:  E(RHF) =  -734.434279027     A.U. after    2 cycles

 The electronic state is 1-A.
 Alpha  occ. eigenvalues --  -93.65219 -26.17856 -26.16842 -26.15639 -11.48267
 Alpha  occ. eigenvalues --   -8.94185  -6.28346  -6.27977  -6.27524  -1.73905
 Alpha  occ. eigenvalues --   -1.69308  -1.66728  -1.08470  -0.95992  -0.85820
 Alpha  occ. eigenvalues --   -0.85123  -0.82743  -0.76684  -0.76047  -0.75524
 Alpha  occ. eigenvalues --   -0.73063  -0.70460  -0.66399  -0.52391  -0.41984
 Alpha virt. eigenvalues --    0.03788   0.04282   0.06875   0.09555   0.10485
 Alpha virt. eigenvalues --    0.11546   0.12530   0.14174   0.16145   0.20979
 Alpha virt. eigenvalues --    0.21980   0.23359   0.23789   0.26382   0.28487

 Mulliken charges:
               1
     1  F   -0.601418
     2  S    0.803226
     3  C    0.579948
     4  F   -0.315475
     5  F   -0.323226
     6  H   -0.143055
 Sum of Mulliken charges =  -0.00000

 Dipole moment (field-independent basis, Debye):
    X=              0.1864    Y=             -1.0199    Z=              1.0027  Tot=              1.4424

 Test job not archived.
 1\1\GINC-SE016\SP\RHF\Aug-CC-pVDZ\C1H1F3S1\OHZDE\09-Apr-2025\0\\#t hf
 aug-cc-pvdz iop(5/13=1,5/36=2,99/5=2) pseudo=read geom=check guess=(re
 ad,tcheck) scf=(maxcycle=1)\\title\\0,1\F,0,-1.854559,0.525994,0.30933
 2\S,0,-0.807605,-0.624226,-0.285574\C,0,0.715237,0.142329,0.344561\F,0
 ,1.677741,-0.802046,0.167455\F,0,1.066875,1.245704,-0.354184\H,0,0.619
 732,0.406766,1.398393\\Version=ES64L-G16RevC.01\State=1-A\HF=-734.4342
 79\RMSD=5.285e-03\Dipole=0.0733366,-0.4012575,0.3945033\Quadrupole=-2.
 2100965,-0.118812,2.3289086,1.3151426,1.6174401,1.4295625\PG=C01 [X(C1

 Normal termination of Gaussian 16 at Wed Apr  9 00:19:07 2025.
