 Gaussian 16, Revision C.01,

 ----------------------------------------------------------------------
 #t hf aug-cc-pvdz symm=none int=(grid=ultrafine) guess=(read,tcheck) s
 table=opt
 ----------------------------------------------------------------------
 -----
 title
 -----
 Symbolic Z-matrix:
 Charge =  0 Multiplicity = 2

 SCF Done:  E(UHF) =  -585.731482082     A.U. after   18 cycles
 Normal termination of Gaussian 16 at Tue Apr  8 23:16:49 2025.
 Gaussian 16:  ES64L-G16RevC.01  3-Jul-2019

 ----------------------------------------------------------------------
 #t hf aug-cc-pvdz iop(5/13=1,5/36=2,99/5=2) pseudo=read geom=check gue
 ss=(read,tcheck) scf=(maxcycle=1)
 ----------------------------------------------------------------------
 -----
 title
 -----
 Structure from the checkpoint file:  "BDE49_nonexpt_1059_mol2.chk"
 Charge =  0 Multiplicity = 2

                         Standard orientation:
 ---------------------------------------------------------------------
 Center     Atomic      Atomic             Coordinates (Angstroms)
 Number     Number       Type             X           Y           Z
 ---------------------------------------------------------------------
      1          8           0       -0.915122    1.217626   -0.000010
      2          6           0       -0.431215    0.113005    0.000042
      3         16           0        1.308485   -0.083070   -0.000012
      4          8           0       -1.120400   -1.035408    0.000004
      5          1           0       -2.064285   -0.806647   -0.000017
 ---------------------------------------------------------------------

 SCF Done:  E(UHF) =  -585.810847378     A.U. after    2 cycles

 The electronic state is 2-A.
 Alpha  occ. eigenvalues --  -93.60043 -20.65857 -20.59081 -11.44886  -8.89884
 Alpha  occ. eigenvalues --   -6.25230  -6.23547  -6.23047  -1.45812  -1.36131
 Alpha  occ. eigenvalues --   -1.05269  -0.86122  -0.74632  -0.70550  -0.68111
 Alpha  occ. eigenvalues --   -0.60647  -0.53838  -0.50792  -0.47125  -0.42489
 Alpha virt. eigenvalues --    0.03264   0.06701   0.10098   0.10597   0.11092
 Alpha virt. eigenvalues --    0.11858   0.12267   0.13734   0.15364   0.19871
 Alpha virt. eigenvalues --    0.20896   0.21275   0.22141   0.24177   0.28627

  Beta  occ. eigenvalues --  -93.59106 -20.65835 -20.58873 -11.45004  -8.88837
  Beta  occ. eigenvalues --   -6.23039  -6.22456  -6.21108  -1.45645  -1.35706
  Beta  occ. eigenvalues --   -0.99442  -0.83617  -0.74262  -0.68489  -0.68099
  Beta  occ. eigenvalues --   -0.59240  -0.53657  -0.47805  -0.40140
  Beta virt. eigenvalues --   -0.01389   0.03328   0.06900   0.10620   0.10686
  Beta virt. eigenvalues --    0.11350   0.11779   0.13768   0.13939   0.15442
  Beta virt. eigenvalues --    0.20076   0.20976   0.21531   0.24362   0.24821

 Mulliken charges and spin densities:
               1          2
     1  O   -0.395482   0.024392
     2  C    0.265564  -0.090931
     3  S    0.342071   1.077578
     4  O   -0.384948  -0.008860
     5  H    0.172795  -0.002180
 Sum of Mulliken charges =   0.00000   1.00000

 Dipole moment (field-independent basis, Debye):
    X=             -0.2403    Y=             -1.8065    Z=              0.0001  Tot=              1.8224
                          Isotropic Fermi Contact Couplings
        Atom                 a.u.       MegaHertz       Gauss      10(-4) cm-1
     1  O(17)              0.02634     -15.96768      -5.69766      -5.32624
     2  C(13)             -0.02382     -26.78270      -9.55673      -8.93375
     3  S(33)              0.22796      78.29695      27.93830      26.11705
     4  O(17)              0.01266      -7.67339      -2.73806      -2.55957
     5  H(1)               0.00124       5.53403       1.97468       1.84595
 --------------------------------------------------------
       Center         ----  Spin Dipole Couplings  ----
                      3XX-RR        3YY-RR        3ZZ-RR

 Normal termination of Gaussian 16 at Tue Apr  8 23:16:51 2025.
