 Gaussian 16, Revision C.01,

 ----------------------------------------------------------------------
 #t hf aug-cc-pvdz symm=none int=(grid=ultrafine) guess=(read,tcheck) s
 table=(opt,rrhf)
 ----------------------------------------------------------------------
 -----
 title
 -----
 Symbolic Z-matrix:
 Charge =  0 Multiplicity = 1

 SCF Done:  E(RHF) =  -1070.63867293     A.U. after   13 cycles
 Normal termination of Gaussian 16 at Wed Apr  9 00:11:35 2025.
 Gaussian 16:  ES64L-G16RevC.01  3-Jul-2019

 ----------------------------------------------------------------------
 #t hf aug-cc-pvdz iop(5/13=1,5/36=2,99/5=2) pseudo=read geom=check gue
 ss=(read,tcheck) scf=(maxcycle=1)
 ----------------------------------------------------------------------
 -----
 title
 -----
 Structure from the checkpoint file:  "BDE49_nonexpt_2426_mol1.chk"
 Charge =  0 Multiplicity = 1

                         Standard orientation:
 ---------------------------------------------------------------------
 Center     Atomic      Atomic             Coordinates (Angstroms)
 Number     Number       Type             X           Y           Z
 ---------------------------------------------------------------------
      1         14           0        2.088929    0.721082   -0.231751
      2         14           0        0.628484   -0.987289    0.481934
      3          1           0        3.413644    0.468291    0.383913
      4          1           0        1.577445    2.038359    0.200309
      5          1           0        2.206526    0.669325   -1.705828
      6         16           0       -1.361847   -0.824780   -0.469515
      7          1           0        0.434702   -1.013705    1.948171
      8          1           0        1.046534   -2.326961    0.009694
      9          6           0       -1.759544    0.739941    0.059057
     10          7           0       -2.053687    1.806917    0.402725
 ---------------------------------------------------------------------

 SCF Done:  E(RHF) =  -1070.72528804     A.U. after    2 cycles

 The electronic state is 1-A.
 Alpha  occ. eigenvalues --  -93.58989 -69.11915 -69.08522 -15.65098 -11.31577
 Alpha  occ. eigenvalues --   -8.88795  -6.87046  -6.83943  -6.23015  -6.22669
 Alpha  occ. eigenvalues --   -6.22386  -3.97851  -3.97737  -3.97677  -3.94695
 Alpha  occ. eigenvalues --   -3.94693  -3.94686  -1.20229  -1.02941  -0.76449
 Alpha  occ. eigenvalues --   -0.70254  -0.63682  -0.55187  -0.54659  -0.53616
 Alpha  occ. eigenvalues --   -0.51651  -0.50316  -0.49701  -0.44795  -0.42669
 Alpha  occ. eigenvalues --   -0.38273
 Alpha virt. eigenvalues --    0.03283   0.03666   0.04673   0.05794   0.06587
 Alpha virt. eigenvalues --    0.07024   0.07146   0.08024   0.08894   0.09083
 Alpha virt. eigenvalues --    0.09618   0.10334   0.10617   0.11404   0.12461

 Mulliken charges:
               1
     1  Si  -0.077048
     2  Si   0.415868
     3  H    0.021903
     4  H    0.063753
     5  H    0.050432
     6  S    0.033325
     7  H    0.083079
     8  H   -0.007575
     9  C   -0.403395
    10  N   -0.180342
 Sum of Mulliken charges =   0.00000

 Dipole moment (field-independent basis, Debye):
    X=              3.1093    Y=             -2.7265    Z=             -0.2750  Tot=              4.1445

 Test job not archived.
 1\1\GINC-SE453\SP\RHF\Aug-CC-pVDZ\C1H5N1S1Si2\OHZDE\09-Apr-2025\0\\#t
 hf aug-cc-pvdz iop(5/13=1,5/36=2,99/5=2) pseudo=read geom=check guess=
 (read,tcheck) scf=(maxcycle=1)\\title\\0,1\Si,0,2.088929,0.721082,-0.2
 31751\Si,0,0.628484,-0.987289,0.481934\H,0,3.413644,0.468291,0.383913\
 H,0,1.577445,2.038359,0.200309\H,0,2.206526,0.669325,-1.705828\S,0,-1.
 361847,-0.82478,-0.469515\H,0,0.434702,-1.013705,1.948171\H,0,1.046534
 ,-2.326961,0.009694\C,0,-1.759544,0.739941,0.059057\N,0,-2.053687,1.80
 6917,0.402725\\Version=ES64L-G16RevC.01\State=1-A\HF=-1070.725288\RMSD

 Normal termination of Gaussian 16 at Wed Apr  9 00:11:39 2025.
