 Gaussian 16, Revision C.01,

 ----------------------------------------------------------------------
 #t hf aug-cc-pvdz symm=none int=(grid=ultrafine) guess=(read,tcheck) s
 table=(opt,rrhf)
 ----------------------------------------------------------------------
 -----
 title
 -----
 Symbolic Z-matrix:
 Charge =  0 Multiplicity = 1

 SCF Done:  E(RHF) =  -840.987698646     A.U. after   17 cycles
 Normal termination of Gaussian 16 at Wed Apr  9 00:23:22 2025.
 Gaussian 16:  ES64L-G16RevC.01  3-Jul-2019

 ----------------------------------------------------------------------
 #t hf aug-cc-pvdz iop(5/13=1,5/36=2,99/5=2) pseudo=read geom=check gue
 ss=(read,tcheck) scf=(maxcycle=1)
 ----------------------------------------------------------------------
 -----
 title
 -----
 Structure from the checkpoint file:  "BDE49_nonexpt_2695_mol1.chk"
 Charge =  0 Multiplicity = 1

                         Standard orientation:
 ---------------------------------------------------------------------
 Center     Atomic      Atomic             Coordinates (Angstroms)
 Number     Number       Type             X           Y           Z
 ---------------------------------------------------------------------
      1          9           0       -2.398221   -1.601263    0.639308
      2         16           0       -2.478807   -0.246044   -0.355134
      3          6           0       -0.866709    0.418309   -0.098415
      4          6           0        0.263020   -0.412666   -0.135770
      5          6           0        1.527401    0.154957    0.002598
      6          6           0        1.660107    1.548841    0.122752
      7          6           0       -0.744415    1.798641    0.059561
      8          1           0       -1.626938    2.421580    0.131655
      9          6           0        0.534866    2.355499    0.139318
     10          1           0        0.646820    3.428060    0.248482
     11          1           0        2.656679    1.963253    0.210984
     12          1           0        0.127180   -1.477568   -0.255694
     13          8           0        2.690277   -0.548348    0.010811
     14          6           0        2.628208   -1.965458   -0.105365
     15          1           0        2.185508   -2.269291   -1.060062
     16          1           0        2.059240   -2.409100    0.718486
     17          1           0        3.659326   -2.310828   -0.060029
 ---------------------------------------------------------------------

 SCF Done:  E(RHF) =  -841.150304332     A.U. after    2 cycles

 The electronic state is 1-A.
 Alpha  occ. eigenvalues --  -93.62441 -26.12435 -20.61152 -11.32889 -11.30536
 Alpha  occ. eigenvalues --  -11.29697 -11.26590 -11.26098 -11.25991 -11.25583
 Alpha  occ. eigenvalues --   -8.91299  -6.25511  -6.25176  -6.24716  -1.63282
 Alpha  occ. eigenvalues --   -1.38214  -1.16527  -1.06420  -1.03108  -0.97221
 Alpha  occ. eigenvalues --   -0.94129  -0.84144  -0.82488  -0.74856  -0.72805
 Alpha  occ. eigenvalues --   -0.71824  -0.69935  -0.68928  -0.67643  -0.67183
 Alpha  occ. eigenvalues --   -0.62717  -0.60256  -0.56588  -0.54716  -0.54008
 Alpha  occ. eigenvalues --   -0.53249  -0.50004  -0.48597  -0.41049  -0.34853
 Alpha  occ. eigenvalues --   -0.32879
 Alpha virt. eigenvalues --    0.03250   0.03664   0.04628   0.04938   0.05776
 Alpha virt. eigenvalues --    0.06069   0.06232   0.08249   0.09044   0.09235
 Alpha virt. eigenvalues --    0.10228   0.10779   0.12246   0.12488   0.13297

 Mulliken charges:
               1
     1  F   -0.634622
     2  S    0.573871
     3  C    0.504297
     4  C    0.143371
     5  C    0.602699
     6  C    0.428610
     7  C    0.217063
     8  H   -0.472878
     9  C    0.646445
    10  H   -0.420961
    11  H   -0.538628
    12  H   -0.682375
    13  O   -0.699959
    14  C    0.796703
    15  H   -0.081667
    16  H   -0.068183
    17  H   -0.313785
 Sum of Mulliken charges =  -0.00000

 Dipole moment (field-independent basis, Debye):
    X=              1.7066    Y=              0.9901    Z=             -0.8924  Tot=              2.1655

 Test job not archived.
 1\1\GINC-SE038\SP\RHF\Aug-CC-pVDZ\C7H7F1O1S1\OHZDE\09-Apr-2025\0\\#t h
 f aug-cc-pvdz iop(5/13=1,5/36=2,99/5=2) pseudo=read geom=check guess=(
 read,tcheck) scf=(maxcycle=1)\\title\\0,1\F,0,-2.398221,-1.601263,0.63
 9308\S,0,-2.478807,-0.246044,-0.355134\C,0,-0.866709,0.418309,-0.09841
 5\C,0,0.26302,-0.412666,-0.13577\C,0,1.527401,0.154957,0.002598\C,0,1.
 660107,1.548841,0.122752\C,0,-0.744415,1.798641,0.059561\H,0,-1.626938
 ,2.42158,0.131655\C,0,0.534866,2.355499,0.139318\H,0,0.64682,3.42806,0
 .248482\H,0,2.656679,1.963253,0.210984\H,0,0.12718,-1.477568,-0.255694

 Normal termination of Gaussian 16 at Wed Apr  9 00:23:32 2025.
