 Gaussian 16, Revision C.01,

 ----------------------------------------------------------------------
 #t hf aug-cc-pvdz symm=none int=(grid=ultrafine) guess=(read,tcheck) s
 table=opt
 ----------------------------------------------------------------------
 -----
 title
 -----
 Symbolic Z-matrix:
 Charge =  0 Multiplicity = 2

 SCF Done:  E(UHF) =  -597.532775745     A.U. after   19 cycles
 Normal termination of Gaussian 16 at Wed Apr  9 00:28:13 2025.
 Gaussian 16:  ES64L-G16RevC.01  3-Jul-2019

 ----------------------------------------------------------------------
 #t hf aug-cc-pvdz iop(5/13=1,5/36=2,99/5=2) pseudo=read geom=check gue
 ss=(read,tcheck) scf=(maxcycle=1)
 ----------------------------------------------------------------------
 -----
 title
 -----
 Structure from the checkpoint file:  "BDE49_nonexpt_34_mol2.chk"
 Charge =  0 Multiplicity = 2

                         Standard orientation:
 ---------------------------------------------------------------------
 Center     Atomic      Atomic             Coordinates (Angstroms)
 Number     Number       Type             X           Y           Z
 ---------------------------------------------------------------------
      1          5           0        0.061222    0.792536    0.000029
      2          6           0       -1.264363    0.134643    0.000013
      3          8           0       -2.308168   -0.352151    0.000004
      4         17           0        1.508459   -0.231024   -0.000015
      5          1           0        0.101601    1.974078    0.000006
 ---------------------------------------------------------------------

 SCF Done:  E(UHF) =  -597.595262555     A.U. after    2 cycles

 The electronic state is 2-A.
 Alpha  occ. eigenvalues -- -103.66913 -20.69451 -11.40403 -10.70334  -8.35973
 Alpha  occ. eigenvalues --   -8.35923  -8.35768  -7.69369  -1.49305  -1.16221
 Alpha  occ. eigenvalues --   -0.91960  -0.78561  -0.73123  -0.67119  -0.62706
 Alpha  occ. eigenvalues --   -0.56513  -0.51819  -0.47481  -0.35129
 Alpha virt. eigenvalues --    0.04258   0.04681   0.05025   0.05199   0.08108
 Alpha virt. eigenvalues --    0.09204   0.11437   0.12607   0.12640   0.13608
 Alpha virt. eigenvalues --    0.16105   0.17307   0.17447   0.18339   0.23562

  Beta  occ. eigenvalues -- -103.66861 -20.68022 -11.39936 -10.70280  -8.36039
  Beta  occ. eigenvalues --   -8.35742  -8.35618  -7.68762  -1.46392  -1.15690
  Beta  occ. eigenvalues --   -0.86420  -0.76182  -0.65707  -0.62213  -0.61950
  Beta  occ. eigenvalues --   -0.56120  -0.49236  -0.47312
  Beta virt. eigenvalues --    0.02189   0.04371   0.04801   0.05155   0.06093
  Beta virt. eigenvalues --    0.08983   0.09316   0.11523   0.12677   0.13105
  Beta virt. eigenvalues --    0.16208   0.16717   0.17603   0.18362   0.21321

 Mulliken charges and spin densities:
               1          2
     1  B    0.044091   0.327365
     2  C    0.181291   0.413672
     3  O   -0.178847   0.257286
     4  Cl  -0.300344   0.027024
     5  H    0.253810  -0.025347
 Sum of Mulliken charges =  -0.00000   1.00000

 Dipole moment (field-independent basis, Debye):
    X=             -0.3475    Y=              1.0163    Z=              0.0000  Tot=              1.0740
                          Isotropic Fermi Contact Couplings
        Atom                 a.u.       MegaHertz       Gauss      10(-4) cm-1
     1  B(11)              0.03759      53.91497      19.23820      17.98410
     2  C(13)             -0.01249     -14.03997      -5.00981      -4.68323
     3  O(17)              0.11933     -72.33543     -25.81108     -24.12850
     4  Cl(35)             0.02204       9.66383       3.44830       3.22351
     5  H(1)              -0.01129     -50.46580     -18.00745     -16.83358
 --------------------------------------------------------
       Center         ----  Spin Dipole Couplings  ----
                      3XX-RR        3YY-RR        3ZZ-RR

 1\1\GINC-SE212\SP\UHF\Aug-CC-pVDZ\C1H1B1Cl1O1(2)\OHZDE\09-Apr-2025\0\\
 #t hf aug-cc-pvdz iop(5/13=1,5/36=2,99/5=2) pseudo=read geom=check gue
 ss=(read,tcheck) scf=(maxcycle=1)\\title\\0,2\B,0,-0.061222,0.792536,-
 0.000029\C,0,1.264363,0.134643,-0.000013\O,0,2.308168,-0.352151,-0.000
 004\Cl,0,-1.508459,-0.231024,0.000015\H,0,-0.101601,1.974078,-0.000006
 \\Version=ES64L-G16RevC.01\State=2-A\HF=-597.5952626\S2=0.7626\S2-1=0.
 \S2A=0.750108\RMSD=2.830e-03\Dipole=0.1367105,0.399825,-0.0000183\Quad
 rupole=-2.6270484,1.5016562,1.1253922,1.112743,-0.0000089,-0.0000235\P

 Normal termination of Gaussian 16 at Wed Apr  9 00:28:15 2025.
