 Gaussian 16, Revision C.01,

 ----------------------------------------------------------------------
 #t hf aug-cc-pvdz symm=none int=(grid=ultrafine) guess=(read,tcheck) s
 table=opt
 ----------------------------------------------------------------------
 -----
 title
 -----
 Symbolic Z-matrix:
 Charge =  0 Multiplicity = 2

 SCF Done:  E(UHF) =  -153.473020081     A.U. after   15 cycles
 Normal termination of Gaussian 16 at Tue Apr  8 22:39:24 2025.
 Gaussian 16:  ES64L-G16RevC.01  3-Jul-2019

 ----------------------------------------------------------------------
 #t hf aug-cc-pvdz iop(5/13=1,5/36=2,99/5=2) pseudo=read geom=check gue
 ss=(read,tcheck) scf=(maxcycle=1)
 ----------------------------------------------------------------------
 -----
 title
 -----
 Structure from the checkpoint file:  "BDE49_expt_1351_mol2.chk"
 Charge =  0 Multiplicity = 2

                         Standard orientation:
 ---------------------------------------------------------------------
 Center     Atomic      Atomic             Coordinates (Angstroms)
 Number     Number       Type             X           Y           Z
 ---------------------------------------------------------------------
      1          6           0       -1.251921   -0.254635   -0.019708
      2          6           0        0.008520    0.519370    0.037213
      3          1           0       -2.189772    0.238194   -0.239965
      4          1           0       -1.253040   -1.287024    0.303987
      5          8           0        1.112763   -0.377132   -0.063789
      6          1           0        0.060182    1.086366    0.988093
      7          1           0        0.026145    1.271885   -0.769042
      8          1           0        1.914785    0.119222    0.122207
 ---------------------------------------------------------------------

 SCF Done:  E(UHF) =  -153.522990249     A.U. after    2 cycles

 The electronic state is 2-A.
 Alpha  occ. eigenvalues --  -20.57451 -11.29356 -11.24108  -1.32314  -1.01947
 Alpha  occ. eigenvalues --   -0.83530  -0.71939  -0.65014  -0.59564  -0.56475
 Alpha  occ. eigenvalues --   -0.52116  -0.47870  -0.35799
 Alpha virt. eigenvalues --    0.03406   0.04761   0.05397   0.05813   0.07167
 Alpha virt. eigenvalues --    0.11979   0.13247   0.13421   0.13921   0.16977
 Alpha virt. eigenvalues --    0.17007   0.19042   0.20875   0.22852   0.23205

  Beta  occ. eigenvalues --  -20.57419 -11.29699 -11.21646  -1.32183  -0.97814
  Beta  occ. eigenvalues --   -0.78864  -0.71465  -0.63591  -0.58900  -0.55220
  Beta  occ. eigenvalues --   -0.51018  -0.46506
  Beta virt. eigenvalues --    0.03433   0.04800   0.05398   0.05793   0.07188
  Beta virt. eigenvalues --    0.08907   0.12042   0.13441   0.13955   0.16633
  Beta virt. eigenvalues --    0.17231   0.19225   0.19782   0.21387   0.23006

 Mulliken charges and spin densities:
               1          2
     1  C    0.335770   1.356360
     2  C    0.707724  -0.199517
     3  H   -0.219589  -0.109429
     4  H   -0.200059  -0.106795
     5  O   -0.524197   0.005951
     6  H   -0.102187   0.036784
     7  H   -0.129786   0.018746
     8  H    0.132324  -0.002099
 Sum of Mulliken charges =  -0.00000   1.00000

 Dipole moment (field-independent basis, Debye):
    X=              0.0874    Y=              1.8619    Z=              0.5351  Tot=              1.9392
                          Isotropic Fermi Contact Couplings
        Atom                 a.u.       MegaHertz       Gauss      10(-4) cm-1
     1  C(13)              0.21537     242.11603      86.39302      80.76122
     2  C(13)             -0.06469     -72.72793     -25.95113     -24.25943
     3  H(1)              -0.02538    -113.46302     -40.48643     -37.84719
     4  H(1)              -0.02529    -113.02490     -40.33010     -37.70105
     5  O(17)              0.01013      -6.14157      -2.19147      -2.04861
     6  H(1)               0.02470     110.41759      39.39974      36.83134
     7  H(1)               0.01281      57.24064      20.42488      19.09342
     8  H(1)              -0.00048      -2.13790      -0.76286      -0.71313

 Normal termination of Gaussian 16 at Tue Apr  8 22:39:26 2025.
