 Gaussian 16, Revision C.01,

 ----------------------------------------------------------------------
 #t hf aug-cc-pvdz symm=none int=(grid=ultrafine) guess=(read,tcheck) s
 table=(opt,rrhf)
 ----------------------------------------------------------------------
 -----
 title
 -----
 Symbolic Z-matrix:
 Charge =  0 Multiplicity = 1

 SCF Done:  E(RHF) =  -532.579666463     A.U. after   14 cycles

 1\1\GINC-SE368\Stability\RHF\Aug-CC-pVDZ\C6H10O4\OHZDE\08-Apr-2025\0\\
 #t hf aug-cc-pvdz symm=none int=(grid=ultrafine) guess=(read,tcheck) s
 table=(opt,rrhf)\\title\\0,1\C,0,-1.250194,0.372925,-0.043265\O,0,-1.9
 78428,0.844436,-0.876666\O,0,-1.46403,-0.813417,0.55903\C,0,-2.631246,
 -1.536227,0.125066\C,0,0.012095,1.032622,0.506613\C,0,1.191827,0.06654
 9,0.486192\O,0,1.896553,-0.188858,1.426971\O,0,1.374378,-0.439254,-0.7
 51211\C,0,2.476495,-1.35381,-0.897091\H,0,-2.640615,-2.451577,0.712075
 \H,0,-2.563715,-1.761787,-0.940144\H,0,-3.532881,-0.950647,0.309957\H,

 Normal termination of Gaussian 16 at Tue Apr  8 23:01:55 2025.
 Gaussian 16:  ES64L-G16RevC.01  3-Jul-2019

 ----------------------------------------------------------------------
 #t hf aug-cc-pvdz iop(5/13=1,5/36=2,99/5=2) pseudo=read geom=check gue
 ss=(read,tcheck) scf=(maxcycle=1)
 ----------------------------------------------------------------------
 -----
 title
 -----
 Structure from the checkpoint file:  "BDE49_expt_274_mol1.chk"
 Charge =  0 Multiplicity = 1

                         Standard orientation:
 ---------------------------------------------------------------------
 Center     Atomic      Atomic             Coordinates (Angstroms)
 Number     Number       Type             X           Y           Z
 ---------------------------------------------------------------------
      1          6           0       -1.250194    0.372925   -0.043265
      2          8           0       -1.978428    0.844436   -0.876666
      3          8           0       -1.464030   -0.813417    0.559030
      4          6           0       -2.631246   -1.536227    0.125066
      5          6           0        0.012095    1.032622    0.506613
      6          6           0        1.191827    0.066549    0.486192
      7          8           0        1.896553   -0.188858    1.426971
      8          8           0        1.374378   -0.439254   -0.751211
      9          6           0        2.476495   -1.353810   -0.897091
     10          1           0       -2.640615   -2.451577    0.712075
     11          1           0       -2.563715   -1.761787   -0.940144
     12          1           0       -3.532881   -0.950647    0.309957
     13          1           0        2.469618   -1.652783   -1.942677
     14          1           0        2.339503   -2.219383   -0.247412
     15          1           0        3.416376   -0.861782   -0.642995
     16          6           0        0.336592    2.330845   -0.243169
     17          1           0       -0.168102    1.239575    1.564683
     18          1           0        0.534699    2.127215   -1.295694
     19          1           0        1.212255    2.812830    0.196599
     20          1           0       -0.508332    3.017652   -0.185455
 ---------------------------------------------------------------------

 SCF Done:  E(RHF) =  -532.750948303     A.U. after    2 cycles

 The electronic state is 1-A.
 Alpha  occ. eigenvalues --  -20.62522 -20.62483 -20.57153 -20.57014 -11.40449
 Alpha  occ. eigenvalues --  -11.40397 -11.30366 -11.30329 -11.28042 -11.24414
 Alpha  occ. eigenvalues --   -1.43319  -1.42442  -1.33533  -1.33385  -1.09464
 Alpha  occ. eigenvalues --   -0.98767  -0.97958  -0.89735  -0.81189  -0.78325
 Alpha  occ. eigenvalues --   -0.74896  -0.71510  -0.70270  -0.69328  -0.67953
 Alpha  occ. eigenvalues --   -0.67073  -0.62115  -0.60738  -0.58118  -0.56244
 Alpha  occ. eigenvalues --   -0.55517  -0.55313  -0.54193  -0.53815  -0.52372
 Alpha  occ. eigenvalues --   -0.48851  -0.48580  -0.48457  -0.45959
 Alpha virt. eigenvalues --    0.03214   0.04098   0.04203   0.05142   0.05660
 Alpha virt. eigenvalues --    0.05980   0.06519   0.06764   0.07654   0.08077
 Alpha virt. eigenvalues --    0.09966   0.11320   0.12116   0.13205   0.13844

 Mulliken charges:
               1
     1  C    0.682046
     2  O   -0.447423
     3  O   -0.560216
     4  C    0.816188
     5  C   -0.509873
     6  C    0.404550
     7  O   -0.472976
     8  O   -0.574307
     9  C    0.801300
    10  H   -0.250063
    11  H   -0.069971
    12  H   -0.087261
    13  H   -0.256452
    14  H   -0.076617
    15  H   -0.086163
    16  C    0.820921
    17  H   -0.035675
    18  H    0.007200
    19  H   -0.038028
    20  H   -0.067179
 Sum of Mulliken charges =  -0.00000

 Dipole moment (field-independent basis, Debye):
    X=             -0.0426    Y=             -1.1780    Z=             -0.7270  Tot=              1.3849

 Test job not archived.
 1\1\GINC-SE368\SP\RHF\Aug-CC-pVDZ\C6H10O4\OHZDE\08-Apr-2025\0\\#t hf a
 ug-cc-pvdz iop(5/13=1,5/36=2,99/5=2) pseudo=read geom=check guess=(rea
 d,tcheck) scf=(maxcycle=1)\\title\\0,1\C,0,-1.250194,0.372925,-0.04326
 5\O,0,-1.978428,0.844436,-0.876666\O,0,-1.46403,-0.813417,0.55903\C,0,
 -2.631246,-1.536227,0.125066\C,0,0.012095,1.032622,0.506613\C,0,1.1918
 27,0.066549,0.486192\O,0,1.896553,-0.188858,1.426971\O,0,1.374378,-0.4
 39254,-0.751211\C,0,2.476495,-1.35381,-0.897091\H,0,-2.640615,-2.45157
 7,0.712075\H,0,-2.563715,-1.761787,-0.940144\H,0,-3.532881,-0.950647,0

 Normal termination of Gaussian 16 at Tue Apr  8 23:02:04 2025.
