 Gaussian 16, Revision C.01,

 ----------------------------------------------------------------------
 #t hf aug-cc-pvdz symm=none int=(grid=ultrafine) guess=(read,tcheck) s
 table=opt
 ----------------------------------------------------------------------
 -----
 title
 -----
 Symbolic Z-matrix:
 Charge =  0 Multiplicity = 2

 SCF Done:  E(UHF) =  -626.757737270     A.U. after   19 cycles
 Normal termination of Gaussian 16 at Tue Apr  8 23:21:10 2025.
 Gaussian 16:  ES64L-G16RevC.01  3-Jul-2019

 ----------------------------------------------------------------------
 #t hf aug-cc-pvdz iop(5/13=1,5/36=2,99/5=2) pseudo=read geom=check gue
 ss=(read,tcheck) scf=(maxcycle=1)
 ----------------------------------------------------------------------
 -----
 title
 -----
 Structure from the checkpoint file:  "BDE49_nonexpt_1191_mol2.chk"
 Charge =  0 Multiplicity = 2

                         Standard orientation:
 ---------------------------------------------------------------------
 Center     Atomic      Atomic             Coordinates (Angstroms)
 Number     Number       Type             X           Y           Z
 ---------------------------------------------------------------------
      1         16           0       -2.039890   -0.412427   -0.000117
      2          6           0       -0.414343    0.276690    0.000185
      3          8           0       -0.380340    1.493241   -0.000080
      4          6           0        0.763903   -0.610305    0.000105
      5          6           0        2.004903   -0.129426   -0.744097
      6          6           0        2.004977   -0.129441    0.744185
      7          1           0        0.549958   -1.672211    0.000103
      8          1           0        2.573900   -0.884870    1.271131
      9          1           0        1.913400    0.824846    1.247192
     10          1           0        1.913278    0.824872   -1.247073
     11          1           0        2.573777   -0.884842   -1.271115
 ---------------------------------------------------------------------

 SCF Done:  E(UHF) =  -626.846055925     A.U. after    2 cycles

 The electronic state is 2-A.
 Alpha  occ. eigenvalues --  -93.57933 -20.57358 -11.38435 -11.27462 -11.26639
 Alpha  occ. eigenvalues --  -11.26578  -8.87797  -6.23160  -6.21457  -6.20994
 Alpha  occ. eigenvalues --   -1.37232  -1.16204  -1.03157  -0.90106  -0.84609
 Alpha  occ. eigenvalues --   -0.75221  -0.70125  -0.67588  -0.61769  -0.59050
 Alpha  occ. eigenvalues --   -0.58256  -0.53854  -0.49335  -0.45069  -0.44219
 Alpha  occ. eigenvalues --   -0.43197  -0.40445
 Alpha virt. eigenvalues --    0.03092   0.04631   0.04807   0.05533   0.07368
 Alpha virt. eigenvalues --    0.07904   0.09629   0.10116   0.11639   0.11716
 Alpha virt. eigenvalues --    0.12212   0.14057   0.14394   0.14719   0.14898

  Beta  occ. eigenvalues --  -93.57003 -20.57164 -11.38545 -11.27449 -11.26635
  Beta  occ. eigenvalues --  -11.26574  -8.86760  -6.20935  -6.20397  -6.19089
  Beta  occ. eigenvalues --   -1.36669  -1.16151  -0.98328  -0.87041  -0.84597
  Beta  occ. eigenvalues --   -0.74822  -0.68695  -0.67200  -0.60029  -0.58921
  Beta  occ. eigenvalues --   -0.57791  -0.53832  -0.47538  -0.44189  -0.42123
  Beta  occ. eigenvalues --   -0.38120
  Beta virt. eigenvalues --   -0.00037   0.03149   0.04638   0.05050   0.05605
  Beta virt. eigenvalues --    0.07368   0.08098   0.09713   0.10000   0.11743
  Beta virt. eigenvalues --    0.12095   0.12383   0.14499   0.14604   0.14789

 Mulliken charges and spin densities:
               1          2
     1  S    0.282708   1.097223
     2  C   -0.245526  -0.125727
     3  O   -0.536396   0.015832
     4  C    0.798705   0.017328
     5  C    0.639270  -0.000148
     6  C    0.639134  -0.000152
     7  H   -0.368894  -0.003486
     8  H   -0.302327   0.000000
     9  H   -0.302171  -0.000436
    10  H   -0.302168  -0.000435
    11  H   -0.302335   0.000001
 Sum of Mulliken charges =  -0.00000   1.00000

 Dipole moment (field-independent basis, Debye):
    X=              1.8778    Y=             -2.9885    Z=              0.0004  Tot=              3.5295
                          Isotropic Fermi Contact Couplings
        Atom                 a.u.       MegaHertz       Gauss      10(-4) cm-1
     1  S(33)              0.21552      74.02687      26.41463      24.69271
     2  C(13)             -0.01878     -21.11330      -7.53375      -7.04264
     3  O(17)              0.02981     -18.07008      -6.44785      -6.02753
     4  C(13)              0.00416       4.67946       1.66975       1.56090
     5  C(13)              0.00053       0.59337       0.21173       0.19793
     6  C(13)              0.00053       0.59428       0.21206       0.19823
     7  H(1)               0.00089       3.99047       1.42390       1.33108
     8  H(1)              -0.00007      -0.29118      -0.10390      -0.09713

 Normal termination of Gaussian 16 at Tue Apr  8 23:21:15 2025.
