 Gaussian 16, Revision C.01,

 ----------------------------------------------------------------------
 #t hf aug-cc-pvdz symm=none int=(grid=ultrafine) guess=(read,tcheck) s
 table=(opt,rrhf)
 ----------------------------------------------------------------------
 -----
 title
 -----
 Symbolic Z-matrix:
 Charge =  0 Multiplicity = 1

 SCF Done:  E(RHF) =  -1643.78886516     A.U. after   12 cycles
 Normal termination of Gaussian 16 at Tue Apr  8 23:47:23 2025.
 Gaussian 16:  ES64L-G16RevC.01  3-Jul-2019

 ----------------------------------------------------------------------
 #t hf aug-cc-pvdz iop(5/13=1,5/36=2,99/5=2) pseudo=read geom=check gue
 ss=(read,tcheck) scf=(maxcycle=1)
 ----------------------------------------------------------------------
 -----
 title
 -----
 Structure from the checkpoint file:  "BDE49_nonexpt_1811_mol1.chk"
 Charge =  0 Multiplicity = 1

                         Standard orientation:
 ---------------------------------------------------------------------
 Center     Atomic      Atomic             Coordinates (Angstroms)
 Number     Number       Type             X           Y           Z
 ---------------------------------------------------------------------
      1          6           0        0.476678    0.946226    0.000000
      2         14           0       -0.359263   -0.766988    0.000000
      3         17           0        2.264625    0.766383    0.000000
      4          9           0        0.112850    1.658127    1.091343
      5          9           0        0.112850    1.658127   -1.091343
      6         17           0       -2.375978   -0.580662    0.000000
      7          9           0        0.112850   -1.552393    1.286037
      8          9           0        0.112850   -1.552393   -1.286037
 ---------------------------------------------------------------------

 SCF Done:  E(RHF) =  -1644.02794879     A.U. after    2 cycles

 The electronic state is 1-A'.
 Alpha  occ. eigenvalues -- -103.70408-103.70396 -69.25198 -26.18966 -26.18956
 Alpha  occ. eigenvalues --  -26.16779 -26.16778 -11.51309 -10.73884 -10.73753
 Alpha  occ. eigenvalues --   -8.39578  -8.39465  -8.39334  -8.39326  -8.39141
 Alpha  occ. eigenvalues --   -8.39131  -6.98889  -4.09910  -4.09850  -4.09705
 Alpha  occ. eigenvalues --   -1.75768  -1.71033  -1.70486  -1.69322  -1.21324
 Alpha  occ. eigenvalues --   -1.19277  -1.01097  -0.89599  -0.87012  -0.85550
 Alpha  occ. eigenvalues --   -0.83780  -0.82484  -0.79248  -0.78744  -0.78071
 Alpha  occ. eigenvalues --   -0.76893  -0.75477  -0.74506  -0.68340  -0.63128
 Alpha  occ. eigenvalues --   -0.56192  -0.53448  -0.53172  -0.51607  -0.49531
 Alpha virt. eigenvalues --    0.04855   0.05778   0.05993   0.06099   0.08725
 Alpha virt. eigenvalues --    0.10955   0.11486   0.11604   0.12666   0.13772
 Alpha virt. eigenvalues --    0.14749   0.14913   0.16834   0.18072   0.18739

 Mulliken charges:
               1
     1  C    0.557396
     2  Si   2.291986
     3  Cl  -0.186743
     4  F   -0.339151
     5  F   -0.339151
     6  Cl  -0.404851
     7  F   -0.789743
     8  F   -0.789743
 Sum of Mulliken charges =  -0.00000

 Dipole moment (field-independent basis, Debye):
    X=             -0.4664    Y=             -0.4298    Z=              0.0000  Tot=              0.6342

 Test job not archived.
 1\1\GINC-SE094\SP\RHF\Aug-CC-pVDZ\C1Cl2F4Si1\OHZDE\08-Apr-2025\0\\#t h
 f aug-cc-pvdz iop(5/13=1,5/36=2,99/5=2) pseudo=read geom=check guess=(
 read,tcheck) scf=(maxcycle=1)\\title\\0,1\C,0,0.476678,0.946226,0.\Si,
 0,-0.359263,-0.766988,0.\Cl,0,2.264625,0.766383,0.\F,0,0.11285,1.65812
 7,1.091343\F,0,0.11285,1.658127,-1.091343\Cl,0,-2.375978,-0.580662,0.\
 F,0,0.11285,-1.552393,1.286037\F,0,0.11285,-1.552393,-1.286037\\Versio
 n=ES64L-G16RevC.01\State=1-A'\HF=-1644.0279488\RMSD=4.686e-03\Dipole=-
 0.1834937,-0.1690782,0.\Quadrupole=3.1272417,-1.6231535,-1.5040882,0.6

 Normal termination of Gaussian 16 at Tue Apr  8 23:47:27 2025.
