 Gaussian 16, Revision C.01,

 ----------------------------------------------------------------------
 #t hf aug-cc-pvdz symm=none int=(grid=ultrafine) guess=(read,tcheck) s
 table=(opt,rrhf)
 ----------------------------------------------------------------------
 -----
 title
 -----
 Symbolic Z-matrix:
 Charge =  0 Multiplicity = 1

 SCF Done:  E(RHF) =  -395.506557445     A.U. after   15 cycles
 Normal termination of Gaussian 16 at Tue Apr  8 22:51:44 2025.
 Gaussian 16:  ES64L-G16RevC.01  3-Jul-2019

 ----------------------------------------------------------------------
 #t hf aug-cc-pvdz iop(5/13=1,5/36=2,99/5=2) pseudo=read geom=check gue
 ss=(read,tcheck) scf=(maxcycle=1)
 ----------------------------------------------------------------------
 -----
 title
 -----
 Structure from the checkpoint file:  "BDE49_expt_1802_mol1.chk"
 Charge =  0 Multiplicity = 1

                         Standard orientation:
 ---------------------------------------------------------------------
 Center     Atomic      Atomic             Coordinates (Angstroms)
 Number     Number       Type             X           Y           Z
 ---------------------------------------------------------------------
      1          6           0        1.550101   -0.775483   -0.000015
      2          6           0        0.370626    0.177331   -0.000153
      3          8           0       -0.800755   -0.542388   -0.000167
      4          8           0        0.429826    1.374000   -0.000124
      5          7           0       -2.079586    0.347466    0.000009
      6          8           0       -2.995591   -0.338495    0.000328
      7          6           0        2.894953   -0.053388    0.000064
      8          1           0        1.443163   -1.430150   -0.871355
      9          1           0        1.443021   -1.430080    0.871359
     10          1           0        2.997686    0.584200   -0.879748
     11          1           0        3.713765   -0.776202    0.000158
     12          1           0        2.997545    0.584270    0.879842
 ---------------------------------------------------------------------

 SCF Done:  E(RHF) =  -395.631231548     A.U. after    2 cycles

 The electronic state is 1-A.
 Alpha  occ. eigenvalues --  -20.73150 -20.64646 -20.57253 -15.89876 -11.40506
 Alpha  occ. eigenvalues --  -11.26391 -11.23784  -1.60768  -1.41650  -1.32838
 Alpha  occ. eigenvalues --   -1.06360  -0.97722  -0.89767  -0.82426  -0.76142
 Alpha  occ. eigenvalues --   -0.73693  -0.72469  -0.68903  -0.66109  -0.64149
 Alpha  occ. eigenvalues --   -0.59790  -0.55699  -0.53526  -0.51187  -0.50677
 Alpha  occ. eigenvalues --   -0.49246  -0.45405
 Alpha virt. eigenvalues --    0.03342   0.04924   0.05101   0.05570   0.05978
 Alpha virt. eigenvalues --    0.07770   0.08544   0.10787   0.11154   0.11853
 Alpha virt. eigenvalues --    0.13305   0.14039   0.15721   0.16566   0.16694

 Mulliken charges:
               1
     1  C    0.032242
     2  C    0.437975
     3  O   -0.575181
     4  O   -0.412495
     5  N    0.500582
     6  O   -0.251955
     7  C    0.428403
     8  H   -0.009488
     9  H   -0.009477
    10  H   -0.045697
    11  H   -0.049222
    12  H   -0.045688
 Sum of Mulliken charges =  -0.00000

 Dipole moment (field-independent basis, Debye):
    X=              0.7699    Y=             -1.9100    Z=              0.0001  Tot=              2.0593

 Test job not archived.
 1\1\GINC-SE029\SP\RHF\Aug-CC-pVDZ\C3H5N1O3\OHZDE\08-Apr-2025\0\\#t hf
 aug-cc-pvdz iop(5/13=1,5/36=2,99/5=2) pseudo=read geom=check guess=(re
 ad,tcheck) scf=(maxcycle=1)\\title\\0,1\C,0,1.550101,-0.775483,-0.0000
 15\C,0,0.370626,0.177331,-0.000153\O,0,-0.800755,-0.542388,-0.000167\O
 ,0,0.429826,1.374,-0.000124\N,0,-2.079586,0.347466,0.000009\O,0,-2.995
 591,-0.338495,0.000328\C,0,2.894953,-0.053388,0.000064\H,0,1.443163,-1
 .43015,-0.871355\H,0,1.443021,-1.43008,0.871359\H,0,2.997686,0.5842,-0
 .879748\H,0,3.713765,-0.776202,0.000158\H,0,2.997545,0.58427,0.879842\

 Normal termination of Gaussian 16 at Tue Apr  8 22:51:49 2025.
