 Gaussian 16, Revision C.01,

 ----------------------------------------------------------------------
 #t hf aug-cc-pvdz symm=none int=(grid=ultrafine) guess=(read,tcheck) s
 table=(opt,rrhf)
 ----------------------------------------------------------------------
 -----
 title
 -----
 Symbolic Z-matrix:
 Charge =  0 Multiplicity = 1

 SCF Done:  E(RHF) =  -1428.58280814     A.U. after   12 cycles

 1\1\GINC-SE015\Stability\RHF\Aug-CC-pVDZ\B2Cl3H1\OHZDE\08-Apr-2025\0\\
 #t hf aug-cc-pvdz symm=none int=(grid=ultrafine) guess=(read,tcheck) s
 table=(opt,rrhf)\\title\\0,1\B,0,1.05858,-0.000003,0.842969\B,0,-0.503
 156,0.,0.225836\Cl,0,-1.335809,1.518709,-0.088596\Cl,0,-1.335815,-1.51
 8706,-0.088596\Cl,0,2.43123,-0.000002,-0.255076\H,0,1.309576,-0.000001
 ,2.004533\\Version=ES64L-G16RevC.01\HF=-1428.5828081\RMSD=4.173e-09\Di
 pole=0.0296222,-0.000001,0.3647216\Quadrupole=-1.997886,0.3717035,1.62
 61825,-0.0000039,0.1175973,-0.000004\PG=Unknown\\@

 Normal termination of Gaussian 16 at Tue Apr  8 23:30:00 2025.
 Gaussian 16:  ES64L-G16RevC.01  3-Jul-2019

 ----------------------------------------------------------------------
 #t hf aug-cc-pvdz iop(5/13=1,5/36=2,99/5=2) pseudo=read geom=check gue
 ss=(read,tcheck) scf=(maxcycle=1)
 ----------------------------------------------------------------------
 -----
 title
 -----
 Structure from the checkpoint file:  "BDE49_nonexpt_13_mol1.chk"
 Charge =  0 Multiplicity = 1

                         Standard orientation:
 ---------------------------------------------------------------------
 Center     Atomic      Atomic             Coordinates (Angstroms)
 Number     Number       Type             X           Y           Z
 ---------------------------------------------------------------------
      1          5           0        1.058580   -0.000003    0.842969
      2          5           0       -0.503156   -0.000000    0.225836
      3         17           0       -1.335809    1.518709   -0.088596
      4         17           0       -1.335815   -1.518706   -0.088596
      5         17           0        2.431230   -0.000002   -0.255076
      6          1           0        1.309576   -0.000001    2.004533
 ---------------------------------------------------------------------

 SCF Done:  E(RHF) =  -1428.64995773     A.U. after    2 cycles

 The electronic state is 1-A.
 Alpha  occ. eigenvalues -- -103.68313-103.68312-103.67672 -10.71804 -10.71772
 Alpha  occ. eigenvalues --  -10.71137  -8.37478  -8.37473  -8.37257  -8.37254
 Alpha  occ. eigenvalues --   -8.37221  -8.37218  -8.36824  -8.36621  -8.36568
 Alpha  occ. eigenvalues --   -7.73365  -7.68809  -1.19446  -1.16779  -1.15824
 Alpha  occ. eigenvalues --   -0.75417  -0.67397  -0.59768  -0.59018  -0.57383
 Alpha  occ. eigenvalues --   -0.53158  -0.50819  -0.49974  -0.49216  -0.48211
 Alpha  occ. eigenvalues --   -0.43298
 Alpha virt. eigenvalues --    0.03923   0.03969   0.04721   0.04938   0.06599
 Alpha virt. eigenvalues --    0.07190   0.07272   0.07710   0.07719   0.10464
 Alpha virt. eigenvalues --    0.13339   0.13907   0.14442   0.15229   0.16100

 Mulliken charges:
               1
     1  B    0.318240
     2  B    0.519588
     3  Cl  -0.329525
     4  Cl  -0.329525
     5  Cl  -0.334778
     6  H    0.156000
 Sum of Mulliken charges =   0.00000

 Dipole moment (field-independent basis, Debye):
    X=              0.0797    Y=             -0.0000    Z=              1.0012  Tot=              1.0044

 Test job not archived.
 1\1\GINC-SE015\SP\RHF\Aug-CC-pVDZ\B2Cl3H1\OHZDE\08-Apr-2025\0\\#t hf a
 ug-cc-pvdz iop(5/13=1,5/36=2,99/5=2) pseudo=read geom=check guess=(rea
 d,tcheck) scf=(maxcycle=1)\\title\\0,1\B,0,1.05858,-0.000003,0.842969\
 B,0,-0.503156,0.,0.225836\Cl,0,-1.335809,1.518709,-0.088596\Cl,0,-1.33
 5815,-1.518706,-0.088596\Cl,0,2.43123,-0.000002,-0.255076\H,0,1.309576
 ,-0.000001,2.004533\\Version=ES64L-G16RevC.01\State=1-A\HF=-1428.64995
 77\RMSD=2.781e-03\Dipole=0.0313668,-0.0000011,0.3939042\Quadrupole=-2.
 1353973,0.3993915,1.7360058,-0.000004,0.1424088,-0.0000042\PG=C01 [X(B

 Normal termination of Gaussian 16 at Tue Apr  8 23:30:02 2025.
