 Gaussian 16, Revision C.01,

 ----------------------------------------------------------------------
 #t hf aug-cc-pvdz symm=none int=(grid=ultrafine) guess=(read,tcheck) s
 table=(opt,rrhf)
 ----------------------------------------------------------------------
 -----
 title
 -----
 Symbolic Z-matrix:
 Charge =  0 Multiplicity = 1

 SCF Done:  E(RHF) =  -1332.39541901     A.U. after   17 cycles
 Normal termination of Gaussian 16 at Wed Apr  9 00:46:53 2025.
 Gaussian 16:  ES64L-G16RevC.01  3-Jul-2019

 ----------------------------------------------------------------------
 #t hf aug-cc-pvdz iop(5/13=1,5/36=2,99/5=2) pseudo=read geom=check gue
 ss=(read,tcheck) scf=(maxcycle=1)
 ----------------------------------------------------------------------
 -----
 title
 -----
 Structure from the checkpoint file:  "BDE49_nonexpt_856_mol1.chk"
 Charge =  0 Multiplicity = 1

                         Standard orientation:
 ---------------------------------------------------------------------
 Center     Atomic      Atomic             Coordinates (Angstroms)
 Number     Number       Type             X           Y           Z
 ---------------------------------------------------------------------
      1         14           0       -0.058969   -0.140923    0.250384
      2          7           0       -0.480981    1.657799   -0.125171
      3          5           0        1.944933   -0.391995    0.003762
      4          7           0       -1.039943   -0.969497   -1.098164
      5         17           0       -0.910356   -0.539543    2.056582
      6          8           0       -1.970201   -1.729704   -0.932125
      7          8           0        2.742864    0.665551   -0.223487
      8          8           0        0.494398    2.422207   -0.170717
      9          8           0        2.383664   -1.665095    0.091070
     10          8           0       -1.635063    2.002079   -0.280108
     11          8           0       -0.561837   -0.627875   -2.185933
     12          1           0        3.335641   -1.756542   -0.047314
     13          1           0        2.257176    1.506264   -0.265039
 ---------------------------------------------------------------------

 SCF Done:  E(RHF) =  -1332.62562104     A.U. after    2 cycles

 The electronic state is 1-A.
 Alpha  occ. eigenvalues -- -103.71998 -69.23498 -20.66513 -20.65903 -20.65479
 Alpha  occ. eigenvalues --  -20.64931 -20.63457 -20.62706 -15.92601 -15.92077
 Alpha  occ. eigenvalues --  -10.75369  -8.41067  -8.40823  -8.40814  -7.73083
 Alpha  occ. eigenvalues --   -6.97868  -4.08637  -4.08629  -4.08395  -1.57521
 Alpha  occ. eigenvalues --   -1.56843  -1.39895  -1.39464  -1.39279  -1.36116
 Alpha  occ. eigenvalues --   -1.20533  -0.99953  -0.95281  -0.84581  -0.83884
 Alpha  occ. eigenvalues --   -0.81089  -0.80000  -0.77001  -0.76360  -0.75148
 Alpha  occ. eigenvalues --   -0.73681  -0.69675  -0.65999  -0.63960  -0.63866
 Alpha  occ. eigenvalues --   -0.57569  -0.56859  -0.56263  -0.55147  -0.54328
 Alpha  occ. eigenvalues --   -0.53561  -0.50931  -0.50503  -0.50036  -0.48524
 Alpha virt. eigenvalues --    0.01732   0.02344   0.02635   0.04142   0.04976
 Alpha virt. eigenvalues --    0.05791   0.06695   0.07005   0.07074   0.08425
 Alpha virt. eigenvalues --    0.09153   0.09591   0.10706   0.11538   0.13446

 Mulliken charges:
               1
     1  Si   1.487513
     2  N    0.268603
     3  B    0.880715
     4  N    0.376904
     5  Cl  -0.480088
     6  O   -0.490386
     7  O   -0.483440
     8  O   -0.597166
     9  O   -0.391324
    10  O   -0.499412
    11  O   -0.575962
    12  H    0.215753
    13  H    0.288290
 Sum of Mulliken charges =  -0.00000

 Dipole moment (field-independent basis, Debye):
    X=              3.7822    Y=             -1.2672    Z=              2.8392  Tot=              4.8961

 Test job not archived.
 1\1\GINC-SE365\SP\RHF\Aug-CC-pVDZ\B1Cl1H2N2O6Si1\OHZDE\09-Apr-2025\0\\
 #t hf aug-cc-pvdz iop(5/13=1,5/36=2,99/5=2) pseudo=read geom=check gue
 ss=(read,tcheck) scf=(maxcycle=1)\\title\\0,1\Si,0,-0.058969,-0.140923
 ,0.250384\N,0,-0.480981,1.657799,-0.125171\B,0,1.944933,-0.391995,0.00
 3762\N,0,-1.039943,-0.969497,-1.098164\Cl,0,-0.910356,-0.539543,2.0565
 82\O,0,-1.970202,-1.729703,-0.932125\O,0,2.742864,0.66555,-0.223487\O,
 0,0.494399,2.422207,-0.170717\O,0,2.383663,-1.665096,0.09107\O,0,-1.63
 5062,2.00208,-0.280108\O,0,-0.561837,-0.627875,-2.185933\H,0,3.33564,-

 Normal termination of Gaussian 16 at Wed Apr  9 00:46:59 2025.
