 Gaussian 16, Revision C.01,

 ----------------------------------------------------------------------
 #t hf aug-cc-pvdz symm=none int=(grid=ultrafine) guess=(read,tcheck) s
 table=(opt,rrhf)
 ----------------------------------------------------------------------
 -----
 title
 -----
 Symbolic Z-matrix:
 Charge =  0 Multiplicity = 1

 SCF Done:  E(RHF) =  -1375.27959462     A.U. after   13 cycles
 Normal termination of Gaussian 16 at Wed Apr  9 00:48:48 2025.
 Gaussian 16:  ES64L-G16RevC.01  3-Jul-2019

 ----------------------------------------------------------------------
 #t hf aug-cc-pvdz iop(5/13=1,5/36=2,99/5=2) pseudo=read geom=check gue
 ss=(read,tcheck) scf=(maxcycle=1)
 ----------------------------------------------------------------------
 -----
 title
 -----
 Structure from the checkpoint file:  "BDE49_nonexpt_888_mol1.chk"
 Charge =  0 Multiplicity = 1

                         Standard orientation:
 ---------------------------------------------------------------------
 Center     Atomic      Atomic             Coordinates (Angstroms)
 Number     Number       Type             X           Y           Z
 ---------------------------------------------------------------------
      1         16           0        0.186483   -1.154966   -0.585788
      2          5           0        1.441644    0.033483   -0.065671
      3         16           0        1.093694    1.820281    0.053977
      4          6           0       -1.348348   -0.173711   -0.896404
      5          6           0       -2.232374    0.071104    0.337059
      6          6           0       -3.368380    1.035069   -0.039464
      7          1           0       -2.980616    1.988065   -0.410086
      8          1           0       -3.999421    1.245290    0.828204
      9          1           0       -4.007882    0.605205   -0.817886
     10          6           0       -2.785798   -1.233894    0.920983
     11          1           0       -1.615300    0.556752    1.101086
     12          1           0       -3.424514   -1.746421    0.193005
     13          1           0       -3.389661   -1.033679    1.809961
     14          1           0       -1.983831   -1.917550    1.207826
     15          1           0       -1.893809   -0.754732   -1.645254
     16          1           0       -1.055346    0.766438   -1.366442
     17         16           0        3.114651   -0.566039    0.343569
     18          1           0        2.329748    2.216186    0.404843
     19          1           0        2.904570   -1.872787    0.101907
 ---------------------------------------------------------------------

 SCF Done:  E(RHF) =  -1375.39053818     A.U. after    2 cycles

 The electronic state is 1-A.
 Alpha  occ. eigenvalues --  -93.54607 -93.54263 -93.53412 -11.27784 -11.24979
 Alpha  occ. eigenvalues --  -11.23175 -11.22701  -8.84565  -8.84209  -8.83370
 Alpha  occ. eigenvalues --   -7.69553  -6.18763  -6.18516  -6.18401  -6.18249
 Alpha  occ. eigenvalues --   -6.18153  -6.17899  -6.17547  -6.17305  -6.17093
 Alpha  occ. eigenvalues --   -1.09669  -1.01987  -0.97984  -0.95110  -0.93374
 Alpha  occ. eigenvalues --   -0.87300  -0.78127  -0.65643  -0.64311  -0.61118
 Alpha  occ. eigenvalues --   -0.60227  -0.57964  -0.55421  -0.54578  -0.53315
 Alpha  occ. eigenvalues --   -0.50410  -0.48854  -0.48008  -0.46978  -0.44542
 Alpha  occ. eigenvalues --   -0.44344  -0.42138  -0.37298  -0.35699
 Alpha virt. eigenvalues --    0.03501   0.04324   0.04582   0.04727   0.05824
 Alpha virt. eigenvalues --    0.06393   0.06734   0.06932   0.07080   0.08164
 Alpha virt. eigenvalues --    0.08509   0.08934   0.09408   0.10171   0.10534

 Mulliken charges:
               1
     1  S    0.185736
     2  B    0.648400
     3  S   -0.190017
     4  C    0.427155
     5  C   -1.396900
     6  C    0.772778
     7  H   -0.080998
     8  H   -0.068666
     9  H   -0.001822
    10  C    0.702897
    11  H   -0.186815
    12  H   -0.026974
    13  H   -0.059739
    14  H   -0.066432
    15  H   -0.042356
    16  H   -0.276656
    17  S   -0.298016
    18  H   -0.043320
    19  H    0.001743
 Sum of Mulliken charges =  -0.00000

 Dipole moment (field-independent basis, Debye):
    X=             -1.3635    Y=              0.2874    Z=             -0.0536  Tot=              1.3945

 Test job not archived.
 1\1\GINC-SE179\SP\RHF\Aug-CC-pVDZ\C4H11B1S3\OHZDE\09-Apr-2025\0\\#t hf
  aug-cc-pvdz iop(5/13=1,5/36=2,99/5=2) pseudo=read geom=check guess=(r
 ead,tcheck) scf=(maxcycle=1)\\title\\0,1\S,0,0.186483,-1.154966,-0.585
 788\B,0,1.441644,0.033483,-0.065671\S,0,1.093694,1.820281,0.053977\C,0
 ,-1.348348,-0.173711,-0.896404\C,0,-2.232374,0.071104,0.337059\C,0,-3.
 36838,1.035069,-0.039464\H,0,-2.980616,1.988065,-0.410086\H,0,-3.99942
 1,1.24529,0.828204\H,0,-4.007882,0.605205,-0.817886\C,0,-2.785798,-1.2
 33894,0.920983\H,0,-1.6153,0.556752,1.101086\H,0,-3.424514,-1.746421,0

 Normal termination of Gaussian 16 at Wed Apr  9 00:48:59 2025.
