 Gaussian 16, Revision C.01,

 ----------------------------------------------------------------------
 #t hf aug-cc-pvdz symm=none int=(grid=ultrafine) guess=(read,tcheck) s
 table=(opt,rrhf)
 ----------------------------------------------------------------------
 -----
 title
 -----
 Symbolic Z-matrix:
 Charge =  0 Multiplicity = 1

 SCF Done:  E(RHF) =  -1161.81987895     A.U. after   16 cycles
 Normal termination of Gaussian 16 at Wed Apr  9 00:48:36 2025.
 Gaussian 16:  ES64L-G16RevC.01  3-Jul-2019

 ----------------------------------------------------------------------
 #t hf aug-cc-pvdz iop(5/13=1,5/36=2,99/5=2) pseudo=read geom=check gue
 ss=(read,tcheck) scf=(maxcycle=1)
 ----------------------------------------------------------------------
 -----
 title
 -----
 Structure from the checkpoint file:  "BDE49_nonexpt_884_mol1.chk"
 Charge =  0 Multiplicity = 1

                         Standard orientation:
 ---------------------------------------------------------------------
 Center     Atomic      Atomic             Coordinates (Angstroms)
 Number     Number       Type             X           Y           Z
 ---------------------------------------------------------------------
      1          8           0       -0.853979    0.571381   -0.000027
      2          6           0        0.140551   -0.374962   -0.000004
      3          6           0       -0.449180   -1.623425    0.000005
      4          6           0       -1.849088   -1.435711   -0.000013
      5          6           0       -2.050385   -0.077837   -0.000034
      6          5           0        1.610371    0.092889    0.000007
      7         16           0        2.895572   -1.193326    0.000024
      8         16           0        2.071569    1.843635   -0.000010
      9          6           0       -3.262390    0.737622   -0.000062
     10          8           0       -4.379331    0.270545    0.000067
     11          1           0       -3.076935    1.830590    0.000054
     12          1           0        0.077290   -2.565322    0.000022
     13          1           0       -2.627054   -2.181928   -0.000013
     14          1           0        0.822115    2.340761   -0.000025
     15          1           0        3.967900   -0.383025    0.000027
 ---------------------------------------------------------------------

 SCF Done:  E(RHF) =  -1161.96634387     A.U. after    2 cycles

 The electronic state is 1-A.
 Alpha  occ. eigenvalues --  -93.55170 -93.55126 -20.67053 -20.58937 -11.36811
 Alpha  occ. eigenvalues --  -11.33122 -11.31636 -11.27905 -11.27808  -8.85150
 Alpha  occ. eigenvalues --   -8.85078  -7.68812  -6.19338  -6.19285  -6.19084
 Alpha  occ. eigenvalues --   -6.19043  -6.18828  -6.18788  -1.45083  -1.37350
 Alpha  occ. eigenvalues --   -1.11233  -1.06303  -1.00430  -0.95917  -0.90196
 Alpha  occ. eigenvalues --   -0.84205  -0.80249  -0.75563  -0.70200  -0.68519
 Alpha  occ. eigenvalues --   -0.66429  -0.62294  -0.61463  -0.60965  -0.57887
 Alpha  occ. eigenvalues --   -0.56485  -0.55783  -0.47986  -0.46684  -0.46193
 Alpha  occ. eigenvalues --   -0.44993  -0.43008  -0.37813  -0.34659
 Alpha virt. eigenvalues --    0.02033   0.03144   0.03894   0.04440   0.05430
 Alpha virt. eigenvalues --    0.05822   0.06271   0.06815   0.08333   0.08647
 Alpha virt. eigenvalues --    0.09223   0.09858   0.10748   0.11950   0.12010

 Mulliken charges:
               1
     1  O   -0.558547
     2  C   -0.066972
     3  C    0.651036
     4  C    0.442028
     5  C   -0.134331
     6  B    0.514347
     7  S   -0.175370
     8  S   -0.253902
     9  C    1.113532
    10  O   -0.500637
    11  H   -0.222199
    12  H   -0.473379
    13  H   -0.369735
    14  H    0.063387
    15  H   -0.029257
 Sum of Mulliken charges =  -0.00000

 Dipole moment (field-independent basis, Debye):
    X=              2.1317    Y=             -0.2863    Z=             -0.0002  Tot=              2.1508

 Test job not archived.
 1\1\GINC-SE009\SP\RHF\Aug-CC-pVDZ\C5H5B1O2S2\OHZDE\09-Apr-2025\0\\#t h
 f aug-cc-pvdz iop(5/13=1,5/36=2,99/5=2) pseudo=read geom=check guess=(
 read,tcheck) scf=(maxcycle=1)\\title\\0,1\O,0,-0.853979,0.571381,-0.00
 0027\C,0,0.140551,-0.374962,-0.000004\C,0,-0.44918,-1.623425,0.000005\
 C,0,-1.849088,-1.435711,-0.000013\C,0,-2.050385,-0.077837,-0.000034\B,
 0,1.610371,0.092889,0.000007\S,0,2.895572,-1.193326,0.000024\S,0,2.071
 569,1.843635,-0.00001\C,0,-3.26239,0.737622,-0.000062\O,0,-4.379331,0.
 270545,0.000067\H,0,-3.076935,1.83059,0.000054\H,0,0.07729,-2.565322,0

 Normal termination of Gaussian 16 at Wed Apr  9 00:48:44 2025.
