 Gaussian 16, Revision C.01,

 ----------------------------------------------------------------------
 #t hf aug-cc-pvdz symm=none int=(grid=ultrafine) guess=(read,tcheck) s
 table=(opt,rrhf)
 ----------------------------------------------------------------------
 -----
 title
 -----
 Symbolic Z-matrix:
 Charge =  0 Multiplicity = 1

 SCF Done:  E(RHF) =  -2074.22491022     A.U. after   15 cycles
 Normal termination of Gaussian 16 at Tue Apr  8 23:54:21 2025.
 Gaussian 16:  ES64L-G16RevC.01  3-Jul-2019

 ----------------------------------------------------------------------
 #t hf aug-cc-pvdz iop(5/13=1,5/36=2,99/5=2) pseudo=read geom=check gue
 ss=(read,tcheck) scf=(maxcycle=1)
 ----------------------------------------------------------------------
 -----
 title
 -----
 Structure from the checkpoint file:  "BDE49_nonexpt_1949_mol1.chk"
 Charge =  0 Multiplicity = 1

                         Standard orientation:
 ---------------------------------------------------------------------
 Center     Atomic      Atomic             Coordinates (Angstroms)
 Number     Number       Type             X           Y           Z
 ---------------------------------------------------------------------
      1          6           0       -1.110201   -1.475155    0.789670
      2         14           0        0.485012   -1.845303   -0.180198
      3          6           0        1.746857   -0.443412    0.077548
      4          1           0        0.185773   -2.003087   -1.619264
      5          1           0        1.085363   -3.077899    0.369003
      6         16           0        2.293467   -0.146825    1.602010
      7         16           0        2.202716    0.392397   -1.368227
      8          6           0        3.395356    1.642279   -0.812764
      9          1           0        3.701306    2.185559   -1.707076
     10          1           0        4.253739    1.158673   -0.347299
     11          1           0        2.923968    2.316228   -0.098036
     12          6           0       -1.964413   -0.397124    0.181843
     13         16           0       -2.969633   -0.659083   -1.092616
     14         16           0       -1.728398    1.143508    0.981260
     15          6           0       -2.781061    2.285516    0.049353
     16          1           0       -2.659147    3.257056    0.530384
     17          1           0       -3.820649    1.965005    0.099653
     18          1           0       -2.461208    2.333072   -0.990675
     19          1           0       -0.814582   -1.241408    1.817565
     20          1           0       -1.674392   -2.411538    0.795798
 ---------------------------------------------------------------------

 SCF Done:  E(RHF) =  -2074.38439586     A.U. after    2 cycles

 The electronic state is 1-A.
 Alpha  occ. eigenvalues --  -93.57683 -93.56757 -93.52223 -93.50737 -69.09438
 Alpha  occ. eigenvalues --  -11.36436 -11.34388 -11.28229 -11.27663 -11.25887
 Alpha  occ. eigenvalues --   -8.87462  -8.86559  -8.82052  -8.80652  -6.84626
 Alpha  occ. eigenvalues --   -6.21610  -6.21341  -6.21093  -6.20717  -6.20457
 Alpha  occ. eigenvalues --   -6.20190  -6.16198  -6.15844  -6.15652  -6.14846
 Alpha  occ. eigenvalues --   -6.14428  -6.14258  -3.95427  -3.95377  -3.95362
 Alpha  occ. eigenvalues --   -1.12522  -1.10569  -1.02514  -1.00565  -0.94638
 Alpha  occ. eigenvalues --   -0.90282  -0.89102  -0.75815  -0.70818  -0.66271
 Alpha  occ. eigenvalues --   -0.63717  -0.61821  -0.61111  -0.60739  -0.60269
 Alpha  occ. eigenvalues --   -0.56203  -0.55784  -0.53372  -0.52597  -0.50540
 Alpha  occ. eigenvalues --   -0.48919  -0.46549  -0.45668  -0.45270  -0.41705
 Alpha  occ. eigenvalues --   -0.34899  -0.34159  -0.33692  -0.33280
 Alpha virt. eigenvalues --    0.02804   0.03095   0.03842   0.04176   0.05195
 Alpha virt. eigenvalues --    0.05344   0.05674   0.06203   0.06642   0.07002
 Alpha virt. eigenvalues --    0.07283   0.07757   0.08483   0.09231   0.09897

 Mulliken charges:
               1
     1  C    0.231769
     2  Si   0.640893
     3  C   -0.582118
     4  H    0.099767
     5  H    0.039932
     6  S   -0.085620
     7  S    0.373613
     8  C    0.091093
     9  H   -0.113151
    10  H   -0.027178
    11  H   -0.035657
    12  C   -0.444970
    13  S   -0.079359
    14  S    0.328437
    15  C    0.135851
    16  H   -0.121150
    17  H   -0.037264
    18  H   -0.036639
    19  H   -0.225414
    20  H   -0.152834
 Sum of Mulliken charges =  -0.00000

 Dipole moment (field-independent basis, Debye):
    X=              1.2163    Y=              2.1176    Z=             -0.2834  Tot=              2.4584

 Test job not archived.
 1\1\GINC-SE364\SP\RHF\Aug-CC-pVDZ\C5H10S4Si1\OHZDE\08-Apr-2025\0\\#t h
 f aug-cc-pvdz iop(5/13=1,5/36=2,99/5=2) pseudo=read geom=check guess=(
 read,tcheck) scf=(maxcycle=1)\\title\\0,1\C,0,-1.110201,-1.475155,0.78
 967\Si,0,0.485012,-1.845303,-0.180198\C,0,1.746857,-0.443412,0.077548\
 H,0,0.185773,-2.003087,-1.619264\H,0,1.085363,-3.077899,0.369003\S,0,2
 .293467,-0.146825,1.60201\S,0,2.202716,0.392397,-1.368227\C,0,3.395356
 ,1.642279,-0.812764\H,0,3.701306,2.185559,-1.707076\H,0,4.253739,1.158
 673,-0.347299\H,0,2.923968,2.316228,-0.098036\C,0,-1.964413,-0.397124,

 Normal termination of Gaussian 16 at Tue Apr  8 23:54:35 2025.
