 Gaussian 16, Revision C.01,

 ----------------------------------------------------------------------
 #t hf aug-cc-pvdz symm=none int=(grid=ultrafine) guess=(read,tcheck) s
 table=(opt,rrhf)
 ----------------------------------------------------------------------
 -----
 title
 -----
 Symbolic Z-matrix:
 Charge =  0 Multiplicity = 1

 SCF Done:  E(RHF) =  -592.417466338     A.U. after   14 cycles
 Normal termination of Gaussian 16 at Wed Apr  9 00:34:19 2025.
 Gaussian 16:  ES64L-G16RevC.01  3-Jul-2019

 ----------------------------------------------------------------------
 #t hf aug-cc-pvdz iop(5/13=1,5/36=2,99/5=2) pseudo=read geom=check gue
 ss=(read,tcheck) scf=(maxcycle=1)
 ----------------------------------------------------------------------
 -----
 title
 -----
 Structure from the checkpoint file:  "BDE49_nonexpt_474_mol1.chk"
 Charge =  0 Multiplicity = 1

                         Standard orientation:
 ---------------------------------------------------------------------
 Center     Atomic      Atomic             Coordinates (Angstroms)
 Number     Number       Type             X           Y           Z
 ---------------------------------------------------------------------
      1          1           0       -2.396722    1.142664   -0.433592
      2          1           0       -2.229577   -0.749863   -1.253885
      3          5           0       -1.762190    0.169967   -0.668170
      4         15           0       -0.031087   -0.023527    0.083287
      5          8           0       -0.215125   -0.691544    1.388806
      6          8           0        0.994276   -0.811112   -0.895160
      7          1           0        0.992843   -1.758772   -0.711788
      8          8           0        0.635991    1.432608    0.042873
      9          1           0        1.589566    1.429422    0.198651
 ---------------------------------------------------------------------

 SCF Done:  E(RHF) =  -592.562597470     A.U. after    2 cycles

 The electronic state is 1-A.
 Alpha  occ. eigenvalues --  -81.40668 -20.61943 -20.61924 -20.52666  -7.89236
 Alpha  occ. eigenvalues --   -7.66079  -5.03872  -5.03762  -5.03368  -1.38291
 Alpha  occ. eigenvalues --   -1.34674  -1.25665  -0.85979  -0.77618  -0.73694
 Alpha  occ. eigenvalues --   -0.67752  -0.64907  -0.60965  -0.59395  -0.58085
 Alpha  occ. eigenvalues --   -0.53562  -0.52006  -0.48607  -0.44813
 Alpha virt. eigenvalues --    0.02399   0.03291   0.04289   0.04845   0.06328
 Alpha virt. eigenvalues --    0.07853   0.08199   0.10226   0.11415   0.12269
 Alpha virt. eigenvalues --    0.13537   0.14087   0.15980   0.18136   0.19950

 Mulliken charges:
               1
     1  H    0.253175
     2  H    0.205864
     3  B   -0.370532
     4  P    1.961096
     5  O   -0.938287
     6  O   -0.734590
     7  H    0.151366
     8  O   -0.672268
     9  H    0.144177
 Sum of Mulliken charges =  -0.00000

 Dipole moment (field-independent basis, Debye):
    X=              0.6772    Y=              0.0972    Z=             -2.8720  Tot=              2.9523

 Test job not archived.
 1\1\GINC-SE015\SP\RHF\Aug-CC-pVDZ\B1H4O3P1\OHZDE\09-Apr-2025\0\\#t hf
 aug-cc-pvdz iop(5/13=1,5/36=2,99/5=2) pseudo=read geom=check guess=(re
 ad,tcheck) scf=(maxcycle=1)\\title\\0,1\H,0,-2.396722,1.142665,-0.4335
 92\H,0,-2.229577,-0.749862,-1.253885\B,0,-1.76219,0.169968,-0.66817\P,
 0,-0.031087,-0.023527,0.083287\O,0,-0.215125,-0.691544,1.388806\O,0,0.
 994276,-0.811113,-0.89516\H,0,0.992842,-1.758773,-0.711788\O,0,0.63599
 2,1.432608,0.042873\H,0,1.589567,1.429421,0.198651\\Version=ES64L-G16R
 evC.01\State=1-A\HF=-592.5625975\RMSD=5.825e-03\Dipole=0.2664424,0.038

 Normal termination of Gaussian 16 at Wed Apr  9 00:34:22 2025.
