 Gaussian 16, Revision C.01,

 ----------------------------------------------------------------------
 #t hf aug-cc-pvdz symm=none int=(grid=ultrafine) guess=(read,tcheck) s
 table=(opt,rrhf)
 ----------------------------------------------------------------------
 -----
 title
 -----
 Symbolic Z-matrix:
 Charge =  0 Multiplicity = 1

 SCF Done:  E(RHF) =  -759.197160721     A.U. after   13 cycles
 Normal termination of Gaussian 16 at Tue Apr  8 23:38:48 2025.
 Gaussian 16:  ES64L-G16RevC.01  3-Jul-2019

 ----------------------------------------------------------------------
 #t hf aug-cc-pvdz iop(5/13=1,5/36=2,99/5=2) pseudo=read geom=check gue
 ss=(read,tcheck) scf=(maxcycle=1)
 ----------------------------------------------------------------------
 -----
 title
 -----
 Structure from the checkpoint file:  "BDE49_nonexpt_1611_mol1.chk"
 Charge =  0 Multiplicity = 1

                         Standard orientation:
 ---------------------------------------------------------------------
 Center     Atomic      Atomic             Coordinates (Angstroms)
 Number     Number       Type             X           Y           Z
 ---------------------------------------------------------------------
      1          6           0        1.260049    0.848665    0.207562
      2          8           0        0.321014   -0.143248   -0.295450
      3         15           0       -1.231396    0.032021   -0.046924
      4          8           0       -1.838397    1.311642   -0.422346
      5          8           0       -1.823555   -1.250515   -0.789730
      6          6           0        2.638969    0.515604   -0.333690
      7          1           0        1.242773    0.809566    1.301178
      8          1           0        0.927918    1.836512   -0.120102
      9          6           0        3.172731   -0.839493    0.136355
     10          1           0        3.314044    1.319330   -0.017758
     11          1           0        2.600402    0.549527   -1.427222
     12          1           0        3.260275   -0.872364    1.226760
     13          1           0        4.161730   -1.036748   -0.284365
     14          1           0        2.505548   -1.647001   -0.170709
     15          8           0       -1.364126   -0.361950    1.497406
     16          1           0       -2.176363   -0.011940    1.881718
     17          1           0       -2.155364   -1.023285   -1.666030
 ---------------------------------------------------------------------

 SCF Done:  E(RHF) =  -759.409375995     A.U. after    2 cycles

 The electronic state is 1-A.
 Alpha  occ. eigenvalues --  -81.44494 -20.61846 -20.61726 -20.60399 -20.52879
 Alpha  occ. eigenvalues --  -11.30967 -11.24435 -11.22877  -7.92430  -5.07131
 Alpha  occ. eigenvalues --   -5.07038  -5.07026  -1.39705  -1.35275  -1.34787
 Alpha  occ. eigenvalues --   -1.26305  -1.06148  -0.94467  -0.85513  -0.81751
 Alpha  occ. eigenvalues --   -0.76534  -0.73751  -0.69094  -0.67077  -0.65741
 Alpha  occ. eigenvalues --   -0.62698  -0.61194  -0.59491  -0.58492  -0.56665
 Alpha  occ. eigenvalues --   -0.56086  -0.53127  -0.49985  -0.49874  -0.49261
 Alpha  occ. eigenvalues --   -0.48765  -0.48015
 Alpha virt. eigenvalues --    0.03227   0.04120   0.04502   0.04959   0.05573
 Alpha virt. eigenvalues --    0.06723   0.07373   0.07908   0.08325   0.10922
 Alpha virt. eigenvalues --    0.11021   0.12368   0.13044   0.14192   0.14687

 Mulliken charges:
               1
     1  C    0.711821
     2  O   -1.049701
     3  P    2.460353
     4  O   -0.855365
     5  O   -0.647104
     6  C    0.056935
     7  H   -0.197393
     8  H   -0.177570
     9  C    0.375175
    10  H   -0.030272
    11  H   -0.084901
    12  H   -0.077349
    13  H   -0.080365
    14  H   -0.060996
    15  O   -0.666204
    16  H    0.159392
    17  H    0.163544
 Sum of Mulliken charges =  -0.00000

 Dipole moment (field-independent basis, Debye):
    X=              1.1629    Y=             -0.3621    Z=              0.4673  Tot=              1.3045

 Test job not archived.
 1\1\GINC-SE343\SP\RHF\Aug-CC-pVDZ\C3H9O4P1\OHZDE\08-Apr-2025\0\\#t hf
 aug-cc-pvdz iop(5/13=1,5/36=2,99/5=2) pseudo=read geom=check guess=(re
 ad,tcheck) scf=(maxcycle=1)\\title\\0,1\C,0,1.260049,0.848665,0.207562
 \O,0,0.321014,-0.143248,-0.29545\P,0,-1.231396,0.032021,-0.046924\O,0,
 -1.838397,1.311642,-0.422346\O,0,-1.823555,-1.250515,-0.78973\C,0,2.63
 8969,0.515604,-0.33369\H,0,1.242773,0.809566,1.301178\H,0,0.927918,1.8
 36512,-0.120102\C,0,3.172731,-0.839493,0.136355\H,0,3.314044,1.31933,-
 0.017758\H,0,2.600402,0.549527,-1.427222\H,0,3.260275,-0.872364,1.2267

 Normal termination of Gaussian 16 at Tue Apr  8 23:38:54 2025.
