 Gaussian 16, Revision C.01,

 ----------------------------------------------------------------------
 #t hf aug-cc-pvdz symm=none int=(grid=ultrafine) guess=(read,tcheck) s
 table=(opt,rrhf)
 ----------------------------------------------------------------------
 -----
 title
 -----
 Symbolic Z-matrix:
 Charge =  0 Multiplicity = 1

 SCF Done:  E(RHF) =  -329.300283350     A.U. after   12 cycles
 Normal termination of Gaussian 16 at Wed Apr  9 00:38:35 2025.
 Gaussian 16:  ES64L-G16RevC.01  3-Jul-2019

 ----------------------------------------------------------------------
 #t hf aug-cc-pvdz iop(5/13=1,5/36=2,99/5=2) pseudo=read geom=check gue
 ss=(read,tcheck) scf=(maxcycle=1)
 ----------------------------------------------------------------------
 -----
 title
 -----
 Structure from the checkpoint file:  "BDE49_nonexpt_638_mol1.chk"
 Charge =  0 Multiplicity = 1

                         Standard orientation:
 ---------------------------------------------------------------------
 Center     Atomic      Atomic             Coordinates (Angstroms)
 Number     Number       Type             X           Y           Z
 ---------------------------------------------------------------------
      1          6           0       -1.393653   -0.202772   -0.614786
      2          8           0       -0.128294   -0.779435   -0.262600
      3          5           0        0.966763   -0.000952   -0.028724
      4          8           0        2.155058   -0.593821    0.315881
      5          8           0        0.899856    1.363087   -0.135098
      6          6           0       -2.216026    0.120399    0.623647
      7          1           0       -1.902571   -0.946297   -1.232728
      8          1           0       -1.234969    0.696024   -1.216664
      9          1           0       -2.342856   -0.770521    1.243550
     10          1           0       -3.206955    0.485701    0.337841
     11          1           0       -1.726221    0.893608    1.219958
     12          1           0        1.751461    1.772965    0.039604
     13          1           0        2.073414   -1.551131    0.353438
 ---------------------------------------------------------------------

 SCF Done:  E(RHF) =  -329.415791381     A.U. after    2 cycles

 The electronic state is 1-A.
 Alpha  occ. eigenvalues --  -20.57896 -20.57673 -20.56936 -11.29077 -11.22695
 Alpha  occ. eigenvalues --   -7.68066  -1.35687  -1.31038  -1.30714  -1.01180
 Alpha  occ. eigenvalues --   -0.85828  -0.78039  -0.75554  -0.69927  -0.64687
 Alpha  occ. eigenvalues --   -0.62977  -0.58781  -0.58324  -0.57143  -0.55294
 Alpha  occ. eigenvalues --   -0.52989  -0.52364  -0.48198  -0.46579
 Alpha virt. eigenvalues --    0.03385   0.04671   0.05047   0.05152   0.06512
 Alpha virt. eigenvalues --    0.06986   0.07211   0.07748   0.08292   0.10147
 Alpha virt. eigenvalues --    0.11378   0.13720   0.14494   0.15130   0.16893

 Mulliken charges:
               1
     1  C    0.855540
     2  O   -0.520468
     3  B    0.723154
     4  O   -0.517898
     5  O   -0.465153
     6  C    0.124913
     7  H   -0.247378
     8  H   -0.132102
     9  H   -0.039118
    10  H   -0.035458
    11  H   -0.094355
    12  H    0.177894
    13  H    0.170430
 Sum of Mulliken charges =   0.00000

 Dipole moment (field-independent basis, Debye):
    X=             -0.4906    Y=             -0.1273    Z=             -0.0493  Tot=              0.5092

 Test job not archived.
 1\1\GINC-SE103\SP\RHF\Aug-CC-pVDZ\C2H7B1O3\OHZDE\09-Apr-2025\0\\#t hf
 aug-cc-pvdz iop(5/13=1,5/36=2,99/5=2) pseudo=read geom=check guess=(re
 ad,tcheck) scf=(maxcycle=1)\\title\\0,1\C,0,-1.393653,-0.202772,-0.614
 786\O,0,-0.128294,-0.779435,-0.2626\B,0,0.966763,-0.000952,-0.028724\O
 ,0,2.155058,-0.593821,0.315881\O,0,0.899856,1.363087,-0.135098\C,0,-2.
 216026,0.120399,0.623647\H,0,-1.902571,-0.946297,-1.232728\H,0,-1.2349
 69,0.696024,-1.216664\H,0,-2.342856,-0.770521,1.24355\H,0,-3.206955,0.
 485701,0.337841\H,0,-1.726221,0.893608,1.219958\H,0,1.751461,1.772965,

 Normal termination of Gaussian 16 at Wed Apr  9 00:38:38 2025.
