 Gaussian 16, Revision C.01,

 ----------------------------------------------------------------------
 #t hf aug-cc-pvdz symm=none int=(grid=ultrafine) guess=(read,tcheck) s
 table=(opt,rrhf)
 ----------------------------------------------------------------------
 -----
 title
 -----
 Symbolic Z-matrix:
 Charge =  0 Multiplicity = 1

 SCF Done:  E(RHF) =  -779.711026812     A.U. after   12 cycles
 Normal termination of Gaussian 16 at Tue Apr  8 23:48:45 2025.
 Gaussian 16:  ES64L-G16RevC.01  3-Jul-2019

 ----------------------------------------------------------------------
 #t hf aug-cc-pvdz iop(5/13=1,5/36=2,99/5=2) pseudo=read geom=check gue
 ss=(read,tcheck) scf=(maxcycle=1)
 ----------------------------------------------------------------------
 -----
 title
 -----
 Structure from the checkpoint file:  "BDE49_nonexpt_1861_mol1.chk"
 Charge =  0 Multiplicity = 1

                         Standard orientation:
 ---------------------------------------------------------------------
 Center     Atomic      Atomic             Coordinates (Angstroms)
 Number     Number       Type             X           Y           Z
 ---------------------------------------------------------------------
      1         14           0        0.841219   -0.018430   -0.015789
      2          6           0       -1.067004    0.003019    0.030832
      3          8           0       -1.604772    1.299921   -0.103909
      4          1           0       -1.028032    1.794862   -0.700165
      5          8           0        1.168974    1.278590   -0.967332
      6          1           0        2.064495    1.622685   -1.009989
      7          8           0       -1.600338   -0.515481    1.230034
      8          1           0       -1.710429    0.233432    1.827308
      9          8           0        1.355847   -1.466212   -0.577286
     10          1           0        0.715298   -1.919914   -1.136207
     11          8           0       -1.472219   -0.851858   -1.005332
     12          1           0       -2.435796   -0.932898   -0.944967
     13          8           0        1.564159    0.249843    1.426114
     14          1           0        1.726215   -0.516694    1.981758
 ---------------------------------------------------------------------

 SCF Done:  E(RHF) =  -779.917986125     A.U. after    2 cycles

 The electronic state is 1-A.
 Alpha  occ. eigenvalues --  -69.14360 -20.59525 -20.59292 -20.59150 -20.58709
 Alpha  occ. eigenvalues --  -20.58381 -20.57959 -11.39600  -6.88606  -3.99640
 Alpha  occ. eigenvalues --   -3.99631  -3.99466  -1.41762  -1.33776  -1.31893
 Alpha  occ. eigenvalues --   -1.31229  -1.30612  -1.30370  -0.90184  -0.80545
 Alpha  occ. eigenvalues --   -0.77583  -0.75072  -0.73350  -0.73100  -0.69034
 Alpha  occ. eigenvalues --   -0.65079  -0.60680  -0.60441  -0.58804  -0.58646
 Alpha  occ. eigenvalues --   -0.56979  -0.56460  -0.55117  -0.54035  -0.53096
 Alpha  occ. eigenvalues --   -0.51254  -0.44189
 Alpha virt. eigenvalues --    0.03034   0.04645   0.04899   0.05404   0.06919
 Alpha virt. eigenvalues --    0.06973   0.07641   0.07850   0.08256   0.12267
 Alpha virt. eigenvalues --    0.14000   0.14476   0.15012   0.17671   0.19055

 Mulliken charges:
               1
     1  Si   2.183268
     2  C    1.185585
     3  O   -0.627392
     4  H    0.181456
     5  O   -0.803079
     6  H    0.127756
     7  O   -0.597004
     8  H    0.145050
     9  O   -0.826373
    10  H    0.175349
    11  O   -0.571844
    12  H    0.103563
    13  O   -0.822326
    14  H    0.145992
 Sum of Mulliken charges =  -0.00000

 Dipole moment (field-independent basis, Debye):
    X=              0.7204    Y=              0.3331    Z=              0.0502  Tot=              0.7952

 Test job not archived.
 1\1\GINC-SE461\SP\RHF\Aug-CC-pVDZ\C1H6O6Si1\OHZDE\08-Apr-2025\0\\#t hf
  aug-cc-pvdz iop(5/13=1,5/36=2,99/5=2) pseudo=read geom=check guess=(r
 ead,tcheck) scf=(maxcycle=1)\\title\\0,1\Si,0,0.841219,-0.01843,-0.015
 789\C,0,-1.067004,0.003019,0.030832\O,0,-1.604772,1.299921,-0.103909\H
 ,0,-1.028032,1.794862,-0.700165\O,0,1.168974,1.27859,-0.967332\H,0,2.0
 64495,1.622685,-1.009989\O,0,-1.600338,-0.515481,1.230034\H,0,-1.71042
 9,0.233431,1.827308\O,0,1.355847,-1.466212,-0.577286\H,0,0.715298,-1.9
 19914,-1.136207\O,0,-1.472219,-0.851858,-1.005332\H,0,-2.435796,-0.932

 Normal termination of Gaussian 16 at Tue Apr  8 23:48:50 2025.
