 Gaussian 16, Revision C.01,

 ----------------------------------------------------------------------
 #t hf aug-cc-pvdz symm=none int=(grid=ultrafine) guess=(read,tcheck) s
 table=(opt,rrhf)
 ----------------------------------------------------------------------
 -----
 title
 -----
 Symbolic Z-matrix:
 Charge =  0 Multiplicity = 1

 SCF Done:  E(RHF) =  -825.217320473     A.U. after   15 cycles
 Normal termination of Gaussian 16 at Wed Apr  9 00:28:52 2025.
 Gaussian 16:  ES64L-G16RevC.01  3-Jul-2019

 ----------------------------------------------------------------------
 #t hf aug-cc-pvdz iop(5/13=1,5/36=2,99/5=2) pseudo=read geom=check gue
 ss=(read,tcheck) scf=(maxcycle=1)
 ----------------------------------------------------------------------
 -----
 title
 -----
 Structure from the checkpoint file:  "BDE49_nonexpt_330_mol1.chk"
 Charge =  0 Multiplicity = 1

                         Standard orientation:
 ---------------------------------------------------------------------
 Center     Atomic      Atomic             Coordinates (Angstroms)
 Number     Number       Type             X           Y           Z
 ---------------------------------------------------------------------
      1          6           0        1.642631   -0.349931   -0.000010
      2          6           0        1.284001    0.992640   -0.000002
      3          6           0       -0.062011    1.332150    0.000008
      4          6           0        0.660117   -1.333787   -0.000008
      5          6           0       -0.677867   -0.962223    0.000002
      6          6           0       -1.086555    0.377709    0.000011
      7          9           0        2.928918   -0.695051   -0.000019
      8          9           0        2.232648    1.934747   -0.000004
      9          9           0       -0.355064    2.640893    0.000015
     10          9           0        1.015156   -2.622782   -0.000016
     11          9           0       -1.576584   -1.950870    0.000003
     12          5           0       -2.582657    0.842129    0.000024
     13          8           0       -3.571347   -0.079433    0.000006
     14          1           0       -4.447146    0.317380    0.000001
     15          1           0       -2.836351    2.005654    0.000015
 ---------------------------------------------------------------------

 SCF Done:  E(RHF) =  -825.497959501     A.U. after    2 cycles

 The electronic state is 1-A.
 Alpha  occ. eigenvalues --  -26.18440 -26.17384 -26.17253 -26.17243 -26.16655
 Alpha  occ. eigenvalues --  -20.61008 -11.40089 -11.39251 -11.39161 -11.38162
 Alpha  occ. eigenvalues --  -11.38097 -11.27643  -7.66665  -1.72848  -1.71754
 Alpha  occ. eigenvalues --   -1.71440  -1.70759  -1.70446  -1.35433  -1.21597
 Alpha  occ. eigenvalues --   -1.08591  -1.08527  -0.95752  -0.95097  -0.87484
 Alpha  occ. eigenvalues --   -0.87004  -0.85834  -0.81527  -0.81172  -0.81096
 Alpha  occ. eigenvalues --   -0.79803  -0.79361  -0.78746  -0.78721  -0.77461
 Alpha  occ. eigenvalues --   -0.77115  -0.75677  -0.75478  -0.70633  -0.67367
 Alpha  occ. eigenvalues --   -0.66525  -0.63008  -0.60471  -0.58374  -0.54856
 Alpha  occ. eigenvalues --   -0.50174  -0.39590  -0.38522
 Alpha virt. eigenvalues --    0.03062   0.03669   0.04404   0.04872   0.05603
 Alpha virt. eigenvalues --    0.07515   0.08007   0.09170   0.09898   0.10041
 Alpha virt. eigenvalues --    0.10626   0.11333   0.12291   0.12972   0.13624

 Mulliken charges:
               1
     1  C    0.493064
     2  C    0.231379
     3  C   -0.359101
     4  C    0.309561
     5  C    0.494793
     6  C    0.221826
     7  F   -0.271577
     8  F   -0.228265
     9  F   -0.296402
    10  F   -0.223147
    11  F   -0.291833
    12  B   -0.088669
    13  O   -0.479222
    14  H    0.182985
    15  H    0.304606
 Sum of Mulliken charges =  -0.00000

 Dipole moment (field-independent basis, Debye):
    X=             -2.9132    Y=              1.3953    Z=              0.0000  Tot=              3.2301

 Test job not archived.
 1\1\GINC-SE284\SP\RHF\Aug-CC-pVDZ\C6H2B1F5O1\OHZDE\09-Apr-2025\0\\#t h
 f aug-cc-pvdz iop(5/13=1,5/36=2,99/5=2) pseudo=read geom=check guess=(
 read,tcheck) scf=(maxcycle=1)\\title\\0,1\C,0,1.642631,-0.349931,-0.00
 001\C,0,1.284001,0.99264,-0.000002\C,0,-0.062011,1.33215,0.000008\C,0,
 0.660117,-1.333787,-0.000008\C,0,-0.677867,-0.962223,0.000002\C,0,-1.0
 86555,0.377709,0.000011\F,0,2.928918,-0.695052,-0.000019\F,0,2.232648,
 1.934747,-0.000004\F,0,-0.355064,2.640893,0.000015\F,0,1.015156,-2.622
 782,-0.000016\F,0,-1.576584,-1.95087,0.000003\B,0,-2.582657,0.842129,0

 Normal termination of Gaussian 16 at Wed Apr  9 00:29:01 2025.
