 Gaussian 16, Revision C.01,

 ----------------------------------------------------------------------
 #t hf aug-cc-pvdz symm=none int=(grid=ultrafine) guess=(read,tcheck) s
 table=(opt,rrhf)
 ----------------------------------------------------------------------
 -----
 title
 -----
 Symbolic Z-matrix:
 Charge =  0 Multiplicity = 1

 SCF Done:  E(RHF) =  -515.608120764     A.U. after   16 cycles
 Normal termination of Gaussian 16 at Tue Apr  8 23:05:39 2025.
 Gaussian 16:  ES64L-G16RevC.01  3-Jul-2019

 ----------------------------------------------------------------------
 #t hf aug-cc-pvdz iop(5/13=1,5/36=2,99/5=2) pseudo=read geom=check gue
 ss=(read,tcheck) scf=(maxcycle=1)
 ----------------------------------------------------------------------
 -----
 title
 -----
 Structure from the checkpoint file:  "BDE49_expt_360_mol1.chk"
 Charge =  0 Multiplicity = 1

                         Standard orientation:
 ---------------------------------------------------------------------
 Center     Atomic      Atomic             Coordinates (Angstroms)
 Number     Number       Type             X           Y           Z
 ---------------------------------------------------------------------
      1          7           0        2.830306   -0.589423    0.000050
      2          6           0        0.458228    0.354184   -0.000482
      3          8           0        0.893543    1.489281   -0.000060
      4          6           0        3.343961    0.021438    1.219847
      5          1           0        2.985467   -0.540913    2.087388
      6          1           0        3.056451    1.074730    1.345465
      7          1           0        4.436362   -0.040346    1.216246
      8          6           0        3.344426    0.021244   -1.219650
      9          1           0        2.986258   -0.541244   -2.087237
     10          1           0        4.436826   -0.040549   -1.215625
     11          1           0        3.056971    1.074516   -1.345545
     12          6           0        1.410510   -0.856426   -0.000196
     13          1           0        1.168113   -1.472716   -0.875584
     14          1           0        1.167784   -1.472597    0.875187
     15          6           0       -1.024254    0.103759   -0.000201
     16          6           0       -1.582145   -1.181758   -0.000134
     17          6           0       -1.877986    1.215193   -0.000001
     18          6           0       -3.256255    1.047313    0.000248
     19          6           0       -2.964548   -1.349524    0.000114
     20          6           0       -3.802649   -0.236887    0.000306
     21          1           0       -0.946798   -2.058635   -0.000278
     22          1           0       -3.386848   -2.347913    0.000159
     23          1           0       -4.878828   -0.369356    0.000501
     24          1           0       -1.430454    2.201458   -0.000055
     25          1           0       -3.907523    1.914055    0.000398
 ---------------------------------------------------------------------

 SCF Done:  E(RHF) =  -515.763342498     A.U. after    2 cycles

 The electronic state is 1-A.
 Alpha  occ. eigenvalues --  -20.56090 -15.61013 -11.34482 -11.27651 -11.26612
 Alpha  occ. eigenvalues --  -11.26358 -11.26001 -11.25736 -11.25727 -11.25501
 Alpha  occ. eigenvalues --  -11.24647 -11.24645  -1.35392  -1.19050  -1.15850
 Alpha  occ. eigenvalues --   -1.04411  -1.02474  -0.98221  -0.94387  -0.87445
 Alpha  occ. eigenvalues --   -0.84460  -0.81065  -0.75642  -0.72239  -0.67536
 Alpha  occ. eigenvalues --   -0.65958  -0.64743  -0.64194  -0.62846  -0.61321
 Alpha  occ. eigenvalues --   -0.60439  -0.57535  -0.57524  -0.53352  -0.53163
 Alpha  occ. eigenvalues --   -0.51834  -0.51185  -0.50621  -0.50545  -0.49949
 Alpha  occ. eigenvalues --   -0.44808  -0.35592  -0.35176  -0.33781
 Alpha virt. eigenvalues --    0.02849   0.03738   0.04065   0.04595   0.04922
 Alpha virt. eigenvalues --    0.05705   0.06202   0.06378   0.07189   0.07858
 Alpha virt. eigenvalues --    0.08243   0.08619   0.09393   0.09642   0.10020

 Mulliken charges:
               1
     1  N   -0.780893
     2  C   -0.763279
     3  O   -0.496174
     4  C    0.799052
     5  H   -0.177770
     6  H   -0.018319
     7  H   -0.194416
     8  C    0.799086
     9  H   -0.177754
    10  H   -0.194374
    11  H   -0.018344
    12  C    0.396876
    13  H    0.004088
    14  H    0.003897
    15  C    1.392156
    16  C    0.454962
    17  C    0.143004
    18  C    0.419136
    19  C    0.384010
    20  C    0.704052
    21  H   -0.714789
    22  H   -0.471849
    23  H   -0.436401
    24  H   -0.627403
    25  H   -0.428555
 Sum of Mulliken charges =  -0.00000

 Dipole moment (field-independent basis, Debye):
    X=             -2.1116    Y=             -2.1099    Z=             -0.0005  Tot=              2.9851

 Test job not archived.
 1\1\GINC-SE457\SP\RHF\Aug-CC-pVDZ\C10H13N1O1\OHZDE\08-Apr-2025\0\\#t h
 f aug-cc-pvdz iop(5/13=1,5/36=2,99/5=2) pseudo=read geom=check guess=(
 read,tcheck) scf=(maxcycle=1)\\title\\0,1\N,0,2.830306,-0.589423,0.000
 05\C,0,0.458228,0.354184,-0.000482\O,0,0.893543,1.489281,-0.00006\C,0,
 3.343961,0.021438,1.219847\H,0,2.985467,-0.540913,2.087388\H,0,3.05645
 1,1.07473,1.345465\H,0,4.436362,-0.040346,1.216246\C,0,3.344426,0.0212
 44,-1.21965\H,0,2.986258,-0.541244,-2.087237\H,0,4.436826,-0.040549,-1
 .215625\H,0,3.056971,1.074516,-1.345545\C,0,1.41051,-0.856426,-0.00019

 Normal termination of Gaussian 16 at Tue Apr  8 23:05:59 2025.
