 Gaussian 16, Revision C.01,

 ----------------------------------------------------------------------
 #t hf aug-cc-pvdz symm=none int=(grid=ultrafine) guess=(read,tcheck) s
 table=opt
 ----------------------------------------------------------------------
 -----
 title
 -----
 Symbolic Z-matrix:
 Charge =  0 Multiplicity = 2

 SCF Done:  E(UHF) =  -285.416506491     A.U. after   17 cycles
 Normal termination of Gaussian 16 at Tue Apr  8 23:03:09 2025.
 Gaussian 16:  ES64L-G16RevC.01  3-Jul-2019

 ----------------------------------------------------------------------
 #t hf aug-cc-pvdz iop(5/13=1,5/36=2,99/5=2) pseudo=read geom=check gue
 ss=(read,tcheck) scf=(maxcycle=1)
 ----------------------------------------------------------------------
 -----
 title
 -----
 Structure from the checkpoint file:  "BDE49_expt_373_mol2.chk"
 Charge =  0 Multiplicity = 2

                         Standard orientation:
 ---------------------------------------------------------------------
 Center     Atomic      Atomic             Coordinates (Angstroms)
 Number     Number       Type             X           Y           Z
 ---------------------------------------------------------------------
      1          7           0        0.928945    1.046245    0.184279
      2          6           0        1.378205   -0.299392   -0.182379
      3          6           0        0.315521   -1.304712    0.252848
      4          1           0        2.325552   -0.512144    0.321331
      5          1           0        1.528276   -0.392424   -1.268073
      6          8           0       -0.942511   -0.994079   -0.325406
      7          1           0        0.238029   -1.307154    1.351572
      8          1           0        0.578022   -2.309696   -0.082217
      9          6           0       -1.398812    0.288653    0.118055
     10          6           0       -0.391533    1.361418   -0.143680
     11          1           0       -1.639826    0.211820    1.198723
     12          1           0       -2.329145    0.491574   -0.414981
     13          1           0       -0.679052    2.399456   -0.020060
     14          1           0        1.595335    1.771677   -0.042069
 ---------------------------------------------------------------------

 SCF Done:  E(UHF) =  -285.504679317     A.U. after    2 cycles

 The electronic state is 2-A.
 Alpha  occ. eigenvalues --  -20.56714 -15.62932 -11.28472 -11.28385 -11.26727
 Alpha  occ. eigenvalues --  -11.25760  -1.33371  -1.19597  -1.03426  -0.92958
 Alpha  occ. eigenvalues --   -0.88083  -0.77022  -0.71796  -0.65076  -0.64444
 Alpha  occ. eigenvalues --   -0.62028  -0.60897  -0.58155  -0.55784  -0.51045
 Alpha  occ. eigenvalues --   -0.47841  -0.45731  -0.43211  -0.28639
 Alpha virt. eigenvalues --    0.03360   0.04134   0.04571   0.04934   0.06470
 Alpha virt. eigenvalues --    0.06849   0.07515   0.07896   0.11571   0.12456
 Alpha virt. eigenvalues --    0.12858   0.13140   0.14260   0.15026   0.15942

  Beta  occ. eigenvalues --  -20.56686 -15.62421 -11.28637 -11.28465 -11.26728
  Beta  occ. eigenvalues --  -11.23456  -1.33202  -1.17693  -1.01975  -0.91976
  Beta  occ. eigenvalues --   -0.86322  -0.75039  -0.71031  -0.64436  -0.63799
  Beta  occ. eigenvalues --   -0.60932  -0.60498  -0.55810  -0.54874  -0.50513
  Beta  occ. eigenvalues --   -0.47242  -0.42813  -0.39233
  Beta virt. eigenvalues --    0.03333   0.04167   0.04589   0.04923   0.06461
  Beta virt. eigenvalues --    0.06808   0.07497   0.07792   0.11292   0.11834
  Beta virt. eigenvalues --    0.12517   0.13058   0.14267   0.14962   0.15273

 Mulliken charges and spin densities:
               1          2
     1  N   -0.557500   0.084311
     2  C    0.730040  -0.032571
     3  C    0.552413   0.015020
     4  H   -0.131701   0.003628
     5  H   -0.151196  -0.002202
     6  O   -0.700930   0.001327
     7  H   -0.070375   0.000891
     8  H   -0.205964   0.000573
     9  C    0.555759  -0.208071
    10  C    0.647708   1.192198
    11  H   -0.035824   0.044664
    12  H   -0.209168  -0.002290
    13  H   -0.340562  -0.082717
    14  H   -0.082699  -0.014761
 Sum of Mulliken charges =  -0.00000   1.00000

 Dipole moment (field-independent basis, Debye):
    X=              1.5584    Y=              1.0470    Z=              0.5933  Tot=              1.9690
                          Isotropic Fermi Contact Couplings
        Atom                 a.u.       MegaHertz       Gauss      10(-4) cm-1
     1  N(14)              0.03214      10.38560       3.70584       3.46426
     2  C(13)              0.00471       5.29109       1.88799       1.76492
     3  C(13)              0.00202       2.26973       0.80989       0.75710
     4  H(1)              -0.00062      -2.78213      -0.99273      -0.92802
     5  H(1)               0.00187       8.37167       2.98722       2.79249
     6  O(17)              0.00946      -5.73659      -2.04696      -1.91352
     7  H(1)              -0.00015      -0.67680      -0.24150      -0.22576
     8  H(1)              -0.00015      -0.68529      -0.24453      -0.22859

 Normal termination of Gaussian 16 at Tue Apr  8 23:03:14 2025.
