 Gaussian 16, Revision C.01,

 ----------------------------------------------------------------------
 #t hf aug-cc-pvdz symm=none int=(grid=ultrafine) guess=(read,tcheck) s
 table=(opt,rrhf)
 ----------------------------------------------------------------------
 -----
 title
 -----
 Symbolic Z-matrix:
 Charge =  0 Multiplicity = 1

 SCF Done:  E(RHF) =  -832.926155609     A.U. after   14 cycles
 Normal termination of Gaussian 16 at Tue Apr  8 23:38:58 2025.
 Gaussian 16:  ES64L-G16RevC.01  3-Jul-2019

 ----------------------------------------------------------------------
 #t hf aug-cc-pvdz iop(5/13=1,5/36=2,99/5=2) pseudo=read geom=check gue
 ss=(read,tcheck) scf=(maxcycle=1)
 ----------------------------------------------------------------------
 -----
 title
 -----
 Structure from the checkpoint file:  "BDE49_nonexpt_1607_mol1.chk"
 Charge =  0 Multiplicity = 1

                         Standard orientation:
 ---------------------------------------------------------------------
 Center     Atomic      Atomic             Coordinates (Angstroms)
 Number     Number       Type             X           Y           Z
 ---------------------------------------------------------------------
      1          6           0        2.404012   -0.829242   -0.028223
      2          6           0        1.190597    0.060584   -0.012142
      3          8           0        0.040375   -0.664195   -0.113824
      4          8           0        1.201681    1.266406    0.074908
      5         15           0       -1.478724   -0.032903    0.115053
      6          8           0       -1.917021   -0.160809    1.499278
      7          6           0        3.722015   -0.060612   -0.005768
      8          1           0        2.320339   -1.474397   -0.908833
      9          1           0        2.312214   -1.500583    0.832678
     10          1           0        3.815474    0.588129   -0.878581
     11          1           0        4.562779   -0.757107   -0.004858
     12          1           0        3.795206    0.568103    0.883021
     13          8           0       -2.306337   -0.859862   -0.953134
     14          1           0       -2.910671   -1.478983   -0.526906
     15          8           0       -1.401969    1.382519   -0.568572
     16          1           0       -0.548059    1.811541   -0.354758
 ---------------------------------------------------------------------

 SCF Done:  E(RHF) =  -833.160485049     A.U. after    2 cycles

 The electronic state is 1-A.
 Alpha  occ. eigenvalues --  -81.46583 -20.64705 -20.63329 -20.61958 -20.60398
 Alpha  occ. eigenvalues --  -20.53991 -11.44006 -11.27972 -11.25037  -7.94440
 Alpha  occ. eigenvalues --   -5.09096  -5.09053  -5.09024  -1.45733  -1.39822
 Alpha  occ. eigenvalues --   -1.36338  -1.35784  -1.27711  -1.08081  -0.94976
 Alpha  occ. eigenvalues --   -0.87709  -0.83100  -0.75959  -0.74554  -0.74235
 Alpha  occ. eigenvalues --   -0.70518  -0.68747  -0.66951  -0.63587  -0.62228
 Alpha  occ. eigenvalues --   -0.60406  -0.59444  -0.58068  -0.55423  -0.54966
 Alpha  occ. eigenvalues --   -0.54673  -0.52408  -0.50574  -0.50294  -0.49764
 Alpha virt. eigenvalues --    0.02795   0.03876   0.04684   0.04802   0.05677
 Alpha virt. eigenvalues --    0.06870   0.07359   0.09572   0.09946   0.10692
 Alpha virt. eigenvalues --    0.11512   0.12207   0.13038   0.13567   0.14842

 Mulliken charges:
               1
     1  C    0.131867
     2  C    0.291447
     3  O   -0.959943
     4  O   -0.487105
     5  P    2.378950
     6  O   -0.804702
     7  C    0.476385
     8  H   -0.018941
     9  H    0.003755
    10  H   -0.053148
    11  H   -0.040536
    12  H   -0.044947
    13  O   -0.605491
    14  H    0.159195
    15  O   -0.676129
    16  H    0.249341
 Sum of Mulliken charges =  -0.00000

 Dipole moment (field-independent basis, Debye):
    X=              2.9281    Y=             -2.5846    Z=             -1.8623  Tot=              4.3269

 Test job not archived.
 1\1\GINC-SE329\SP\RHF\Aug-CC-pVDZ\C3H7O5P1\OHZDE\08-Apr-2025\0\\#t hf
 aug-cc-pvdz iop(5/13=1,5/36=2,99/5=2) pseudo=read geom=check guess=(re
 ad,tcheck) scf=(maxcycle=1)\\title\\0,1\C,0,2.404012,-0.829242,-0.0282
 23\C,0,1.190597,0.060584,-0.012142\O,0,0.040375,-0.664195,-0.113824\O,
 0,1.201681,1.266406,0.074908\P,0,-1.478724,-0.032903,0.115053\O,0,-1.9
 17021,-0.160809,1.499278\C,0,3.722015,-0.060612,-0.005768\H,0,2.320339
 ,-1.474397,-0.908833\H,0,2.312214,-1.500583,0.832678\H,0,3.815474,0.58
 8129,-0.878581\H,0,4.562779,-0.757107,-0.004858\H,0,3.795206,0.568103,

 Normal termination of Gaussian 16 at Tue Apr  8 23:39:05 2025.
