 Gaussian 16, Revision C.01,

 ----------------------------------------------------------------------
 #t hf aug-cc-pvdz symm=none int=(grid=ultrafine) guess=(read,tcheck) s
 table=(opt,rrhf)
 ----------------------------------------------------------------------
 -----
 title
 -----
 Symbolic Z-matrix:
 Charge =  0 Multiplicity = 1

 SCF Done:  E(RHF) =  -474.408159170     A.U. after   14 cycles
 Normal termination of Gaussian 16 at Tue Apr  8 23:32:03 2025.
 Gaussian 16:  ES64L-G16RevC.01  3-Jul-2019

 ----------------------------------------------------------------------
 #t hf aug-cc-pvdz iop(5/13=1,5/36=2,99/5=2) pseudo=read geom=check gue
 ss=(read,tcheck) scf=(maxcycle=1)
 ----------------------------------------------------------------------
 -----
 title
 -----
 Structure from the checkpoint file:  "BDE49_nonexpt_1451_mol1.chk"
 Charge =  0 Multiplicity = 1

                         Standard orientation:
 ---------------------------------------------------------------------
 Center     Atomic      Atomic             Coordinates (Angstroms)
 Number     Number       Type             X           Y           Z
 ---------------------------------------------------------------------
      1          6           0       -1.363230   -1.036798    0.002495
      2          6           0       -0.472269    0.185886    0.014796
      3          1           0       -1.097877   -1.705524   -0.822468
      4          1           0       -2.413485   -0.751924   -0.102168
      5          1           0       -1.244429   -1.606690    0.929159
      6         15           0        1.361901   -0.123297   -0.119313
      7          7           0       -0.856359    1.396711    0.009903
      8          1           0       -1.880020    1.454127    0.001306
      9          1           0        1.449219   -1.135638    0.871585
     10          1           0        1.765581    0.923603    0.739216
 ---------------------------------------------------------------------

 SCF Done:  E(RHF) =  -474.469330147     A.U. after    2 cycles

 The electronic state is 1-A.
 Alpha  occ. eigenvalues --  -81.26213 -15.62111 -11.30924 -11.25663  -7.76666
 Alpha  occ. eigenvalues --   -4.90661  -4.90616  -4.90283  -1.18837  -0.99432
 Alpha  occ. eigenvalues --   -0.84575  -0.72151  -0.64804  -0.60787  -0.59979
 Alpha  occ. eigenvalues --   -0.52149  -0.50588  -0.45266  -0.40771  -0.35268
 Alpha virt. eigenvalues --    0.03066   0.04710   0.05266   0.05764   0.07222
 Alpha virt. eigenvalues --    0.08093   0.09451   0.10489   0.11230   0.12949
 Alpha virt. eigenvalues --    0.13368   0.15061   0.15457   0.15782   0.16520

 Mulliken charges:
               1
     1  C    0.300804
     2  C   -0.076969
     3  H    0.030053
     4  H   -0.137025
     5  H    0.006745
     6  P   -0.022564
     7  N   -0.399554
     8  H    0.025007
     9  H    0.113522
    10  H    0.159983
 Sum of Mulliken charges =  -0.00000

 Dipole moment (field-independent basis, Debye):
    X=             -1.3521    Y=             -2.1500    Z=              0.6117  Tot=              2.6125

 Test job not archived.
 1\1\GINC-SE336\SP\RHF\Aug-CC-pVDZ\C2H6N1P1\OHZDE\08-Apr-2025\0\\#t hf
 aug-cc-pvdz iop(5/13=1,5/36=2,99/5=2) pseudo=read geom=check guess=(re
 ad,tcheck) scf=(maxcycle=1)\\title\\0,1\C,0,-1.36323,-1.036798,0.00249
 5\C,0,-0.472269,0.185886,0.014796\H,0,-1.097877,-1.705524,-0.822468\H,
 0,-2.413485,-0.751924,-0.102168\H,0,-1.244429,-1.60669,0.929159\P,0,1.
 361901,-0.123297,-0.119313\N,0,-0.856359,1.396711,0.009903\H,0,-1.8800
 2,1.454127,0.001306\H,0,1.449219,-1.135638,0.871585\H,0,1.765581,0.923
 603,0.739216\\Version=ES64L-G16RevC.01\State=1-A\HF=-474.4693301\RMSD=

 Normal termination of Gaussian 16 at Tue Apr  8 23:32:06 2025.
