 Gaussian 16, Revision C.01,

 ----------------------------------------------------------------------
 #t hf aug-cc-pvdz symm=none int=(grid=ultrafine) guess=(read,tcheck) s
 table=(opt,rrhf)
 ----------------------------------------------------------------------
 -----
 title
 -----
 Symbolic Z-matrix:
 Charge =  0 Multiplicity = 1

 SCF Done:  E(RHF) =  -400.115038300     A.U. after   12 cycles

 1\1\GINC-SE072\Stability\RHF\Aug-CC-pVDZ\H4N2Si1\OHZDE\08-Apr-2025\0\\
 #t hf aug-cc-pvdz symm=none int=(grid=ultrafine) guess=(read,tcheck) s
 table=(opt,rrhf)\\title\\0,1\Si,0,-1.005228,0.064027,0.000005\N,0,0.69
 408,-0.525804,0.000004\N,0,1.583376,0.346617,-0.000018\H,0,2.501825,-0
 .142975,0.000004\H,0,-1.627143,-0.519709,1.207463\H,0,-1.627198,-0.519
 861,-1.207351\H,0,-1.116487,1.540477,-0.000086\\Version=ES64L-G16RevC.
 01\HF=-400.1150383\RMSD=8.771e-09\Dipole=-0.0587136,-0.0268988,0.00000
 76\Quadrupole=2.8157686,-2.5148528,-0.3009158,-0.9325607,0.0000355,0.0

 Normal termination of Gaussian 16 at Tue Apr  8 23:57:19 2025.
 Gaussian 16:  ES64L-G16RevC.01  3-Jul-2019

 ----------------------------------------------------------------------
 #t hf aug-cc-pvdz iop(5/13=1,5/36=2,99/5=2) pseudo=read geom=check gue
 ss=(read,tcheck) scf=(maxcycle=1)
 ----------------------------------------------------------------------
 -----
 title
 -----
 Structure from the checkpoint file:  "BDE49_nonexpt_2077_mol1.chk"
 Charge =  0 Multiplicity = 1

                         Standard orientation:
 ---------------------------------------------------------------------
 Center     Atomic      Atomic             Coordinates (Angstroms)
 Number     Number       Type             X           Y           Z
 ---------------------------------------------------------------------
      1         14           0       -1.005228    0.064027    0.000005
      2          7           0        0.694080   -0.525804    0.000004
      3          7           0        1.583376    0.346617   -0.000018
      4          1           0        2.501825   -0.142975    0.000004
      5          1           0       -1.627143   -0.519709    1.207463
      6          1           0       -1.627198   -0.519861   -1.207351
      7          1           0       -1.116487    1.540477   -0.000086
 ---------------------------------------------------------------------

 SCF Done:  E(RHF) =  -400.172396443     A.U. after    2 cycles

 The electronic state is 1-A.
 Alpha  occ. eigenvalues --  -69.09045 -15.70487 -15.67918  -6.84221  -3.95065
 Alpha  occ. eigenvalues --   -3.94961  -3.94953  -1.29961  -0.90170  -0.71295
 Alpha  occ. eigenvalues --   -0.65027  -0.58538  -0.53576  -0.49056  -0.47393
 Alpha  occ. eigenvalues --   -0.36639
 Alpha virt. eigenvalues --    0.03690   0.04640   0.05682   0.05701   0.06988
 Alpha virt. eigenvalues --    0.09417   0.09514   0.09816   0.12945   0.14877
 Alpha virt. eigenvalues --    0.17103   0.17732   0.18505   0.19718   0.19930

 Mulliken charges:
               1
     1  Si   0.788608
     2  N   -0.590731
     3  N   -0.060239
     4  H    0.093255
     5  H   -0.071123
     6  H   -0.071116
     7  H   -0.088653
 Sum of Mulliken charges =  -0.00000

 Dipole moment (field-independent basis, Debye):
    X=             -0.0947    Y=             -0.0706    Z=              0.0000  Tot=              0.1181

 Test job not archived.
 1\1\GINC-SE072\SP\RHF\Aug-CC-pVDZ\H4N2Si1\OHZDE\08-Apr-2025\0\\#t hf a
 ug-cc-pvdz iop(5/13=1,5/36=2,99/5=2) pseudo=read geom=check guess=(rea
 d,tcheck) scf=(maxcycle=1)\\title\\0,1\Si,0,-1.005228,0.064027,0.00000
 5\N,0,0.69408,-0.525804,0.000004\N,0,1.583376,0.346617,-0.000018\H,0,2
 .501825,-0.142975,0.000004\H,0,-1.627143,-0.519709,1.207463\H,0,-1.627
 198,-0.519861,-1.207351\H,0,-1.116487,1.540477,-0.000086\\Version=ES64
 L-G16RevC.01\State=1-A\HF=-400.1723964\RMSD=4.823e-03\Dipole=-0.037251
 9,-0.0277711,0.000007\Quadrupole=2.7499923,-2.4963319,-0.2536604,-0.94

 Normal termination of Gaussian 16 at Tue Apr  8 23:57:21 2025.
