 Gaussian 16, Revision C.01,

 ----------------------------------------------------------------------
 #t hf aug-cc-pvdz symm=none int=(grid=ultrafine) guess=(read,tcheck) s
 table=(opt,rrhf)
 ----------------------------------------------------------------------
 -----
 title
 -----
 Symbolic Z-matrix:
 Charge =  0 Multiplicity = 1

 SCF Done:  E(RHF) =  -207.851500940     A.U. after   11 cycles

 1\1\GINC-SE072\Stability\RHF\Aug-CC-pVDZ\C4H12B2\OHZDE\08-Apr-2025\0\\
 #t hf aug-cc-pvdz symm=none int=(grid=ultrafine) guess=(read,tcheck) s
 table=(opt,rrhf)\\title\\0,1\B,0,0.838325,0.000007,-0.00001\B,0,-0.838
 325,-0.000002,-0.000001\C,0,1.655304,-1.011407,-0.900076\H,0,1.82898,-
 1.898619,-0.269351\H,0,2.648884,-0.645178,-1.182007\H,0,1.14123,-1.372
 581,-1.795396\C,0,-1.655294,-1.011409,0.900081\H,0,-1.82897,-1.898629,
 0.269366\H,0,-2.648874,-0.645181,1.182015\H,0,-1.141214,-1.372572,1.79
 5402\C,0,1.655304,1.011411,0.900066\H,0,2.648884,0.645179,1.181994\H,0

 Normal termination of Gaussian 16 at Tue Apr  8 23:54:47 2025.
 Gaussian 16:  ES64L-G16RevC.01  3-Jul-2019

 ----------------------------------------------------------------------
 #t hf aug-cc-pvdz iop(5/13=1,5/36=2,99/5=2) pseudo=read geom=check gue
 ss=(read,tcheck) scf=(maxcycle=1)
 ----------------------------------------------------------------------
 -----
 title
 -----
 Structure from the checkpoint file:  "BDE49_nonexpt_1_mol1.chk"
 Charge =  0 Multiplicity = 1

                         Standard orientation:
 ---------------------------------------------------------------------
 Center     Atomic      Atomic             Coordinates (Angstroms)
 Number     Number       Type             X           Y           Z
 ---------------------------------------------------------------------
      1          5           0       -0.838325   -0.000007   -0.000010
      2          5           0        0.838325    0.000002   -0.000001
      3          6           0       -1.655304    1.011407   -0.900076
      4          1           0       -1.828980    1.898619   -0.269351
      5          1           0       -2.648884    0.645178   -1.182007
      6          1           0       -1.141230    1.372581   -1.795396
      7          6           0        1.655294    1.011409    0.900081
      8          1           0        1.828970    1.898629    0.269366
      9          1           0        2.648874    0.645181    1.182015
     10          1           0        1.141214    1.372572    1.795402
     11          6           0       -1.655304   -1.011411    0.900066
     12          1           0       -2.648884   -0.645179    1.181994
     13          1           0       -1.141231   -1.372577    1.795390
     14          1           0       -1.828980   -1.898629    0.269350
     15          6           0        1.655313   -1.011403   -0.900068
     16          1           0        2.648894   -0.645168   -1.181991
     17          1           0        1.141247   -1.372575   -1.795393
     18          1           0        1.828990   -1.898618   -0.269347
 ---------------------------------------------------------------------

 SCF Done:  E(RHF) =  -207.919715253     A.U. after    2 cycles

 The electronic state is 1-A.
 Alpha  occ. eigenvalues --  -11.20070 -11.20069 -11.20049 -11.20049  -7.57382
 Alpha  occ. eigenvalues --   -7.57303  -0.96363  -0.94505  -0.91104  -0.90974
 Alpha  occ. eigenvalues --   -0.65277  -0.58484  -0.57671  -0.55583  -0.55412
 Alpha  occ. eigenvalues --   -0.53589  -0.53344  -0.53091  -0.52783  -0.51754
 Alpha  occ. eigenvalues --   -0.44683  -0.44567  -0.37414
 Alpha virt. eigenvalues --    0.02872   0.04352   0.04830   0.04847   0.06366
 Alpha virt. eigenvalues --    0.06386   0.06614   0.06696   0.07234   0.08674
 Alpha virt. eigenvalues --    0.08776   0.08864   0.09652   0.10005   0.10538

 Mulliken charges:
               1
     1  B    0.444782
     2  B    0.444782
     3  C    0.542803
     4  H   -0.084233
     5  H   -0.361879
     6  H   -0.319085
     7  C    0.542800
     8  H   -0.084231
     9  H   -0.361874
    10  H   -0.319085
    11  C    0.542803
    12  H   -0.361873
    13  H   -0.319083
    14  H   -0.084235
    15  C    0.542802
    16  H   -0.361874
    17  H   -0.319086
    18  H   -0.084233
 Sum of Mulliken charges =  -0.00000

 Dipole moment (field-independent basis, Debye):
    X=              0.0000    Y=             -0.0000    Z=             -0.0000  Tot=              0.0000

 Test job not archived.
 1\1\GINC-SE072\SP\RHF\Aug-CC-pVDZ\C4H12B2\OHZDE\08-Apr-2025\0\\#t hf a
 ug-cc-pvdz iop(5/13=1,5/36=2,99/5=2) pseudo=read geom=check guess=(rea
 d,tcheck) scf=(maxcycle=1)\\title\\0,1\B,0,0.838325,0.000007,-0.00001\
 B,0,-0.838325,-0.000002,-0.000001\C,0,1.655304,-1.011407,-0.900076\H,0
 ,1.82898,-1.898619,-0.269351\H,0,2.648884,-0.645178,-1.182007\H,0,1.14
 123,-1.372581,-1.795396\C,0,-1.655294,-1.011409,0.900081\H,0,-1.82897,
 -1.898629,0.269366\H,0,-2.648874,-0.645181,1.182015\H,0,-1.141214,-1.3
 72572,1.795402\C,0,1.655304,1.011411,0.900066\H,0,2.648884,0.645179,1.

 Normal termination of Gaussian 16 at Tue Apr  8 23:54:53 2025.
