 Gaussian 16, Revision C.01,

 ----------------------------------------------------------------------
 #t hf aug-cc-pvdz symm=none int=(grid=ultrafine) guess=(read,tcheck) s
 table=opt
 ----------------------------------------------------------------------
 -----
 title
 -----
 Symbolic Z-matrix:
 Charge =  0 Multiplicity = 2

 SCF Done:  E(UHF) =  -1514.33834774     A.U. after   18 cycles
 Normal termination of Gaussian 16 at Tue Apr  8 23:23:21 2025.
 Gaussian 16:  ES64L-G16RevC.01  3-Jul-2019

 ----------------------------------------------------------------------
 #t hf aug-cc-pvdz iop(5/13=1,5/36=2,99/5=2) pseudo=read geom=check gue
 ss=(read,tcheck) scf=(maxcycle=1)
 ----------------------------------------------------------------------
 -----
 title
 -----
 Structure from the checkpoint file:  "BDE49_nonexpt_1243_mol2.chk"
 Charge =  0 Multiplicity = 2

                         Standard orientation:
 ---------------------------------------------------------------------
 Center     Atomic      Atomic             Coordinates (Angstroms)
 Number     Number       Type             X           Y           Z
 ---------------------------------------------------------------------
      1         15           0       -0.000002    1.401874   -0.000172
      2         16           0        1.703737   -0.041456   -0.168917
      3         16           0       -1.703765   -0.041388    0.168917
      4          8           0        1.349274   -1.067150   -1.139461
      5          8           0        2.853491    0.816374   -0.393069
      6          8           0       -1.349489   -1.066628    1.140009
      7          8           0       -2.853569    0.816539    0.392444
      8          6           0        1.869700   -0.822008    1.438348
      9          1           0        2.692805   -1.531872    1.331999
     10          1           0        0.934719   -1.327346    1.674093
     11          1           0        2.116609   -0.053303    2.169441
     12          6           0       -1.869406   -0.822693   -1.438014
     13          1           0       -0.934372   -1.328134   -1.673337
     14          1           0       -2.116175   -0.054332   -2.169516
     15          1           0       -2.692525   -1.532515   -1.331497
 ---------------------------------------------------------------------

 SCF Done:  E(UHF) =  -1514.61309851     A.U. after    2 cycles

 The electronic state is 2-A.
 Alpha  occ. eigenvalues --  -93.80314 -93.80313 -81.36126 -20.58548 -20.58547
 Alpha  occ. eigenvalues --  -20.58262 -20.58261 -11.30226 -11.30224  -9.07135
 Alpha  occ. eigenvalues --   -9.07130  -7.86394  -6.41746  -6.41744  -6.41474
 Alpha  occ. eigenvalues --   -6.41466  -6.41389  -6.41368  -5.00967  -4.99850
 Alpha  occ. eigenvalues --   -4.99572  -1.44032  -1.43670  -1.32827  -1.32735
 Alpha  occ. eigenvalues --   -1.05724  -1.05511  -0.92926  -0.85588  -0.79278
 Alpha  occ. eigenvalues --   -0.71871  -0.70086  -0.69734  -0.68539  -0.68353
 Alpha  occ. eigenvalues --   -0.65355  -0.62958  -0.62660  -0.62236  -0.59524
 Alpha  occ. eigenvalues --   -0.55198  -0.54335  -0.52756  -0.52106  -0.51884
 Alpha  occ. eigenvalues --   -0.51814  -0.43899  -0.43469  -0.42380
 Alpha virt. eigenvalues --    0.03011   0.03938   0.04262   0.05218   0.05748
 Alpha virt. eigenvalues --    0.05989   0.06765   0.07213   0.08474   0.10003
 Alpha virt. eigenvalues --    0.10411   0.11624   0.11861   0.13250   0.13716

  Beta  occ. eigenvalues --  -93.80355 -93.80355 -81.35377 -20.58530 -20.58529
  Beta  occ. eigenvalues --  -20.58311 -20.58311 -11.30229 -11.30228  -9.07187
  Beta  occ. eigenvalues --   -9.07182  -7.85506  -6.41768  -6.41766  -6.41584
  Beta  occ. eigenvalues --   -6.41563  -6.41458  -6.41450  -4.99263  -4.99125
  Beta  occ. eigenvalues --   -4.97633  -1.44043  -1.43709  -1.32854  -1.32759
  Beta  occ. eigenvalues --   -1.05553  -1.05502  -0.90227  -0.85744  -0.77298
  Beta  occ. eigenvalues --   -0.71765  -0.69792  -0.69655  -0.68501  -0.68400
  Beta  occ. eigenvalues --   -0.63189  -0.62902  -0.62391  -0.62145  -0.58115
  Beta  occ. eigenvalues --   -0.55341  -0.54307  -0.52761  -0.51889  -0.51791
  Beta  occ. eigenvalues --   -0.51636  -0.43482  -0.41370
  Beta virt. eigenvalues --   -0.03083   0.03131   0.04160   0.04785   0.05250
  Beta virt. eigenvalues --    0.05976   0.06757   0.06872   0.07256   0.09447
  Beta virt. eigenvalues --    0.10958   0.11182   0.11809   0.11983   0.13262

 Mulliken charges and spin densities:
               1          2
     1  P    0.401563   1.212978
     2  S    2.113495  -0.078596
     3  S    2.113526  -0.078597
     4  O   -1.155013  -0.007641
     5  O   -1.074085  -0.004704
     6  O   -1.155012  -0.007638
     7  O   -1.074095  -0.004702
     8  C   -0.040665  -0.012264
     9  H    0.032110   0.001375
    10  H   -0.047189  -0.002410
    11  H   -0.029454  -0.002248
    12  C   -0.040607  -0.012270
    13  H   -0.047223  -0.002407
    14  H   -0.029455  -0.002249
    15  H    0.032104   0.001374
 Sum of Mulliken charges =  -0.00000   1.00000

 Dipole moment (field-independent basis, Debye):
    X=              0.0010    Y=             -0.1905    Z=              0.0005  Tot=              0.1905
                          Isotropic Fermi Contact Couplings
        Atom                 a.u.       MegaHertz       Gauss      10(-4) cm-1
     1  P(31)              0.20452     370.41364     132.17280     123.55669
     2  S(33)             -0.04304     -14.78198      -5.27458      -4.93074
     3  S(33)             -0.04303     -14.78055      -5.27407      -4.93026
     4  O(17)              0.00330      -1.99901      -0.71330      -0.66680
     5  O(17)             -0.00368       2.23205       0.79645       0.74453
     6  O(17)              0.00330      -2.00187      -0.71432      -0.66775
     7  O(17)             -0.00368       2.23278       0.79671       0.74477
     8  C(13)              0.00067       0.75046       0.26778       0.25033

 Normal termination of Gaussian 16 at Tue Apr  8 23:23:30 2025.
