 Gaussian 16, Revision C.01,

 ----------------------------------------------------------------------
 #t hf aug-cc-pvdz symm=none int=(grid=ultrafine) guess=(read,tcheck) s
 table=(opt,rrhf)
 ----------------------------------------------------------------------
 -----
 title
 -----
 Symbolic Z-matrix:
 Charge =  0 Multiplicity = 1

 SCF Done:  E(RHF) =  -1045.15225146     A.U. after   14 cycles
 Normal termination of Gaussian 16 at Tue Apr  8 23:16:50 2025.
 Gaussian 16:  ES64L-G16RevC.01  3-Jul-2019

 ----------------------------------------------------------------------
 #t hf aug-cc-pvdz iop(5/13=1,5/36=2,99/5=2) pseudo=read geom=check gue
 ss=(read,tcheck) scf=(maxcycle=1)
 ----------------------------------------------------------------------
 -----
 title
 -----
 Structure from the checkpoint file:  "BDE49_nonexpt_1059_mol1.chk"
 Charge =  0 Multiplicity = 1

                         Standard orientation:
 ---------------------------------------------------------------------
 Center     Atomic      Atomic             Coordinates (Angstroms)
 Number     Number       Type             X           Y           Z
 ---------------------------------------------------------------------
      1         17           0        1.880645   -0.152550   -0.000074
      2          8           0        0.526115    0.908635    0.000129
      3          6           0       -0.727278    0.336669    0.000276
      4         16           0       -1.124153   -1.231554   -0.000050
      5          8           0       -1.590200    1.351843   -0.000073
      6          1           0       -1.108180    2.194374   -0.000049
 ---------------------------------------------------------------------

 SCF Done:  E(RHF) =  -1045.25119526     A.U. after    2 cycles

 The electronic state is 1-A.
 Alpha  occ. eigenvalues -- -103.75533 -93.52099 -20.71226 -20.66892 -11.47256
 Alpha  occ. eigenvalues --  -10.78131  -8.82117  -8.43905  -8.43425  -8.43409
 Alpha  occ. eigenvalues --   -6.16361  -6.15820  -6.15669  -1.48811  -1.39949
 Alpha  occ. eigenvalues --   -1.15628  -1.04544  -0.85891  -0.81183  -0.72252
 Alpha  occ. eigenvalues --   -0.71093  -0.62620  -0.62379  -0.56784  -0.51155
 Alpha  occ. eigenvalues --   -0.50012  -0.38986  -0.36692
 Alpha virt. eigenvalues --    0.02074   0.03471   0.07859   0.07951   0.09030
 Alpha virt. eigenvalues --    0.11005   0.12339   0.13105   0.13758   0.14652
 Alpha virt. eigenvalues --    0.15673   0.15895   0.16719   0.20824   0.21167

 Mulliken charges:
               1
     1  Cl   0.404903
     2  O   -0.660807
     3  C    0.345297
     4  S    0.145681
     5  O   -0.400885
     6  H    0.165811
 Sum of Mulliken charges =   0.00000

 Dipole moment (field-independent basis, Debye):
    X=              1.6803    Y=              2.1533    Z=              0.0002  Tot=              2.7313

 Test job not archived.
 1\1\GINC-SE212\SP\RHF\Aug-CC-pVDZ\C1H1Cl1O2S1\OHZDE\08-Apr-2025\0\\#t
 hf aug-cc-pvdz iop(5/13=1,5/36=2,99/5=2) pseudo=read geom=check guess=
 (read,tcheck) scf=(maxcycle=1)\\title\\0,1\Cl,0,-1.880645,-0.15255,0.0
 00074\O,0,-0.526115,0.908635,-0.000129\C,0,0.727278,0.336669,-0.000276
 \S,0,1.124153,-1.231554,0.00005\O,0,1.5902,1.351843,0.000073\H,0,1.108
 18,2.194374,0.000049\\Version=ES64L-G16RevC.01\State=1-A\HF=-1045.2511
 953\RMSD=4.515e-03\Dipole=-0.6610655,0.8471814,-0.0000642\Quadrupole=-
 2.0107013,3.0927479,-1.0820466,2.4549853,-0.0004848,-0.0008331\PG=C01

 Normal termination of Gaussian 16 at Tue Apr  8 23:16:52 2025.
