 Gaussian 16, Revision C.01,

 ----------------------------------------------------------------------
 #t hf aug-cc-pvdz symm=none int=(grid=ultrafine) guess=(read,tcheck) s
 table=(opt,rrhf)
 ----------------------------------------------------------------------
 -----
 title
 -----
 Symbolic Z-matrix:
 Charge =  0 Multiplicity = 1

 SCF Done:  E(RHF) =  -396.604949313     A.U. after   15 cycles
 Normal termination of Gaussian 16 at Tue Apr  8 22:50:56 2025.
 Gaussian 16:  ES64L-G16RevC.01  3-Jul-2019

 ----------------------------------------------------------------------
 #t hf aug-cc-pvdz iop(5/13=1,5/36=2,99/5=2) pseudo=read geom=check gue
 ss=(read,tcheck) scf=(maxcycle=1)
 ----------------------------------------------------------------------
 -----
 title
 -----
 Structure from the checkpoint file:  "BDE49_expt_1791_mol1.chk"
 Charge =  0 Multiplicity = 1

                         Standard orientation:
 ---------------------------------------------------------------------
 Center     Atomic      Atomic             Coordinates (Angstroms)
 Number     Number       Type             X           Y           Z
 ---------------------------------------------------------------------
      1          6           0        0.646538    0.829308   -0.086759
      2          8           0       -0.209667   -0.321920   -0.305607
      3          7           0       -1.573203   -0.109366    0.022368
      4          8           0       -1.883035    0.984103    0.432077
      5          8           0       -2.251046   -1.080032   -0.163175
      6          6           0        2.055498    0.380253   -0.443758
      7          1           0        0.570329    1.137973    0.958623
      8          1           0        0.307312    1.650162   -0.721865
      9          6           0        2.609467   -0.713203    0.473499
     10          1           0        2.691533    1.270978   -0.396182
     11          1           0        2.065099    0.045444   -1.485453
     12          1           0        2.640909   -0.376151    1.514042
     13          1           0        3.625931   -0.985861    0.180814
     14          1           0        1.992273   -1.612346    0.429189
 ---------------------------------------------------------------------

 SCF Done:  E(RHF) =  -396.730545049     A.U. after    2 cycles

 The electronic state is 1-A.
 Alpha  occ. eigenvalues --  -20.67920 -20.64536 -20.64427 -15.98739 -11.32339
 Alpha  occ. eigenvalues --  -11.25974 -11.24026  -1.60963  -1.41585  -1.38593
 Alpha  occ. eigenvalues --   -1.08331  -0.97647  -0.89582  -0.83322  -0.81647
 Alpha  occ. eigenvalues --   -0.79021  -0.77236  -0.67611  -0.64649  -0.62916
 Alpha  occ. eigenvalues --   -0.59567  -0.55277  -0.54783  -0.53909  -0.51197
 Alpha  occ. eigenvalues --   -0.50939  -0.50706  -0.49456
 Alpha virt. eigenvalues --    0.02990   0.04143   0.04362   0.05329   0.06813
 Alpha virt. eigenvalues --    0.07294   0.07486   0.08849   0.10452   0.11404
 Alpha virt. eigenvalues --    0.13747   0.14057   0.14496   0.15370   0.15681

 Mulliken charges:
               1
     1  C    0.854217
     2  O   -0.552020
     3  N    0.828781
     4  O   -0.421343
     5  O   -0.451072
     6  C   -0.023109
     7  H   -0.157750
     8  H   -0.146646
     9  C    0.364582
    10  H   -0.021532
    11  H   -0.075547
    12  H   -0.072254
    13  H   -0.078061
    14  H   -0.048244
 Sum of Mulliken charges =  -0.00000

 Dipole moment (field-independent basis, Debye):
    X=              3.7266    Y=              1.4569    Z=             -0.1377  Tot=              4.0036

 Test job not archived.
 1\1\GINC-SE334\SP\RHF\Aug-CC-pVDZ\C3H7N1O3\OHZDE\08-Apr-2025\0\\#t hf
 aug-cc-pvdz iop(5/13=1,5/36=2,99/5=2) pseudo=read geom=check guess=(re
 ad,tcheck) scf=(maxcycle=1)\\title\\0,1\C,0,0.646538,0.829308,-0.08675
 9\O,0,-0.209667,-0.32192,-0.305607\N,0,-1.573203,-0.109366,0.022368\O,
 0,-1.883035,0.984103,0.432077\O,0,-2.251046,-1.080032,-0.163175\C,0,2.
 055498,0.380253,-0.443758\H,0,0.570329,1.137973,0.958623\H,0,0.307312,
 1.650162,-0.721865\C,0,2.609467,-0.713203,0.473499\H,0,2.691533,1.2709
 78,-0.396182\H,0,2.065099,0.045444,-1.485453\H,0,2.640909,-0.376151,1.

 Normal termination of Gaussian 16 at Tue Apr  8 22:51:00 2025.
