 Gaussian 16, Revision C.01,

 ----------------------------------------------------------------------
 #t hf aug-cc-pvdz symm=none int=(grid=ultrafine) guess=(read,tcheck) s
 table=(opt,rrhf)
 ----------------------------------------------------------------------
 -----
 title
 -----
 Symbolic Z-matrix:
 Charge =  0 Multiplicity = 1

 SCF Done:  E(RHF) =  -1107.06578114     A.U. after   16 cycles
 Normal termination of Gaussian 16 at Wed Apr  9 00:16:16 2025.
 Gaussian 16:  ES64L-G16RevC.01  3-Jul-2019

 ----------------------------------------------------------------------
 #t hf aug-cc-pvdz iop(5/13=1,5/36=2,99/5=2) pseudo=read geom=check gue
 ss=(read,tcheck) scf=(maxcycle=1)
 ----------------------------------------------------------------------
 -----
 title
 -----
 Structure from the checkpoint file:  "BDE49_nonexpt_2480_mol1.chk"
 Charge =  0 Multiplicity = 1

                         Standard orientation:
 ---------------------------------------------------------------------
 Center     Atomic      Atomic             Coordinates (Angstroms)
 Number     Number       Type             X           Y           Z
 ---------------------------------------------------------------------
      1         16           0       -2.133042    0.214891    0.048858
      2          6           0       -1.935389    0.296927    1.840950
      3          8           0       -3.420091   -0.421496   -0.216307
      4          8           0       -1.857620    1.555309   -0.470544
      5          1           0       -2.095779   -0.694355    2.264286
      6          1           0       -2.703911    0.989189    2.189931
      7          1           0       -0.942362    0.680924    2.072796
      8          6           0        1.165318   -0.431910   -0.330193
      9          6           0        1.511193    0.892745   -0.652287
     10          6           0        2.115841   -1.235874    0.320629
     11          6           0        2.772192    1.389949   -0.337720
     12          6           0        3.378474   -0.736493    0.631911
     13          6           0        3.706991    0.576263    0.301778
     14          1           0        0.786076    1.538758   -1.134683
     15          1           0        3.025537    2.413364   -0.590144
     16          1           0        1.872089   -2.260081    0.584520
     17          1           0        4.102813   -1.370160    1.131130
     18          1           0        4.689285    0.966288    0.543980
     19         14           0       -0.509580   -1.122918   -0.758843
     20          1           0       -0.845507   -1.090695   -2.195290
     21          1           0       -0.691478   -2.470774   -0.180040
 ---------------------------------------------------------------------

 SCF Done:  E(RHF) =  -1107.28237569     A.U. after    2 cycles

 The electronic state is 1-A.
 Alpha  occ. eigenvalues --  -93.75294 -69.11197 -20.54603 -20.54533 -11.28127
 Alpha  occ. eigenvalues --  -11.27529 -11.27072 -11.26934 -11.26479 -11.26289
 Alpha  occ. eigenvalues --  -11.26082  -9.02342  -6.86451  -6.36958  -6.36697
 Alpha  occ. eigenvalues --   -6.36601  -3.97210  -3.97141  -3.97106  -1.39578
 Alpha  occ. eigenvalues --   -1.28622  -1.16208  -1.03190  -1.03118  -1.02516
 Alpha  occ. eigenvalues --   -0.85937  -0.84805  -0.83458  -0.74919  -0.71141
 Alpha  occ. eigenvalues --   -0.66346  -0.66078  -0.65425  -0.64949  -0.63875
 Alpha  occ. eigenvalues --   -0.61266  -0.60190  -0.59113  -0.57369  -0.53339
 Alpha  occ. eigenvalues --   -0.51887  -0.51775  -0.50586  -0.49164  -0.48329
 Alpha  occ. eigenvalues --   -0.47666  -0.41230  -0.36267  -0.36022
 Alpha virt. eigenvalues --    0.02387   0.03425   0.03937   0.04493   0.05377
 Alpha virt. eigenvalues --    0.05529   0.05977   0.06743   0.06768   0.07089
 Alpha virt. eigenvalues --    0.07698   0.08620   0.08867   0.10120   0.10919

 Mulliken charges:
               1
     1  S    2.137369
     2  C   -0.017137
     3  O   -1.147214
     4  O   -1.164800
     5  H   -0.079654
     6  H   -0.015663
     7  H   -0.104939
     8  C   -0.104190
     9  C    0.359053
    10  C    0.323662
    11  C    0.666139
    12  C    0.740141
    13  C    0.654692
    14  H   -0.672885
    15  H   -0.438916
    16  H   -0.634170
    17  H   -0.441549
    18  H   -0.443366
    19  Si   0.074767
    20  H    0.182457
    21  H    0.126203
 Sum of Mulliken charges =   0.00000

 Dipole moment (field-independent basis, Debye):
    X=              5.6397    Y=             -2.0059    Z=              2.8794  Tot=              6.6424

 Test job not archived.
 1\1\GINC-SE099\SP\RHF\Aug-CC-pVDZ\C7H10O2S1Si1\OHZDE\09-Apr-2025\0\\#t
  hf aug-cc-pvdz iop(5/13=1,5/36=2,99/5=2) pseudo=read geom=check guess
 =(read,tcheck) scf=(maxcycle=1)\\title\\0,1\S,0,-2.133042,0.214891,0.0
 48858\C,0,-1.935389,0.296927,1.84095\O,0,-3.420091,-0.421496,-0.216307
 \O,0,-1.85762,1.555309,-0.470544\H,0,-2.095779,-0.694355,2.264286\H,0,
 -2.703911,0.989189,2.189931\H,0,-0.942362,0.680924,2.072796\C,0,1.1653
 18,-0.43191,-0.330193\C,0,1.511193,0.892745,-0.652287\C,0,2.115841,-1.
 235874,0.320629\C,0,2.772192,1.389949,-0.33772\C,0,3.378474,-0.736493,

 Normal termination of Gaussian 16 at Wed Apr  9 00:16:31 2025.
