 Gaussian 16, Revision C.01,

 ----------------------------------------------------------------------
 #t hf aug-cc-pvdz symm=none int=(grid=ultrafine) guess=(read,tcheck) s
 table=(opt,rrhf)
 ----------------------------------------------------------------------
 -----
 title
 -----
 Symbolic Z-matrix:
 Charge =  0 Multiplicity = 1

 SCF Done:  E(RHF) =  -912.477898525     A.U. after   17 cycles
 Normal termination of Gaussian 16 at Wed Apr  9 00:45:16 2025.
 Gaussian 16:  ES64L-G16RevC.01  3-Jul-2019

 ----------------------------------------------------------------------
 #t hf aug-cc-pvdz iop(5/13=1,5/36=2,99/5=2) pseudo=read geom=check gue
 ss=(read,tcheck) scf=(maxcycle=1)
 ----------------------------------------------------------------------
 -----
 title
 -----
 Structure from the checkpoint file:  "BDE49_nonexpt_798_mol1.chk"
 Charge =  0 Multiplicity = 1

                         Standard orientation:
 ---------------------------------------------------------------------
 Center     Atomic      Atomic             Coordinates (Angstroms)
 Number     Number       Type             X           Y           Z
 ---------------------------------------------------------------------
      1         14           0        0.086241   -0.161681    0.500305
      2          7           0        1.033334   -1.176497   -0.756295
      3          5           0       -1.896392   -0.230994    0.045105
      4          7           0        0.692370    1.559130    0.002184
      5          6           0        0.784233   -0.494934    2.177281
      6          8           0       -0.144986    2.367354   -0.422411
      7          8           0       -2.522220    0.826300   -0.505843
      8          8           0        1.730633   -2.107402   -0.374306
      9          8           0       -2.530919   -1.391818    0.337339
     10          8           0        0.855005   -0.858144   -1.929781
     11          8           0        1.875888    1.816672    0.144616
     12          1           0        0.576857   -1.530959    2.456157
     13          1           0        0.327315    0.163327    2.921263
     14          1           0        1.864259   -0.338144    2.175747
     15          1           0       -1.922474    1.578802   -0.649784
     16          1           0       -3.463894   -1.387052    0.085005
 ---------------------------------------------------------------------

 SCF Done:  E(RHF) =  -912.701158519     A.U. after    2 cycles

 The electronic state is 1-A.
 Alpha  occ. eigenvalues --  -69.17953 -20.65258 -20.64486 -20.64068 -20.63713
 Alpha  occ. eigenvalues --  -20.62498 -20.61472 -15.91233 -15.90490 -11.27430
 Alpha  occ. eigenvalues --   -7.71393  -6.92890  -4.03693  -4.03602  -4.03401
 Alpha  occ. eigenvalues --   -1.56175  -1.55229  -1.38647  -1.38114  -1.37707
 Alpha  occ. eigenvalues --   -1.34853  -1.01847  -0.96734  -0.93831  -0.83072
 Alpha  occ. eigenvalues --   -0.82634  -0.79675  -0.78601  -0.75863  -0.74899
 Alpha  occ. eigenvalues --   -0.73730  -0.72214  -0.68022  -0.63081  -0.62840
 Alpha  occ. eigenvalues --   -0.61879  -0.61275  -0.60509  -0.55762  -0.54864
 Alpha  occ. eigenvalues --   -0.54331  -0.50477  -0.49893  -0.49492  -0.48803
 Alpha  occ. eigenvalues --   -0.47466
 Alpha virt. eigenvalues --    0.01867   0.02984   0.03544   0.03833   0.04618
 Alpha virt. eigenvalues --    0.05643   0.06373   0.06458   0.07057   0.07644
 Alpha virt. eigenvalues --    0.08638   0.09109   0.09444   0.09789   0.10904

 Mulliken charges:
               1
     1  Si   1.616325
     2  N    0.307057
     3  B    0.805594
     4  N    0.091602
     5  C    0.361320
     6  O   -0.582719
     7  O   -0.524613
     8  O   -0.541806
     9  O   -0.440931
    10  O   -0.575625
    11  O   -0.513904
    12  H   -0.108411
    13  H   -0.279703
    14  H   -0.129421
    15  H    0.296613
    16  H    0.218624
 Sum of Mulliken charges =  -0.00000

 Dipole moment (field-independent basis, Debye):
    X=             -3.5495    Y=             -0.7942    Z=              4.4569  Tot=              5.7527

 Test job not archived.
 1\1\GINC-SE345\SP\RHF\Aug-CC-pVDZ\C1H5B1N2O6Si1\OHZDE\09-Apr-2025\0\\#
 t hf aug-cc-pvdz iop(5/13=1,5/36=2,99/5=2) pseudo=read geom=check gues
 s=(read,tcheck) scf=(maxcycle=1)\\title\\0,1\Si,0,0.086241,-0.161681,0
 .500305\N,0,1.033334,-1.176497,-0.756295\B,0,-1.896392,-0.230994,0.045
 105\N,0,0.69237,1.55913,0.002184\C,0,0.784233,-0.494934,2.177281\O,0,-
 0.144986,2.367354,-0.422411\O,0,-2.52222,0.8263,-0.505843\O,0,1.730633
 ,-2.107402,-0.374306\O,0,-2.530919,-1.391818,0.337339\O,0,0.855005,-0.
 858144,-1.929781\O,0,1.875888,1.816672,0.144616\H,0,0.576857,-1.530959

 Normal termination of Gaussian 16 at Wed Apr  9 00:45:25 2025.
