 Gaussian 16, Revision C.01,

 ----------------------------------------------------------------------
 #t hf aug-cc-pvdz symm=none int=(grid=ultrafine) guess=(read,tcheck) s
 table=opt
 ----------------------------------------------------------------------
 -----
 title
 -----
 Symbolic Z-matrix:
 Charge =  0 Multiplicity = 2

 SCF Done:  E(UHF) =  -367.873572369     A.U. after   17 cycles

 1\1\GINC-SE365\Stability\UHF\Aug-CC-pVDZ\C8H18N1\OHZDE\08-Apr-2025\0\\
 #t hf aug-cc-pvdz symm=none int=(grid=ultrafine) guess=(read,tcheck) s
 table=opt\\title\\0,2\C,0,1.135284,-1.740515,0.027363\N,0,-0.219859,-1
 .401543,0.443275\C,0,-1.180895,-1.074633,-0.512247\H,0,-0.267242,-0.85
 9471,1.295458\C,0,-2.532114,-0.629887,-0.041516\H,0,-1.092664,-1.63205
 4,-1.439334\C,0,1.979492,-0.577499,-0.523497\H,0,1.054938,-2.521915,-0
 .735841\H,0,1.644918,-2.192461,0.885581\C,0,-2.581376,0.78521,0.579729
 \H,0,-2.929641,-1.34342,0.701718\H,0,-3.222456,-0.660461,-0.890905\C,0

 Normal termination of Gaussian 16 at Tue Apr  8 23:04:42 2025.
 Gaussian 16:  ES64L-G16RevC.01  3-Jul-2019

 ----------------------------------------------------------------------
 #t hf aug-cc-pvdz iop(5/13=1,5/36=2,99/5=2) pseudo=read geom=check gue
 ss=(read,tcheck) scf=(maxcycle=1)
 ----------------------------------------------------------------------
 -----
 title
 -----
 Structure from the checkpoint file:  "BDE49_expt_286_mol2.chk"
 Charge =  0 Multiplicity = 2

                         Standard orientation:
 ---------------------------------------------------------------------
 Center     Atomic      Atomic             Coordinates (Angstroms)
 Number     Number       Type             X           Y           Z
 ---------------------------------------------------------------------
      1          6           0        1.135284   -1.740515    0.027363
      2          7           0       -0.219859   -1.401543    0.443275
      3          6           0       -1.180895   -1.074633   -0.512247
      4          1           0       -0.267242   -0.859471    1.295458
      5          6           0       -2.532114   -0.629887   -0.041516
      6          1           0       -1.092664   -1.632054   -1.439334
      7          6           0        1.979492   -0.577499   -0.523497
      8          1           0        1.054938   -2.521915   -0.735841
      9          1           0        1.644918   -2.192461    0.885581
     10          6           0       -2.581376    0.785210    0.579729
     11          1           0       -2.929641   -1.343420    0.701718
     12          1           0       -3.222456   -0.660461   -0.890905
     13          6           0       -2.285791    1.903668   -0.422256
     14          1           0       -1.873347    0.845877    1.416169
     15          1           0       -3.572870    0.938251    1.020690
     16          1           0       -1.303540    1.767509   -0.881989
     17          1           0       -2.305890    2.886308    0.057487
     18          1           0       -3.027735    1.911062   -1.227415
     19          6           0        2.285981    0.514692    0.506306
     20          1           0        1.455342   -0.139467   -1.380429
     21          1           0        2.921902   -0.989943   -0.905885
     22          6           0        3.147318    1.648749   -0.056899
     23          1           0        2.793390    0.064750    1.369462
     24          1           0        1.346525    0.933372    0.884707
     25          1           0        4.111631    1.273445   -0.413405
     26          1           0        3.347148    2.412516    0.699615
     27          1           0        2.651208    2.138198   -0.900508
 ---------------------------------------------------------------------

 SCF Done:  E(UHF) =  -367.989364931     A.U. after    2 cycles

 The electronic state is 2-A.
 Alpha  occ. eigenvalues --  -15.61573 -11.26020 -11.24432 -11.22857 -11.22821
 Alpha  occ. eigenvalues --  -11.22535 -11.22426 -11.22275 -11.21739  -1.19107
 Alpha  occ. eigenvalues --   -1.06473  -1.04324  -0.97899  -0.93705  -0.86789
 Alpha  occ. eigenvalues --   -0.84213  -0.79001  -0.76826  -0.66516  -0.64016
 Alpha  occ. eigenvalues --   -0.62710  -0.60784  -0.59953  -0.58829  -0.57419
 Alpha  occ. eigenvalues --   -0.54443  -0.53330  -0.52458  -0.51178  -0.50241
 Alpha  occ. eigenvalues --   -0.48401  -0.47353  -0.46894  -0.46509  -0.46240
 Alpha  occ. eigenvalues --   -0.43203  -0.26673
 Alpha virt. eigenvalues --    0.03395   0.03855   0.04048   0.04260   0.05647
 Alpha virt. eigenvalues --    0.05665   0.06096   0.06482   0.06874   0.07813
 Alpha virt. eigenvalues --    0.07975   0.08138   0.08273   0.09422   0.09777

  Beta  occ. eigenvalues --  -15.61035 -11.26050 -11.22860 -11.22818 -11.22688
  Beta  occ. eigenvalues --  -11.22388 -11.22275 -11.22146 -11.21732  -1.17144
  Beta  occ. eigenvalues --   -1.05873  -1.04082  -0.97002  -0.93034  -0.86041
  Beta  occ. eigenvalues --   -0.82613  -0.78881  -0.75309  -0.66002  -0.63020
  Beta  occ. eigenvalues --   -0.61665  -0.59743  -0.59576  -0.58510  -0.57034
  Beta  occ. eigenvalues --   -0.53940  -0.53109  -0.52050  -0.50325  -0.48970
  Beta  occ. eigenvalues --   -0.47655  -0.47207  -0.46671  -0.46141  -0.46028
  Beta  occ. eigenvalues --   -0.37387
  Beta virt. eigenvalues --    0.03390   0.03867   0.04029   0.04268   0.05649
  Beta virt. eigenvalues --    0.05675   0.06103   0.06459   0.06854   0.07815
  Beta virt. eigenvalues --    0.07982   0.08143   0.08276   0.09350   0.09781

 Mulliken charges and spin densities:
               1          2
     1  C    0.675822  -0.037498
     2  N   -0.434661   0.094695
     3  C    0.720266   1.218471
     4  H   -0.047859  -0.014677
     5  C    0.242867  -0.254556
     6  H   -0.514904  -0.101820
     7  C    0.180621   0.012338
     8  H   -0.145557   0.003302
     9  H   -0.214572   0.004672
    10  C    0.168984   0.046812
    11  H   -0.041517   0.041417
    12  H   -0.076421  -0.001433
    13  C    0.378536   0.012184
    14  H   -0.161291  -0.001008
    15  H   -0.120600  -0.006082
    16  H   -0.165958  -0.010904
    17  H   -0.091955  -0.000436
    18  H   -0.074367   0.004523
    19  C    0.105298  -0.001780
    20  H   -0.162494  -0.010921
    21  H   -0.130793  -0.001894
    22  C    0.457372   0.002631
    23  H   -0.125732   0.000086
    24  H   -0.216340   0.000928
    25  H   -0.073959  -0.000044
    26  H   -0.064900   0.000052
    27  H   -0.065888   0.000943
 Sum of Mulliken charges =  -0.00000   1.00000

 Dipole moment (field-independent basis, Debye):
    X=              0.5555    Y=              0.2550    Z=              0.3264  Tot=              0.6929
                          Isotropic Fermi Contact Couplings
        Atom                 a.u.       MegaHertz       Gauss      10(-4) cm-1
     1  C(13)             -0.00317      -3.56264      -1.27124      -1.18837
     2  N(14)              0.03778      12.20732       4.35587       4.07192
     3  C(13)              0.22712     255.32840      91.10752      85.16839
     4  H(1)              -0.00157      -7.02484      -2.50664      -2.34323
     5  C(13)             -0.04756     -53.46322     -19.07700     -17.83341
     6  H(1)              -0.01814     -81.09615     -28.93712     -27.05076
     7  C(13)              0.00299       3.35898       1.19857       1.12044
     8  H(1)               0.00072       3.22884       1.15213       1.07703

 Normal termination of Gaussian 16 at Tue Apr  8 23:04:58 2025.
