 Gaussian 16, Revision C.01,

 ----------------------------------------------------------------------
 #t hf aug-cc-pvdz symm=none int=(grid=ultrafine) guess=(read,tcheck) s
 table=opt
 ----------------------------------------------------------------------
 -----
 title
 -----
 Symbolic Z-matrix:
 Charge =  0 Multiplicity = 2

 SCF Done:  E(UHF) =  -932.989688791     A.U. after   16 cycles

 1\1\GINC-SE097\Stability\UHF\Aug-CC-pVDZ\C2Cl1F4\OHZDE\08-Apr-2025\0\\
 #t hf aug-cc-pvdz symm=none int=(grid=ultrafine) guess=(read,tcheck) s
 table=opt\\title\\0,2\C,0,-1.145776,0.209256,0.000005\C,0,0.341928,0.4
 5492,0.000008\F,0,-1.623516,-0.350113,1.096715\F,0,-1.623518,-0.350073
 ,-1.096724\Cl,0,1.286493,-1.088889,-0.000022\F,0,0.676446,1.157076,1.0
 92186\F,0,0.676443,1.157116,-1.092145\\Version=ES64L-G16RevC.01\HF=-93
 2.9896888\S2=0.758202\S2-1=0.\S2A=0.750049\RMSD=7.278e-09\Dipole=-0.09
 68562,0.0556726,0.0000004\Quadrupole=0.322487,0.8227642,-1.1452512,-1.

 Normal termination of Gaussian 16 at Tue Apr  8 22:46:39 2025.
 Gaussian 16:  ES64L-G16RevC.01  3-Jul-2019

 ----------------------------------------------------------------------
 #t hf aug-cc-pvdz iop(5/13=1,5/36=2,99/5=2) pseudo=read geom=check gue
 ss=(read,tcheck) scf=(maxcycle=1)
 ----------------------------------------------------------------------
 -----
 title
 -----
 Structure from the checkpoint file:  "BDE49_expt_1631_mol2.chk"
 Charge =  0 Multiplicity = 2

                         Standard orientation:
 ---------------------------------------------------------------------
 Center     Atomic      Atomic             Coordinates (Angstroms)
 Number     Number       Type             X           Y           Z
 ---------------------------------------------------------------------
      1          6           0       -1.145776    0.209256    0.000005
      2          6           0        0.341928    0.454920    0.000008
      3          9           0       -1.623516   -0.350113    1.096715
      4          9           0       -1.623518   -0.350073   -1.096724
      5         17           0        1.286493   -1.088889   -0.000022
      6          9           0        0.676446    1.157076    1.092186
      7          9           0        0.676443    1.157116   -1.092145
 ---------------------------------------------------------------------

 SCF Done:  E(UHF) =  -933.179604896     A.U. after    2 cycles

 The electronic state is 2-A.
 Alpha  occ. eigenvalues -- -103.70509 -26.20296 -26.20287 -26.19798 -26.19788
 Alpha  occ. eigenvalues --  -11.54200 -11.48630 -10.73824  -8.39669  -8.39195
 Alpha  occ. eigenvalues --   -8.39178  -1.78113  -1.76774  -1.73288  -1.72079
 Alpha  occ. eigenvalues --   -1.22261  -1.10726  -0.99501  -0.91625  -0.90574
 Alpha  occ. eigenvalues --   -0.88053  -0.86699  -0.84419  -0.81009  -0.80169
 Alpha  occ. eigenvalues --   -0.78762  -0.76401  -0.75108  -0.70621  -0.62321
 Alpha  occ. eigenvalues --   -0.52679  -0.51635  -0.46912
 Alpha virt. eigenvalues --    0.06625   0.07336   0.08389   0.09268   0.10427
 Alpha virt. eigenvalues --    0.12377   0.12514   0.13494   0.14850   0.16960
 Alpha virt. eigenvalues --    0.18021   0.20087   0.22315   0.25347   0.26817

  Beta  occ. eigenvalues -- -103.70419 -26.19852 -26.19842 -26.19823 -26.19813
  Beta  occ. eigenvalues --  -11.54275 -11.45784 -10.73731  -8.39338  -8.39127
  Beta  occ. eigenvalues --   -8.39103  -1.77377  -1.76075  -1.72540  -1.71699
  Beta  occ. eigenvalues --   -1.21447  -1.07483  -0.98299  -0.90869  -0.90157
  Beta  occ. eigenvalues --   -0.86252  -0.84950  -0.81231  -0.80750  -0.78916
  Beta  occ. eigenvalues --   -0.76692  -0.75712  -0.74958  -0.69587  -0.60006
  Beta  occ. eigenvalues --   -0.51474  -0.51405
  Beta virt. eigenvalues --    0.03535   0.06802   0.07920   0.09355   0.09372
  Beta virt. eigenvalues --    0.10707   0.12390   0.12727   0.14889   0.14992
  Beta virt. eigenvalues --    0.17408   0.18895   0.20983   0.22848   0.25633

 Mulliken charges and spin densities:
               1          2
     1  C    0.646071   0.978307
     2  C    0.608993  -0.072179
     3  F   -0.279684   0.024844
     4  F   -0.279683   0.024844
     5  Cl  -0.113557   0.059825
     6  F   -0.291070  -0.007820
     7  F   -0.291069  -0.007820
 Sum of Mulliken charges =  -0.00000   1.00000

 Dipole moment (field-independent basis, Debye):
    X=             -0.1776    Y=              0.0595    Z=             -0.0000  Tot=              0.1873
                          Isotropic Fermi Contact Couplings
        Atom                 a.u.       MegaHertz       Gauss      10(-4) cm-1
     1  C(13)              0.46023     517.38219     184.61483     172.58012
     2  C(13)             -0.00775      -8.70939      -3.10773      -2.90514
     3  F(19)              0.06805     286.29905     102.15862      95.49908
     4  F(19)              0.06805     286.29918     102.15867      95.49913
     5  Cl(35)             0.01868       8.19009       2.92243       2.73192
     6  F(19)             -0.00346     -14.56186      -5.19603      -4.85731
     7  F(19)             -0.00346     -14.56180      -5.19601      -4.85729
 --------------------------------------------------------

 Normal termination of Gaussian 16 at Tue Apr  8 22:46:42 2025.
