 Gaussian 16, Revision C.01,

 ----------------------------------------------------------------------
 #t hf aug-cc-pvdz symm=none int=(grid=ultrafine) guess=(read,tcheck) s
 table=(opt,rrhf)
 ----------------------------------------------------------------------
 -----
 title
 -----
 Symbolic Z-matrix:
 Charge =  0 Multiplicity = 1

 SCF Done:  E(RHF) =  -810.357124987     A.U. after   11 cycles
 Normal termination of Gaussian 16 at Tue Apr  8 22:41:46 2025.
 Gaussian 16:  ES64L-G16RevC.01  3-Jul-2019

 ----------------------------------------------------------------------
 #t hf aug-cc-pvdz iop(5/13=1,5/36=2,99/5=2) pseudo=read geom=check gue
 ss=(read,tcheck) scf=(maxcycle=1)
 ----------------------------------------------------------------------
 -----
 title
 -----
 Structure from the checkpoint file:  "BDE49_expt_143_mol1.chk"
 Charge =  0 Multiplicity = 1

                         Standard orientation:
 ---------------------------------------------------------------------
 Center     Atomic      Atomic             Coordinates (Angstroms)
 Number     Number       Type             X           Y           Z
 ---------------------------------------------------------------------
      1          6           0        1.196451    0.182962   -0.060004
      2          6           0       -0.187874   -0.494444    0.098058
      3          9           0        1.316617    1.229863    0.757633
      4          9           0        1.339840    0.609479   -1.329736
      5          9           0        2.170804   -0.687952    0.208791
      6          6           0       -1.364305    0.336780   -0.449102
      7          9           0       -0.380111   -0.770095    1.405215
      8          9           0       -0.155814   -1.660918   -0.595700
      9          9           0       -1.400605    1.537625    0.181017
     10          9           0       -2.511994   -0.329498   -0.183679
     11          1           0       -1.274252    0.491678   -1.525572
 ---------------------------------------------------------------------

 SCF Done:  E(RHF) =  -810.646308165     A.U. after    2 cycles

 The electronic state is 1-A.
 Alpha  occ. eigenvalues --  -26.20602 -26.20193 -26.20158 -26.19386 -26.19173
 Alpha  occ. eigenvalues --  -26.17912 -26.17759 -11.57235 -11.49801 -11.47665
 Alpha  occ. eigenvalues --   -1.80254  -1.76132  -1.74154  -1.73119  -1.72900
 Alpha  occ. eigenvalues --   -1.71289  -1.69845  -1.15327  -1.06660  -0.99604
 Alpha  occ. eigenvalues --   -0.93064  -0.92492  -0.92423  -0.88506  -0.88306
 Alpha  occ. eigenvalues --   -0.85300  -0.84532  -0.81385  -0.80929  -0.80441
 Alpha  occ. eigenvalues --   -0.78960  -0.78270  -0.76916  -0.76418  -0.76263
 Alpha  occ. eigenvalues --   -0.75332  -0.74637  -0.73458  -0.70450  -0.65337
 Alpha  occ. eigenvalues --   -0.58592
 Alpha virt. eigenvalues --    0.03632   0.07159   0.07709   0.08274   0.10255
 Alpha virt. eigenvalues --    0.10729   0.11065   0.12321   0.12561   0.14938
 Alpha virt. eigenvalues --    0.15538   0.18946   0.19706   0.20614   0.21420

 Mulliken charges:
               1
     1  C    0.925584
     2  C    0.567203
     3  F   -0.283504
     4  F   -0.320670
     5  F   -0.269684
     6  C    0.907839
     7  F   -0.369181
     8  F   -0.379240
     9  F   -0.340636
    10  F   -0.318605
    11  H   -0.119107
 Sum of Mulliken charges =  -0.00000

 Dipole moment (field-independent basis, Debye):
    X=              0.0413    Y=              0.4602    Z=             -1.8695  Tot=              1.9258

 Test job not archived.
 1\1\GINC-SE166\SP\RHF\Aug-CC-pVDZ\C3H1F7\OHZDE\08-Apr-2025\0\\#t hf au
 g-cc-pvdz iop(5/13=1,5/36=2,99/5=2) pseudo=read geom=check guess=(read
 ,tcheck) scf=(maxcycle=1)\\title\\0,1\C,0,1.196451,0.182962,-0.060004\
 C,0,-0.187874,-0.494444,0.098058\F,0,1.316617,1.229863,0.757633\F,0,1.
 33984,0.609479,-1.329736\F,0,2.170804,-0.687952,0.208791\C,0,-1.364305
 ,0.33678,-0.449102\F,0,-0.380111,-0.770095,1.405215\F,0,-0.155814,-1.6
 60918,-0.5957\F,0,-1.400605,1.537625,0.181017\F,0,-2.511994,-0.329498,
 -0.183679\H,0,-1.274252,0.491678,-1.525572\\Version=ES64L-G16RevC.01\S

 Normal termination of Gaussian 16 at Tue Apr  8 22:41:52 2025.
