 Gaussian 16, Revision C.01,

 ----------------------------------------------------------------------
 #t hf aug-cc-pvdz symm=none int=(grid=ultrafine) guess=(read,tcheck) s
 table=(opt,rrhf)
 ----------------------------------------------------------------------
 -----
 title
 -----
 Symbolic Z-matrix:
 Charge =  0 Multiplicity = 1

 SCF Done:  E(RHF) =  -832.964179547     A.U. after   15 cycles
 Normal termination of Gaussian 16 at Tue Apr  8 23:05:56 2025.
 Gaussian 16:  ES64L-G16RevC.01  3-Jul-2019

 ----------------------------------------------------------------------
 #t hf aug-cc-pvdz iop(5/13=1,5/36=2,99/5=2) pseudo=read geom=check gue
 ss=(read,tcheck) scf=(maxcycle=1)
 ----------------------------------------------------------------------
 -----
 title
 -----
 Structure from the checkpoint file:  "BDE49_expt_433_mol1.chk"
 Charge =  0 Multiplicity = 1

                         Standard orientation:
 ---------------------------------------------------------------------
 Center     Atomic      Atomic             Coordinates (Angstroms)
 Number     Number       Type             X           Y           Z
 ---------------------------------------------------------------------
      1         16           0       -1.467309    0.000001   -0.153122
      2          8           0       -1.875868    1.267571   -0.711980
      3          7           0       -1.938733   -0.000008    1.454087
      4          6           0        0.318030   -0.000000   -0.057421
      5          6           0        0.999144    1.215076   -0.031404
      6          6           0        2.389335    1.208665    0.040619
      7          6           0        3.082835   -0.000001    0.080209
      8          6           0        2.389334   -1.208666    0.040619
      9          6           0        0.999143   -1.215076   -0.031405
     10          1           0        2.930311   -2.147591    0.057771
     11          1           0        0.445364   -2.143383   -0.084358
     12          1           0        0.445366    2.143383   -0.084357
     13          1           0        2.930313    2.147590    0.057772
     14          1           0        4.165564   -0.000001    0.132900
     15          8           0       -1.875869   -1.267562   -0.711992
     16          1           0       -2.460945   -0.842090    1.668037
     17          1           0       -2.460932    0.842078    1.668051
 ---------------------------------------------------------------------

 SCF Done:  E(RHF) =  -833.174094252     A.U. after    2 cycles

 The electronic state is 1-A.
 Alpha  occ. eigenvalues --  -93.80983 -20.56534 -20.56532 -15.66717 -11.28812
 Alpha  occ. eigenvalues --  -11.27432 -11.27424 -11.27156 -11.26607 -11.26597
 Alpha  occ. eigenvalues --   -9.07310  -6.41993  -6.41827  -6.41663  -1.43880
 Alpha  occ. eigenvalues --   -1.31918  -1.18568  -1.17039  -1.04983  -1.03622
 Alpha  occ. eigenvalues --   -0.90772  -0.85591  -0.81813  -0.74754  -0.72425
 Alpha  occ. eigenvalues --   -0.71185  -0.68698  -0.66691  -0.64475  -0.64003
 Alpha  occ. eigenvalues --   -0.61831  -0.55704  -0.55191  -0.53270  -0.52994
 Alpha  occ. eigenvalues --   -0.52367  -0.50368  -0.48070  -0.46541  -0.36886
 Alpha  occ. eigenvalues --   -0.36255
 Alpha virt. eigenvalues --    0.02971   0.03588   0.03839   0.05119   0.05553
 Alpha virt. eigenvalues --    0.07072   0.07373   0.07778   0.09112   0.09353
 Alpha virt. eigenvalues --    0.11123   0.11730   0.12721   0.13920   0.13929

 Mulliken charges:
               1
     1  S    2.676331
     2  O   -1.009556
     3  N   -0.599395
     4  C    0.733875
     5  C   -0.265155
     6  C    0.788492
     7  C    0.378366
     8  C    0.788496
     9  C   -0.265163
    10  H   -0.431336
    11  H   -0.501457
    12  H   -0.501458
    13  H   -0.431335
    14  H   -0.431832
    15  O   -1.009555
    16  H    0.040341
    17  H    0.040340
 Sum of Mulliken charges =  -0.00000

 Dipole moment (field-independent basis, Debye):
    X=              2.7784    Y=             -0.0000    Z=              3.4389  Tot=              4.4210

 Test job not archived.
 1\1\GINC-SE460\SP\RHF\Aug-CC-pVDZ\C6H7N1O2S1\OHZDE\08-Apr-2025\0\\#t h
 f aug-cc-pvdz iop(5/13=1,5/36=2,99/5=2) pseudo=read geom=check guess=(
 read,tcheck) scf=(maxcycle=1)\\title\\0,1\S,0,-1.467309,0.000001,-0.15
 3122\O,0,-1.875868,1.267571,-0.71198\N,0,-1.938733,-0.000008,1.454087\
 C,0,0.31803,0.,-0.057421\C,0,0.999144,1.215076,-0.031404\C,0,2.389335,
 1.208665,0.040619\C,0,3.082835,-0.000001,0.080209\C,0,2.389334,-1.2086
 66,0.040619\C,0,0.999143,-1.215076,-0.031405\H,0,2.930311,-2.147591,0.
 057771\H,0,0.445364,-2.143383,-0.084358\H,0,0.445366,2.143383,-0.08435

 Normal termination of Gaussian 16 at Tue Apr  8 23:06:05 2025.
