 Gaussian 16, Revision C.01,

 ----------------------------------------------------------------------
 #t hf aug-cc-pvdz symm=none int=(grid=ultrafine) guess=(read,tcheck) s
 table=opt
 ----------------------------------------------------------------------
 -----
 title
 -----
 Symbolic Z-matrix:
 Charge =  0 Multiplicity = 2

 SCF Done:  E(UHF) =  -824.508543670     A.U. after   17 cycles
 Normal termination of Gaussian 16 at Tue Apr  8 23:14:48 2025.
 Gaussian 16:  ES64L-G16RevC.01  3-Jul-2019

 ----------------------------------------------------------------------
 #t hf aug-cc-pvdz iop(5/13=1,5/36=2,99/5=2) pseudo=read geom=check gue
 ss=(read,tcheck) scf=(maxcycle=1)
 ----------------------------------------------------------------------
 -----
 title
 -----
 Structure from the checkpoint file:  "BDE49_nonexpt_1026_mol2.chk"
 Charge =  0 Multiplicity = 2

                         Standard orientation:
 ---------------------------------------------------------------------
 Center     Atomic      Atomic             Coordinates (Angstroms)
 Number     Number       Type             X           Y           Z
 ---------------------------------------------------------------------
      1          8           0        1.721584   -0.726961   -0.000037
      2         14           0        0.581780    0.460459    0.000003
      3         17           0       -1.384199   -0.181771    0.000011
      4          1           0        0.806917    1.229631    1.241050
      5          1           0        0.806886    1.229738   -1.240981
 ---------------------------------------------------------------------

 SCF Done:  E(UHF) =  -824.583674025     A.U. after    2 cycles

 The electronic state is 2-A.
 Alpha  occ. eigenvalues -- -103.66663 -69.15787 -20.65887 -10.70154  -8.35833
 Alpha  occ. eigenvalues --   -8.35611  -8.35605  -6.90342  -4.01273  -4.01153
 Alpha  occ. eigenvalues --   -4.01042  -1.36096  -1.15113  -0.74311  -0.71372
 Alpha  occ. eigenvalues --   -0.62831  -0.62361  -0.54374  -0.53127  -0.49299
 Alpha  occ. eigenvalues --   -0.47355
 Alpha virt. eigenvalues --    0.04215   0.05276   0.05569   0.05910   0.08795
 Alpha virt. eigenvalues --    0.10816   0.13692   0.14131   0.15836   0.15860
 Alpha virt. eigenvalues --    0.16655   0.20475   0.20780   0.23823   0.24044

  Beta  occ. eigenvalues -- -103.66675 -69.15857 -20.61991 -10.70168  -8.35863
  Beta  occ. eigenvalues --   -8.35628  -8.35619  -6.90447  -4.01407  -4.01227
  Beta  occ. eigenvalues --   -4.01161  -1.20471  -1.14982  -0.72300  -0.59602
  Beta  occ. eigenvalues --   -0.59119  -0.55215  -0.51322  -0.49108  -0.47431
  Beta virt. eigenvalues --    0.01396   0.04236   0.05315   0.05619   0.06133
  Beta virt. eigenvalues --    0.09311   0.10875   0.13764   0.14211   0.15826
  Beta virt. eigenvalues --    0.16421   0.16711   0.21078   0.21154   0.24336

 Mulliken charges and spin densities:
               1          2
     1  O   -0.633209   1.038849
     2  Si   1.293538  -0.108538
     3  Cl  -0.478052  -0.006873
     4  H   -0.091139   0.038283
     5  H   -0.091138   0.038279
 Sum of Mulliken charges =   0.00000   1.00000

 Dipole moment (field-independent basis, Debye):
    X=              0.3052    Y=              1.5244    Z=             -0.0000  Tot=              1.5547
                          Isotropic Fermi Contact Couplings
        Atom                 a.u.       MegaHertz       Gauss      10(-4) cm-1
     1  O(17)              0.22873    -138.65424     -49.47528     -46.25008
     2  Si(29)            -0.07863      69.88065      24.93515      23.30967
     3  Cl(35)            -0.00846      -3.70812      -1.32315      -1.23690
     4  H(1)               0.01232      55.08678      19.65633      18.37497
     5  H(1)               0.01232      55.08121      19.65435      18.37311
 --------------------------------------------------------
       Center         ----  Spin Dipole Couplings  ----
                      3XX-RR        3YY-RR        3ZZ-RR

 Normal termination of Gaussian 16 at Tue Apr  8 23:14:50 2025.
