 Gaussian 16, Revision C.01,

 ----------------------------------------------------------------------
 #t hf aug-cc-pvdz symm=none int=(grid=ultrafine) guess=(read,tcheck) s
 table=(opt,rrhf)
 ----------------------------------------------------------------------
 -----
 title
 -----
 Symbolic Z-matrix:
 Charge =  0 Multiplicity = 1

 SCF Done:  E(RHF) =  -435.908145762     A.U. after   13 cycles
 Normal termination of Gaussian 16 at Wed Apr  9 00:30:44 2025.
 Gaussian 16:  ES64L-G16RevC.01  3-Jul-2019

 ----------------------------------------------------------------------
 #t hf aug-cc-pvdz iop(5/13=1,5/36=2,99/5=2) pseudo=read geom=check gue
 ss=(read,tcheck) scf=(maxcycle=1)
 ----------------------------------------------------------------------
 -----
 title
 -----
 Structure from the checkpoint file:  "BDE49_nonexpt_381_mol1.chk"
 Charge =  0 Multiplicity = 1

                         Standard orientation:
 ---------------------------------------------------------------------
 Center     Atomic      Atomic             Coordinates (Angstroms)
 Number     Number       Type             X           Y           Z
 ---------------------------------------------------------------------
      1          9           0        1.337803    1.182068   -0.000039
      2          9           0        1.514557   -1.080004    0.000025
      3          5           0        0.772475   -0.000526    0.000024
      4          6           0       -0.822501   -0.159078    0.000011
      5          8           0       -1.433556   -1.171807   -0.000048
      6          9           0       -1.458906    1.045886    0.000036
 ---------------------------------------------------------------------

 SCF Done:  E(RHF) =  -436.073625295     A.U. after    2 cycles

 The electronic state is 1-A.
 Alpha  occ. eigenvalues --  -26.18589 -26.18379 -26.17229 -20.63823 -11.45390
 Alpha  occ. eigenvalues --   -7.80421  -1.73976  -1.71921  -1.71317  -1.43308
 Alpha  occ. eigenvalues --   -0.96262  -0.91611  -0.87184  -0.85868  -0.81569
 Alpha  occ. eigenvalues --   -0.78752  -0.78447  -0.76621  -0.76427  -0.75670
 Alpha  occ. eigenvalues --   -0.66880  -0.59397  -0.53997
 Alpha virt. eigenvalues --    0.02019   0.04396   0.05297   0.05432   0.05491
 Alpha virt. eigenvalues --    0.10766   0.12292   0.12607   0.16462   0.20240
 Alpha virt. eigenvalues --    0.21060   0.21438   0.23711   0.23894   0.25515

 Mulliken charges:
               1
     1  F   -0.353013
     2  F   -0.379882
     3  B    0.951614
     4  C    0.505997
     5  O   -0.354975
     6  F   -0.369741
 Sum of Mulliken charges =  -0.00000

 Dipole moment (field-independent basis, Debye):
    X=              1.3388    Y=              0.4886    Z=              0.0002  Tot=              1.4251

 Test job not archived.
 1\1\GINC-SE120\SP\RHF\Aug-CC-pVDZ\C1B1F3O1\OHZDE\09-Apr-2025\0\\#t hf
 aug-cc-pvdz iop(5/13=1,5/36=2,99/5=2) pseudo=read geom=check guess=(re
 ad,tcheck) scf=(maxcycle=1)\\title\\0,1\F,0,-1.337803,1.182068,0.00003
 9\F,0,-1.514557,-1.080004,-0.000025\B,0,-0.772475,-0.000526,-0.000024\
 C,0,0.822501,-0.159078,-0.000011\O,0,1.433556,-1.171807,0.000048\F,0,1
 .458906,1.045886,-0.000036\\Version=ES64L-G16RevC.01\State=1-A\HF=-436
 .0736253\RMSD=5.801e-03\Dipole=-0.5267056,0.1922271,-0.0000813\Quadrup
 ole=-2.3159778,-2.3512258,4.6672036,0.6509323,0.0000201,0.0000433\PG=C

 Normal termination of Gaussian 16 at Wed Apr  9 00:30:46 2025.
