 Gaussian 16, Revision C.01,

 ----------------------------------------------------------------------
 #t hf aug-cc-pvdz symm=none int=(grid=ultrafine) guess=(read,tcheck) s
 table=(opt,rrhf)
 ----------------------------------------------------------------------
 -----
 title
 -----
 Symbolic Z-matrix:
 Charge =  0 Multiplicity = 1

 SCF Done:  E(RHF) =  -1201.07056647     A.U. after   16 cycles
 Normal termination of Gaussian 16 at Wed Apr  9 00:20:07 2025.
 Gaussian 16:  ES64L-G16RevC.01  3-Jul-2019

 ----------------------------------------------------------------------
 #t hf aug-cc-pvdz iop(5/13=1,5/36=2,99/5=2) pseudo=read geom=check gue
 ss=(read,tcheck) scf=(maxcycle=1)
 ----------------------------------------------------------------------
 -----
 title
 -----
 Structure from the checkpoint file:  "BDE49_nonexpt_2602_mol1.chk"
 Charge =  0 Multiplicity = 1

                         Standard orientation:
 ---------------------------------------------------------------------
 Center     Atomic      Atomic             Coordinates (Angstroms)
 Number     Number       Type             X           Y           Z
 ---------------------------------------------------------------------
      1         17           0        3.310378   -0.269204    0.999520
      2         16           0        2.378932    0.023832   -0.886761
      3          6           0        0.669960    0.113223   -0.474530
      4          6           0        0.070185    1.349627   -0.173678
      5          6           0       -1.283899    1.425727    0.086940
      6          6           0       -2.074638    0.265030    0.056311
      7          6           0       -0.123420   -1.039193   -0.499204
      8          1           0        0.336685   -1.993463   -0.724165
      9          6           0       -1.487541   -0.972312   -0.239720
     10          1           0       -2.078290   -1.877444   -0.269013
     11          1           0        0.681718    2.243011   -0.148705
     12          8           0       -3.388459    0.446563    0.324208
     13          6           0       -4.257122   -0.683217    0.319733
     14          1           0       -4.284830   -1.159867   -0.665381
     15          1           0       -5.244485   -0.294996    0.561191
     16          1           0       -3.959686   -1.416528    1.076059
     17          1           0       -1.763928    2.368633    0.317569
 ---------------------------------------------------------------------

 SCF Done:  E(RHF) =  -1201.21427728     A.U. after    2 cycles

 The electronic state is 1-A.
 Alpha  occ. eigenvalues -- -103.66049 -93.59320 -20.62085 -11.34041 -11.31309
 Alpha  occ. eigenvalues --  -11.28090 -11.27778 -11.27458 -11.25945 -11.25475
 Alpha  occ. eigenvalues --  -10.69168  -8.88557  -8.34890  -8.34561  -8.34535
 Alpha  occ. eigenvalues --   -6.22670  -6.22425  -6.22032  -1.39230  -1.17034
 Alpha  occ. eigenvalues --   -1.13875  -1.05138  -1.03796  -0.97586  -0.90496
 Alpha  occ. eigenvalues --   -0.85850  -0.80937  -0.74687  -0.69901  -0.68410
 Alpha  occ. eigenvalues --   -0.65801  -0.63773  -0.61650  -0.60853  -0.56021
 Alpha  occ. eigenvalues --   -0.55126  -0.54230  -0.52532  -0.50999  -0.49409
 Alpha  occ. eigenvalues --   -0.48109  -0.44333  -0.36848  -0.36347  -0.33887
 Alpha virt. eigenvalues --    0.02776   0.03671   0.03902   0.04426   0.05226
 Alpha virt. eigenvalues --    0.05879   0.06108   0.08309   0.08636   0.08897
 Alpha virt. eigenvalues --    0.09281   0.09625   0.12299   0.12452   0.13230

 Mulliken charges:
               1
     1  Cl  -0.318801
     2  S    0.204847
     3  C    0.948086
     4  C    0.086645
     5  C    0.848306
     6  C    0.126236
     7  C   -0.070595
     8  H   -0.452673
     9  C    0.679166
    10  H   -0.719985
    11  H   -0.453156
    12  O   -0.670744
    13  C    0.830187
    14  H   -0.084339
    15  H   -0.297519
    16  H   -0.083421
    17  H   -0.572238
 Sum of Mulliken charges =  -0.00000

 Dipole moment (field-independent basis, Debye):
    X=             -4.4764    Y=             -1.0533    Z=             -0.7703  Tot=              4.6627

 Test job not archived.
 1\1\GINC-SE212\SP\RHF\Aug-CC-pVDZ\C7H7Cl1O1S1\OHZDE\09-Apr-2025\0\\#t
 hf aug-cc-pvdz iop(5/13=1,5/36=2,99/5=2) pseudo=read geom=check guess=
 (read,tcheck) scf=(maxcycle=1)\\title\\0,1\Cl,0,3.310378,-0.269204,0.9
 9952\S,0,2.378932,0.023832,-0.886761\C,0,0.66996,0.113223,-0.47453\C,0
 ,0.070185,1.349627,-0.173678\C,0,-1.283899,1.425727,0.08694\C,0,-2.074
 638,0.26503,0.056311\C,0,-0.12342,-1.039193,-0.499204\H,0,0.336685,-1.
 993463,-0.724165\C,0,-1.487541,-0.972312,-0.23972\H,0,-2.07829,-1.8774
 44,-0.269013\H,0,0.681718,2.243011,-0.148705\O,0,-3.388459,0.446563,0.

 Normal termination of Gaussian 16 at Wed Apr  9 00:20:17 2025.
