 Gaussian 16, Revision C.01,

 ----------------------------------------------------------------------
 #t hf aug-cc-pvdz symm=none int=(grid=ultrafine) guess=(read,tcheck) s
 table=opt
 ----------------------------------------------------------------------
 -----
 title
 -----
 Symbolic Z-matrix:
 Charge =  0 Multiplicity = 2

 SCF Done:  E(UHF) =  -553.059088010     A.U. after   27 cycles
 Normal termination of Gaussian 16 at Wed Apr  9 00:49:31 2025.
 Gaussian 16:  ES64L-G16RevC.01  3-Jul-2019

 ----------------------------------------------------------------------
 #t hf aug-cc-pvdz iop(5/13=1,5/36=2,99/5=2) pseudo=read geom=check gue
 ss=(read,tcheck) scf=(maxcycle=1)
 ----------------------------------------------------------------------
 -----
 title
 -----
 Structure from the checkpoint file:  "BDE49_nonexpt_918_mol2.chk"
 Charge =  0 Multiplicity = 2

                         Standard orientation:
 ---------------------------------------------------------------------
 Center     Atomic      Atomic             Coordinates (Angstroms)
 Number     Number       Type             X           Y           Z
 ---------------------------------------------------------------------
      1         16           0       -1.822329    0.057984   -0.288575
      2          6           0       -0.386925   -0.410339    0.734563
      3          6           0        0.949849   -0.110805    0.103264
      4          6           0        1.727585   -1.105396   -0.326395
      5          6           0        1.336242    1.339151   -0.003263
      6          1           0        2.692875   -0.913841   -0.781788
      7          1           0        1.426204   -2.143758   -0.237481
      8          1           0        2.295386    1.461187   -0.508232
      9          1           0        0.578201    1.901264   -0.557182
     10          1           0        1.410479    1.795582    0.990958
     11          1           0       -0.483043   -1.465674    0.998673
     12          1           0       -0.523351    0.161827    1.663245
 ---------------------------------------------------------------------

 SCF Done:  E(UHF) =  -553.125224037     A.U. after    2 cycles

 The electronic state is 2-A.
 Alpha  occ. eigenvalues --  -93.55268 -11.28175 -11.26213 -11.23619 -11.23376
 Alpha  occ. eigenvalues --   -8.84952  -6.20297  -6.18631  -6.18174  -1.10708
 Alpha  occ. eigenvalues --   -1.00852  -0.93929  -0.86120  -0.73323  -0.64621
 Alpha  occ. eigenvalues --   -0.63699  -0.58577  -0.56157  -0.53376  -0.51298
 Alpha  occ. eigenvalues --   -0.49390  -0.42765  -0.37351  -0.35832
 Alpha virt. eigenvalues --    0.03491   0.04502   0.04698   0.05939   0.06631
 Alpha virt. eigenvalues --    0.06926   0.08410   0.09367   0.10005   0.11477
 Alpha virt. eigenvalues --    0.13712   0.14345   0.14646   0.15291   0.15845

  Beta  occ. eigenvalues --  -93.54361 -11.28324 -11.26022 -11.23642 -11.23544
  Beta  occ. eigenvalues --   -8.83942  -6.18065  -6.17622  -6.16340  -1.10068
  Beta  occ. eigenvalues --   -0.98270  -0.94041  -0.80110  -0.72571  -0.63816
  Beta  occ. eigenvalues --   -0.63563  -0.57986  -0.54844  -0.53292  -0.50966
  Beta  occ. eigenvalues --   -0.48269  -0.36324  -0.34708
  Beta virt. eigenvalues --    0.01924   0.03511   0.04619   0.04713   0.05992
  Beta virt. eigenvalues --    0.06674   0.07008   0.08559   0.09445   0.10446
  Beta virt. eigenvalues --    0.11777   0.14100   0.14640   0.15040   0.15700

 Mulliken charges and spin densities:
               1          2
     1  S    0.185540   1.105800
     2  C    0.065781  -0.154770
     3  C   -0.349381   0.132793
     4  C    1.001786  -0.112557
     5  C    0.113046  -0.004904
     6  H   -0.363752   0.005354
     7  H   -0.391272   0.005736
     8  H   -0.147089   0.001600
     9  H    0.047869  -0.010362
    10  H    0.041134   0.000992
    11  H   -0.187447   0.008383
    12  H   -0.016216   0.021935
 Sum of Mulliken charges =  -0.00000   1.00000

 Dipole moment (field-independent basis, Debye):
    X=              1.2325    Y=              0.0044    Z=              0.9406  Tot=              1.5505
                          Isotropic Fermi Contact Couplings
        Atom                 a.u.       MegaHertz       Gauss      10(-4) cm-1
     1  S(33)              0.18845      64.72691      23.09617      21.59057
     2  C(13)             -0.03115     -35.01605     -12.49460     -11.68010
     3  C(13)              0.02011      22.60589       8.06634       7.54051
     4  C(13)             -0.01574     -17.69468      -6.31390      -5.90231
     5  C(13)             -0.00462      -5.18835      -1.85133      -1.73065
     6  H(1)               0.00183       8.17438       2.91682       2.72668
     7  H(1)               0.00170       7.61408       2.71689       2.53978
     8  H(1)               0.00018       0.80238       0.28631       0.26765

 Normal termination of Gaussian 16 at Wed Apr  9 00:49:39 2025.
