 Gaussian 16, Revision C.01,

 ----------------------------------------------------------------------
 #t hf aug-cc-pvdz symm=none int=(grid=ultrafine) guess=(read,tcheck) s
 table=(opt,rrhf)
 ----------------------------------------------------------------------
 -----
 title
 -----
 Symbolic Z-matrix:
 Charge =  0 Multiplicity = 1

 SCF Done:  E(RHF) =  -627.383466065     A.U. after   15 cycles
 Normal termination of Gaussian 16 at Tue Apr  8 23:37:45 2025.
 Gaussian 16:  ES64L-G16RevC.01  3-Jul-2019

 ----------------------------------------------------------------------
 #t hf aug-cc-pvdz iop(5/13=1,5/36=2,99/5=2) pseudo=read geom=check gue
 ss=(read,tcheck) scf=(maxcycle=1)
 ----------------------------------------------------------------------
 -----
 title
 -----
 Structure from the checkpoint file:  "BDE49_nonexpt_1580_mol1.chk"
 Charge =  0 Multiplicity = 1

                         Standard orientation:
 ---------------------------------------------------------------------
 Center     Atomic      Atomic             Coordinates (Angstroms)
 Number     Number       Type             X           Y           Z
 ---------------------------------------------------------------------
      1          6           0        2.785407    0.451674    0.924199
      2          6           0        2.433814   -0.185544   -0.423515
      3          1           0        2.055810    1.216213    1.201415
      4          1           0        3.767119    0.930568    0.885621
      5          1           0        2.813114   -0.297194    1.722319
      6          6           0        1.075897   -0.896778   -0.423672
      7          1           0        3.205928   -0.909935   -0.701532
      8          1           0        2.422924    0.582564   -1.201239
      9          6           0       -0.122869    0.036347   -0.359493
     10          1           0        1.005929   -1.628111    0.391319
     11          1           0        0.945925   -1.476020   -1.348059
     12          8           0       -0.073392    1.202368   -0.685108
     13          7           0       -2.728339    0.689152    0.299938
     14         15           0       -1.772305   -0.714290    0.181545
     15          1           0       -1.313764   -0.849712    1.521148
     16          1           0       -3.472541    0.714671   -0.383768
     17          1           0       -2.193858    1.554105    0.265785
 ---------------------------------------------------------------------

 SCF Done:  E(RHF) =  -627.498829559     A.U. after    2 cycles

 The electronic state is 1-A.
 Alpha  occ. eigenvalues --  -81.28599 -20.57645 -15.62088 -11.34816 -11.25501
 Alpha  occ. eigenvalues --  -11.23962 -11.22697  -7.78700  -4.92809  -4.92600
 Alpha  occ. eigenvalues --   -4.92368  -1.36444  -1.12588  -1.07062  -0.96948
 Alpha  occ. eigenvalues --   -0.85947  -0.79796  -0.72937  -0.67985  -0.65658
 Alpha  occ. eigenvalues --   -0.63923  -0.62665  -0.59072  -0.57006  -0.55330
 Alpha  occ. eigenvalues --   -0.53206  -0.50129  -0.49072  -0.48718  -0.46017
 Alpha  occ. eigenvalues --   -0.39028  -0.35616
 Alpha virt. eigenvalues --    0.03331   0.04204   0.04535   0.04755   0.05986
 Alpha virt. eigenvalues --    0.06447   0.06845   0.07425   0.07764   0.09260
 Alpha virt. eigenvalues --    0.09639   0.11185   0.11396   0.11806   0.13691

 Mulliken charges:
               1
     1  C    0.390192
     2  C    0.353400
     3  H   -0.093896
     4  H   -0.078077
     5  H   -0.066726
     6  C   -0.069441
     7  H   -0.073085
     8  H   -0.083441
     9  C   -0.051466
    10  H   -0.072533
    11  H    0.076983
    12  O   -0.583175
    13  N   -0.523586
    14  P    0.708322
    15  H    0.084163
    16  H    0.052459
    17  H    0.029905
 Sum of Mulliken charges =  -0.00000

 Dipole moment (field-independent basis, Debye):
    X=              0.5921    Y=             -1.5624    Z=             -0.0296  Tot=              1.6711

 Test job not archived.
 1\1\GINC-SE343\SP\RHF\Aug-CC-pVDZ\C4H10N1O1P1\OHZDE\08-Apr-2025\0\\#t
 hf aug-cc-pvdz iop(5/13=1,5/36=2,99/5=2) pseudo=read geom=check guess=
 (read,tcheck) scf=(maxcycle=1)\\title\\0,1\C,0,2.785407,0.451674,0.924
 199\C,0,2.433814,-0.185544,-0.423515\H,0,2.05581,1.216213,1.201415\H,0
 ,3.767119,0.930568,0.885621\H,0,2.813114,-0.297194,1.722319\C,0,1.0758
 97,-0.896778,-0.423672\H,0,3.205928,-0.909935,-0.701532\H,0,2.422924,0
 .582564,-1.201239\C,0,-0.122869,0.036347,-0.359493\H,0,1.005929,-1.628
 111,0.391319\H,0,0.945925,-1.47602,-1.348059\O,0,-0.073392,1.202368,-0

 Normal termination of Gaussian 16 at Tue Apr  8 23:37:52 2025.
