 Gaussian 16, Revision C.01,

 ----------------------------------------------------------------------
 #t hf aug-cc-pvdz symm=none int=(grid=ultrafine) guess=(read,tcheck) s
 table=(opt,rrhf)
 ----------------------------------------------------------------------
 -----
 title
 -----
 Symbolic Z-matrix:
 Charge =  0 Multiplicity = 1

 SCF Done:  E(RHF) =  -621.432933346     A.U. after   15 cycles
 Normal termination of Gaussian 16 at Tue Apr  8 23:07:02 2025.
 Gaussian 16:  ES64L-G16RevC.01  3-Jul-2019

 ----------------------------------------------------------------------
 #t hf aug-cc-pvdz iop(5/13=1,5/36=2,99/5=2) pseudo=read geom=check gue
 ss=(read,tcheck) scf=(maxcycle=1)
 ----------------------------------------------------------------------
 -----
 title
 -----
 Structure from the checkpoint file:  "BDE49_expt_464_mol1.chk"
 Charge =  0 Multiplicity = 1

                         Standard orientation:
 ---------------------------------------------------------------------
 Center     Atomic      Atomic             Coordinates (Angstroms)
 Number     Number       Type             X           Y           Z
 ---------------------------------------------------------------------
      1          6           0       -0.322194   -1.203824   -0.030325
      2          6           0       -1.708021   -1.207268   -0.013197
      3          6           0       -2.427726   -0.000000   -0.001153
      4          6           0        0.384710    0.000000   -0.040264
      5          6           0       -0.322194    1.203824   -0.030325
      6          6           0       -1.708021    1.207268   -0.013197
      7          1           0        0.216616   -2.143132   -0.044415
      8          1           0       -2.244822   -2.150067   -0.015829
      9          7           0       -3.812960   -0.000000   -0.039015
     10          1           0       -4.271635   -0.841829    0.273498
     11          1           0       -4.271635    0.841829    0.273498
     12          6           0        1.879849    0.000000    0.001731
     13          9           0        2.409801   -1.089419   -0.602385
     14          9           0        2.409801    1.089419   -0.602383
     15          9           0        2.361729   -0.000001    1.272211
     16          1           0       -2.244822    2.150067   -0.015829
     17          1           0        0.216616    2.143132   -0.044415
 ---------------------------------------------------------------------

 SCF Done:  E(RHF) =  -621.636821944     A.U. after    2 cycles

 The electronic state is 1-A.
 Alpha  occ. eigenvalues --  -26.15349 -26.15337 -26.14718 -15.65008 -11.51788
 Alpha  occ. eigenvalues --  -11.31477 -11.27092 -11.27086 -11.26000 -11.25231
 Alpha  occ. eigenvalues --  -11.25230  -1.74467  -1.67717  -1.67108  -1.21911
 Alpha  occ. eigenvalues --   -1.15032  -1.05564  -1.03135  -0.97817  -0.87763
 Alpha  occ. eigenvalues --   -0.87627  -0.86121  -0.84556  -0.80309  -0.76008
 Alpha  occ. eigenvalues --   -0.75845  -0.72216  -0.71940  -0.71119  -0.70453
 Alpha  occ. eigenvalues --   -0.70194  -0.66822  -0.62043  -0.61832  -0.60713
 Alpha  occ. eigenvalues --   -0.55742  -0.54669  -0.51434  -0.47134  -0.36212
 Alpha  occ. eigenvalues --   -0.31924
 Alpha virt. eigenvalues --    0.02441   0.03359   0.04328   0.05718   0.06344
 Alpha virt. eigenvalues --    0.08668   0.08790   0.09480   0.09485   0.10786
 Alpha virt. eigenvalues --    0.10826   0.12375   0.13158   0.13231   0.13903

 Mulliken charges:
               1
     1  C   -0.037217
     2  C    0.846518
     3  C    0.052158
     4  C    1.216647
     5  C   -0.037216
     6  C    0.846518
     7  H   -0.556137
     8  H   -0.576072
     9  N   -0.268304
    10  H   -0.035280
    11  H   -0.035280
    12  C    0.721366
    13  F   -0.332809
    14  F   -0.332808
    15  F   -0.339874
    16  H   -0.576072
    17  H   -0.556138
 Sum of Mulliken charges =  -0.00000

 Dipole moment (field-independent basis, Debye):
    X=             -5.0819    Y=              0.0000    Z=              0.8026  Tot=              5.1449

 Test job not archived.
 1\1\GINC-SE424\SP\RHF\Aug-CC-pVDZ\C7H6F3N1\OHZDE\08-Apr-2025\0\\#t hf
 aug-cc-pvdz iop(5/13=1,5/36=2,99/5=2) pseudo=read geom=check guess=(re
 ad,tcheck) scf=(maxcycle=1)\\title\\0,1\C,0,-0.322194,-1.203824,-0.030
 325\C,0,-1.708021,-1.207268,-0.013197\C,0,-2.427726,0.,-0.001153\C,0,0
 .38471,0.,-0.040264\C,0,-0.322194,1.203824,-0.030325\C,0,-1.708021,1.2
 07268,-0.013197\H,0,0.216616,-2.143132,-0.044415\H,0,-2.244822,-2.1500
 67,-0.015829\N,0,-3.81296,0.,-0.039015\H,0,-4.271635,-0.841829,0.27349
 8\H,0,-4.271635,0.841829,0.273498\C,0,1.879849,0.,0.001731\F,0,2.40980

 Normal termination of Gaussian 16 at Tue Apr  8 23:07:11 2025.
