 Gaussian 16, Revision C.01,

 ----------------------------------------------------------------------
 #t hf aug-cc-pvdz symm=none int=(grid=ultrafine) guess=(read,tcheck) s
 table=(opt,rrhf)
 ----------------------------------------------------------------------
 -----
 title
 -----
 Symbolic Z-matrix:
 Charge =  0 Multiplicity = 1

 SCF Done:  E(RHF) =  -616.245475777     A.U. after   12 cycles

 1\1\GINC-SE461\Stability\RHF\Aug-CC-pVDZ\C4H9Cl1\OHZDE\08-Apr-2025\0\\
 #t hf aug-cc-pvdz symm=none int=(grid=ultrafine) guess=(read,tcheck) s
 table=(opt,rrhf)\\title\\0,1\C,0,2.21208,-0.245317,0.120821\C,0,1.0852
 49,0.685832,-0.328807\C,0,-0.257978,0.452403,0.356872\C,0,-1.314989,1.
 483237,-0.007446\H,0,-0.126495,0.404383,1.439149\Cl,0,-0.900654,-1.224
 084,-0.069082\H,0,-2.262498,1.27047,0.4892\H,0,-1.486524,1.500442,-1.0
 86129\H,0,-0.977417,2.476977,0.304676\H,0,3.147004,0.01209,-0.382917\H
 ,0,1.980129,-1.286849,-0.108859\H,0,2.382441,-0.167736,1.199037\H,0,0.

 Normal termination of Gaussian 16 at Tue Apr  8 22:29:33 2025.
 Gaussian 16:  ES64L-G16RevC.01  3-Jul-2019

 ----------------------------------------------------------------------
 #t hf aug-cc-pvdz iop(5/13=1,5/36=2,99/5=2) pseudo=read geom=check gue
 ss=(read,tcheck) scf=(maxcycle=1)
 ----------------------------------------------------------------------
 -----
 title
 -----
 Structure from the checkpoint file:  "BDE49_expt_1035_mol1.chk"
 Charge =  0 Multiplicity = 1

                         Standard orientation:
 ---------------------------------------------------------------------
 Center     Atomic      Atomic             Coordinates (Angstroms)
 Number     Number       Type             X           Y           Z
 ---------------------------------------------------------------------
      1          6           0        2.212080   -0.245316    0.120821
      2          6           0        1.085249    0.685832   -0.328807
      3          6           0       -0.257978    0.452403    0.356872
      4          6           0       -1.314989    1.483237   -0.007446
      5          1           0       -0.126495    0.404383    1.439149
      6         17           0       -0.900654   -1.224084   -0.069082
      7          1           0       -2.262498    1.270470    0.489200
      8          1           0       -1.486524    1.500442   -1.086129
      9          1           0       -0.977417    2.476977    0.304676
     10          1           0        3.147004    0.012091   -0.382917
     11          1           0        1.980129   -1.286848   -0.108859
     12          1           0        2.382441   -0.167735    1.199037
     13          1           0        0.943174    0.617054   -1.412214
     14          1           0        1.365141    1.725653   -0.116193
 ---------------------------------------------------------------------

 SCF Done:  E(RHF) =  -616.314027313     A.U. after    2 cycles

 The electronic state is 1-A.
 Alpha  occ. eigenvalues -- -103.63664 -11.30984 -11.24716 -11.24230 -11.22944
 Alpha  occ. eigenvalues --  -10.66949  -8.32654  -8.32393  -8.32384  -1.15768
 Alpha  occ. eigenvalues --   -1.04796  -0.99137  -0.87625  -0.79406  -0.65336
 Alpha  occ. eigenvalues --   -0.61578  -0.60771  -0.58639  -0.54205  -0.51741
 Alpha  occ. eigenvalues --   -0.50329  -0.49709  -0.48211  -0.43710  -0.43601
 Alpha virt. eigenvalues --    0.03376   0.04340   0.04690   0.05413   0.06711
 Alpha virt. eigenvalues --    0.06854   0.07099   0.08118   0.09466   0.11000
 Alpha virt. eigenvalues --    0.11997   0.12922   0.14668   0.15699   0.16205

 Mulliken charges:
               1
     1  C    0.411769
     2  C    0.246192
     3  C   -0.503452
     4  C    0.608972
     5  H   -0.092785
     6  Cl  -0.231832
     7  H   -0.057226
     8  H   -0.009798
     9  H   -0.023657
    10  H   -0.049408
    11  H   -0.046849
    12  H   -0.064913
    13  H   -0.108356
    14  H   -0.078656
 Sum of Mulliken charges =  -0.00000

 Dipole moment (field-independent basis, Debye):
    X=              1.0055    Y=              2.4044    Z=              0.4336  Tot=              2.6420

 Test job not archived.
 1\1\GINC-SE461\SP\RHF\Aug-CC-pVDZ\C4H9Cl1\OHZDE\08-Apr-2025\0\\#t hf a
 ug-cc-pvdz iop(5/13=1,5/36=2,99/5=2) pseudo=read geom=check guess=(rea
 d,tcheck) scf=(maxcycle=1)\\title\\0,1\C,0,2.21208,-0.245317,0.120821\
 C,0,1.085249,0.685832,-0.328807\C,0,-0.257978,0.452403,0.356872\C,0,-1
 .314989,1.483237,-0.007446\H,0,-0.126495,0.404383,1.439149\Cl,0,-0.900
 654,-1.224084,-0.069082\H,0,-2.262498,1.27047,0.4892\H,0,-1.486524,1.5
 00442,-1.086129\H,0,-0.977417,2.476977,0.304676\H,0,3.147004,0.01209,-
 0.382917\H,0,1.980129,-1.286849,-0.108859\H,0,2.382441,-0.167736,1.199

 Normal termination of Gaussian 16 at Tue Apr  8 22:29:37 2025.
