 Gaussian 16, Revision C.01,

 ----------------------------------------------------------------------
 #t hf aug-cc-pvdz symm=none int=(grid=ultrafine) guess=(read,tcheck) s
 table=(opt,rrhf)
 ----------------------------------------------------------------------
 -----
 title
 -----
 Symbolic Z-matrix:
 Charge =  0 Multiplicity = 1

 SCF Done:  E(RHF) =  -1455.99384189     A.U. after   12 cycles

 1\1\GINC-SE092\Stability\RHF\Aug-CC-pVDZ\C2H3Cl3\OHZDE\08-Apr-2025\0\\
 #t hf aug-cc-pvdz symm=none int=(grid=ultrafine) guess=(read,tcheck) s
 table=(opt,rrhf)\\title\\0,1\C,0,-0.000021,0.000028,0.257772\C,0,0.000
 026,0.000037,1.773986\Cl,0,1.093693,1.290252,-0.364818\Cl,0,-1.664283,
 0.302001,-0.364756\Cl,0,0.57058,-1.592282,-0.364728\H,0,-0.346535,0.96
 7745,2.137554\H,0,1.01139,-0.183681,2.13749\H,0,-0.664728,-0.783971,2.
 137548\\Version=ES64L-G16RevC.01\HF=-1455.9938419\RMSD=4.195e-09\Dipol
 e=-0.0000164,0.0000461,0.8032987\Quadrupole=-0.9128549,-0.913176,1.826

 Normal termination of Gaussian 16 at Tue Apr  8 22:27:40 2025.
 Gaussian 16:  ES64L-G16RevC.01  3-Jul-2019

 ----------------------------------------------------------------------
 #t hf aug-cc-pvdz iop(5/13=1,5/36=2,99/5=2) pseudo=read geom=check gue
 ss=(read,tcheck) scf=(maxcycle=1)
 ----------------------------------------------------------------------
 -----
 title
 -----
 Structure from the checkpoint file:  "BDE49_expt_1014_mol1.chk"
 Charge =  0 Multiplicity = 1

                         Standard orientation:
 ---------------------------------------------------------------------
 Center     Atomic      Atomic             Coordinates (Angstroms)
 Number     Number       Type             X           Y           Z
 ---------------------------------------------------------------------
      1          6           0        0.000021   -0.000028    0.257772
      2          6           0       -0.000026   -0.000037    1.773986
      3         17           0       -1.093701   -1.290245   -0.364818
      4         17           0        1.664281   -0.302011   -0.364756
      5         17           0       -0.570570    1.592285   -0.364728
      6          1           0        0.346529   -0.967747    2.137554
      7          1           0       -1.011389    0.183687    2.137490
      8          1           0        0.664733    0.783967    2.137548
 ---------------------------------------------------------------------

 SCF Done:  E(RHF) =  -1456.07301899     A.U. after    2 cycles

 The electronic state is 1-A.
 Alpha  occ. eigenvalues -- -103.68554-103.68554-103.68553 -11.45164 -11.27555
 Alpha  occ. eigenvalues --  -10.71860 -10.71860 -10.71836  -8.37570  -8.37570
 Alpha  occ. eigenvalues --   -8.37561  -8.37239  -8.37239  -8.37239  -8.37237
 Alpha  occ. eigenvalues --   -8.37235  -8.37235  -1.26036  -1.15281  -1.15280
 Alpha  occ. eigenvalues --   -1.02596  -0.81972  -0.66373  -0.66372  -0.63802
 Alpha  occ. eigenvalues --   -0.56943  -0.56943  -0.50747  -0.50746  -0.47897
 Alpha  occ. eigenvalues --   -0.47132  -0.47131  -0.46067
 Alpha virt. eigenvalues --    0.03613   0.05893   0.05893   0.07017   0.09169
 Alpha virt. eigenvalues --    0.09169   0.09265   0.13012   0.14534   0.14534
 Alpha virt. eigenvalues --    0.15462   0.15462   0.17289   0.17771   0.18355

 Mulliken charges:
               1
     1  C   -0.887953
     2  C    0.855000
     3  Cl   0.016444
     4  Cl   0.016434
     5  Cl   0.016450
     6  H   -0.005457
     7  H   -0.005460
     8  H   -0.005458
 Sum of Mulliken charges =  -0.00000

 Dipole moment (field-independent basis, Debye):
    X=              0.0000    Y=             -0.0001    Z=              2.1116  Tot=              2.1116

 Test job not archived.
 1\1\GINC-SE092\SP\RHF\Aug-CC-pVDZ\C2H3Cl3\OHZDE\08-Apr-2025\0\\#t hf a
 ug-cc-pvdz iop(5/13=1,5/36=2,99/5=2) pseudo=read geom=check guess=(rea
 d,tcheck) scf=(maxcycle=1)\\title\\0,1\C,0,-0.000021,0.000028,0.257772
 \C,0,0.000026,0.000037,1.773986\Cl,0,1.093693,1.290252,-0.364818\Cl,0,
 -1.664283,0.302001,-0.364756\Cl,0,0.57058,-1.592282,-0.364728\H,0,-0.3
 46535,0.967745,2.137554\H,0,1.01139,-0.183681,2.13749\H,0,-0.664728,-0
 .783971,2.137548\\Version=ES64L-G16RevC.01\State=1-A\HF=-1456.073019\R
 MSD=4.747e-03\Dipole=-0.0000165,0.0000473,0.830785\Quadrupole=-0.92490

 Normal termination of Gaussian 16 at Tue Apr  8 22:27:43 2025.
