 Gaussian 16, Revision C.01,

 ----------------------------------------------------------------------
 #t hf aug-cc-pvdz symm=none int=(grid=ultrafine) guess=(read,tcheck) s
 table=(opt,rrhf)
 ----------------------------------------------------------------------
 -----
 title
 -----
 Symbolic Z-matrix:
 Charge =  0 Multiplicity = 1

 SCF Done:  E(RHF) =  -954.372143492     A.U. after   14 cycles
 Normal termination of Gaussian 16 at Wed Apr  9 00:13:36 2025.
 Gaussian 16:  ES64L-G16RevC.01  3-Jul-2019

 ----------------------------------------------------------------------
 #t hf aug-cc-pvdz iop(5/13=1,5/36=2,99/5=2) pseudo=read geom=check gue
 ss=(read,tcheck) scf=(maxcycle=1)
 ----------------------------------------------------------------------
 -----
 title
 -----
 Structure from the checkpoint file:  "BDE49_nonexpt_2476_mol1.chk"
 Charge =  0 Multiplicity = 1

                         Standard orientation:
 ---------------------------------------------------------------------
 Center     Atomic      Atomic             Coordinates (Angstroms)
 Number     Number       Type             X           Y           Z
 ---------------------------------------------------------------------
      1         16           0       -0.701244   -0.530139    0.025805
      2          6           0        0.984370   -0.927460   -0.579024
      3         14           0       -0.932435    1.712187    0.007374
      4          8           0       -0.774759   -0.966078    1.417327
      5          8           0       -1.632651   -1.060858   -0.964437
      6          6           0        2.054331   -0.341543    0.281344
      7          1           0        1.029438   -0.590286   -1.616095
      8          6           0        2.936395    0.561989   -0.140763
      9          1           0        2.077214   -0.689170    1.309768
     10          1           0        2.940580    0.923801   -1.164547
     11          1           0        3.696349    0.960454    0.521051
     12          1           0        0.977489   -2.022633   -0.558562
     13          1           0       -0.100908    2.320183    1.060963
     14          1           0       -2.373027    1.866332    0.275716
     15          1           0       -0.564442    2.200492   -1.336879
 ---------------------------------------------------------------------

 SCF Done:  E(RHF) =  -954.544987296     A.U. after    2 cycles

 The electronic state is 1-A.
 Alpha  occ. eigenvalues --  -93.76036 -69.11732 -20.55320 -20.55317 -11.29576
 Alpha  occ. eigenvalues --  -11.27701 -11.26761  -9.03066  -6.86955  -6.37677
 Alpha  occ. eigenvalues --   -6.37408  -6.37310  -3.97764  -3.97666  -3.97660
 Alpha  occ. eigenvalues --   -1.40362  -1.29437  -1.10538  -0.99594  -0.86298
 Alpha  occ. eigenvalues --   -0.79861  -0.74590  -0.69069  -0.66645  -0.65594
 Alpha  occ. eigenvalues --   -0.64062  -0.62379  -0.57961  -0.54000  -0.53421
 Alpha  occ. eigenvalues --   -0.52179  -0.51009  -0.49886  -0.48673  -0.42955
 Alpha  occ. eigenvalues --   -0.38682
 Alpha virt. eigenvalues --    0.02505   0.03817   0.04312   0.04747   0.06057
 Alpha virt. eigenvalues --    0.06485   0.06824   0.07168   0.07639   0.08975
 Alpha virt. eigenvalues --    0.09398   0.10491   0.11288   0.11820   0.13163

 Mulliken charges:
               1
     1  S    2.181368
     2  C   -0.306509
     3  Si   0.226688
     4  O   -1.165966
     5  O   -1.120714
     6  C    0.776801
     7  H   -0.146052
     8  C    0.410601
     9  H   -0.392453
    10  H   -0.318411
    11  H   -0.274068
    12  H    0.051023
    13  H    0.053331
    14  H   -0.021553
    15  H    0.045914
 Sum of Mulliken charges =  -0.00000

 Dipole moment (field-independent basis, Debye):
    X=              3.9727    Y=              3.9317    Z=             -1.2838  Tot=              5.7349

 Test job not archived.
 1\1\GINC-SE165\SP\RHF\Aug-CC-pVDZ\C3H8O2S1Si1\OHZDE\09-Apr-2025\0\\#t
 hf aug-cc-pvdz iop(5/13=1,5/36=2,99/5=2) pseudo=read geom=check guess=
 (read,tcheck) scf=(maxcycle=1)\\title\\0,1\S,0,-0.701244,-0.530139,0.0
 25805\C,0,0.98437,-0.92746,-0.579024\Si,0,-0.932435,1.712187,0.007374\
 O,0,-0.774759,-0.966078,1.417327\O,0,-1.632651,-1.060858,-0.964437\C,0
 ,2.054331,-0.341543,0.281344\H,0,1.029438,-0.590286,-1.616095\C,0,2.93
 6395,0.561989,-0.140763\H,0,2.077214,-0.68917,1.309768\H,0,2.94058,0.9
 23801,-1.164547\H,0,3.696349,0.960454,0.521051\H,0,0.977489,-2.022633,

 Normal termination of Gaussian 16 at Wed Apr  9 00:13:42 2025.
