 Gaussian 16, Revision C.01,

 ----------------------------------------------------------------------
 #t hf aug-cc-pvdz symm=none int=(grid=ultrafine) guess=(read,tcheck) s
 table=(opt,rrhf)
 ----------------------------------------------------------------------
 -----
 title
 -----
 Symbolic Z-matrix:
 Charge =  0 Multiplicity = 1

 SCF Done:  E(RHF) =  -373.082803180     A.U. after   15 cycles

 1\1\GINC-SE039\Stability\RHF\Aug-CC-pVDZ\C9H13B1\OHZDE\09-Apr-2025\0\\
 #t hf aug-cc-pvdz symm=none int=(grid=ultrafine) guess=(read,tcheck) s
 table=(opt,rrhf)\\title\\0,1\C,0,0.017198,0.003389,-0.017814\C,0,-0.71
 1059,1.207938,-0.036745\C,0,-2.10079,1.212008,-0.088387\C,0,-2.809209,
 0.012657,-0.102465\C,0,-2.11178,-1.191087,-0.059226\C,0,-0.720984,-1.1
 9577,-0.0109\B,0,1.483752,-0.172637,1.633805\H,0,-2.631545,2.157161,-0
 .117358\H,0,-3.892534,0.017051,-0.143054\H,0,-2.649571,-2.132604,-0.06
 3191\H,0,-0.204154,-2.145527,0.021959\H,0,-0.187694,2.154317,-0.026824

 Normal termination of Gaussian 16 at Wed Apr  9 00:30:36 2025.
 Gaussian 16:  ES64L-G16RevC.01  3-Jul-2019

 ----------------------------------------------------------------------
 #t hf aug-cc-pvdz iop(5/13=1,5/36=2,99/5=2) pseudo=read geom=check gue
 ss=(read,tcheck) scf=(maxcycle=1)
 ----------------------------------------------------------------------
 -----
 title
 -----
 Structure from the checkpoint file:  "BDE49_nonexpt_347_mol1.chk"
 Charge =  0 Multiplicity = 1

                         Standard orientation:
 ---------------------------------------------------------------------
 Center     Atomic      Atomic             Coordinates (Angstroms)
 Number     Number       Type             X           Y           Z
 ---------------------------------------------------------------------
      1          6           0        0.017198    0.003389   -0.017814
      2          6           0       -0.711059    1.207938   -0.036745
      3          6           0       -2.100790    1.212008   -0.088387
      4          6           0       -2.809209    0.012657   -0.102465
      5          6           0       -2.111780   -1.191087   -0.059226
      6          6           0       -0.720984   -1.195770   -0.010900
      7          5           0        1.483752   -0.172637    1.633805
      8          1           0       -2.631545    2.157161   -0.117358
      9          1           0       -3.892534    0.017051   -0.143054
     10          1           0       -2.649571   -2.132604   -0.063191
     11          1           0       -0.204154   -2.145527    0.021959
     12          1           0       -0.187694    2.154317   -0.026824
     13          6           0        1.560667   -0.011230    0.073557
     14          6           0        2.201531    1.300932   -0.411002
     15          1           0        1.901360    2.163032    0.186904
     16          1           0        1.957095    1.505668   -1.459499
     17          1           0        3.289597    1.225822   -0.333203
     18          6           0        2.186499   -1.195044   -0.687609
     19          1           0        1.959954   -1.144519   -1.758332
     20          1           0        1.853401   -2.163918   -0.313591
     21          1           0        3.274198   -1.169844   -0.575678
     22          1           0        1.405268    0.792303    2.330841
     23          1           0        1.433433   -1.258514    2.125545
 ---------------------------------------------------------------------

 SCF Done:  E(RHF) =  -373.193886422     A.U. after    2 cycles

 The electronic state is 1-A.
 Alpha  occ. eigenvalues --  -11.26077 -11.24908 -11.24877 -11.24813 -11.24713
 Alpha  occ. eigenvalues --  -11.24681 -11.23094 -11.22562 -11.22540  -7.60244
 Alpha  occ. eigenvalues --   -1.15189  -1.07432  -1.01425  -0.99166  -0.92901
 Alpha  occ. eigenvalues --   -0.85820  -0.82824  -0.77995  -0.70560  -0.67178
 Alpha  occ. eigenvalues --   -0.63957  -0.62977  -0.61110  -0.59631  -0.57712
 Alpha  occ. eigenvalues --   -0.55987  -0.53470  -0.53139  -0.51439  -0.51340
 Alpha  occ. eigenvalues --   -0.48452  -0.48147  -0.45259  -0.42646  -0.34341
 Alpha  occ. eigenvalues --   -0.33013
 Alpha virt. eigenvalues --    0.03007   0.03602   0.04018   0.05134   0.05216
 Alpha virt. eigenvalues --    0.05486   0.06067   0.06339   0.06983   0.07361
 Alpha virt. eigenvalues --    0.07647   0.08405   0.09138   0.09740   0.10653

 Mulliken charges:
               1
     1  C    0.840210
     2  C    0.341466
     3  C    0.238832
     4  C    0.795141
     5  C    0.291596
     6  C    0.442587
     7  B   -0.791152
     8  H   -0.482799
     9  H   -0.440537
    10  H   -0.483623
    11  H   -0.663520
    12  H   -0.644851
    13  C   -1.938143
    14  C    1.113937
    15  H   -0.089900
    16  H    0.030537
    17  H   -0.143585
    18  C    0.952608
    19  H   -0.006595
    20  H   -0.112070
    21  H   -0.102338
    22  H    0.449978
    23  H    0.402223
 Sum of Mulliken charges =  -0.00000

 Dipole moment (field-independent basis, Debye):
    X=             -0.2502    Y=              0.0634    Z=             -0.6294  Tot=              0.6803

 Test job not archived.
 1\1\GINC-SE039\SP\RHF\Aug-CC-pVDZ\C9H13B1\OHZDE\09-Apr-2025\0\\#t hf a
 ug-cc-pvdz iop(5/13=1,5/36=2,99/5=2) pseudo=read geom=check guess=(rea
 d,tcheck) scf=(maxcycle=1)\\title\\0,1\C,0,0.017198,0.003389,-0.017814
 \C,0,-0.711059,1.207938,-0.036745\C,0,-2.10079,1.212008,-0.088387\C,0,
 -2.809209,0.012657,-0.102465\C,0,-2.11178,-1.191087,-0.059226\C,0,-0.7
 20984,-1.19577,-0.0109\B,0,1.483752,-0.172637,1.633805\H,0,-2.631545,2
 .157161,-0.117358\H,0,-3.892534,0.017051,-0.143054\H,0,-2.649571,-2.13
 2604,-0.063191\H,0,-0.204154,-2.145527,0.021959\H,0,-0.187694,2.154317

 Normal termination of Gaussian 16 at Wed Apr  9 00:30:54 2025.
