 Gaussian 16, Revision C.01,

 ----------------------------------------------------------------------
 #t hf aug-cc-pvdz symm=none int=(grid=ultrafine) guess=(read,tcheck) s
 table=(opt,rrhf)
 ----------------------------------------------------------------------
 -----
 title
 -----
 Symbolic Z-matrix:
 Charge =  0 Multiplicity = 1

 SCF Done:  E(RHF) =  -693.163968744     A.U. after   12 cycles
 Normal termination of Gaussian 16 at Tue Apr  8 22:48:13 2025.
 Gaussian 16:  ES64L-G16RevC.01  3-Jul-2019

 ----------------------------------------------------------------------
 #t hf aug-cc-pvdz iop(5/13=1,5/36=2,99/5=2) pseudo=read geom=check gue
 ss=(read,tcheck) scf=(maxcycle=1)
 ----------------------------------------------------------------------
 -----
 title
 -----
 Structure from the checkpoint file:  "BDE49_expt_1670_mol1.chk"
 Charge =  0 Multiplicity = 1

                         Standard orientation:
 ---------------------------------------------------------------------
 Center     Atomic      Atomic             Coordinates (Angstroms)
 Number     Number       Type             X           Y           Z
 ---------------------------------------------------------------------
      1          6           0       -0.502870    0.508038    0.000000
      2          6           0        0.159574   -0.023200    1.267718
      3          6           0        0.159574   -1.562790    1.266765
      4          1           0       -0.357501    0.363395    2.149275
      5          1           0        1.189404    0.348109    1.309453
      6          6           0        0.816994   -2.127781   -0.000000
      7          1           0       -0.873449   -1.926818    1.333529
      8          1           0        0.674132   -1.926037    2.161347
      9          6           0        0.159574   -1.562790   -1.266765
     10          1           0        0.759828   -3.220615   -0.000000
     11          1           0        1.883392   -1.869547   -0.000000
     12          6           0        0.159574   -0.023200   -1.267718
     13          1           0       -0.873449   -1.926818   -1.333529
     14          1           0        0.674132   -1.926037   -2.161347
     15          1           0        1.189404    0.348109   -1.309453
     16          1           0       -0.357501    0.363395   -2.149275
     17         17           0       -0.473855    2.344593    0.000000
     18          1           0       -1.567367    0.265123    0.000000
 ---------------------------------------------------------------------

 SCF Done:  E(RHF) =  -693.251700900     A.U. after    2 cycles

 The electronic state is 1-A'.
 Alpha  occ. eigenvalues -- -103.63623 -11.30391 -11.24206 -11.24196 -11.23997
 Alpha  occ. eigenvalues --  -11.23994 -11.23687 -10.66890  -8.32599  -8.32334
 Alpha  occ. eigenvalues --   -8.32328  -1.16161  -1.09533  -1.01172  -0.98848
 Alpha  occ. eigenvalues --   -0.84879  -0.82871  -0.77137  -0.66322  -0.62377
 Alpha  occ. eigenvalues --   -0.61771  -0.61449  -0.55323  -0.54428  -0.53823
 Alpha  occ. eigenvalues --   -0.51560  -0.50149  -0.47153  -0.46142  -0.45461
 Alpha  occ. eigenvalues --   -0.43175  -0.42853
 Alpha virt. eigenvalues --    0.03243   0.04129   0.04222   0.04878   0.06333
 Alpha virt. eigenvalues --    0.06414   0.06800   0.07036   0.07374   0.09028
 Alpha virt. eigenvalues --    0.09059   0.10697   0.13083   0.13608   0.14227

 Mulliken charges:
               1
     1  C   -0.206954
     2  C    0.350584
     3  C    0.219417
     4  H   -0.112698
     5  H   -0.049399
     6  C    0.268505
     7  H   -0.086221
     8  H   -0.108261
     9  C    0.219417
    10  H   -0.098569
    11  H   -0.092283
    12  C    0.350584
    13  H   -0.086221
    14  H   -0.108261
    15  H   -0.049399
    16  H   -0.112698
    17  Cl  -0.185475
    18  H   -0.112069
 Sum of Mulliken charges =  -0.00000

 Dipole moment (field-independent basis, Debye):
    X=              0.2359    Y=             -2.9700    Z=             -0.0000  Tot=              2.9793

 Test job not archived.
 1\1\GINC-SE090\SP\RHF\Aug-CC-pVDZ\C6H11Cl1\OHZDE\08-Apr-2025\0\\#t hf
 aug-cc-pvdz iop(5/13=1,5/36=2,99/5=2) pseudo=read geom=check guess=(re
 ad,tcheck) scf=(maxcycle=1)\\title\\0,1\C,0,-0.50287,0.508038,0.\C,0,0
 .159574,-0.0232,1.267718\C,0,0.159574,-1.56279,1.266765\H,0,-0.357501,
 0.363395,2.149275\H,0,1.189404,0.348109,1.309453\C,0,0.816994,-2.12778
 1,0.\H,0,-0.873449,-1.926818,1.333529\H,0,0.674132,-1.926037,2.161347\
 C,0,0.159574,-1.56279,-1.266765\H,0,0.759828,-3.220615,0.\H,0,1.883392
 ,-1.869547,0.\C,0,0.159574,-0.0232,-1.267718\H,0,-0.873449,-1.926818,-

 Normal termination of Gaussian 16 at Tue Apr  8 22:48:19 2025.
