 Gaussian 16, Revision C.01,

 ----------------------------------------------------------------------
 #t hf aug-cc-pvdz symm=none int=(grid=ultrafine) guess=(read,tcheck) s
 table=(opt,rrhf)
 ----------------------------------------------------------------------
 -----
 title
 -----
 Symbolic Z-matrix:
 Charge =  0 Multiplicity = 1

 SCF Done:  E(RHF) =  -458.967948905     A.U. after   13 cycles
 Normal termination of Gaussian 16 at Tue Apr  8 23:57:21 2025.
 Gaussian 16:  ES64L-G16RevC.01  3-Jul-2019

 ----------------------------------------------------------------------
 #t hf aug-cc-pvdz iop(5/13=1,5/36=2,99/5=2) pseudo=read geom=check gue
 ss=(read,tcheck) scf=(maxcycle=1)
 ----------------------------------------------------------------------
 -----
 title
 -----
 Structure from the checkpoint file:  "BDE49_nonexpt_2064_mol1.chk"
 Charge =  0 Multiplicity = 1

                         Standard orientation:
 ---------------------------------------------------------------------
 Center     Atomic      Atomic             Coordinates (Angstroms)
 Number     Number       Type             X           Y           Z
 ---------------------------------------------------------------------
      1         14           0        1.668509    0.067536   -0.000002
      2          6           0       -0.127295   -0.470818    0.000007
      3          7           0       -1.027666    0.433895   -0.000006
      4          1           0       -0.426597   -1.524597    0.000024
      5          8           0       -2.316664   -0.110230    0.000004
      6          1           0       -2.879507    0.671712   -0.000008
      7          1           0        1.744268    1.541564   -0.000039
      8          1           0        2.346730   -0.482381   -1.197592
      9          1           0        2.346726   -0.482320    1.197618
 ---------------------------------------------------------------------

 SCF Done:  E(RHF) =  -459.043092989     A.U. after    2 cycles

 The electronic state is 1-A.
 Alpha  occ. eigenvalues --  -69.07604 -20.61989 -15.71072 -11.27712  -6.82931
 Alpha  occ. eigenvalues --   -3.93740  -3.93697  -3.93688  -1.38851  -1.13959
 Alpha  occ. eigenvalues --   -0.82251  -0.73940  -0.69825  -0.65525  -0.61215
 Alpha  occ. eigenvalues --   -0.52075  -0.49666  -0.48934  -0.43958  -0.40898
 Alpha virt. eigenvalues --    0.03498   0.04222   0.04911   0.06026   0.06764
 Alpha virt. eigenvalues --    0.07741   0.09157   0.09182   0.09843   0.13888
 Alpha virt. eigenvalues --    0.15047   0.15540   0.16421   0.16779   0.18215

 Mulliken charges:
               1
     1  Si   0.528348
     2  C    0.265431
     3  N   -0.093161
     4  H   -0.254605
     5  O   -0.450036
     6  H    0.186946
     7  H   -0.019787
     8  H   -0.081567
     9  H   -0.081569
 Sum of Mulliken charges =  -0.00000

 Dipole moment (field-independent basis, Debye):
    X=              0.2606    Y=             -0.0408    Z=              0.0000  Tot=              0.2638

 Test job not archived.
 1\1\GINC-SE453\SP\RHF\Aug-CC-pVDZ\C1H5N1O1Si1\OHZDE\08-Apr-2025\0\\#t
 hf aug-cc-pvdz iop(5/13=1,5/36=2,99/5=2) pseudo=read geom=check guess=
 (read,tcheck) scf=(maxcycle=1)\\title\\0,1\Si,0,1.668509,0.067536,-0.0
 00002\C,0,-0.127295,-0.470818,0.000007\N,0,-1.027666,0.433895,-0.00000
 6\H,0,-0.426597,-1.524597,0.000024\O,0,-2.316664,-0.11023,0.000004\H,0
 ,-2.879507,0.671712,-0.000008\H,0,1.744268,1.541564,-0.000039\H,0,2.34
 673,-0.482381,-1.197592\H,0,2.346726,-0.48232,1.197618\\Version=ES64L-
 G16RevC.01\State=1-A\HF=-459.043093\RMSD=4.537e-03\Dipole=0.1025251,-0

 Normal termination of Gaussian 16 at Tue Apr  8 23:57:24 2025.
