 Gaussian 16, Revision C.01,

 ----------------------------------------------------------------------
 #t hf aug-cc-pvdz symm=none int=(grid=ultrafine) guess=(read,tcheck) s
 table=(opt,rrhf)
 ----------------------------------------------------------------------
 -----
 title
 -----
 Symbolic Z-matrix:
 Charge =  0 Multiplicity = 1

 SCF Done:  E(RHF) =  -403.813411384     A.U. after   13 cycles
 Normal termination of Gaussian 16 at Wed Apr  9 00:24:24 2025.
 Gaussian 16:  ES64L-G16RevC.01  3-Jul-2019

 ----------------------------------------------------------------------
 #t hf aug-cc-pvdz iop(5/13=1,5/36=2,99/5=2) pseudo=read geom=check gue
 ss=(read,tcheck) scf=(maxcycle=1)
 ----------------------------------------------------------------------
 -----
 title
 -----
 Structure from the checkpoint file:  "BDE49_nonexpt_275_mol1.chk"
 Charge =  0 Multiplicity = 1

                         Standard orientation:
 ---------------------------------------------------------------------
 Center     Atomic      Atomic             Coordinates (Angstroms)
 Number     Number       Type             X           Y           Z
 ---------------------------------------------------------------------
      1          8           0       -0.808827   -1.034253    0.000005
      2          6           0       -2.125376   -0.714215   -0.000040
      3          6           0       -0.089653    0.151050   -0.000011
      4          6           0       -2.290526    0.636428    0.000053
      5          6           0       -0.975540    1.192328   -0.000039
      6          1           0       -3.229899    1.166050    0.000103
      7          1           0       -2.814448   -1.542526   -0.000058
      8          1           0       -0.708187    2.237340   -0.000062
      9          5           0        1.454243    0.023010   -0.000019
     10          8           0        2.209671    1.157509    0.000002
     11          8           0        2.071079   -1.198408    0.000027
     12          1           0        1.440936   -1.925869    0.000039
     13          1           0        3.151558    0.957622    0.000023
 ---------------------------------------------------------------------

 SCF Done:  E(RHF) =  -403.944483144     A.U. after    2 cycles

 The electronic state is 1-A.
 Alpha  occ. eigenvalues --  -20.64173 -20.58389 -20.57973 -11.31170 -11.27687
 Alpha  occ. eigenvalues --  -11.25111 -11.24563  -7.66391  -1.41966  -1.34479
 Alpha  occ. eigenvalues --   -1.30927  -1.08211  -1.00840  -0.81890  -0.80752
 Alpha  occ. eigenvalues --   -0.77065  -0.76234  -0.72476  -0.65366  -0.63299
 Alpha  occ. eigenvalues --   -0.60098  -0.58924  -0.58808  -0.57763  -0.56729
 Alpha  occ. eigenvalues --   -0.52347  -0.52069  -0.40985  -0.32901
 Alpha virt. eigenvalues --    0.03239   0.04237   0.04353   0.05868   0.05913
 Alpha virt. eigenvalues --    0.06097   0.07826   0.08743   0.08985   0.09737
 Alpha virt. eigenvalues --    0.12437   0.12985   0.13928   0.13931   0.15073

 Mulliken charges:
               1
     1  O   -0.512555
     2  C    0.509112
     3  C    0.085917
     4  C    0.487092
     5  C    0.444041
     6  H   -0.305346
     7  H   -0.379970
     8  H   -0.397092
     9  B    0.654492
    10  O   -0.514389
    11  O   -0.526963
    12  H    0.246906
    13  H    0.208755
 Sum of Mulliken charges =  -0.00000

 Dipole moment (field-independent basis, Debye):
    X=             -1.4003    Y=             -0.4103    Z=             -0.0001  Tot=              1.4592

 Test job not archived.
 1\1\GINC-SE099\SP\RHF\Aug-CC-pVDZ\C4H5B1O3\OHZDE\09-Apr-2025\0\\#t hf
 aug-cc-pvdz iop(5/13=1,5/36=2,99/5=2) pseudo=read geom=check guess=(re
 ad,tcheck) scf=(maxcycle=1)\\title\\0,1\O,0,0.808827,-1.034253,-0.0000
 05\C,0,2.125376,-0.714215,0.00004\C,0,0.089653,0.15105,0.000011\C,0,2.
 290526,0.636428,-0.000053\C,0,0.97554,1.192328,0.000039\H,0,3.229899,1
 .16605,-0.000103\H,0,2.814448,-1.542526,0.000058\H,0,0.708187,2.23734,
 0.000062\B,0,-1.454243,0.02301,0.000019\O,0,-2.209671,1.157509,-0.0000
 02\O,0,-2.071079,-1.198408,-0.000027\H,0,-1.440936,-1.925869,-0.000039

 Normal termination of Gaussian 16 at Wed Apr  9 00:24:29 2025.
