 Gaussian 16, Revision C.01,

 ----------------------------------------------------------------------
 #t hf aug-cc-pvdz symm=none int=(grid=ultrafine) guess=(read,tcheck) s
 table=(opt,rrhf)
 ----------------------------------------------------------------------
 -----
 title
 -----
 Symbolic Z-matrix:
 Charge =  0 Multiplicity = 1

 SCF Done:  E(RHF) =  -667.579332935     A.U. after   14 cycles
 Normal termination of Gaussian 16 at Tue Apr  8 23:03:21 2025.
 Gaussian 16:  ES64L-G16RevC.01  3-Jul-2019

 ----------------------------------------------------------------------
 #t hf aug-cc-pvdz iop(5/13=1,5/36=2,99/5=2) pseudo=read geom=check gue
 ss=(read,tcheck) scf=(maxcycle=1)
 ----------------------------------------------------------------------
 -----
 title
 -----
 Structure from the checkpoint file:  "BDE49_expt_386_mol1.chk"
 Charge =  0 Multiplicity = 1

                         Standard orientation:
 ---------------------------------------------------------------------
 Center     Atomic      Atomic             Coordinates (Angstroms)
 Number     Number       Type             X           Y           Z
 ---------------------------------------------------------------------
      1          8           0        0.638684   -1.308491   -0.540361
      2          6           0        1.619246   -0.976586    0.435770
      3          6           0        1.984768    0.490211    0.222484
      4          1           0        2.464528   -1.646135    0.267351
      5          1           0        1.237601   -1.132225    1.452729
      6         16           0        0.373013    1.299806   -0.103534
      7          1           0        2.648306    0.615993   -0.633979
      8          1           0        2.438244    0.935308    1.108799
      9          6           0       -0.399601   -0.347622   -0.579600
     10          6           0       -1.580497   -0.717716    0.316068
     11          1           0       -0.720756   -0.281150   -1.621359
     12          6           0       -2.759703    0.249695    0.194296
     13          1           0       -1.243170   -0.771018    1.355370
     14          1           0       -1.891292   -1.727087    0.022762
     15          1           0       -2.485215    1.255049    0.524649
     16          1           0       -3.599189   -0.083643    0.808803
     17          1           0       -3.112009    0.318059   -0.839794
 ---------------------------------------------------------------------

 SCF Done:  E(RHF) =  -667.682895116     A.U. after    2 cycles

 The electronic state is 1-A.
 Alpha  occ. eigenvalues --  -93.52352 -20.58538 -11.32382 -11.30156 -11.27168
 Alpha  occ. eigenvalues --  -11.23726 -11.22906  -8.82128  -6.16258  -6.16099
 Alpha  occ. eigenvalues --   -6.15735  -1.35437  -1.06171  -1.04923  -0.97023
 Alpha  occ. eigenvalues --   -0.86822  -0.82167  -0.78061  -0.69955  -0.67111
 Alpha  occ. eigenvalues --   -0.63261  -0.61717  -0.59099  -0.56174  -0.53905
 Alpha  occ. eigenvalues --   -0.52055  -0.50706  -0.50151  -0.46786  -0.44494
 Alpha  occ. eigenvalues --   -0.42354  -0.33984
 Alpha virt. eigenvalues --    0.03563   0.04205   0.04763   0.05109   0.05949
 Alpha virt. eigenvalues --    0.06165   0.06540   0.07580   0.08267   0.09418
 Alpha virt. eigenvalues --    0.10348   0.11875   0.12659   0.13217   0.14523

 Mulliken charges:
               1
     1  O   -0.748950
     2  C    0.811634
     3  C   -0.201433
     4  H   -0.220335
     5  H   -0.126891
     6  S    0.392639
     7  H   -0.118474
     8  H   -0.044525
     9  C    0.578721
    10  C   -0.003802
    11  H   -0.321075
    12  C    0.402486
    13  H   -0.160139
    14  H   -0.028044
    15  H   -0.071441
    16  H   -0.077340
    17  H   -0.063030
 Sum of Mulliken charges =  -0.00000

 Dipole moment (field-independent basis, Debye):
    X=              0.5297    Y=             -0.5716    Z=              1.0415  Tot=              1.3008

 Test job not archived.
 1\1\GINC-SE082\SP\RHF\Aug-CC-pVDZ\C5H10O1S1\OHZDE\08-Apr-2025\0\\#t hf
  aug-cc-pvdz iop(5/13=1,5/36=2,99/5=2) pseudo=read geom=check guess=(r
 ead,tcheck) scf=(maxcycle=1)\\title\\0,1\O,0,0.638684,-1.308491,-0.540
 361\C,0,1.619246,-0.976586,0.43577\C,0,1.984768,0.490211,0.222484\H,0,
 2.464528,-1.646135,0.267351\H,0,1.237601,-1.132225,1.452729\S,0,0.3730
 13,1.299806,-0.103534\H,0,2.648306,0.615993,-0.633979\H,0,2.438244,0.9
 35308,1.108799\C,0,-0.399601,-0.347622,-0.5796\C,0,-1.580497,-0.717716
 ,0.316068\H,0,-0.720756,-0.28115,-1.621359\C,0,-2.759703,0.249695,0.19

 Normal termination of Gaussian 16 at Tue Apr  8 23:03:28 2025.
