 Gaussian 16, Revision C.01,

 ----------------------------------------------------------------------
 #t hf aug-cc-pvdz symm=none int=(grid=ultrafine) guess=(read,tcheck) s
 table=(opt,rrhf)
 ----------------------------------------------------------------------
 -----
 title
 -----
 Symbolic Z-matrix:
 Charge =  0 Multiplicity = 1

 SCF Done:  E(RHF) =  -974.723842312     A.U. after   14 cycles
 Normal termination of Gaussian 16 at Wed Apr  9 00:15:40 2025.
 Gaussian 16:  ES64L-G16RevC.01  3-Jul-2019

 ----------------------------------------------------------------------
 #t hf aug-cc-pvdz iop(5/13=1,5/36=2,99/5=2) pseudo=read geom=check gue
 ss=(read,tcheck) scf=(maxcycle=1)
 ----------------------------------------------------------------------
 -----
 title
 -----
 Structure from the checkpoint file:  "BDE49_nonexpt_2547_mol1.chk"
 Charge =  0 Multiplicity = 1

                         Standard orientation:
 ---------------------------------------------------------------------
 Center     Atomic      Atomic             Coordinates (Angstroms)
 Number     Number       Type             X           Y           Z
 ---------------------------------------------------------------------
      1         17           0        1.840376   -0.715655    0.005171
      2         16           0        0.632044    0.943354   -0.360743
      3          6           0       -0.712423    0.666549    0.842632
      4          6           0       -1.626556   -0.531452    0.579001
      5          1           0       -0.268304    0.627437    1.838881
      6          6           0       -2.429706   -0.443077   -0.719656
      7          1           0       -2.310443   -0.606899    1.432887
      8          1           0       -1.025001   -1.445251    0.589093
      9          1           0       -3.073118    0.442625   -0.728323
     10          1           0       -3.070390   -1.320073   -0.838287
     11          1           0       -1.268009    1.610954    0.767547
     12          1           0       -1.771736   -0.388456   -1.589679
 ---------------------------------------------------------------------

 SCF Done:  E(RHF) =  -974.801808512     A.U. after    2 cycles

 The electronic state is 1-A.
 Alpha  occ. eigenvalues -- -103.67195 -93.58943 -11.28881 -11.24914 -11.23235
 Alpha  occ. eigenvalues --  -10.70350  -8.88286  -8.36079  -8.35747  -8.35716
 Alpha  occ. eigenvalues --   -6.22385  -6.22093  -6.21717  -1.16236  -1.07720
 Alpha  occ. eigenvalues --   -0.97876  -0.87794  -0.79423  -0.64514  -0.63477
 Alpha  occ. eigenvalues --   -0.59367  -0.54866  -0.52301  -0.52277  -0.49799
 Alpha  occ. eigenvalues --   -0.49373  -0.49192  -0.43760  -0.36092
 Alpha virt. eigenvalues --    0.03350   0.04337   0.04616   0.05807   0.05906
 Alpha virt. eigenvalues --    0.07083   0.07468   0.07979   0.09253   0.12492
 Alpha virt. eigenvalues --    0.13415   0.14128   0.14527   0.15226   0.15694

 Mulliken charges:
               1
     1  Cl  -0.349030
     2  S    0.441163
     3  C   -0.056719
     4  C    0.100086
     5  H   -0.071360
     6  C    0.284274
     7  H   -0.049646
     8  H   -0.094238
     9  H   -0.065400
    10  H   -0.073310
    11  H   -0.002265
    12  H   -0.063557
 Sum of Mulliken charges =  -0.00000

 Dipole moment (field-independent basis, Debye):
    X=             -2.4772    Y=              0.5808    Z=              0.9801  Tot=              2.7266

 Test job not archived.
 1\1\GINC-SE329\SP\RHF\Aug-CC-pVDZ\C3H7Cl1S1\OHZDE\09-Apr-2025\0\\#t hf
  aug-cc-pvdz iop(5/13=1,5/36=2,99/5=2) pseudo=read geom=check guess=(r
 ead,tcheck) scf=(maxcycle=1)\\title\\0,1\Cl,0,1.840376,-0.715655,0.005
 171\S,0,0.632044,0.943354,-0.360743\C,0,-0.712423,0.666549,0.842632\C,
 0,-1.626556,-0.531452,0.579001\H,0,-0.268304,0.627437,1.838881\C,0,-2.
 429706,-0.443077,-0.719656\H,0,-2.310443,-0.606899,1.432887\H,0,-1.025
 001,-1.445251,0.589093\H,0,-3.073118,0.442625,-0.728323\H,0,-3.07039,-
 1.320073,-0.838287\H,0,-1.268009,1.610954,0.767547\H,0,-1.771736,-0.38

 Normal termination of Gaussian 16 at Wed Apr  9 00:15:43 2025.
