 Gaussian 16, Revision C.01,

 ----------------------------------------------------------------------
 #t hf aug-cc-pvdz symm=none int=(grid=ultrafine) guess=(read,tcheck) s
 table=opt
 ----------------------------------------------------------------------
 -----
 title
 -----
 Symbolic Z-matrix:
 Charge =  0 Multiplicity = 2

 SCF Done:  E(UHF) =  -769.544069017     A.U. after   16 cycles
 Normal termination of Gaussian 16 at Wed Apr  9 00:06:43 2025.
 Gaussian 16:  ES64L-G16RevC.01  3-Jul-2019

 ----------------------------------------------------------------------
 #t hf aug-cc-pvdz iop(5/13=1,5/36=2,99/5=2) pseudo=read geom=check gue
 ss=(read,tcheck) scf=(maxcycle=1)
 ----------------------------------------------------------------------
 -----
 title
 -----
 Structure from the checkpoint file:  "BDE49_nonexpt_2276_mol2.chk"
 Charge =  0 Multiplicity = 2

                         Standard orientation:
 ---------------------------------------------------------------------
 Center     Atomic      Atomic             Coordinates (Angstroms)
 Number     Number       Type             X           Y           Z
 ---------------------------------------------------------------------
      1         14           0       -1.216901   -0.427676   -0.528503
      2          6           0        0.450635    0.458865   -0.590164
      3         14           0        1.912626   -0.493840    0.182851
      4          8           0        0.284794    1.752502    0.039662
      5          1           0        0.691472    0.655864   -1.640386
      6          1           0       -0.149785    1.594956    0.887347
      7          8           0       -1.642468   -0.215325    1.063214
      8          1           0       -2.554811   -0.329633    1.335701
      9          1           0        2.013881   -1.869953   -0.379144
     10          1           0        1.745773   -0.568249    1.658831
     11          1           0       -1.118511   -1.861487   -0.891016
     12          1           0       -2.210586    0.229120   -1.414232
 ---------------------------------------------------------------------

 SCF Done:  E(UHF) =  -769.655923991     A.U. after    2 cycles

 The electronic state is 2-A.
 Alpha  occ. eigenvalues --  -69.10005 -69.07116 -20.58405 -20.57874 -11.27526
 Alpha  occ. eigenvalues --   -6.84859  -6.82491  -3.95772  -3.95651  -3.95586
 Alpha  occ. eigenvalues --   -3.93799  -3.92934  -3.92923  -1.32197  -1.30843
 Alpha  occ. eigenvalues --   -0.91890  -0.77449  -0.71254  -0.67046  -0.64606
 Alpha  occ. eigenvalues --   -0.60931  -0.58529  -0.57236  -0.54598  -0.48853
 Alpha  occ. eigenvalues --   -0.48117  -0.45903  -0.41254  -0.31675
 Alpha virt. eigenvalues --    0.02859   0.04052   0.04624   0.05607   0.06379
 Alpha virt. eigenvalues --    0.07006   0.07226   0.07942   0.08028   0.09572
 Alpha virt. eigenvalues --    0.09782   0.10520   0.11250   0.13326   0.14299

  Beta  occ. eigenvalues --  -69.09981 -69.06551 -20.58404 -20.57896 -11.27491
  Beta  occ. eigenvalues --   -6.84817  -6.81636  -3.95746  -3.95578  -3.95575
  Beta  occ. eigenvalues --   -3.92543  -3.92532  -3.91657  -1.32201  -1.30849
  Beta  occ. eigenvalues --   -0.91428  -0.77345  -0.69182  -0.66520  -0.63607
  Beta  occ. eigenvalues --   -0.60833  -0.57903  -0.56939  -0.54543  -0.48306
  Beta  occ. eigenvalues --   -0.47376  -0.45641  -0.40041
  Beta virt. eigenvalues --    0.02839   0.03274   0.04476   0.05071   0.05817
  Beta virt. eigenvalues --    0.06502   0.07139   0.07716   0.08020   0.08892
  Beta virt. eigenvalues --    0.09863   0.10155   0.10854   0.11326   0.13423

 Mulliken charges and spin densities:
               1          2
     1  Si   0.848637   0.005943
     2  C    0.414958  -0.038573
     3  Si   0.080898   1.005896
     4  O   -0.624765   0.000522
     5  H   -0.312463   0.004058
     6  H    0.157790  -0.001128
     7  O   -0.814170  -0.003592
     8  H    0.120789  -0.000637
     9  H    0.072557   0.013731
    10  H    0.017553   0.007122
    11  H    0.027706  -0.001929
    12  H    0.010512   0.008587
 Sum of Mulliken charges =  -0.00000   1.00000

 Dipole moment (field-independent basis, Debye):
    X=             -1.9898    Y=             -1.5124    Z=             -0.1252  Tot=              2.5025
                          Isotropic Fermi Contact Couplings
        Atom                 a.u.       MegaHertz       Gauss      10(-4) cm-1
     1  Si(29)             0.03808     -33.84505     -12.07675     -11.28949
     2  C(13)             -0.00037      -0.41300      -0.14737      -0.13776
     3  Si(29)             0.55366    -492.05731    -175.57829    -164.13265
     4  O(17)             -0.00243       1.47366       0.52584       0.49156
     5  H(1)               0.00223       9.95615       3.55260       3.32101
     6  H(1)               0.00005       0.22038       0.07864       0.07351
     7  O(17)             -0.00084       0.51147       0.18250       0.17061
     8  H(1)              -0.00007      -0.31029      -0.11072      -0.10350

 Normal termination of Gaussian 16 at Wed Apr  9 00:06:48 2025.
