 Gaussian 16, Revision C.01,

 ----------------------------------------------------------------------
 #t hf aug-cc-pvdz symm=none int=(grid=ultrafine) guess=(read,tcheck) s
 table=opt
 ----------------------------------------------------------------------
 -----
 title
 -----
 Symbolic Z-matrix:
 Charge =  0 Multiplicity = 2

 SCF Done:  E(UHF) =  -1247.50923576     A.U. after   16 cycles
 Normal termination of Gaussian 16 at Tue Apr  8 23:55:23 2025.
 Gaussian 16:  ES64L-G16RevC.01  3-Jul-2019

 ----------------------------------------------------------------------
 #t hf aug-cc-pvdz iop(5/13=1,5/36=2,99/5=2) pseudo=read geom=check gue
 ss=(read,tcheck) scf=(maxcycle=1)
 ----------------------------------------------------------------------
 -----
 title
 -----
 Structure from the checkpoint file:  "BDE49_nonexpt_2025_mol2.chk"
 Charge =  0 Multiplicity = 2

                         Standard orientation:
 ---------------------------------------------------------------------
 Center     Atomic      Atomic             Coordinates (Angstroms)
 Number     Number       Type             X           Y           Z
 ---------------------------------------------------------------------
      1         14           0        1.534921   -0.942654   -0.033455
      2          6           0       -0.034212   -0.003574    0.507581
      3         17           0       -1.510871   -0.858311   -0.078977
      4         17           0        0.015351    1.704643   -0.107389
      5          1           0       -0.140591    0.078684    1.585438
      6          1           0        1.561802   -1.010291   -1.511496
      7          1           0        2.718999   -0.237451    0.517164
 ---------------------------------------------------------------------

 SCF Done:  E(UHF) =  -1247.57789831     A.U. after    2 cycles

 The electronic state is 2-A.
 Alpha  occ. eigenvalues -- -103.67702-103.67585 -69.10266 -11.36998 -10.70961
 Alpha  occ. eigenvalues --  -10.70836  -8.36673  -8.36615  -8.36373  -8.36358
 Alpha  occ. eigenvalues --   -8.36248  -8.36218  -6.85579  -3.96912  -3.96035
 Alpha  occ. eigenvalues --   -3.95986  -1.21064  -1.14137  -0.90484  -0.72777
 Alpha  occ. eigenvalues --   -0.63888  -0.59708  -0.56836  -0.51018  -0.48996
 Alpha  occ. eigenvalues --   -0.47909  -0.46256  -0.44088  -0.35067
 Alpha virt. eigenvalues --    0.03337   0.04446   0.06044   0.06667   0.07240
 Alpha virt. eigenvalues --    0.07864   0.08986   0.09804   0.12719   0.13512
 Alpha virt. eigenvalues --    0.14884   0.15577   0.15817   0.16733   0.17555

  Beta  occ. eigenvalues -- -103.67703-103.67519 -69.09685 -11.36977 -10.70962
  Beta  occ. eigenvalues --  -10.70763  -8.36683  -8.36425  -8.36365  -8.36359
  Beta  occ. eigenvalues --   -8.36179  -8.36142  -6.84699  -3.95636  -3.95589
  Beta  occ. eigenvalues --   -3.94706  -1.20849  -1.13853  -0.89940  -0.69756
  Beta  occ. eigenvalues --   -0.63191  -0.59196  -0.55964  -0.50071  -0.48590
  Beta  occ. eigenvalues --   -0.47718  -0.46090  -0.43422
  Beta virt. eigenvalues --    0.01663   0.03866   0.04643   0.06166   0.07532
  Beta virt. eigenvalues --    0.07956   0.08356   0.09336   0.10083   0.13189
  Beta virt. eigenvalues --    0.14157   0.15539   0.16158   0.16314   0.16966

 Mulliken charges and spin densities:
               1          2
     1  Si   0.612077   0.941150
     2  C   -0.454656  -0.018122
     3  Cl  -0.088310  -0.006987
     4  Cl  -0.101820   0.028277
     5  H    0.101270   0.000770
     6  H   -0.043035   0.020727
     7  H   -0.025528   0.034185
 Sum of Mulliken charges =   0.00000   1.00000

 Dipole moment (field-independent basis, Debye):
    X=              1.4898    Y=             -0.9505    Z=              1.1095  Tot=              2.0867
                          Isotropic Fermi Contact Couplings
        Atom                 a.u.       MegaHertz       Gauss      10(-4) cm-1
     1  Si(29)             0.57552    -511.48214    -182.50955    -170.61208
     2  C(13)              0.02100      23.60713       8.42361       7.87449
     3  Cl(35)             0.00046       0.20336       0.07256       0.06783
     4  Cl(35)             0.03763      16.49952       5.88744       5.50365
     5  H(1)              -0.00002      -0.10924      -0.03898      -0.03644
     6  H(1)               0.00503      22.48405       8.02287       7.49987
     7  H(1)               0.00682      30.50342      10.88438      10.17485
 --------------------------------------------------------

 Normal termination of Gaussian 16 at Tue Apr  8 23:55:26 2025.
