 Gaussian 16, Revision C.01,

 ----------------------------------------------------------------------
 #t hf aug-cc-pvdz symm=none int=(grid=ultrafine) guess=(read,tcheck) s
 table=(opt,rrhf)
 ----------------------------------------------------------------------
 -----
 title
 -----
 Symbolic Z-matrix:
 Charge =  0 Multiplicity = 1

 SCF Done:  E(RHF) =  -1168.59352890     A.U. after   16 cycles
 Normal termination of Gaussian 16 at Tue Apr  8 23:09:04 2025.
 Gaussian 16:  ES64L-G16RevC.01  3-Jul-2019

 ----------------------------------------------------------------------
 #t hf aug-cc-pvdz iop(5/13=1,5/36=2,99/5=2) pseudo=read geom=check gue
 ss=(read,tcheck) scf=(maxcycle=1)
 ----------------------------------------------------------------------
 -----
 title
 -----
 Structure from the checkpoint file:  "BDE49_expt_473_mol1.chk"
 Charge =  0 Multiplicity = 1

                         Standard orientation:
 ---------------------------------------------------------------------
 Center     Atomic      Atomic             Coordinates (Angstroms)
 Number     Number       Type             X           Y           Z
 ---------------------------------------------------------------------
      1          6           0       -2.331510    1.795377   -0.407094
      2          6           0       -3.205925    0.716330   -0.438945
      3          6           0       -2.785925   -0.573067   -0.064861
      4          6           0       -1.006752    1.633007   -0.008683
      5          6           0       -0.598456    0.351011    0.354052
      6          6           0       -1.453005   -0.746736    0.335737
      7          1           0       -2.689293    2.777886   -0.691881
      8          1           0       -4.232907    0.866335   -0.755657
      9          7           0       -3.649833   -1.654168   -0.140980
     10          1           0       -4.635772   -1.445149   -0.109821
     11          1           0       -3.399997   -2.468190    0.399337
     12         16           0        1.083243    0.099519    0.879126
     13          1           0       -0.317755    2.464364    0.038480
     14          6           0        1.955724   -0.270692   -0.745723
     15          1           0       -1.087642   -1.718068    0.645169
     16          8           0        1.174053   -1.121877    1.643682
     17          8           0        1.641015    1.349727    1.334443
     18          9           0        3.245375   -0.487603   -0.494820
     19          9           0        1.837659    0.762089   -1.584222
     20          9           0        1.429727   -1.357205   -1.318367
 ---------------------------------------------------------------------

 SCF Done:  E(RHF) =  -1168.91923422     A.U. after    2 cycles

 The electronic state is 1-A.
 Alpha  occ. eigenvalues --  -93.81437 -26.19467 -26.19450 -26.19258 -20.58571
 Alpha  occ. eigenvalues --  -20.58530 -15.65725 -11.56211 -11.32552 -11.30679
 Alpha  occ. eigenvalues --  -11.28012 -11.27926 -11.27599 -11.27564  -9.08101
 Alpha  occ. eigenvalues --   -6.42748  -6.42522  -6.42472  -1.79080  -1.72075
 Alpha  occ. eigenvalues --   -1.72003  -1.44788  -1.33553  -1.23067  -1.16065
 Alpha  occ. eigenvalues --   -1.07775  -1.05416  -1.02255  -0.95398  -0.90997
 Alpha  occ. eigenvalues --   -0.90847  -0.88874  -0.86316  -0.81434  -0.79772
 Alpha  occ. eigenvalues --   -0.79686  -0.75934  -0.75660  -0.74763  -0.74304
 Alpha  occ. eigenvalues --   -0.72682  -0.70270  -0.69565  -0.67624  -0.67568
 Alpha  occ. eigenvalues --   -0.63718  -0.63202  -0.57401  -0.56517  -0.55135
 Alpha  occ. eigenvalues --   -0.54921  -0.53398  -0.52251  -0.48693  -0.48057
 Alpha  occ. eigenvalues --   -0.38694  -0.32798
 Alpha virt. eigenvalues --    0.02140   0.03110   0.04140   0.05232   0.05830
 Alpha virt. eigenvalues --    0.06329   0.08051   0.08551   0.08907   0.09750
 Alpha virt. eigenvalues --    0.10480   0.11262   0.11829   0.12308   0.12739

 Mulliken charges:
               1
     1  C    0.488054
     2  C    0.917981
     3  C    0.299716
     4  C    0.215794
     5  C   -0.232270
     6  C    0.480390
     7  H   -0.439799
     8  H   -0.557182
     9  N   -0.280442
    10  H   -0.039975
    11  H   -0.029331
    12  S    2.995760
    13  H   -0.548385
    14  C    0.659803
    15  H   -0.606421
    16  O   -1.184029
    17  O   -1.177235
    18  F   -0.307785
    19  F   -0.326760
    20  F   -0.327885
 Sum of Mulliken charges =  -0.00000

 Dipole moment (field-independent basis, Debye):
    X=             -6.5186    Y=             -0.2017    Z=             -1.6544  Tot=              6.7282

 Test job not archived.
 1\1\GINC-SE343\SP\RHF\Aug-CC-pVDZ\C7H6F3N1O2S1\OHZDE\08-Apr-2025\0\\#t
  hf aug-cc-pvdz iop(5/13=1,5/36=2,99/5=2) pseudo=read geom=check guess
 =(read,tcheck) scf=(maxcycle=1)\\title\\0,1\C,0,-2.33151,1.795377,-0.4
 07094\C,0,-3.205925,0.71633,-0.438945\C,0,-2.785925,-0.573067,-0.06486
 1\C,0,-1.006752,1.633007,-0.008683\C,0,-0.598456,0.351011,0.354052\C,0
 ,-1.453005,-0.746736,0.335737\H,0,-2.689293,2.777886,-0.691881\H,0,-4.
 232907,0.866335,-0.755657\N,0,-3.649833,-1.654168,-0.14098\H,0,-4.6357
 72,-1.445149,-0.109821\H,0,-3.399997,-2.46819,0.399337\S,0,1.083243,0.

 Normal termination of Gaussian 16 at Tue Apr  8 23:09:20 2025.
