 Gaussian 16, Revision C.01,

 ----------------------------------------------------------------------
 #t hf aug-cc-pvdz symm=none int=(grid=ultrafine) guess=(read,tcheck) s
 table=opt
 ----------------------------------------------------------------------
 -----
 title
 -----
 Symbolic Z-matrix:
 Charge =  0 Multiplicity = 2

 SCF Done:  E(UHF) =  -494.835390292     A.U. after   17 cycles
 Normal termination of Gaussian 16 at Tue Apr  8 23:14:54 2025.
 Gaussian 16:  ES64L-G16RevC.01  3-Jul-2019

 ----------------------------------------------------------------------
 #t hf aug-cc-pvdz iop(5/13=1,5/36=2,99/5=2) pseudo=read geom=check gue
 ss=(read,tcheck) scf=(maxcycle=1)
 ----------------------------------------------------------------------
 -----
 title
 -----
 Structure from the checkpoint file:  "BDE49_nonexpt_1029_mol2.chk"
 Charge =  0 Multiplicity = 2

                         Standard orientation:
 ---------------------------------------------------------------------
 Center     Atomic      Atomic             Coordinates (Angstroms)
 Number     Number       Type             X           Y           Z
 ---------------------------------------------------------------------
      1          8           0        0.903853    1.321160    0.000000
      2         15           0       -0.219438    0.328240   -0.000000
      3          6           0       -0.219438   -0.787824    1.458825
      4          6           0       -0.219438   -0.787824   -1.458825
      5          1           0       -0.257059   -0.183306    2.365945
      6          1           0        0.694389   -1.389739    1.470799
      7          1           0       -1.090331   -1.446451    1.428115
      8          1           0       -0.257059   -0.183306   -2.365945
      9          1           0       -1.090331   -1.446451   -1.428115
     10          1           0        0.694389   -1.389739   -1.470799
 ---------------------------------------------------------------------

 SCF Done:  E(UHF) =  -494.928213563     A.U. after    2 cycles

 The electronic state is 2-A'.
 Alpha  occ. eigenvalues --  -81.33007 -20.54305 -11.25817 -11.25815  -7.82725
 Alpha  occ. eigenvalues --   -4.97315  -4.96743  -4.96527  -1.27108  -1.00669
 Alpha  occ. eigenvalues --   -0.96483  -0.72254  -0.62357  -0.61493  -0.60090
 Alpha  occ. eigenvalues --   -0.58430  -0.57247  -0.54155  -0.53656  -0.45352
 Alpha  occ. eigenvalues --   -0.35500
 Alpha virt. eigenvalues --    0.03028   0.04434   0.05096   0.05861   0.07240
 Alpha virt. eigenvalues --    0.07360   0.08395   0.11162   0.12213   0.12372
 Alpha virt. eigenvalues --    0.15008   0.15568   0.16072   0.16606   0.16800

  Beta  occ. eigenvalues --  -81.32574 -20.52548 -11.25617 -11.25614  -7.82125
  Beta  occ. eigenvalues --   -4.96675  -4.96309  -4.95395  -1.22184  -0.99258
  Beta  occ. eigenvalues --   -0.95838  -0.68213  -0.60924  -0.60425  -0.59551
  Beta  occ. eigenvalues --   -0.57855  -0.53195  -0.53046  -0.43290  -0.43133
  Beta virt. eigenvalues --    0.02025   0.04473   0.05054   0.05493   0.06069
  Beta virt. eigenvalues --    0.07244   0.07373   0.09070   0.11662   0.12371
  Beta virt. eigenvalues --    0.12688   0.15068   0.15674   0.16691   0.16797

 Mulliken charges and spin densities:
               1          2
     1  O   -0.940767   0.334209
     2  P    1.594078   0.573250
     3  C    0.054145   0.049831
     4  C    0.054145   0.049831
     5  H   -0.158318  -0.010118
     6  H   -0.102787   0.016615
     7  H   -0.119696  -0.010059
     8  H   -0.158318  -0.010118
     9  H   -0.119696  -0.010059
    10  H   -0.102787   0.016615
 Sum of Mulliken charges =   0.00000   1.00000

 Dipole moment (field-independent basis, Debye):
    X=             -2.5267    Y=             -3.7977    Z=              0.0000  Tot=              4.5614
                          Isotropic Fermi Contact Couplings
        Atom                 a.u.       MegaHertz       Gauss      10(-4) cm-1
     1  O(17)              0.14605     -88.53278     -31.59070     -29.53136
     2  P(31)              0.52795     956.16156     341.18222     318.94116
     3  C(13)              0.04146      46.60579      16.63010      15.54602
     4  C(13)              0.04146      46.60579      16.63010      15.54602
     5  H(1)              -0.00097      -4.34988      -1.55215      -1.45096
     6  H(1)               0.00809      36.16793      12.90562      12.06432
     7  H(1)              -0.00149      -6.66833      -2.37943      -2.22432
     8  H(1)              -0.00097      -4.34988      -1.55215      -1.45096

 Normal termination of Gaussian 16 at Tue Apr  8 23:14:56 2025.
