 Gaussian 16, Revision C.01,

 ----------------------------------------------------------------------
 #t hf aug-cc-pvdz symm=none int=(grid=ultrafine) guess=(read,tcheck) s
 table=opt
 ----------------------------------------------------------------------
 -----
 title
 -----
 Symbolic Z-matrix:
 Charge =  0 Multiplicity = 2

 SCF Done:  E(UHF) =  -626.275758508     A.U. after   14 cycles
 Normal termination of Gaussian 16 at Tue Apr  8 23:54:22 2025.
 Gaussian 16:  ES64L-G16RevC.01  3-Jul-2019

 ----------------------------------------------------------------------
 #t hf aug-cc-pvdz iop(5/13=1,5/36=2,99/5=2) pseudo=read geom=check gue
 ss=(read,tcheck) scf=(maxcycle=1)
 ----------------------------------------------------------------------
 -----
 title
 -----
 Structure from the checkpoint file:  "BDE49_nonexpt_1978_mol2.chk"
 Charge =  0 Multiplicity = 2

                         Standard orientation:
 ---------------------------------------------------------------------
 Center     Atomic      Atomic             Coordinates (Angstroms)
 Number     Number       Type             X           Y           Z
 ---------------------------------------------------------------------
      1         14           0        1.561348   -0.033798   -0.000000
      2          6           0       -0.370251   -0.027300    0.000000
      3          9           0       -0.877113    1.232861    0.000000
      4          9           0       -0.877113   -0.652815    1.090371
      5          9           0       -0.877113   -0.652815   -1.090371
      6          1           0        2.022348    0.645945    1.231446
      7          1           0        2.022348    0.645945   -1.231446
 ---------------------------------------------------------------------

 SCF Done:  E(UHF) =  -626.418291129     A.U. after    2 cycles

 The electronic state is 2-A'.
 Alpha  occ. eigenvalues --  -69.11466 -26.16279 -26.16271 -26.16220 -11.50862
 Alpha  occ. eigenvalues --   -6.86868  -3.98207  -3.97324  -3.97267  -1.75311
 Alpha  occ. eigenvalues --   -1.68479  -1.68473  -1.02213  -0.87260  -0.86945
 Alpha  occ. eigenvalues --   -0.86939  -0.76901  -0.76779  -0.72514  -0.72469
 Alpha  occ. eigenvalues --   -0.71590  -0.71382  -0.52823  -0.52485  -0.37334
 Alpha virt. eigenvalues --    0.03573   0.05135   0.05574   0.06231   0.08288
 Alpha virt. eigenvalues --    0.09445   0.11575   0.11991   0.13727   0.14625
 Alpha virt. eigenvalues --    0.16226   0.17058   0.20814   0.21687   0.21962

  Beta  occ. eigenvalues --  -69.10861 -26.16295 -26.16286 -26.16084 -11.50827
  Beta  occ. eigenvalues --   -6.85950  -3.96903  -3.96846  -3.95940  -1.75218
  Beta  occ. eigenvalues --   -1.68527  -1.68208  -1.01985  -0.86930  -0.86782
  Beta  occ. eigenvalues --   -0.86485  -0.76828  -0.76482  -0.72500  -0.72365
  Beta  occ. eigenvalues --   -0.71301  -0.67763  -0.51995  -0.51484
  Beta virt. eigenvalues --    0.00783   0.03972   0.05388   0.05708   0.07880
  Beta virt. eigenvalues --    0.08626   0.09956   0.11991   0.12080   0.14881
  Beta virt. eigenvalues --    0.16268   0.18930   0.19000   0.21910   0.23138

 Mulliken charges and spin densities:
               1          2
     1  Si   0.513749   0.960835
     2  C    0.657182   0.000294
     3  F   -0.374494  -0.000678
     4  F   -0.331541  -0.004123
     5  F   -0.331541  -0.004123
     6  H   -0.066677   0.023897
     7  H   -0.066677   0.023897
 Sum of Mulliken charges =  -0.00000   1.00000

 Dipole moment (field-independent basis, Debye):
    X=              2.8820    Y=             -0.0413    Z=             -0.0000  Tot=              2.8823
                          Isotropic Fermi Contact Couplings
        Atom                 a.u.       MegaHertz       Gauss      10(-4) cm-1
     1  Si(29)             0.60998    -542.10876    -193.43789    -180.82802
     2  C(13)              0.01096      12.32245       4.39695       4.11033
     3  F(19)              0.02820     118.65866      42.34036      39.58027
     4  F(19)             -0.00378     -15.89700      -5.67244      -5.30267
     5  F(19)             -0.00378     -15.89700      -5.67244      -5.30267
     6  H(1)               0.00424      18.94849       6.76129       6.32053
     7  H(1)               0.00424      18.94849       6.76129       6.32053
 --------------------------------------------------------

 Normal termination of Gaussian 16 at Tue Apr  8 23:54:24 2025.
