 Gaussian 16, Revision C.01,

 ----------------------------------------------------------------------
 #t hf aug-cc-pvdz symm=none int=(grid=ultrafine) guess=(read,tcheck) s
 table=(opt,rrhf)
 ----------------------------------------------------------------------
 -----
 title
 -----
 Symbolic Z-matrix:
 Charge =  0 Multiplicity = 1

 SCF Done:  E(RHF) =  -840.545210821     A.U. after   13 cycles
 Normal termination of Gaussian 16 at Tue Apr  8 23:56:59 2025.
 Gaussian 16:  ES64L-G16RevC.01  3-Jul-2019

 ----------------------------------------------------------------------
 #t hf aug-cc-pvdz iop(5/13=1,5/36=2,99/5=2) pseudo=read geom=check gue
 ss=(read,tcheck) scf=(maxcycle=1)
 ----------------------------------------------------------------------
 -----
 title
 -----
 Structure from the checkpoint file:  "BDE49_nonexpt_2057_mol1.chk"
 Charge =  0 Multiplicity = 1

                         Standard orientation:
 ---------------------------------------------------------------------
 Center     Atomic      Atomic             Coordinates (Angstroms)
 Number     Number       Type             X           Y           Z
 ---------------------------------------------------------------------
      1         14           0        1.916578   -0.369456    0.000009
      2          6           0        0.050435    0.025757   -0.000041
      3         16           0       -0.564760    1.546622   -0.000005
      4          8           0       -0.660127   -1.105805   -0.000017
      5          6           0       -2.102015   -1.048481    0.000022
      6          1           0       -2.424142   -2.087035    0.000036
      7          1           0       -2.457248   -0.526525   -0.889609
      8          1           0       -2.457200   -0.526515    0.889667
      9          1           0        2.678606    0.890698   -0.000301
     10          1           0        2.227264   -1.170994   -1.205400
     11          1           0        2.227291   -1.170408    1.205801
 ---------------------------------------------------------------------

 SCF Done:  E(RHF) =  -840.635733227     A.U. after    2 cycles

 The electronic state is 1-A.
 Alpha  occ. eigenvalues --  -93.51156 -69.08426 -20.64253 -11.37324 -11.30901
 Alpha  occ. eigenvalues --   -8.81104  -6.83746  -6.15267  -6.14872  -6.14701
 Alpha  occ. eigenvalues --   -3.94552  -3.94493  -3.94493  -1.40795  -1.03790
 Alpha  occ. eigenvalues --   -0.97081  -0.79323  -0.74511  -0.68419  -0.66592
 Alpha  occ. eigenvalues --   -0.60995  -0.55623  -0.54118  -0.49718  -0.49346
 Alpha  occ. eigenvalues --   -0.47420  -0.37920  -0.34204
 Alpha virt. eigenvalues --    0.03261   0.04309   0.05307   0.05408   0.06081
 Alpha virt. eigenvalues --    0.06391   0.06898   0.07235   0.09064   0.09262
 Alpha virt. eigenvalues --    0.10112   0.11649   0.14195   0.14281   0.15590

 Mulliken charges:
               1
     1  Si   0.341886
     2  C   -0.231050
     3  S    0.006310
     4  O   -0.462573
     5  C    0.811549
     6  H   -0.245640
     7  H   -0.071162
     8  H   -0.071162
     9  H   -0.017241
    10  H   -0.030423
    11  H   -0.030493
 Sum of Mulliken charges =  -0.00000

 Dipole moment (field-independent basis, Debye):
    X=             -0.5930    Y=             -1.9306    Z=              0.0000  Tot=              2.0196

 Test job not archived.
 1\1\GINC-SE097\SP\RHF\Aug-CC-pVDZ\C2H6O1S1Si1\OHZDE\08-Apr-2025\0\\#t
 hf aug-cc-pvdz iop(5/13=1,5/36=2,99/5=2) pseudo=read geom=check guess=
 (read,tcheck) scf=(maxcycle=1)\\title\\0,1\Si,0,1.916578,-0.369456,0.0
 00009\C,0,0.050435,0.025757,-0.000041\S,0,-0.56476,1.546622,-0.000005\
 O,0,-0.660127,-1.105805,-0.000017\C,0,-2.102015,-1.048481,0.000022\H,0
 ,-2.424141,-2.087035,0.000036\H,0,-2.457248,-0.526525,-0.889609\H,0,-2
 .4572,-0.526515,0.889667\H,0,2.678606,0.890699,-0.000301\H,0,2.227264,
 -1.170993,-1.2054\H,0,2.227291,-1.170407,1.205801\\Version=ES64L-G16Re

 Normal termination of Gaussian 16 at Tue Apr  8 23:57:02 2025.
