 Gaussian 16, Revision C.01,

 ----------------------------------------------------------------------
 #t hf aug-cc-pvdz symm=none int=(grid=ultrafine) guess=(read,tcheck) s
 table=opt
 ----------------------------------------------------------------------
 -----
 title
 -----
 Symbolic Z-matrix:
 Charge =  0 Multiplicity = 2

 SCF Done:  E(UHF) =  -2373.18729304     A.U. after   18 cycles
 Normal termination of Gaussian 16 at Tue Apr  8 22:39:00 2025.
 Gaussian 16:  ES64L-G16RevC.01  3-Jul-2019

 ----------------------------------------------------------------------
 #t hf aug-cc-pvdz iop(5/13=1,5/36=2,99/5=2) pseudo=read geom=check gue
 ss=(read,tcheck) scf=(maxcycle=1)
 ----------------------------------------------------------------------
 -----
 title
 -----
 Structure from the checkpoint file:  "BDE49_expt_131_mol2.chk"
 Charge =  0 Multiplicity = 2

                         Standard orientation:
 ---------------------------------------------------------------------
 Center     Atomic      Atomic             Coordinates (Angstroms)
 Number     Number       Type             X           Y           Z
 ---------------------------------------------------------------------
      1          6           0       -0.095519   -0.585477    0.000000
      2          6           0        0.446181    0.811463   -0.000000
      3         17           0        0.451010   -1.478350    1.454684
      4         17           0        0.451010   -1.478350   -1.454684
      5         17           0       -1.927803   -0.550649    0.000000
      6         17           0        0.451010    1.713795    1.455270
      7         17           0        0.451010    1.713795   -1.455270
 ---------------------------------------------------------------------

 SCF Done:  E(UHF) =  -2373.30222632     A.U. after    2 cycles

 The electronic state is 2-A'.
 Alpha  occ. eigenvalues -- -103.71037-103.71036-103.70294-103.70293-103.69730
 Alpha  occ. eigenvalues --  -11.47771 -11.41418 -10.74347 -10.74332 -10.73593
 Alpha  occ. eigenvalues --  -10.73576 -10.72973  -8.39980  -8.39976  -8.39843
 Alpha  occ. eigenvalues --   -8.39841  -8.39721  -8.39721  -8.39332  -8.39323
 Alpha  occ. eigenvalues --   -8.38955  -8.38954  -8.38948  -8.38945  -8.38872
 Alpha  occ. eigenvalues --   -8.38331  -8.38315  -1.30451  -1.24631  -1.19160
 Alpha  occ. eigenvalues --   -1.16708  -1.16548  -0.99720  -0.80828  -0.69897
 Alpha  occ. eigenvalues --   -0.68921  -0.68713  -0.61296  -0.60424  -0.53425
 Alpha  occ. eigenvalues --   -0.53187  -0.51864  -0.51845  -0.50535  -0.50516
 Alpha  occ. eigenvalues --   -0.48360  -0.47572  -0.46904  -0.39855
 Alpha virt. eigenvalues --    0.05384   0.06438   0.07005   0.08294   0.09371
 Alpha virt. eigenvalues --    0.09515   0.10400   0.11724   0.11917   0.14053
 Alpha virt. eigenvalues --    0.14464   0.14920   0.16868   0.17302   0.17702

  Beta  occ. eigenvalues -- -103.71007-103.71006-103.70277-103.70277-103.69600
  Beta  occ. eigenvalues --  -11.48161 -11.38489 -10.74312 -10.74297 -10.73576
  Beta  occ. eigenvalues --  -10.73559 -10.72839  -8.40196  -8.40190  -8.39700
  Beta  occ. eigenvalues --   -8.39700  -8.39508  -8.39508  -8.39265  -8.39257
  Beta  occ. eigenvalues --   -8.38946  -8.38944  -8.38936  -8.38935  -8.38402
  Beta  occ. eigenvalues --   -8.38242  -8.38192  -1.28852  -1.23648  -1.18844
  Beta  occ. eigenvalues --   -1.16380  -1.15868  -0.96594  -0.77983  -0.68942
  Beta  occ. eigenvalues --   -0.67964  -0.64862  -0.60864  -0.55831  -0.52927
  Beta  occ. eigenvalues --   -0.52783  -0.51480  -0.50642  -0.49637  -0.49529
  Beta  occ. eigenvalues --   -0.48198  -0.47447  -0.46838
  Beta virt. eigenvalues --    0.03060   0.05459   0.06899   0.07133   0.08833
  Beta virt. eigenvalues --    0.09513   0.09621   0.10759   0.12083   0.12993
  Beta virt. eigenvalues --    0.14479   0.14652   0.14981   0.17120   0.17298

 Mulliken charges and spin densities:
               1          2
     1  C   -0.573880  -0.211108
     2  C    0.338147   1.124321
     3  Cl   0.114045   0.007735
     4  Cl   0.114045   0.007735
     5  Cl   0.069860   0.082885
     6  Cl  -0.031109  -0.005784
     7  Cl  -0.031109  -0.005784
 Sum of Mulliken charges =  -0.00000   1.00000

 Dipole moment (field-independent basis, Debye):
    X=              0.4074    Y=              0.3389    Z=              0.0000  Tot=              0.5300
                          Isotropic Fermi Contact Couplings
        Atom                 a.u.       MegaHertz       Gauss      10(-4) cm-1
     1  C(13)             -0.06687     -75.17579     -26.82459     -25.07595
     2  C(13)              0.35016     393.65210     140.46486     131.30821
     3  Cl(35)             0.00275       1.20418       0.42968       0.40167
     4  Cl(35)             0.00275       1.20418       0.42968       0.40167
     5  Cl(35)             0.02905      12.73810       4.54527       4.24897
     6  Cl(35)             0.03950      17.31731       6.17925       5.77643
     7  Cl(35)             0.03950      17.31731       6.17925       5.77643
 --------------------------------------------------------

 Normal termination of Gaussian 16 at Tue Apr  8 22:39:04 2025.
