 Gaussian 16, Revision C.01,

 ----------------------------------------------------------------------
 #t hf aug-cc-pvdz symm=none int=(grid=ultrafine) guess=(read,tcheck) s
 table=(opt,rrhf)
 ----------------------------------------------------------------------
 -----
 title
 -----
 Symbolic Z-matrix:
 Charge =  0 Multiplicity = 1

 SCF Done:  E(RHF) =  -884.013405727     A.U. after   13 cycles
 Normal termination of Gaussian 16 at Wed Apr  9 00:14:41 2025.
 Gaussian 16:  ES64L-G16RevC.01  3-Jul-2019

 ----------------------------------------------------------------------
 #t hf aug-cc-pvdz iop(5/13=1,5/36=2,99/5=2) pseudo=read geom=check gue
 ss=(read,tcheck) scf=(maxcycle=1)
 ----------------------------------------------------------------------
 -----
 title
 -----
 Structure from the checkpoint file:  "BDE49_nonexpt_2491_mol1.chk"
 Charge =  0 Multiplicity = 1

                         Standard orientation:
 ---------------------------------------------------------------------
 Center     Atomic      Atomic             Coordinates (Angstroms)
 Number     Number       Type             X           Y           Z
 ---------------------------------------------------------------------
      1          6           0        2.029784    1.927666    0.003443
      2         14           0        2.364358    0.080117    0.007356
      3          1           0        2.948236    2.471581    0.247983
      4          1           0        1.272486    2.200576    0.742763
      5          1           0        1.685145    2.260753   -0.978555
      6         16           0        0.699149   -1.159631   -0.577963
      7          6           0       -0.427707   -1.031466    0.893515
      8          6           0       -1.496297    0.060041    0.799620
      9          1           0        0.189646   -0.902248    1.784458
     10          1           0       -0.895123   -2.016316    0.968314
     11          6           0       -2.527375   -0.154394   -0.313086
     12          1           0       -1.015790    1.036036    0.670620
     13          1           0       -2.015246    0.096826    1.767333
     14          6           0       -3.589028    0.947705   -0.362128
     15          1           0       -3.014217   -1.126500   -0.166533
     16          1           0       -2.010643   -0.210842   -1.276159
     17          1           0       -4.142804    1.010769    0.580010
     18          1           0       -4.312979    0.765612   -1.160676
     19          1           0       -3.134387    1.926438   -0.544495
     20          1           0        2.806889   -0.329126    1.363993
     21          1           0        3.415128   -0.248426   -0.982825
 ---------------------------------------------------------------------

 SCF Done:  E(RHF) =  -884.119438875     A.U. after    2 cycles

 The electronic state is 1-A.
 Alpha  occ. eigenvalues --  -93.51146 -69.08139 -11.27322 -11.23874 -11.22940
 Alpha  occ. eigenvalues --  -11.22484 -11.22364  -8.81053  -6.83146  -6.15188
 Alpha  occ. eigenvalues --   -6.14986  -6.14749  -3.93963  -3.93899  -3.93861
 Alpha  occ. eigenvalues --   -1.07843  -1.00710  -0.94843  -0.91572  -0.83782
 Alpha  occ. eigenvalues --   -0.78571  -0.66931  -0.64176  -0.60963  -0.59417
 Alpha  occ. eigenvalues --   -0.57200  -0.56488  -0.56001  -0.53156  -0.49403
 Alpha  occ. eigenvalues --   -0.49034  -0.47675  -0.47432  -0.46603  -0.44664
 Alpha  occ. eigenvalues --   -0.40271  -0.34628
 Alpha virt. eigenvalues --    0.03215   0.04080   0.04393   0.04614   0.05640
 Alpha virt. eigenvalues --    0.05926   0.06184   0.06661   0.07451   0.08051
 Alpha virt. eigenvalues --    0.08397   0.08774   0.08875   0.10177   0.10588

 Mulliken charges:
               1
     1  C    0.309091
     2  Si   0.687502
     3  H   -0.230548
     4  H   -0.235594
     5  H   -0.197343
     6  S   -0.185385
     7  C    0.389321
     8  C    0.130702
     9  H   -0.200233
    10  H   -0.071123
    11  C    0.025166
    12  H   -0.277641
    13  H   -0.096341
    14  C    0.417605
    15  H   -0.140360
    16  H   -0.130354
    17  H   -0.075562
    18  H   -0.069455
    19  H   -0.078178
    20  H    0.082740
    21  H   -0.054010
 Sum of Mulliken charges =  -0.00000

 Dipole moment (field-independent basis, Debye):
    X=             -0.6664    Y=              1.3236    Z=              1.3611  Tot=              2.0121

 Test job not archived.
 1\1\GINC-SE339\SP\RHF\Aug-CC-pVDZ\C5H14S1Si1\OHZDE\09-Apr-2025\0\\#t h
 f aug-cc-pvdz iop(5/13=1,5/36=2,99/5=2) pseudo=read geom=check guess=(
 read,tcheck) scf=(maxcycle=1)\\title\\0,1\C,0,2.029784,1.927666,0.0034
 43\Si,0,2.364358,0.080117,0.007356\H,0,2.948236,2.471581,0.247983\H,0,
 1.272486,2.200576,0.742763\H,0,1.685145,2.260753,-0.978555\S,0,0.69914
 9,-1.159631,-0.577963\C,0,-0.427707,-1.031466,0.893515\C,0,-1.496297,0
 .060041,0.79962\H,0,0.189646,-0.902248,1.784458\H,0,-0.895123,-2.01631
 6,0.968314\C,0,-2.527375,-0.154394,-0.313086\H,0,-1.01579,1.036036,0.6

 Normal termination of Gaussian 16 at Wed Apr  9 00:14:51 2025.
