 Gaussian 16, Revision C.01,

 ----------------------------------------------------------------------
 #t hf aug-cc-pvdz symm=none int=(grid=ultrafine) guess=(read,tcheck) s
 table=opt
 ----------------------------------------------------------------------
 -----
 title
 -----
 Symbolic Z-matrix:
 Charge =  0 Multiplicity = 2

 SCF Done:  E(UHF) =  -345.451133968     A.U. after   16 cycles

 1\1\GINC-SE340\Stability\UHF\Aug-CC-pVDZ\C5H11O2\OHZDE\08-Apr-2025\0\\
 #t hf aug-cc-pvdz symm=none int=(grid=ultrafine) guess=(read,tcheck) s
 table=opt\\title\\0,2\C,0,-0.168467,-0.756297,-0.477602\O,0,1.176255,-
 0.722864,-0.317301\O,0,-0.872172,-0.272909,0.602946\H,0,-0.500743,-1.7
 24959,-0.861014\C,0,1.742108,0.533851,0.09551\C,0,-2.292942,-0.283307,
 0.43761\C,0,3.250721,0.384887,0.077215\H,0,1.379193,0.78495,1.095499\H
 ,0,1.408542,1.31667,-0.596305\H,0,3.565504,-0.410728,0.756257\H,0,3.72
 5917,1.317313,0.393482\H,0,3.603023,0.138439,-0.926848\C,0,-2.791314,0

 Normal termination of Gaussian 16 at Tue Apr  8 22:55:32 2025.
 Gaussian 16:  ES64L-G16RevC.01  3-Jul-2019

 ----------------------------------------------------------------------
 #t hf aug-cc-pvdz iop(5/13=1,5/36=2,99/5=2) pseudo=read geom=check gue
 ss=(read,tcheck) scf=(maxcycle=1)
 ----------------------------------------------------------------------
 -----
 title
 -----
 Structure from the checkpoint file:  "BDE49_expt_189_mol2.chk"
 Charge =  0 Multiplicity = 2

                         Standard orientation:
 ---------------------------------------------------------------------
 Center     Atomic      Atomic             Coordinates (Angstroms)
 Number     Number       Type             X           Y           Z
 ---------------------------------------------------------------------
      1          6           0       -0.168467   -0.756297   -0.477602
      2          8           0        1.176255   -0.722864   -0.317301
      3          8           0       -0.872172   -0.272909    0.602946
      4          1           0       -0.500743   -1.724959   -0.861014
      5          6           0        1.742108    0.533851    0.095510
      6          6           0       -2.292942   -0.283307    0.437610
      7          6           0        3.250721    0.384887    0.077215
      8          1           0        1.379193    0.784950    1.095499
      9          1           0        1.408542    1.316670   -0.596305
     10          1           0        3.565504   -0.410728    0.756257
     11          1           0        3.725917    1.317313    0.393482
     12          1           0        3.603023    0.138439   -0.926848
     13          6           0       -2.791314    0.873783   -0.418045
     14          1           0       -2.696894   -0.221811    1.449653
     15          1           0       -2.603390   -1.246164    0.009902
     16          1           0       -2.489520    1.829031    0.018015
     17          1           0       -3.883155    0.853763   -0.483549
     18          1           0       -2.381789    0.812183   -1.428375
 ---------------------------------------------------------------------

 SCF Done:  E(UHF) =  -345.565567040     A.U. after    2 cycles

 The electronic state is 2-A.
 Alpha  occ. eigenvalues --  -20.58716 -20.58315 -11.33384 -11.29570 -11.28535
 Alpha  occ. eigenvalues --  -11.23113 -11.22454  -1.38982  -1.32361  -1.03508
 Alpha  occ. eigenvalues --   -1.01084  -0.90617  -0.85861  -0.80567  -0.71364
 Alpha  occ. eigenvalues --   -0.69995  -0.68325  -0.64234  -0.61659  -0.58410
 Alpha  occ. eigenvalues --   -0.56470  -0.54907  -0.53305  -0.52683  -0.50745
 Alpha  occ. eigenvalues --   -0.49734  -0.49058  -0.46055  -0.33174
 Alpha virt. eigenvalues --    0.03513   0.04293   0.04712   0.04927   0.05773
 Alpha virt. eigenvalues --    0.06093   0.06272   0.07339   0.08148   0.08704
 Alpha virt. eigenvalues --    0.08942   0.11563   0.13154   0.13639   0.14364

  Beta  occ. eigenvalues --  -20.58169 -20.57900 -11.30907 -11.29591 -11.28524
  Beta  occ. eigenvalues --  -11.23100 -11.22457  -1.37080  -1.31108  -1.02867
  Beta  occ. eigenvalues --   -1.00984  -0.88381  -0.85523  -0.78453  -0.70647
  Beta  occ. eigenvalues --   -0.68417  -0.65095  -0.62893  -0.60470  -0.57115
  Beta  occ. eigenvalues --   -0.55249  -0.54355  -0.52796  -0.52192  -0.50118
  Beta  occ. eigenvalues --   -0.48531  -0.47628  -0.44437
  Beta virt. eigenvalues --    0.03516   0.04278   0.04721   0.04921   0.05780
  Beta virt. eigenvalues --    0.06082   0.06272   0.07224   0.08159   0.08708
  Beta virt. eigenvalues --    0.08955   0.11141   0.13033   0.13508   0.14309

 Mulliken charges and spin densities:
               1          2
     1  C    0.689450   1.028634
     2  O   -0.589768   0.015819
     3  O   -0.555063   0.039288
     4  H   -0.356739  -0.049301
     5  C    0.713015  -0.009490
     6  C    0.695024  -0.014949
     7  C    0.160964   0.000049
     8  H   -0.206778   0.001035
     9  H   -0.157357  -0.008989
    10  H   -0.028361   0.001320
    11  H   -0.013299  -0.000619
    12  H   -0.026452  -0.000307
    13  C    0.238947   0.007359
    14  H   -0.297717   0.001500
    15  H   -0.091389   0.003732
    16  H   -0.041788  -0.000523
    17  H   -0.056287  -0.001488
    18  H   -0.076403  -0.013070
 Sum of Mulliken charges =  -0.00000   1.00000

 Dipole moment (field-independent basis, Debye):
    X=             -1.3887    Y=              0.8411    Z=             -0.1825  Tot=              1.6338
                          Isotropic Fermi Contact Couplings
        Atom                 a.u.       MegaHertz       Gauss      10(-4) cm-1
     1  C(13)              0.35171     395.39441     141.08656     131.88938
     2  O(17)              0.03330     -20.18763      -7.20345      -6.73387
     3  O(17)              0.05742     -34.81078     -12.42135     -11.61163
     4  H(1)              -0.00111      -4.96246      -1.77073      -1.65530
     5  C(13)              0.00706       7.93739       2.83226       2.64763
     6  C(13)             -0.00232      -2.60646      -0.93005      -0.86942
     7  C(13)             -0.00122      -1.36735      -0.48790      -0.45610
     8  H(1)               0.00026       1.15917       0.41362       0.38666

 Normal termination of Gaussian 16 at Tue Apr  8 22:55:38 2025.
