 Gaussian 16, Revision C.01,

 ----------------------------------------------------------------------
 #t hf aug-cc-pvdz symm=none int=(grid=ultrafine) guess=(read,tcheck) s
 table=(opt,rrhf)
 ----------------------------------------------------------------------
 -----
 title
 -----
 Symbolic Z-matrix:
 Charge =  0 Multiplicity = 1

 SCF Done:  E(RHF) =  -1018.84814373     A.U. after   14 cycles
 Normal termination of Gaussian 16 at Tue Apr  8 23:44:23 2025.
 Gaussian 16:  ES64L-G16RevC.01  3-Jul-2019

 ----------------------------------------------------------------------
 #t hf aug-cc-pvdz iop(5/13=1,5/36=2,99/5=2) pseudo=read geom=check gue
 ss=(read,tcheck) scf=(maxcycle=1)
 ----------------------------------------------------------------------
 -----
 title
 -----
 Structure from the checkpoint file:  "BDE49_nonexpt_1741_mol1.chk"
 Charge =  0 Multiplicity = 1

                         Standard orientation:
 ---------------------------------------------------------------------
 Center     Atomic      Atomic             Coordinates (Angstroms)
 Number     Number       Type             X           Y           Z
 ---------------------------------------------------------------------
      1          6           0        2.907334   -1.203188   -0.152880
      2          6           0        1.579776   -1.202336    0.267056
      3          6           0        3.576769   -0.000000   -0.364991
      4          6           0        2.907334    1.203189   -0.152879
      5          6           0        1.579776    1.202336    0.267056
      6          6           0        0.895799   -0.000000    0.487618
      7          1           0        1.069657   -2.145549    0.434856
      8          1           0        3.419943   -2.145593   -0.310689
      9          1           0        4.610998   -0.000000   -0.689457
     10          1           0        3.419943    2.145594   -0.310688
     11          1           0        1.069657    2.145549    0.434856
     12          6           0       -0.553535   -0.000000    0.918287
     13         14           0       -1.691081   -0.000000   -0.582051
     14         17           0       -3.689313    0.000000    0.042415
     15          1           0       -0.784379    0.879689    1.525992
     16          1           0       -0.784379   -0.879690    1.525992
     17          1           0       -1.493759   -1.212651   -1.399405
     18          1           0       -1.493760    1.212653   -1.399403
 ---------------------------------------------------------------------

 SCF Done:  E(RHF) =  -1018.96926391     A.U. after    2 cycles

 The electronic state is 1-A.
 Alpha  occ. eigenvalues -- -103.64693 -69.11154 -11.26721 -11.25306 -11.25295
 Alpha  occ. eigenvalues --  -11.24980 -11.24978 -11.24831 -11.24485 -10.68120
 Alpha  occ. eigenvalues --   -8.33810  -8.33593  -8.33590  -6.86006  -3.96855
 Alpha  occ. eigenvalues --   -3.96693  -3.96689  -1.15416  -1.12952  -1.04948
 Alpha  occ. eigenvalues --   -1.01691  -0.94073  -0.83761  -0.81118  -0.71018
 Alpha  occ. eigenvalues --   -0.69556  -0.65261  -0.64539  -0.59854  -0.58921
 Alpha  occ. eigenvalues --   -0.56966  -0.54451  -0.52222  -0.51741  -0.50233
 Alpha  occ. eigenvalues --   -0.49878  -0.49334  -0.45305  -0.45025  -0.34831
 Alpha  occ. eigenvalues --   -0.33198
 Alpha virt. eigenvalues --    0.03047   0.03900   0.03932   0.05128   0.05563
 Alpha virt. eigenvalues --    0.05573   0.06802   0.07399   0.07979   0.08419
 Alpha virt. eigenvalues --    0.08489   0.09872   0.10263   0.11223   0.11567

 Mulliken charges:
               1
     1  C    0.298162
     2  C    0.478420
     3  C    0.633524
     4  C    0.298161
     5  C    0.478420
     6  C    0.644487
     7  H   -0.588882
     8  H   -0.452686
     9  H   -0.434625
    10  H   -0.452686
    11  H   -0.588882
    12  C    0.011990
    13  Si   0.592882
    14  Cl  -0.578853
    15  H   -0.256242
    16  H   -0.256239
    17  H    0.086524
    18  H    0.086524
 Sum of Mulliken charges =  -0.00000

 Dipole moment (field-independent basis, Debye):
    X=              2.2012    Y=             -0.0000    Z=              0.0812  Tot=              2.2027

 Test job not archived.
 1\1\GINC-SE343\SP\RHF\Aug-CC-pVDZ\C7H9Cl1Si1\OHZDE\08-Apr-2025\0\\#t h
 f aug-cc-pvdz iop(5/13=1,5/36=2,99/5=2) pseudo=read geom=check guess=(
 read,tcheck) scf=(maxcycle=1)\\title\\0,1\C,0,2.907334,-1.203188,-0.15
 288\C,0,1.579776,-1.202336,0.267056\C,0,3.576769,0.,-0.364991\C,0,2.90
 7334,1.203189,-0.152879\C,0,1.579776,1.202336,0.267056\C,0,0.895799,0.
 ,0.487618\H,0,1.069657,-2.145549,0.434856\H,0,3.419943,-2.145593,-0.31
 0689\H,0,4.610998,0.,-0.689457\H,0,3.419943,2.145594,-0.310688\H,0,1.0
 69657,2.145549,0.434856\C,0,-0.553535,0.,0.918287\Si,0,-1.691081,0.,-0

 Normal termination of Gaussian 16 at Tue Apr  8 23:44:32 2025.
