 Gaussian 16, Revision C.01,

 ----------------------------------------------------------------------
 #t hf aug-cc-pvdz symm=none int=(grid=ultrafine) guess=(read,tcheck) s
 table=(opt,rrhf)
 ----------------------------------------------------------------------
 -----
 title
 -----
 Symbolic Z-matrix:
 Charge =  0 Multiplicity = 1

 SCF Done:  E(RHF) =  -632.919475129     A.U. after   13 cycles

 1\1\GINC-SE184\Stability\RHF\Aug-CC-pVDZ\C6H14S1\OHZDE\08-Apr-2025\0\\
 #t hf aug-cc-pvdz symm=none int=(grid=ultrafine) guess=(read,tcheck) s
 table=(opt,rrhf)\\title\\0,1\C,0,3.146422,-0.035219,0.000013\C,0,1.738
 092,0.560648,0.000017\H,0,3.891859,0.765055,0.000033\H,0,3.314615,-0.6
 54705,-0.884217\H,0,3.314605,-0.654738,0.884222\S,0,0.50877,-0.800021,
 -0.000016\H,0,1.59349,1.182287,-0.886124\H,0,1.59348,1.182254,0.886178
 \C,0,-1.144063,0.069143,-0.000003\C,0,-2.168714,-1.076363,-0.000016\H,
 0,-2.058344,-1.70678,-0.885831\H,0,-3.182427,-0.663318,-0.00001\C,0,-1

 Normal termination of Gaussian 16 at Tue Apr  8 22:46:32 2025.
 Gaussian 16:  ES64L-G16RevC.01  3-Jul-2019

 ----------------------------------------------------------------------
 #t hf aug-cc-pvdz iop(5/13=1,5/36=2,99/5=2) pseudo=read geom=check gue
 ss=(read,tcheck) scf=(maxcycle=1)
 ----------------------------------------------------------------------
 -----
 title
 -----
 Structure from the checkpoint file:  "BDE49_expt_1576_mol1.chk"
 Charge =  0 Multiplicity = 1

                         Standard orientation:
 ---------------------------------------------------------------------
 Center     Atomic      Atomic             Coordinates (Angstroms)
 Number     Number       Type             X           Y           Z
 ---------------------------------------------------------------------
      1          6           0        3.146422   -0.035219    0.000013
      2          6           0        1.738092    0.560648    0.000017
      3          1           0        3.891859    0.765055    0.000033
      4          1           0        3.314615   -0.654705   -0.884217
      5          1           0        3.314605   -0.654738    0.884222
      6         16           0        0.508770   -0.800021   -0.000016
      7          1           0        1.593490    1.182287   -0.886124
      8          1           0        1.593480    1.182254    0.886178
      9          6           0       -1.144063    0.069143   -0.000003
     10          6           0       -2.168714   -1.076363   -0.000016
     11          1           0       -2.058344   -1.706780   -0.885831
     12          1           0       -3.182427   -0.663318   -0.000010
     13          6           0       -1.314713    0.923738    1.263122
     14          1           0       -1.190537    0.319875    2.164413
     15          1           0       -2.316758    1.367086    1.280412
     16          1           0       -0.594252    1.744379    1.298768
     17          6           0       -1.314715    0.923769   -1.263107
     18          1           0       -2.316761    1.367118   -1.280384
     19          1           0       -1.190543    0.319927   -2.164414
     20          1           0       -0.594255    1.744410   -1.298736
     21          1           0       -2.058343   -1.706802    0.885784
 ---------------------------------------------------------------------

 SCF Done:  E(RHF) =  -633.014420794     A.U. after    2 cycles

 The electronic state is 1-A.
 Alpha  occ. eigenvalues --  -93.51118 -11.27843 -11.26207 -11.23208 -11.22908
 Alpha  occ. eigenvalues --  -11.22903 -11.22883  -8.80856  -6.15031  -6.14802
 Alpha  occ. eigenvalues --   -6.14492  -1.10076  -1.03937  -0.93535  -0.93500
 Alpha  occ. eigenvalues --   -0.91145  -0.81480  -0.72516  -0.63038  -0.62656
 Alpha  occ. eigenvalues --   -0.60892  -0.60721  -0.56651  -0.55085  -0.54878
 Alpha  occ. eigenvalues --   -0.52445  -0.52296  -0.50387  -0.48633  -0.48097
 Alpha  occ. eigenvalues --   -0.44094  -0.40366  -0.32880
 Alpha virt. eigenvalues --    0.03394   0.04094   0.04794   0.04824   0.06118
 Alpha virt. eigenvalues --    0.06197   0.06326   0.06950   0.07201   0.08170
 Alpha virt. eigenvalues --    0.08712   0.09386   0.09719   0.10582   0.12708

 Mulliken charges:
               1
     1  C    0.444006
     2  C   -0.229922
     3  H   -0.037075
     4  H   -0.055721
     5  H   -0.055721
     6  S    0.424492
     7  H   -0.150074
     8  H   -0.150079
     9  C   -2.669149
    10  C    1.236332
    11  H   -0.046251
    12  H    0.002076
    13  C    0.883726
    14  H   -0.047570
    15  H   -0.009860
    16  H   -0.159625
    17  C    0.883719
    18  H   -0.009855
    19  H   -0.047567
    20  H   -0.159631
    21  H   -0.046249
 Sum of Mulliken charges =  -0.00000

 Dipole moment (field-independent basis, Debye):
    X=             -0.3946    Y=              1.7243    Z=              0.0000  Tot=              1.7689

 Test job not archived.
 1\1\GINC-SE184\SP\RHF\Aug-CC-pVDZ\C6H14S1\OHZDE\08-Apr-2025\0\\#t hf a
 ug-cc-pvdz iop(5/13=1,5/36=2,99/5=2) pseudo=read geom=check guess=(rea
 d,tcheck) scf=(maxcycle=1)\\title\\0,1\C,0,3.146422,-0.035219,0.000013
 \C,0,1.738092,0.560648,0.000017\H,0,3.891859,0.765055,0.000033\H,0,3.3
 14615,-0.654705,-0.884217\H,0,3.314605,-0.654738,0.884222\S,0,0.50877,
 -0.800021,-0.000016\H,0,1.59349,1.182287,-0.886124\H,0,1.59348,1.18225
 4,0.886178\C,0,-1.144063,0.069143,-0.000003\C,0,-2.168714,-1.076363,-0
 .000016\H,0,-2.058344,-1.70678,-0.885831\H,0,-3.182427,-0.663318,-0.00

 Normal termination of Gaussian 16 at Tue Apr  8 22:46:42 2025.
