 Gaussian 16, Revision C.01,

 ----------------------------------------------------------------------
 #t hf aug-cc-pvdz symm=none int=(grid=ultrafine) guess=(read,tcheck) s
 table=(opt,rrhf)
 ----------------------------------------------------------------------
 -----
 title
 -----
 Symbolic Z-matrix:
 Charge =  0 Multiplicity = 1

 SCF Done:  E(RHF) =  -870.538933517     A.U. after   14 cycles
 Normal termination of Gaussian 16 at Tue Apr  8 22:42:28 2025.
 Gaussian 16:  ES64L-G16RevC.01  3-Jul-2019

 ----------------------------------------------------------------------
 #t hf aug-cc-pvdz iop(5/13=1,5/36=2,99/5=2) pseudo=read geom=check gue
 ss=(read,tcheck) scf=(maxcycle=1)
 ----------------------------------------------------------------------
 -----
 title
 -----
 Structure from the checkpoint file:  "BDE49_expt_1476_mol1.chk"
 Charge =  0 Multiplicity = 1

                         Standard orientation:
 ---------------------------------------------------------------------
 Center     Atomic      Atomic             Coordinates (Angstroms)
 Number     Number       Type             X           Y           Z
 ---------------------------------------------------------------------
      1          8           0       -0.753472    0.525311    0.000000
      2         17           0       -1.570949   -1.001832    0.000000
      3          6           0        0.619094    0.396384    0.000000
      4          9           0        1.074791    1.644735    0.000000
      5          9           0        1.074791   -0.241792    1.080402
      6          9           0        1.074791   -0.241792   -1.080402
 ---------------------------------------------------------------------

 SCF Done:  E(RHF) =  -870.707755737     A.U. after    2 cycles

 The electronic state is 1-A'.
 Alpha  occ. eigenvalues -- -103.76023 -26.19585 -26.19362 -26.19351 -20.70848
 Alpha  occ. eigenvalues --  -11.60776 -10.78654  -8.44422  -8.43959  -8.43930
 Alpha  occ. eigenvalues --   -1.79968  -1.72603  -1.72233  -1.44615  -1.17077
 Alpha  occ. eigenvalues --   -1.03101  -0.92257  -0.92159  -0.88386  -0.80567
 Alpha  occ. eigenvalues --   -0.80363  -0.75978  -0.75761  -0.74502  -0.71840
 Alpha  occ. eigenvalues --   -0.66259  -0.65146  -0.52302  -0.50540
 Alpha virt. eigenvalues --    0.01863   0.07885   0.08897   0.09355   0.09682
 Alpha virt. eigenvalues --    0.13493   0.13966   0.14461   0.20565   0.22577
 Alpha virt. eigenvalues --    0.24267   0.25744   0.26647   0.30110   0.30824

 Mulliken charges:
               1
     1  O   -0.668782
     2  Cl   0.372567
     3  C    1.037947
     4  F   -0.224006
     5  F   -0.258863
     6  F   -0.258863
 Sum of Mulliken charges =  -0.00000

 Dipole moment (field-independent basis, Debye):
    X=             -0.9951    Y=             -0.9848    Z=             -0.0000  Tot=              1.4001

 Test job not archived.
 1\1\GINC-SE229\SP\RHF\Aug-CC-pVDZ\C1Cl1F3O1\OHZDE\08-Apr-2025\0\\#t hf
  aug-cc-pvdz iop(5/13=1,5/36=2,99/5=2) pseudo=read geom=check guess=(r
 ead,tcheck) scf=(maxcycle=1)\\title\\0,1\O,0,-0.753472,0.525311,0.\Cl,
 0,-1.570949,-1.001832,0.\C,0,0.619094,0.396384,0.\F,0,1.074791,1.64473
 5,0.\F,0,1.074791,-0.241792,1.080402\F,0,1.074791,-0.241792,-1.080402\
 \Version=ES64L-G16RevC.01\State=1-A'\HF=-870.7077557\RMSD=5.659e-03\Di
 pole=-0.3915205,-0.3874677,0.\Quadrupole=0.5691707,0.3998144,-0.968985
 1,1.6167647,0.,0.\PG=CS [SG(C1Cl1F1O1),X(F2)]\\@

 Normal termination of Gaussian 16 at Tue Apr  8 22:42:31 2025.
