 Gaussian 16, Revision C.01,

 ----------------------------------------------------------------------
 #t hf aug-cc-pvdz symm=none int=(grid=ultrafine) guess=(read,tcheck) s
 table=(opt,rrhf)
 ----------------------------------------------------------------------
 -----
 title
 -----
 Symbolic Z-matrix:
 Charge =  0 Multiplicity = 1

 SCF Done:  E(RHF) =  -1612.19982080     A.U. after   12 cycles
 Normal termination of Gaussian 16 at Tue Apr  8 23:55:42 2025.
 Gaussian 16:  ES64L-G16RevC.01  3-Jul-2019

 ----------------------------------------------------------------------
 #t hf aug-cc-pvdz iop(5/13=1,5/36=2,99/5=2) pseudo=read geom=check gue
 ss=(read,tcheck) scf=(maxcycle=1)
 ----------------------------------------------------------------------
 -----
 title
 -----
 Structure from the checkpoint file:  "BDE49_nonexpt_1955_mol1.chk"
 Charge =  0 Multiplicity = 1

                         Standard orientation:
 ---------------------------------------------------------------------
 Center     Atomic      Atomic             Coordinates (Angstroms)
 Number     Number       Type             X           Y           Z
 ---------------------------------------------------------------------
      1         14           0        0.514870    2.160044   -0.358679
      2          6           0       -0.953697    1.820852    0.801709
      3         15           0       -1.889416   -0.490351   -0.086132
      4          8           0       -1.473430   -1.218368    1.235651
      5          8           0       -3.397226   -0.905065   -0.319538
      6          1           0       -0.477810   -1.235265    1.355658
      7          1           0       -3.524164   -1.317879   -1.181242
      8          8           0       -1.001172   -0.739406   -1.250799
      9         15           0        1.876732   -0.542538    0.077835
     10          8           0        1.561225   -1.360601   -1.222626
     11          1           0        0.589317   -1.294474   -1.419758
     12          8           0        3.447648   -0.655733    0.236017
     13          1           0        3.696473   -1.299856    0.908708
     14          8           0        1.124852   -0.950768    1.291112
     15          8           0       -2.056781    1.053917    0.250984
     16          8           0        1.694042    0.978836   -0.284731
     17          1           0        1.167737    3.385128    0.142481
     18          1           0        0.070800    2.312839   -1.753180
     19          1           0       -1.392084    2.789542    1.054613
     20          1           0       -0.619264    1.365069    1.739846
 ---------------------------------------------------------------------

 SCF Done:  E(RHF) =  -1612.59169791     A.U. after    2 cycles

 The electronic state is 1-A.
 Alpha  occ. eigenvalues --  -81.46500 -81.45893 -69.12790 -20.62805 -20.62764
 Alpha  occ. eigenvalues --  -20.61663 -20.61025 -20.60139 -20.60025 -20.55230
 Alpha  occ. eigenvalues --  -20.55066 -11.31443  -7.94314  -7.93801  -6.87503
 Alpha  occ. eigenvalues --   -5.09039  -5.08985  -5.08939  -5.08532  -5.08456
 Alpha  occ. eigenvalues --   -5.08406  -3.98444  -3.98254  -3.98237  -1.40560
 Alpha  occ. eigenvalues --   -1.40201  -1.36144  -1.35678  -1.34636  -1.34215
 Alpha  occ. eigenvalues --   -1.28701  -1.28237  -0.97714  -0.88295  -0.85353
 Alpha  occ. eigenvalues --   -0.79678  -0.76318  -0.75843  -0.74878  -0.71684
 Alpha  occ. eigenvalues --   -0.70202  -0.69020  -0.67289  -0.66244  -0.65002
 Alpha  occ. eigenvalues --   -0.64547  -0.62595  -0.61466  -0.60495  -0.59871
 Alpha  occ. eigenvalues --   -0.58646  -0.57529  -0.57190  -0.56723  -0.53236
 Alpha  occ. eigenvalues --   -0.52354  -0.51662  -0.51373  -0.51071  -0.48953
 Alpha  occ. eigenvalues --   -0.45547
 Alpha virt. eigenvalues --    0.02981   0.03915   0.04015   0.04981   0.05705
 Alpha virt. eigenvalues --    0.06553   0.07430   0.07732   0.07985   0.09302
 Alpha virt. eigenvalues --    0.10515   0.10930   0.11044   0.11603   0.11866

 Mulliken charges:
               1
     1  Si   0.428698
     2  C    0.606603
     3  P    2.658512
     4  O   -0.759645
     5  O   -0.654310
     6  H    0.263689
     7  H    0.164373
     8  O   -1.093258
     9  P    2.592632
    10  O   -0.684863
    11  H    0.266903
    12  O   -0.608102
    13  H    0.166311
    14  O   -1.086910
    15  O   -0.990032
    16  O   -1.177088
    17  H    0.155207
    18  H    0.220311
    19  H   -0.380317
    20  H   -0.088713
 Sum of Mulliken charges =  -0.00000

 Dipole moment (field-independent basis, Debye):
    X=              0.2213    Y=              1.6898    Z=              0.1831  Tot=              1.7141

 Test job not archived.
 1\1\GINC-SE460\SP\RHF\Aug-CC-pVDZ\C1H8O8P2Si1\OHZDE\08-Apr-2025\0\\#t
 hf aug-cc-pvdz iop(5/13=1,5/36=2,99/5=2) pseudo=read geom=check guess=
 (read,tcheck) scf=(maxcycle=1)\\title\\0,1\Si,0,0.51487,2.160044,-0.35
 8679\C,0,-0.953697,1.820852,0.801709\P,0,-1.889416,-0.490351,-0.086132
 \O,0,-1.47343,-1.218368,1.235651\O,0,-3.397226,-0.905065,-0.319538\H,0
 ,-0.47781,-1.235265,1.355658\H,0,-3.524164,-1.317879,-1.181242\O,0,-1.
 001172,-0.739406,-1.250799\P,0,1.876732,-0.542538,0.077835\O,0,1.56122
 5,-1.360601,-1.222626\H,0,0.589317,-1.294474,-1.419758\O,0,3.447648,-0

 Normal termination of Gaussian 16 at Tue Apr  8 23:55:57 2025.
