 Gaussian 16, Revision C.01,

 ----------------------------------------------------------------------
 #t hf aug-cc-pvdz symm=none int=(grid=ultrafine) guess=(read,tcheck) s
 table=opt
 ----------------------------------------------------------------------
 -----
 title
 -----
 Symbolic Z-matrix:
 Charge =  0 Multiplicity = 2

 SCF Done:  E(UHF) =  -2151.77726995     A.U. after   15 cycles
 Normal termination of Gaussian 16 at Tue Apr  8 23:42:22 2025.
 Gaussian 16:  ES64L-G16RevC.01  3-Jul-2019

 ----------------------------------------------------------------------
 #t hf aug-cc-pvdz iop(5/13=1,5/36=2,99/5=2) pseudo=read geom=check gue
 ss=(read,tcheck) scf=(maxcycle=1)
 ----------------------------------------------------------------------
 -----
 title
 -----
 Structure from the checkpoint file:  "BDE49_nonexpt_169_mol2.chk"
 Charge =  0 Multiplicity = 2

                         Standard orientation:
 ---------------------------------------------------------------------
 Center     Atomic      Atomic             Coordinates (Angstroms)
 Number     Number       Type             X           Y           Z
 ---------------------------------------------------------------------
      1         17           0        3.015597   -0.000001   -0.244665
      2          5           0        1.435448    0.000026   -0.897858
      3         14           0       -0.369584    0.000001   -0.059416
      4         17           0       -1.352096   -1.684797   -0.725160
      5         17           0       -0.429279   -0.000103    2.007824
      6         17           0       -1.352050    1.684892   -0.724992
 ---------------------------------------------------------------------

 SCF Done:  E(UHF) =  -2151.88203134     A.U. after    2 cycles

 The electronic state is 2-A.
 Alpha  occ. eigenvalues -- -103.70542-103.68154-103.68153-103.67955 -69.21220
 Alpha  occ. eigenvalues --  -10.74020 -10.71614 -10.71606 -10.71396  -8.39717
 Alpha  occ. eigenvalues --   -8.39524  -8.39435  -8.37297  -8.37291  -8.37137
 Alpha  occ. eigenvalues --   -8.37065  -8.37060  -8.37055  -8.37054  -8.36849
 Alpha  occ. eigenvalues --   -8.36832  -7.72953  -6.95216  -4.06021  -4.06020
 Alpha  occ. eigenvalues --   -4.05850  -1.20311  -1.18698  -1.15574  -1.15438
 Alpha  occ. eigenvalues --   -0.75945  -0.68333  -0.59541  -0.59228  -0.59001
 Alpha  occ. eigenvalues --   -0.55289  -0.53402  -0.51968  -0.51924  -0.49607
 Alpha  occ. eigenvalues --   -0.49464  -0.48509  -0.48055  -0.35760
 Alpha virt. eigenvalues --    0.00937   0.03961   0.05196   0.05708   0.06331
 Alpha virt. eigenvalues --    0.07538   0.07575   0.08208   0.10322   0.12155
 Alpha virt. eigenvalues --    0.12734   0.13718   0.14521   0.14944   0.15144

  Beta  occ. eigenvalues -- -103.70483-103.68161-103.68161-103.67908 -69.21159
  Beta  occ. eigenvalues --  -10.73954 -10.71622 -10.71614 -10.71344  -8.39685
  Beta  occ. eigenvalues --   -8.39480  -8.39221  -8.37320  -8.37315  -8.37072
  Beta  occ. eigenvalues --   -8.37071  -8.37059  -8.37057  -8.36995  -8.36805
  Beta  occ. eigenvalues --   -8.36778  -7.71056  -6.95106  -4.05966  -4.05966
  Beta  occ. eigenvalues --   -4.05713  -1.19631  -1.18597  -1.15631  -1.15174
  Beta  occ. eigenvalues --   -0.73682  -0.66400  -0.59226  -0.58978  -0.57795
  Beta  occ. eigenvalues --   -0.53482  -0.52681  -0.52013  -0.51528  -0.49472
  Beta  occ. eigenvalues --   -0.49213  -0.47998  -0.46610
  Beta virt. eigenvalues --    0.02819   0.02852   0.04795   0.05227   0.06434
  Beta virt. eigenvalues --    0.06644   0.07591   0.07643   0.08355   0.10791
  Beta virt. eigenvalues --    0.12614   0.12764   0.14372   0.14802   0.15331

 Mulliken charges and spin densities:
               1          2
     1  Cl  -0.206579   0.010379
     2  B    0.200073   1.003562
     3  Si   1.393738  -0.026292
     4  Cl  -0.451537  -0.003639
     5  Cl  -0.484158   0.019629
     6  Cl  -0.451537  -0.003639
 Sum of Mulliken charges =   0.00000   1.00000

 Dipole moment (field-independent basis, Debye):
    X=              1.1877    Y=             -0.0000    Z=             -0.3774  Tot=              1.2462
                          Isotropic Fermi Contact Couplings
        Atom                 a.u.       MegaHertz       Gauss      10(-4) cm-1
     1  Cl(35)             0.04421      19.38376       6.91661       6.46572
     2  B(11)              0.29610     424.72069     151.55090     141.67157
     3  Si(29)             0.11516    -102.34459     -36.51910     -34.13848
     4  Cl(35)            -0.00580      -2.54380      -0.90769      -0.84852
     5  Cl(35)             0.02760      12.10205       4.31831       4.03681
     6  Cl(35)            -0.00580      -2.54375      -0.90767      -0.84850
 --------------------------------------------------------
       Center         ----  Spin Dipole Couplings  ----

 Normal termination of Gaussian 16 at Tue Apr  8 23:42:26 2025.
