 Gaussian 16, Revision C.01,

 ----------------------------------------------------------------------
 #t hf aug-cc-pvdz symm=none int=(grid=ultrafine) guess=(read,tcheck) s
 table=(opt,rrhf)
 ----------------------------------------------------------------------
 -----
 title
 -----
 Symbolic Z-matrix:
 Charge =  0 Multiplicity = 1

 SCF Done:  E(RHF) =  -1161.53806382     A.U. after   10 cycles
 Normal termination of Gaussian 16 at Tue Apr  8 22:56:50 2025.
 Gaussian 16:  ES64L-G16RevC.01  3-Jul-2019

 ----------------------------------------------------------------------
 #t hf aug-cc-pvdz iop(5/13=1,5/36=2,99/5=2) pseudo=read geom=check gue
 ss=(read,tcheck) scf=(maxcycle=1)
 ----------------------------------------------------------------------
 -----
 title
 -----
 Structure from the checkpoint file:  "BDE49_expt_1940_mol1.chk"
 Charge =  0 Multiplicity = 1

                         Standard orientation:
 ---------------------------------------------------------------------
 Center     Atomic      Atomic             Coordinates (Angstroms)
 Number     Number       Type             X           Y           Z
 ---------------------------------------------------------------------
      1         14           0        0.925745   -0.733229    0.949011
      2         14           0       -0.925745    0.733229    0.949011
      3         14           0       -0.925745    2.204526   -0.894758
      4          1           0       -0.916894    1.530720    2.203296
      5          1           0       -2.177875   -0.067072    0.931766
      6          1           0        0.311444    3.022128   -0.897656
      7          1           0       -2.095069    3.114662   -0.833060
      8          1           0       -0.988011    1.440017   -2.163888
      9         14           0        0.925745   -2.204526   -0.894758
     10          1           0        0.916894   -1.530720    2.203296
     11          1           0        2.177875    0.067072    0.931766
     12          1           0       -0.311444   -3.022128   -0.897656
     13          1           0        2.095069   -3.114662   -0.833060
     14          1           0        0.988011   -1.440017   -2.163888
 ---------------------------------------------------------------------

 SCF Done:  E(RHF) =  -1161.61642946     A.U. after    2 cycles

 The electronic state is 1-A.
 Alpha  occ. eigenvalues --  -69.06505 -69.06505 -69.06190 -69.06190  -6.81909
 Alpha  occ. eigenvalues --   -6.81908  -6.81661  -6.81657  -3.92666  -3.92666
 Alpha  occ. eigenvalues --   -3.92663  -3.92663  -3.92648  -3.92647  -3.92417
 Alpha  occ. eigenvalues --   -3.92404  -3.92398  -3.92371  -3.92368  -3.92329
 Alpha  occ. eigenvalues --   -0.75891  -0.72127  -0.67475  -0.63087  -0.50441
 Alpha  occ. eigenvalues --   -0.50034  -0.49037  -0.48479  -0.47433  -0.47386
 Alpha  occ. eigenvalues --   -0.42923  -0.39817  -0.37331
 Alpha virt. eigenvalues --    0.03654   0.04349   0.04409   0.04758   0.06399
 Alpha virt. eigenvalues --    0.06620   0.06745   0.07588   0.07878   0.08467
 Alpha virt. eigenvalues --    0.08706   0.08918   0.09294   0.09510   0.09732

 Mulliken charges:
               1
     1  Si  -0.101282
     2  Si  -0.101282
     3  Si  -0.095415
     4  H    0.066586
     5  H    0.033194
     6  H    0.046146
     7  H    0.024086
     8  H    0.026685
     9  Si  -0.095415
    10  H    0.066586
    11  H    0.033194
    12  H    0.046146
    13  H    0.024086
    14  H    0.026685
 Sum of Mulliken charges =  -0.00000

 Dipole moment (field-independent basis, Debye):
    X=             -0.0000    Y=              0.0000    Z=              0.0621  Tot=              0.0621

 Test job not archived.
 1\1\GINC-SE334\SP\RHF\Aug-CC-pVDZ\H10Si4\OHZDE\08-Apr-2025\0\\#t hf au
 g-cc-pvdz iop(5/13=1,5/36=2,99/5=2) pseudo=read geom=check guess=(read
 ,tcheck) scf=(maxcycle=1)\\title\\0,1\Si,0,0.925745,-0.733229,0.949011
 \Si,0,-0.925745,0.733229,0.949011\Si,0,-0.925745,2.204526,-0.894758\H,
 0,-0.916894,1.53072,2.203296\H,0,-2.177875,-0.067072,0.931766\H,0,0.31
 1444,3.022128,-0.897656\H,0,-2.095069,3.114662,-0.83306\H,0,-0.988011,
 1.440017,-2.163888\Si,0,0.925745,-2.204526,-0.894758\H,0,0.916894,-1.5
 3072,2.203296\H,0,2.177875,0.067072,0.931766\H,0,-0.311444,-3.022128,-

 Normal termination of Gaussian 16 at Tue Apr  8 22:56:54 2025.
