 Gaussian 16, Revision C.01,

 ----------------------------------------------------------------------
 #t hf aug-cc-pvdz symm=none int=(grid=ultrafine) guess=(read,tcheck) s
 table=(opt,rrhf)
 ----------------------------------------------------------------------
 -----
 title
 -----
 Symbolic Z-matrix:
 Charge =  0 Multiplicity = 1

 SCF Done:  E(RHF) =  -583.509987399     A.U. after   12 cycles
 Normal termination of Gaussian 16 at Wed Apr  9 00:43:36 2025.
 Gaussian 16:  ES64L-G16RevC.01  3-Jul-2019

 ----------------------------------------------------------------------
 #t hf aug-cc-pvdz iop(5/13=1,5/36=2,99/5=2) pseudo=read geom=check gue
 ss=(read,tcheck) scf=(maxcycle=1)
 ----------------------------------------------------------------------
 -----
 title
 -----
 Structure from the checkpoint file:  "BDE49_nonexpt_782_mol1.chk"
 Charge =  0 Multiplicity = 1

                         Standard orientation:
 ---------------------------------------------------------------------
 Center     Atomic      Atomic             Coordinates (Angstroms)
 Number     Number       Type             X           Y           Z
 ---------------------------------------------------------------------
      1         14           0        0.391019    0.626551   -0.399294
      2          5           0       -1.376221   -0.299380    0.029671
      3          8           0       -2.355944   -0.587682   -0.887357
      4          8           0       -1.611564   -0.652874    1.326360
      5          6           0        1.862707   -0.332348    0.310362
      6          6           0        1.974832   -1.790568   -0.165241
      7          1           0        1.780089   -0.303806    1.403359
      8          1           0        2.779797    0.215194    0.061643
      9          1           0        2.062116   -1.852264   -1.254297
     10          1           0        1.096490   -2.372864    0.128629
     11          6           0        0.400403    2.401260    0.253090
     12          1           0        1.348405    2.899289    0.029546
     13          1           0        0.259071    2.413276    1.337607
     14          1           0       -0.402231    2.994861   -0.193475
     15          1           0        2.851503   -2.287256    0.261398
     16          1           0       -2.122890   -0.331446   -1.783349
     17          1           0       -2.473249   -1.076707    1.436640
     18          1           0        0.540150    0.681290   -1.887235
 ---------------------------------------------------------------------

 SCF Done:  E(RHF) =  -583.634189388     A.U. after    2 cycles

 The electronic state is 1-A.
 Alpha  occ. eigenvalues --  -69.03666 -20.58709 -20.58011 -11.22648 -11.21424
 Alpha  occ. eigenvalues --  -11.21171  -7.65421  -6.79085  -3.89866  -3.89836
 Alpha  occ. eigenvalues --   -3.89801  -1.34580  -1.30724  -1.00736  -0.93256
 Alpha  occ. eigenvalues --   -0.83521  -0.78409  -0.75045  -0.66538  -0.61481
 Alpha  occ. eigenvalues --   -0.60296  -0.59007  -0.58270  -0.56274  -0.55466
 Alpha  occ. eigenvalues --   -0.55318  -0.52176  -0.50866  -0.49145  -0.44269
 Alpha  occ. eigenvalues --   -0.41688  -0.39627
 Alpha virt. eigenvalues --    0.03011   0.04298   0.04409   0.04801   0.06181
 Alpha virt. eigenvalues --    0.06412   0.06660   0.06735   0.06866   0.08772
 Alpha virt. eigenvalues --    0.09149   0.09379   0.09764   0.09836   0.10268

 Mulliken charges:
               1
     1  Si   0.248539
     2  B    0.967836
     3  O   -0.488491
     4  O   -0.552615
     5  C    0.237983
     6  C    0.217446
     7  H   -0.121540
     8  H   -0.252428
     9  H   -0.089448
    10  H   -0.165792
    11  C    0.357587
    12  H   -0.258850
    13  H   -0.165041
    14  H   -0.345519
    15  H   -0.085845
    16  H    0.172486
    17  H    0.158121
    18  H    0.165574
 Sum of Mulliken charges =   0.00000

 Dipole moment (field-independent basis, Debye):
    X=             -0.1336    Y=              0.1504    Z=             -0.7543  Tot=              0.7807

 Test job not archived.
 1\1\GINC-SE419\SP\RHF\Aug-CC-pVDZ\C3H11B1O2Si1\OHZDE\09-Apr-2025\0\\#t
  hf aug-cc-pvdz iop(5/13=1,5/36=2,99/5=2) pseudo=read geom=check guess
 =(read,tcheck) scf=(maxcycle=1)\\title\\0,1\Si,0,0.391019,0.626551,-0.
 399294\B,0,-1.376221,-0.29938,0.029671\O,0,-2.355944,-0.587683,-0.8873
 57\O,0,-1.611564,-0.652874,1.32636\C,0,1.862707,-0.332347,0.310362\C,0
 ,1.974832,-1.790567,-0.165241\H,0,1.780089,-0.303805,1.403359\H,0,2.77
 9797,0.215195,0.061643\H,0,2.062116,-1.852263,-1.254297\H,0,1.096491,-
 2.372864,0.128629\C,0,0.400402,2.40126,0.25309\H,0,1.348404,2.899289,0

 Normal termination of Gaussian 16 at Wed Apr  9 00:43:43 2025.
