 Gaussian 16, Revision C.01,

 ----------------------------------------------------------------------
 #t hf aug-cc-pvdz symm=none int=(grid=ultrafine) guess=(read,tcheck) s
 table=(opt,rrhf)
 ----------------------------------------------------------------------
 -----
 title
 -----
 Symbolic Z-matrix:
 Charge =  0 Multiplicity = 1

 SCF Done:  E(RHF) =  -666.811126814     A.U. after   15 cycles
 Normal termination of Gaussian 16 at Tue Apr  8 23:16:51 2025.
 Gaussian 16:  ES64L-G16RevC.01  3-Jul-2019

 ----------------------------------------------------------------------
 #t hf aug-cc-pvdz iop(5/13=1,5/36=2,99/5=2) pseudo=read geom=check gue
 ss=(read,tcheck) scf=(maxcycle=1)
 ----------------------------------------------------------------------
 -----
 title
 -----
 Structure from the checkpoint file:  "BDE49_nonexpt_1066_mol1.chk"
 Charge =  0 Multiplicity = 1

                         Standard orientation:
 ---------------------------------------------------------------------
 Center     Atomic      Atomic             Coordinates (Angstroms)
 Number     Number       Type             X           Y           Z
 ---------------------------------------------------------------------
      1         17           0       -1.771462   -0.474683    0.000005
      2          8           0       -0.797787    0.971860   -0.000008
      3          6           0        0.548144    0.759674   -0.000006
      4          7           0        1.123721   -0.345773    0.000003
      5          1           0        1.001358    1.758856   -0.000017
      6          6           0        2.575809   -0.387750    0.000001
      7          1           0        2.917333   -0.939181   -0.879610
      8          1           0        2.917336   -0.939165    0.879621
      9          1           0        3.051352    0.603089   -0.000009
 ---------------------------------------------------------------------

 SCF Done:  E(RHF) =  -666.895701780     A.U. after    2 cycles

 The electronic state is 1-A.
 Alpha  occ. eigenvalues -- -103.72213 -20.67634 -15.63169 -11.36621 -11.27466
 Alpha  occ. eigenvalues --  -10.74837  -8.40603  -8.40154  -8.40143  -1.41150
 Alpha  occ. eigenvalues --   -1.21265  -1.12465  -0.95774  -0.81923  -0.72491
 Alpha  occ. eigenvalues --   -0.67574  -0.67019  -0.59781  -0.58312  -0.57065
 Alpha  occ. eigenvalues --   -0.48687  -0.48322  -0.42506  -0.41265
 Alpha virt. eigenvalues --    0.03256   0.04484   0.04784   0.05504   0.06300
 Alpha virt. eigenvalues --    0.09773   0.10196   0.11305   0.13876   0.14650
 Alpha virt. eigenvalues --    0.14753   0.15620   0.16125   0.16721   0.17575

 Mulliken charges:
               1
     1  Cl   0.311082
     2  O   -0.636959
     3  C    0.607497
     4  N   -0.401417
     5  H   -0.239432
     6  C    0.717545
     7  H   -0.123701
     8  H   -0.123701
     9  H   -0.110914
 Sum of Mulliken charges =  -0.00000

 Dipole moment (field-independent basis, Debye):
    X=              2.0713    Y=              0.8002    Z=             -0.0000  Tot=              2.2205

 Test job not archived.
 1\1\GINC-SE368\SP\RHF\Aug-CC-pVDZ\C2H4Cl1N1O1\OHZDE\08-Apr-2025\0\\#t
 hf aug-cc-pvdz iop(5/13=1,5/36=2,99/5=2) pseudo=read geom=check guess=
 (read,tcheck) scf=(maxcycle=1)\\title\\0,1\Cl,0,-1.771462,-0.474683,0.
 000005\O,0,-0.797787,0.97186,-0.000008\C,0,0.548144,0.759674,-0.000006
 \N,0,1.123721,-0.345773,0.000003\H,0,1.001358,1.758856,-0.000017\C,0,2
 .575809,-0.38775,0.000001\H,0,2.917333,-0.939181,-0.87961\H,0,2.917336
 ,-0.939165,0.879621\H,0,3.051352,0.603089,-0.000009\\Version=ES64L-G16
 RevC.01\State=1-A\HF=-666.8957018\RMSD=2.397e-03\Dipole=0.8149244,0.31

 Normal termination of Gaussian 16 at Tue Apr  8 23:16:54 2025.
