 Gaussian 16, Revision C.01,

 ----------------------------------------------------------------------
 #t hf aug-cc-pvdz symm=none int=(grid=ultrafine) guess=(read,tcheck) s
 table=(opt,rrhf)
 ----------------------------------------------------------------------
 -----
 title
 -----
 Symbolic Z-matrix:
 Charge =  0 Multiplicity = 1

 SCF Done:  E(RHF) =  -963.019629237     A.U. after   14 cycles
 Normal termination of Gaussian 16 at Wed Apr  9 00:12:11 2025.
 Gaussian 16:  ES64L-G16RevC.01  3-Jul-2019

 ----------------------------------------------------------------------
 #t hf aug-cc-pvdz iop(5/13=1,5/36=2,99/5=2) pseudo=read geom=check gue
 ss=(read,tcheck) scf=(maxcycle=1)
 ----------------------------------------------------------------------
 -----
 title
 -----
 Structure from the checkpoint file:  "BDE49_nonexpt_2345_mol1.chk"
 Charge =  0 Multiplicity = 1

                         Standard orientation:
 ---------------------------------------------------------------------
 Center     Atomic      Atomic             Coordinates (Angstroms)
 Number     Number       Type             X           Y           Z
 ---------------------------------------------------------------------
      1         14           0       -1.629162    1.268819    0.485276
      2         14           0        0.462195    2.119193   -0.203985
      3          6           0        1.880678   -0.295463    0.345524
      4          8           0        1.217865   -0.285020    1.365913
      5          6           0        1.718488    0.785672   -0.706045
      6          1           0        1.390434    0.302341   -1.633398
      7          1           0        2.693083    1.236151   -0.929159
      8          1           0        1.014841    2.965920    0.881900
      9          1           0        0.257570    2.994478   -1.388839
     10          6           0       -2.212333   -0.246812   -0.537625
     11          1           0       -2.673011    2.307549    0.278279
     12          1           0       -1.631166    0.915600    1.923298
     13          6           0       -1.269284   -1.423957   -0.502513
     14          1           0       -3.201846   -0.515497   -0.156013
     15          1           0       -2.310151    0.087619   -1.573617
     16          8           0       -0.389261   -1.551673   -1.333508
     17          6           0        2.857227   -1.411967    0.052236
     18          1           0        3.009586   -2.019019    0.943993
     19          1           0        3.811873   -1.025699   -0.313781
     20          1           0        2.426035   -2.033373   -0.739535
     21          6           0       -1.426387   -2.411354    0.636096
     22          1           0       -1.086601   -1.938247    1.563292
     23          1           0       -0.811819   -3.290080    0.445207
     24          1           0       -2.470459   -2.703087    0.775015
 ---------------------------------------------------------------------

 SCF Done:  E(RHF) =  -963.180187206     A.U. after    2 cycles

 The electronic state is 1-A.
 Alpha  occ. eigenvalues --  -69.06361 -69.05788 -20.56418 -20.55849 -11.35005
 Alpha  occ. eigenvalues --  -11.34947 -11.24072 -11.24070 -11.23828 -11.23340
 Alpha  occ. eigenvalues --   -6.81617  -6.81104  -3.92389  -3.92365  -3.92325
 Alpha  occ. eigenvalues --   -3.91866  -3.91854  -3.91818  -1.35648  -1.35067
 Alpha  occ. eigenvalues --   -1.03108  -1.02878  -0.95989  -0.95576  -0.75668
 Alpha  occ. eigenvalues --   -0.74734  -0.70606  -0.66305  -0.65841  -0.65131
 Alpha  occ. eigenvalues --   -0.64868  -0.62869  -0.61432  -0.59734  -0.56993
 Alpha  occ. eigenvalues --   -0.55980  -0.55864  -0.54177  -0.52376  -0.50658
 Alpha  occ. eigenvalues --   -0.48184  -0.47173  -0.46141  -0.44849  -0.42715
 Alpha  occ. eigenvalues --   -0.41976  -0.38606
 Alpha virt. eigenvalues --    0.03262   0.03757   0.04390   0.05085   0.05273
 Alpha virt. eigenvalues --    0.05501   0.06071   0.06745   0.07401   0.07517
 Alpha virt. eigenvalues --    0.07735   0.08548   0.09120   0.09734   0.09981

 Mulliken charges:
               1
     1  Si   0.024280
     2  Si  -0.089463
     3  C   -0.142472
     4  O   -0.550439
     5  C    0.161271
     6  H    0.027855
     7  H   -0.107545
     8  H    0.197817
     9  H    0.136991
    10  C    0.501934
    11  H    0.074007
    12  H    0.195642
    13  C   -0.040128
    14  H   -0.306390
    15  H   -0.172774
    16  O   -0.620648
    17  C    0.466696
    18  H   -0.083207
    19  H   -0.006671
    20  H    0.085211
    21  C    0.330872
    22  H    0.050476
    23  H   -0.116522
    24  H   -0.016792
 Sum of Mulliken charges =  -0.00000

 Dipole moment (field-independent basis, Debye):
    X=             -0.1489    Y=             -0.5645    Z=             -0.6004  Tot=              0.8374

 Test job not archived.
 1\1\GINC-SE363\SP\RHF\Aug-CC-pVDZ\C6H14O2Si2\OHZDE\09-Apr-2025\0\\#t h
 f aug-cc-pvdz iop(5/13=1,5/36=2,99/5=2) pseudo=read geom=check guess=(
 read,tcheck) scf=(maxcycle=1)\\title\\0,1\Si,0,1.629161,-1.26882,0.485
 276\Si,0,-0.462196,-2.119193,-0.203985\C,0,-1.880678,0.295464,0.345524
 \O,0,-1.217865,0.285021,1.365913\C,0,-1.718488,-0.785671,-0.706045\H,0
 ,-1.390434,-0.30234,-1.633398\H,0,-2.693083,-1.23615,-0.929159\H,0,-1.
 014842,-2.96592,0.8819\H,0,-0.257571,-2.994478,-1.388839\C,0,2.212333,
 0.246811,-0.537625\H,0,2.67301,-2.30755,0.278279\H,0,1.631166,-0.91560

 Normal termination of Gaussian 16 at Wed Apr  9 00:12:29 2025.
