 Gaussian 16, Revision C.01,

 ----------------------------------------------------------------------
 #t hf aug-cc-pvdz symm=none int=(grid=ultrafine) guess=(read,tcheck) s
 table=(opt,rrhf)
 ----------------------------------------------------------------------
 -----
 title
 -----
 Symbolic Z-matrix:
 Charge =  0 Multiplicity = 1

 SCF Done:  E(RHF) =  -491.142447686     A.U. after   13 cycles
 Normal termination of Gaussian 16 at Wed Apr  9 00:32:46 2025.
 Gaussian 16:  ES64L-G16RevC.01  3-Jul-2019

 ----------------------------------------------------------------------
 #t hf aug-cc-pvdz iop(5/13=1,5/36=2,99/5=2) pseudo=read geom=check gue
 ss=(read,tcheck) scf=(maxcycle=1)
 ----------------------------------------------------------------------
 -----
 title
 -----
 Structure from the checkpoint file:  "BDE49_nonexpt_418_mol1.chk"
 Charge =  0 Multiplicity = 1

                         Standard orientation:
 ---------------------------------------------------------------------
 Center     Atomic      Atomic             Coordinates (Angstroms)
 Number     Number       Type             X           Y           Z
 ---------------------------------------------------------------------
      1          9           0       -1.961385    0.947730   -0.708810
      2          5           0       -1.274295   -0.035507   -0.155029
      3          9           0       -1.894952   -1.197689    0.002629
      4          6           0        0.236399    0.122568    0.315648
      5          8           0        0.908813   -0.361401   -0.851939
      6          8           0        0.515025   -0.691470    1.447170
      7          6           0        2.337668   -0.357744   -0.819900
      8          1           0        2.742404    0.652382   -0.943460
      9          1           0        2.660833   -0.972366   -1.659586
     10          1           0        2.709624   -0.790813    0.112360
     11          6           0        0.631131    1.543199    0.700925
     12          1           0        0.518662    2.213554   -0.152493
     13          1           0        1.664571    1.570488    1.051117
     14          1           0       -0.004252    1.900935    1.513483
     15          1           0        0.164763   -1.572181    1.267482
 ---------------------------------------------------------------------

 SCF Done:  E(RHF) =  -491.318242077     A.U. after    2 cycles

 The electronic state is 1-A.
 Alpha  occ. eigenvalues --  -26.14710 -26.14668 -20.59040 -20.58882 -11.34919
 Alpha  occ. eigenvalues --  -11.28999 -11.24017  -7.74417  -1.70007  -1.67774
 Alpha  occ. eigenvalues --   -1.37742  -1.30845  -1.02548  -0.95303  -0.88740
 Alpha  occ. eigenvalues --   -0.83503  -0.82699  -0.79448  -0.77645  -0.72971
 Alpha  occ. eigenvalues --   -0.72672  -0.72336  -0.68870  -0.66840  -0.61881
 Alpha  occ. eigenvalues --   -0.59768  -0.57172  -0.55402  -0.54436  -0.49922
 Alpha  occ. eigenvalues --   -0.47673  -0.45978
 Alpha virt. eigenvalues --    0.03193   0.04524   0.04700   0.05064   0.06172
 Alpha virt. eigenvalues --    0.06624   0.06646   0.06936   0.08828   0.09653
 Alpha virt. eigenvalues --    0.10542   0.12829   0.13349   0.13713   0.14469

 Mulliken charges:
               1
     1  F   -0.391547
     2  B    0.862193
     3  F   -0.455730
     4  C    0.468130
     5  O   -0.726175
     6  O   -0.577796
     7  C    0.824794
     8  H   -0.154722
     9  H   -0.268313
    10  H   -0.061219
    11  C    0.467439
    12  H    0.013151
    13  H   -0.064195
    14  H   -0.067183
    15  H    0.131172
 Sum of Mulliken charges =  -0.00000

 Dipole moment (field-independent basis, Debye):
    X=              1.8497    Y=              0.3618    Z=              0.2387  Tot=              1.8998

 Test job not archived.
 1\1\GINC-SE435\SP\RHF\Aug-CC-pVDZ\C3H7B1F2O2\OHZDE\09-Apr-2025\0\\#t h
 f aug-cc-pvdz iop(5/13=1,5/36=2,99/5=2) pseudo=read geom=check guess=(
 read,tcheck) scf=(maxcycle=1)\\title\\0,1\F,0,-1.961385,0.94773,-0.708
 81\B,0,-1.274295,-0.035507,-0.155029\F,0,-1.894952,-1.197689,0.002629\
 C,0,0.236399,0.122568,0.315648\O,0,0.908813,-0.361401,-0.851939\O,0,0.
 515025,-0.69147,1.44717\C,0,2.337668,-0.357744,-0.8199\H,0,2.742404,0.
 652382,-0.94346\H,0,2.660833,-0.972366,-1.659586\H,0,2.709624,-0.79081
 3,0.11236\C,0,0.631131,1.543199,0.700925\H,0,0.518662,2.213554,-0.1524

 Normal termination of Gaussian 16 at Wed Apr  9 00:32:56 2025.
