 Gaussian 16, Revision C.01,

 ----------------------------------------------------------------------
 #t hf aug-cc-pvdz symm=none int=(grid=ultrafine) guess=(read,tcheck) s
 table=(opt,rrhf)
 ----------------------------------------------------------------------
 -----
 title
 -----
 Symbolic Z-matrix:
 Charge =  0 Multiplicity = 1

 SCF Done:  E(RHF) =  -767.875446525     A.U. after   13 cycles
 Normal termination of Gaussian 16 at Wed Apr  9 00:49:22 2025.
 Gaussian 16:  ES64L-G16RevC.01  3-Jul-2019

 ----------------------------------------------------------------------
 #t hf aug-cc-pvdz iop(5/13=1,5/36=2,99/5=2) pseudo=read geom=check gue
 ss=(read,tcheck) scf=(maxcycle=1)
 ----------------------------------------------------------------------
 -----
 title
 -----
 Structure from the checkpoint file:  "BDE49_nonexpt_907_mol1.chk"
 Charge =  0 Multiplicity = 1

                         Standard orientation:
 ---------------------------------------------------------------------
 Center     Atomic      Atomic             Coordinates (Angstroms)
 Number     Number       Type             X           Y           Z
 ---------------------------------------------------------------------
      1          8           0        0.927270    1.395382   -0.024407
      2         16           0        2.750808   -0.696380    0.008894
      3          8           0        0.025633   -0.840549    0.006621
      4          6           0       -0.390206    1.964854   -0.014518
      5          6           0       -1.411924    1.017401   -0.632202
      6          6           0       -1.356144   -0.387615   -0.004456
      7          6           0       -1.860982   -0.405343    1.441889
      8          6           0       -2.121213   -1.397254   -0.857973
      9          5           0        1.062949    0.039486   -0.002537
     10          1           0       -0.336121    2.897431   -0.579395
     11          1           0       -0.648757    2.216435    1.019108
     12          1           0       -1.211335    0.928978   -1.705149
     13          1           0       -2.416981    1.436046   -0.522315
     14          1           0       -2.921535   -0.142329    1.484820
     15          1           0       -1.306395    0.294049    2.071375
     16          1           0       -1.733965   -1.404549    1.862882
     17          1           0       -1.715000   -1.423030   -1.871382
     18          1           0       -2.029833   -2.396905   -0.428142
     19          1           0       -3.181451   -1.135537   -0.912136
     20          1           0        3.393293    0.483132   -0.003438
 ---------------------------------------------------------------------

 SCF Done:  E(RHF) =  -768.014748060     A.U. after    2 cycles

 The electronic state is 1-A.
 Alpha  occ. eigenvalues --  -93.51375 -20.58284 -20.57687 -11.31784 -11.30712
 Alpha  occ. eigenvalues --  -11.25174 -11.23749 -11.23424  -8.81318  -7.68409
 Alpha  occ. eigenvalues --   -6.15532  -6.15292  -6.15029  -1.35935  -1.31727
 Alpha  occ. eigenvalues --   -1.08939  -1.00692  -0.94955  -0.94573  -0.88618
 Alpha  occ. eigenvalues --   -0.80819  -0.71667  -0.69769  -0.68192  -0.64532
 Alpha  occ. eigenvalues --   -0.63305  -0.60775  -0.58912  -0.57142  -0.55492
 Alpha  occ. eigenvalues --   -0.54207  -0.53815  -0.52621  -0.51445  -0.48060
 Alpha  occ. eigenvalues --   -0.46721  -0.46017  -0.44190  -0.36224
 Alpha virt. eigenvalues --    0.02759   0.04113   0.04325   0.04716   0.05975
 Alpha virt. eigenvalues --    0.06117   0.06224   0.06650   0.06802   0.08586
 Alpha virt. eigenvalues --    0.09042   0.09328   0.09413   0.10610   0.11446

 Mulliken charges:
               1
     1  O   -0.560537
     2  S   -0.338114
     3  O   -0.511741
     4  C    0.962873
     5  C    0.616625
     6  C   -2.187847
     7  C    0.908081
     8  C    0.997438
     9  B    0.567455
    10  H   -0.161052
    11  H   -0.147053
    12  H   -0.072841
    13  H   -0.086353
    14  H    0.027025
    15  H   -0.111376
    16  H    0.025196
    17  H   -0.016687
    18  H    0.008193
    19  H    0.078521
    20  H    0.002193
 Sum of Mulliken charges =  -0.00000

 Dipole moment (field-independent basis, Debye):
    X=             -3.8564    Y=              2.0224    Z=             -0.0576  Tot=              4.3550

 Test job not archived.
 1\1\GINC-SE070\SP\RHF\Aug-CC-pVDZ\C5H11B1O2S1\OHZDE\09-Apr-2025\0\\#t
 hf aug-cc-pvdz iop(5/13=1,5/36=2,99/5=2) pseudo=read geom=check guess=
 (read,tcheck) scf=(maxcycle=1)\\title\\0,1\O,0,0.92727,1.395382,-0.024
 407\S,0,2.750808,-0.69638,0.008894\O,0,0.025633,-0.840549,0.006621\C,0
 ,-0.390206,1.964854,-0.014518\C,0,-1.411924,1.017401,-0.632202\C,0,-1.
 356144,-0.387615,-0.004456\C,0,-1.860982,-0.405343,1.441889\C,0,-2.121
 213,-1.397254,-0.857973\B,0,1.062949,0.039486,-0.002537\H,0,-0.336121,
 2.897431,-0.579395\H,0,-0.648757,2.216435,1.019108\H,0,-1.211335,0.928

 Normal termination of Gaussian 16 at Wed Apr  9 00:49:33 2025.
