 Gaussian 16, Revision C.01,

 ----------------------------------------------------------------------
 #t hf aug-cc-pvdz symm=none int=(grid=ultrafine) guess=(read,tcheck) s
 table=opt
 ----------------------------------------------------------------------
 -----
 title
 -----
 Symbolic Z-matrix:
 Charge =  0 Multiplicity = 2

 SCF Done:  E(UHF) =  -2065.14952373     A.U. after   16 cycles
 Normal termination of Gaussian 16 at Wed Apr  9 00:14:37 2025.
 Gaussian 16:  ES64L-G16RevC.01  3-Jul-2019

 ----------------------------------------------------------------------
 #t hf aug-cc-pvdz iop(5/13=1,5/36=2,99/5=2) pseudo=read geom=check gue
 ss=(read,tcheck) scf=(maxcycle=1)
 ----------------------------------------------------------------------
 -----
 title
 -----
 Structure from the checkpoint file:  "BDE49_nonexpt_2531_mol2.chk"
 Charge =  0 Multiplicity = 2

                         Standard orientation:
 ---------------------------------------------------------------------
 Center     Atomic      Atomic             Coordinates (Angstroms)
 Number     Number       Type             X           Y           Z
 ---------------------------------------------------------------------
      1         16           0       -1.558400    0.003861   -1.466133
      2         14           0        0.002076    0.000123   -0.037323
      3         17           0        1.210375    1.652969   -0.181295
      4         17           0       -0.955366   -0.004425    1.781289
      5         17           0        1.210011   -1.652280   -0.189368
 ---------------------------------------------------------------------

 SCF Done:  E(UHF) =  -2065.24971561     A.U. after    2 cycles

 The electronic state is 2-A.
 Alpha  occ. eigenvalues -- -103.68834-103.68579-103.68578 -93.59110 -69.23897
 Alpha  occ. eigenvalues --  -10.72299 -10.72054 -10.72046  -8.88963  -8.38013
 Alpha  occ. eigenvalues --   -8.37770  -8.37744  -8.37740  -8.37727  -8.37501
 Alpha  occ. eigenvalues --   -8.37499  -8.37487  -8.37483  -6.97543  -6.24299
 Alpha  occ. eigenvalues --   -6.22552  -6.22201  -4.08412  -4.08372  -4.08305
 Alpha  occ. eigenvalues --   -1.19607  -1.16360  -1.16014  -0.99484  -0.71198
 Alpha  occ. eigenvalues --   -0.60704  -0.59980  -0.57122  -0.53373  -0.52567
 Alpha  occ. eigenvalues --   -0.50886  -0.50117  -0.48564  -0.48263  -0.47609
 Alpha  occ. eigenvalues --   -0.42629
 Alpha virt. eigenvalues --    0.04556   0.05868   0.05986   0.06198   0.09400
 Alpha virt. eigenvalues --    0.11079   0.11269   0.11617   0.12607   0.13057
 Alpha virt. eigenvalues --    0.14667   0.16166   0.16330   0.17028   0.17252

  Beta  occ. eigenvalues -- -103.68793-103.68576-103.68575 -93.58233 -69.23930
  Beta  occ. eigenvalues --  -10.72255 -10.72052 -10.72043  -8.87990  -8.37934
  Beta  occ. eigenvalues --   -8.37744  -8.37740  -8.37703  -8.37664  -8.37490
  Beta  occ. eigenvalues --   -8.37486  -8.37485  -8.37483  -6.97596  -6.22044
  Beta  occ. eigenvalues --   -6.21661  -6.20419  -4.08442  -4.08400  -4.08395
  Beta  occ. eigenvalues --   -1.19449  -1.16134  -1.15995  -0.90303  -0.70397
  Beta  occ. eigenvalues --   -0.59947  -0.59911  -0.56285  -0.52557  -0.52456
  Beta  occ. eigenvalues --   -0.50024  -0.50014  -0.48521  -0.46979  -0.40404
  Beta virt. eigenvalues --   -0.03767   0.04732   0.05904   0.06212   0.06320
  Beta virt. eigenvalues --    0.09850   0.11163   0.11598   0.11885   0.12979
  Beta virt. eigenvalues --    0.13093   0.15897   0.16248   0.16882   0.17372

 Mulliken charges and spin densities:
               1          2
     1  S   -0.282595   1.078612
     2  Si   1.532610  -0.102688
     3  Cl  -0.413963   0.003001
     4  Cl  -0.422083   0.018079
     5  Cl  -0.413970   0.002996
 Sum of Mulliken charges =  -0.00000   1.00000

 Dipole moment (field-independent basis, Debye):
    X=             -0.4330    Y=              0.0018    Z=             -0.5694  Tot=              0.7154
                          Isotropic Fermi Contact Couplings
        Atom                 a.u.       MegaHertz       Gauss      10(-4) cm-1
     1  S(33)              0.15587      53.53793      19.10367      17.85833
     2  Si(29)            -0.04849      43.09682      15.37802      14.37555
     3  Cl(35)             0.00050       0.21726       0.07752       0.07247
     4  Cl(35)             0.02185       9.57954       3.41822       3.19539
     5  Cl(35)             0.00049       0.21385       0.07631       0.07133
 --------------------------------------------------------
       Center         ----  Spin Dipole Couplings  ----
                      3XX-RR        3YY-RR        3ZZ-RR

 Normal termination of Gaussian 16 at Wed Apr  9 00:14:40 2025.
