 Gaussian 16, Revision C.01,

 ----------------------------------------------------------------------
 #t hf aug-cc-pvdz symm=none int=(grid=ultrafine) guess=(read,tcheck) s
 table=(opt,rrhf)
 ----------------------------------------------------------------------
 -----
 title
 -----
 Symbolic Z-matrix:
 Charge =  0 Multiplicity = 1

 SCF Done:  E(RHF) =  -606.580582636     A.U. after   12 cycles

 1\1\GINC-SE106\Stability\RHF\Aug-CC-pVDZ\B1H7Si2\OHZDE\09-Apr-2025\0\\
 #t hf aug-cc-pvdz symm=none int=(grid=ultrafine) guess=(read,tcheck) s
 table=(opt,rrhf)\\title\\0,1\Si,0,-1.467404,0.238764,0.000003\Si,0,0.7
 35266,-0.65217,-0.000008\H,0,-1.693015,1.074829,1.203525\H,0,-2.45398,
 -0.868456,-0.00001\H,0,-1.693016,1.074858,-1.203498\B,0,1.95679,0.9293
 3,0.000011\H,0,0.855565,-1.510591,-1.206287\H,0,0.855565,-1.51062,1.20
 625\H,0,2.297437,1.440518,-1.020918\H,0,2.297438,1.440494,1.020952\\Ve
 rsion=ES64L-G16RevC.01\HF=-606.5805826\RMSD=3.474e-09\Dipole=0.1835065

 Normal termination of Gaussian 16 at Wed Apr  9 00:12:33 2025.
 Gaussian 16:  ES64L-G16RevC.01  3-Jul-2019

 ----------------------------------------------------------------------
 #t hf aug-cc-pvdz iop(5/13=1,5/36=2,99/5=2) pseudo=read geom=check gue
 ss=(read,tcheck) scf=(maxcycle=1)
 ----------------------------------------------------------------------
 -----
 title
 -----
 Structure from the checkpoint file:  "BDE49_nonexpt_2451_mol1.chk"
 Charge =  0 Multiplicity = 1

                         Standard orientation:
 ---------------------------------------------------------------------
 Center     Atomic      Atomic             Coordinates (Angstroms)
 Number     Number       Type             X           Y           Z
 ---------------------------------------------------------------------
      1         14           0       -1.467404    0.238764    0.000003
      2         14           0        0.735266   -0.652170   -0.000008
      3          1           0       -1.693015    1.074829    1.203525
      4          1           0       -2.453980   -0.868456   -0.000010
      5          1           0       -1.693016    1.074858   -1.203498
      6          5           0        1.956790    0.929330    0.000011
      7          1           0        0.855565   -1.510591   -1.206287
      8          1           0        0.855565   -1.510620    1.206250
      9          1           0        2.297437    1.440518   -1.020918
     10          1           0        2.297438    1.440494    1.020952
 ---------------------------------------------------------------------

 SCF Done:  E(RHF) =  -606.629056222     A.U. after    2 cycles

 The electronic state is 1-A.
 Alpha  occ. eigenvalues --  -69.06253 -69.04808  -7.63097  -6.81642  -6.80429
 Alpha  occ. eigenvalues --   -3.92397  -3.92395  -3.92373  -3.91178  -3.91175
 Alpha  occ. eigenvalues --   -3.91143  -0.75158  -0.69126  -0.63114  -0.51861
 Alpha  occ. eigenvalues --   -0.48723  -0.48707  -0.46437  -0.43242  -0.37981
 Alpha virt. eigenvalues --    0.02371   0.03743   0.04692   0.04785   0.05089
 Alpha virt. eigenvalues --    0.07191   0.07289   0.07663   0.08567   0.08842
 Alpha virt. eigenvalues --    0.09549   0.10012   0.10439   0.10792   0.10888

 Mulliken charges:
               1
     1  Si  -0.024577
     2  Si  -0.311586
     3  H    0.022991
     4  H    0.013760
     5  H    0.022991
     6  B   -0.425995
     7  H    0.035323
     8  H    0.035323
     9  H    0.315885
    10  H    0.315884
 Sum of Mulliken charges =  -0.00000

 Dipole moment (field-independent basis, Debye):
    X=              0.4894    Y=              0.1087    Z=              0.0000  Tot=              0.5014

 Test job not archived.
 1\1\GINC-SE106\SP\RHF\Aug-CC-pVDZ\B1H7Si2\OHZDE\09-Apr-2025\0\\#t hf a
 ug-cc-pvdz iop(5/13=1,5/36=2,99/5=2) pseudo=read geom=check guess=(rea
 d,tcheck) scf=(maxcycle=1)\\title\\0,1\Si,0,-1.467404,0.238764,0.00000
 3\Si,0,0.735266,-0.65217,-0.000008\H,0,-1.693015,1.074829,1.203525\H,0
 ,-2.45398,-0.868456,-0.00001\H,0,-1.693016,1.074858,-1.203498\B,0,1.95
 679,0.92933,0.000011\H,0,0.855565,-1.510591,-1.206287\H,0,0.855565,-1.
 51062,1.20625\H,0,2.297437,1.440518,-1.020918\H,0,2.297438,1.440494,1.
 020952\\Version=ES64L-G16RevC.01\State=1-A\HF=-606.6290562\RMSD=5.819e

 Normal termination of Gaussian 16 at Wed Apr  9 00:12:36 2025.
