 Gaussian 16, Revision C.01,

 ----------------------------------------------------------------------
 #t hf aug-cc-pvdz symm=none int=(grid=ultrafine) guess=(read,tcheck) s
 table=(opt,rrhf)
 ----------------------------------------------------------------------
 -----
 title
 -----
 Symbolic Z-matrix:
 Charge =  0 Multiplicity = 1

 SCF Done:  E(RHF) =  -685.971132481     A.U. after   16 cycles
 Normal termination of Gaussian 16 at Tue Apr  8 23:35:11 2025.
 Gaussian 16:  ES64L-G16RevC.01  3-Jul-2019

 ----------------------------------------------------------------------
 #t hf aug-cc-pvdz iop(5/13=1,5/36=2,99/5=2) pseudo=read geom=check gue
 ss=(read,tcheck) scf=(maxcycle=1)
 ----------------------------------------------------------------------
 -----
 title
 -----
 Structure from the checkpoint file:  "BDE49_nonexpt_1485_mol1.chk"
 Charge =  0 Multiplicity = 1

                         Standard orientation:
 ---------------------------------------------------------------------
 Center     Atomic      Atomic             Coordinates (Angstroms)
 Number     Number       Type             X           Y           Z
 ---------------------------------------------------------------------
      1          6           0       -1.633591    1.180176   -0.103604
      2          6           0       -0.250113    1.351826   -0.082133
      3          6           0       -2.201493   -0.091767   -0.007795
      4          6           0       -1.340280   -1.190967    0.115857
      5          6           0        0.038281   -1.025200    0.154708
      6          6           0        0.601097    0.253921    0.063560
      7         15           0        2.418795    0.537986    0.098835
      8          8           0        3.008290   -0.988797   -0.270970
      9          1           0        3.416309   -0.975766   -1.141747
     10          1           0       -2.278208    2.046897   -0.209720
     11          1           0        0.166134    2.349759   -0.183524
     12          1           0       -1.759497   -2.190183    0.188079
     13          1           0        0.691180   -1.885681    0.246100
     14          6           0       -3.697197   -0.288794   -0.056997
     15          1           0       -4.226809    0.664518   -0.006904
     16          1           0       -4.042706   -0.910910    0.773703
     17          1           0       -3.999086   -0.789278   -0.982965
     18          1           0        2.584211    0.396063    1.500643
 ---------------------------------------------------------------------

 SCF Done:  E(RHF) =  -686.103014276     A.U. after    2 cycles

 The electronic state is 1-A.
 Alpha  occ. eigenvalues --  -81.29736 -20.58675 -11.25675 -11.25099 -11.24721
 Alpha  occ. eigenvalues --  -11.24385 -11.24279 -11.24215 -11.23879  -7.79444
 Alpha  occ. eigenvalues --   -4.93632  -4.93375  -4.93125  -1.31384  -1.14751
 Alpha  occ. eigenvalues --   -1.04374  -1.01108  -0.93833  -0.83366  -0.82551
 Alpha  occ. eigenvalues --   -0.77967  -0.69101  -0.65895  -0.64303  -0.62505
 Alpha  occ. eigenvalues --   -0.59285  -0.59160  -0.58147  -0.57707  -0.54695
 Alpha  occ. eigenvalues --   -0.52057  -0.49754  -0.49244  -0.45902  -0.36711
 Alpha  occ. eigenvalues --   -0.34266  -0.31917
 Alpha virt. eigenvalues --    0.03382   0.03982   0.04242   0.05272   0.05591
 Alpha virt. eigenvalues --    0.05937   0.06621   0.07739   0.07981   0.09152
 Alpha virt. eigenvalues --    0.09386   0.10039   0.10831   0.11183   0.12812

 Mulliken charges:
               1
     1  C    0.856144
     2  C    0.173051
     3  C   -0.343504
     4  C    0.741038
     5  C    0.343528
     6  C    0.014204
     7  P    0.507197
     8  O   -0.749639
     9  H    0.198715
    10  H   -0.591403
    11  H   -0.539041
    12  H   -0.602089
    13  H   -0.606184
    14  C    0.575406
    15  H   -0.174637
    16  H    0.017300
    17  H    0.072754
    18  H    0.107158
 Sum of Mulliken charges =  -0.00000

 Dipole moment (field-independent basis, Debye):
    X=             -1.2211    Y=              0.0961    Z=             -0.7964  Tot=              1.4610

 Test job not archived.
 1\1\GINC-SE038\SP\RHF\Aug-CC-pVDZ\C7H9O1P1\OHZDE\08-Apr-2025\0\\#t hf
 aug-cc-pvdz iop(5/13=1,5/36=2,99/5=2) pseudo=read geom=check guess=(re
 ad,tcheck) scf=(maxcycle=1)\\title\\0,1\C,0,-1.633591,1.180176,-0.1036
 04\C,0,-0.250113,1.351826,-0.082133\C,0,-2.201493,-0.091767,-0.007795\
 C,0,-1.34028,-1.190967,0.115857\C,0,0.038281,-1.0252,0.154708\C,0,0.60
 1097,0.253921,0.06356\P,0,2.418795,0.537986,0.098835\O,0,3.00829,-0.98
 8797,-0.27097\H,0,3.416309,-0.975766,-1.141747\H,0,-2.278208,2.046897,
 -0.20972\H,0,0.166134,2.349759,-0.183524\H,0,-1.759497,-2.190183,0.188

 Normal termination of Gaussian 16 at Tue Apr  8 23:35:22 2025.
