 Gaussian 16, Revision C.01,

 ----------------------------------------------------------------------
 #t hf aug-cc-pvdz symm=none int=(grid=ultrafine) guess=(read,tcheck) s
 table=(opt,rrhf)
 ----------------------------------------------------------------------
 -----
 title
 -----
 Symbolic Z-matrix:
 Charge =  0 Multiplicity = 1

 SCF Done:  E(RHF) =  -362.193521066     A.U. after   12 cycles
 Normal termination of Gaussian 16 at Wed Apr  9 00:28:40 2025.
 Gaussian 16:  ES64L-G16RevC.01  3-Jul-2019

 ----------------------------------------------------------------------
 #t hf aug-cc-pvdz iop(5/13=1,5/36=2,99/5=2) pseudo=read geom=check gue
 ss=(read,tcheck) scf=(maxcycle=1)
 ----------------------------------------------------------------------
 -----
 title
 -----
 Structure from the checkpoint file:  "BDE49_nonexpt_357_mol1.chk"
 Charge =  0 Multiplicity = 1

                         Standard orientation:
 ---------------------------------------------------------------------
 Center     Atomic      Atomic             Coordinates (Angstroms)
 Number     Number       Type             X           Y           Z
 ---------------------------------------------------------------------
      1          9           0        1.662235   -0.731959   -0.000020
      2          9           0        0.690820    1.312710   -0.000048
      3          5           0        0.557580    0.002239    0.000047
      4          6           0       -0.838999   -0.713274    0.000035
      5          9           0       -1.896087    0.196501    0.000009
      6          1           0       -0.933323   -1.363398    0.879312
      7          1           0       -0.933299   -1.363419   -0.879229
 ---------------------------------------------------------------------

 SCF Done:  E(RHF) =  -362.333899374     A.U. after    2 cycles

 The electronic state is 1-A.
 Alpha  occ. eigenvalues --  -26.15433 -26.15110 -26.11899 -11.32970  -7.75527
 Alpha  occ. eigenvalues --   -1.70636  -1.68437  -1.64812  -0.99747  -0.88822
 Alpha  occ. eigenvalues --   -0.83769  -0.80416  -0.78607  -0.75197  -0.74897
 Alpha  occ. eigenvalues --   -0.73513  -0.72505  -0.71442  -0.57021  -0.54279
 Alpha virt. eigenvalues --    0.03125   0.04553   0.05571   0.05828   0.07461
 Alpha virt. eigenvalues --    0.09321   0.11248   0.13602   0.14674   0.16354
 Alpha virt. eigenvalues --    0.17097   0.21408   0.22423   0.24712   0.26170

 Mulliken charges:
               1
     1  F   -0.438612
     2  F   -0.397551
     3  B    0.976469
     4  C    0.612031
     5  F   -0.447739
     6  H   -0.152294
     7  H   -0.152304
 Sum of Mulliken charges =  -0.00000

 Dipole moment (field-independent basis, Debye):
    X=              0.1598    Y=             -2.2002    Z=              0.0003  Tot=              2.2060

 Test job not archived.
 1\1\GINC-SE339\SP\RHF\Aug-CC-pVDZ\C1H2B1F3\OHZDE\09-Apr-2025\0\\#t hf
 aug-cc-pvdz iop(5/13=1,5/36=2,99/5=2) pseudo=read geom=check guess=(re
 ad,tcheck) scf=(maxcycle=1)\\title\\0,1\F,0,1.662235,-0.731959,-0.0000
 2\F,0,0.69082,1.31271,-0.000048\B,0,0.55758,0.002239,0.000047\C,0,-0.8
 38999,-0.713274,0.000035\F,0,-1.896087,0.196501,0.000009\H,0,-0.933323
 ,-1.363398,0.879312\H,0,-0.933299,-1.363419,-0.879229\\Version=ES64L-G
 16RevC.01\State=1-A\HF=-362.3338994\RMSD=5.598e-03\Dipole=0.062865,-0.
 8656325,0.0001356\Quadrupole=-3.9027798,0.5562436,3.3465362,1.9259684,

 Normal termination of Gaussian 16 at Wed Apr  9 00:28:42 2025.
