 Gaussian 16, Revision C.01,

 ----------------------------------------------------------------------
 #t hf aug-cc-pvdz symm=none int=(grid=ultrafine) guess=(read,tcheck) s
 table=(opt,rrhf)
 ----------------------------------------------------------------------
 -----
 title
 -----
 Symbolic Z-matrix:
 Charge =  0 Multiplicity = 1

 SCF Done:  E(RHF) =  -413.706913871     A.U. after   13 cycles
 Normal termination of Gaussian 16 at Tue Apr  8 22:28:20 2025.
 Gaussian 16:  ES64L-G16RevC.01  3-Jul-2019

 ----------------------------------------------------------------------
 #t hf aug-cc-pvdz iop(5/13=1,5/36=2,99/5=2) pseudo=read geom=check gue
 ss=(read,tcheck) scf=(maxcycle=1)
 ----------------------------------------------------------------------
 -----
 title
 -----
 Structure from the checkpoint file:  "BDE49_expt_1022_mol1.chk"
 Charge =  0 Multiplicity = 1

                         Standard orientation:
 ---------------------------------------------------------------------
 Center     Atomic      Atomic             Coordinates (Angstroms)
 Number     Number       Type             X           Y           Z
 ---------------------------------------------------------------------
      1          6           0       -0.371488   -0.018643   -0.000000
      2          9           0       -0.327276    1.328396   -0.000001
      3          9           0       -1.085540   -0.398528    1.085363
      4          9           0       -1.085541   -0.398530   -1.085361
      5          6           0        0.983576   -0.649373   -0.000000
      6          6           0        2.111242    0.046603   -0.000000
      7          1           0        0.964323   -1.733358    0.000001
      8          1           0        2.107148    1.129761   -0.000001
      9          1           0        3.073760   -0.449966   -0.000000
 ---------------------------------------------------------------------

 SCF Done:  E(RHF) =  -413.853739039     A.U. after    2 cycles

 The electronic state is 1-A.
 Alpha  occ. eigenvalues --  -26.16514 -26.16047 -26.16037 -11.52796 -11.28241
 Alpha  occ. eigenvalues --  -11.28013  -1.75611  -1.68790  -1.68338  -1.11329
 Alpha  occ. eigenvalues --   -1.00951  -0.89583  -0.87342  -0.87314  -0.78776
 Alpha  occ. eigenvalues --   -0.76802  -0.76396  -0.72573  -0.72303  -0.71279
 Alpha  occ. eigenvalues --   -0.66542  -0.62681  -0.55406  -0.42432
 Alpha virt. eigenvalues --    0.03186   0.04615   0.05482   0.08287   0.09112
 Alpha virt. eigenvalues --    0.10467   0.10941   0.13052   0.13404   0.14900
 Alpha virt. eigenvalues --    0.15528   0.15963   0.16941   0.18269   0.21244

 Mulliken charges:
               1
     1  C    1.007709
     2  F   -0.318407
     3  F   -0.329598
     4  F   -0.329597
     5  C    0.299262
     6  C    0.471188
     7  H   -0.318539
     8  H   -0.240239
     9  H   -0.241779
 Sum of Mulliken charges =  -0.00000

 Dipole moment (field-independent basis, Debye):
    X=              2.9733    Y=             -0.7812    Z=             -0.0000  Tot=              3.0743

 Test job not archived.
 1\1\GINC-SE082\SP\RHF\Aug-CC-pVDZ\C3H3F3\OHZDE\08-Apr-2025\0\\#t hf au
 g-cc-pvdz iop(5/13=1,5/36=2,99/5=2) pseudo=read geom=check guess=(read
 ,tcheck) scf=(maxcycle=1)\\title\\0,1\C,0,-0.371488,-0.018643,0.\F,0,-
 0.327276,1.328396,-0.000001\F,0,-1.08554,-0.398528,1.085363\F,0,-1.085
 541,-0.39853,-1.085361\C,0,0.983576,-0.649373,0.\C,0,2.111242,0.046603
 ,0.\H,0,0.964323,-1.733358,0.000001\H,0,2.107148,1.129761,-0.000001\H,
 0,3.07376,-0.449966,0.\\Version=ES64L-G16RevC.01\State=1-A\HF=-413.853
 739\RMSD=7.775e-03\Dipole=1.1698033,-0.3073619,-0.0000011\Quadrupole=2

 Normal termination of Gaussian 16 at Tue Apr  8 22:28:23 2025.
