 Gaussian 16, Revision C.01,

 ----------------------------------------------------------------------
 #t hf aug-cc-pvdz symm=none int=(grid=ultrafine) guess=(read,tcheck) s
 table=(opt,rrhf)
 ----------------------------------------------------------------------
 -----
 title
 -----
 Symbolic Z-matrix:
 Charge =  0 Multiplicity = 1

 SCF Done:  E(RHF) =  -1749.25056041     A.U. after   17 cycles
 Normal termination of Gaussian 16 at Wed Apr  9 00:27:29 2025.
 Gaussian 16:  ES64L-G16RevC.01  3-Jul-2019

 ----------------------------------------------------------------------
 #t hf aug-cc-pvdz iop(5/13=1,5/36=2,99/5=2) pseudo=read geom=check gue
 ss=(read,tcheck) scf=(maxcycle=1)
 ----------------------------------------------------------------------
 -----
 title
 -----
 Structure from the checkpoint file:  "BDE49_nonexpt_2723_mol1.chk"
 Charge =  0 Multiplicity = 1

                         Standard orientation:
 ---------------------------------------------------------------------
 Center     Atomic      Atomic             Coordinates (Angstroms)
 Number     Number       Type             X           Y           Z
 ---------------------------------------------------------------------
      1          6           0        0.967785    0.199217   -0.394285
      2          8           0        0.383001    1.140516   -0.852450
      3         16           0        0.060964   -1.305161    0.195223
      4         16           0       -1.853587   -0.878421   -0.455564
      5          6           0       -2.357460    0.351069    0.793439
      6          8           0       -1.679137    0.702030    1.713094
      7          6           0        2.443257    0.140143   -0.196694
      8          6           0        3.158096    1.336904   -0.342756
      9          6           0        4.536320    1.350391   -0.174181
     10          6           0        5.213596    0.170393    0.134513
     11          6           0        4.509225   -1.024096    0.272685
     12          6           0        3.128142   -1.041936    0.107906
     13          1           0        2.593102   -1.979328    0.201355
     14          1           0        2.613891    2.240690   -0.585721
     15          1           0        5.084316    2.279047   -0.283401
     16          1           0        6.289815    0.181446    0.264598
     17          1           0        5.035440   -1.942554    0.504352
     18          6           0       -3.716393    0.999645    0.552227
     19         17           0       -4.830053    0.083669   -0.526041
     20          1           0       -3.543294    1.972068    0.090601
     21          1           0       -4.206726    1.132827    1.514092
 ---------------------------------------------------------------------

 SCF Done:  E(RHF) =  -1749.45520205     A.U. after    2 cycles

 The electronic state is 1-A.
 Alpha  occ. eigenvalues -- -103.67538 -93.58808 -93.58149 -20.59825 -20.58884
 Alpha  occ. eigenvalues --  -11.40136 -11.39392 -11.33829 -11.27807 -11.27683
 Alpha  occ. eigenvalues --  -11.27356 -11.27112 -11.26578 -11.26435 -10.70809
 Alpha  occ. eigenvalues --   -8.88409  -8.87802  -8.36531  -8.36238  -8.36214
 Alpha  occ. eigenvalues --   -6.22540  -6.22256  -6.21934  -6.21925  -6.21661
 Alpha  occ. eigenvalues --   -6.21335  -1.39896  -1.38826  -1.18870  -1.17120
 Alpha  occ. eigenvalues --   -1.07444  -1.04994  -1.03564  -0.99812  -0.93415
 Alpha  occ. eigenvalues --   -0.87551  -0.85039  -0.78667  -0.75216  -0.72577
 Alpha  occ. eigenvalues --   -0.68807  -0.68310  -0.67772  -0.66685  -0.65397
 Alpha  occ. eigenvalues --   -0.63768  -0.61760  -0.61590  -0.59691  -0.57483
 Alpha  occ. eigenvalues --   -0.56511  -0.54342  -0.52235  -0.52147  -0.49746
 Alpha  occ. eigenvalues --   -0.48490  -0.46938  -0.44464  -0.43933  -0.39781
 Alpha  occ. eigenvalues --   -0.38347  -0.36315  -0.36199
 Alpha virt. eigenvalues --    0.02897   0.03834   0.04116   0.04740   0.04915
 Alpha virt. eigenvalues --    0.05644   0.06422   0.07011   0.07498   0.08701
 Alpha virt. eigenvalues --    0.09024   0.09395   0.09843   0.10396   0.10802

 Mulliken charges:
               1
     1  C   -0.632251
     2  O   -0.426938
     3  S    0.000859
     4  S    0.172336
     5  C    0.022807
     6  O   -0.442993
     7  C    1.415307
     8  C    0.007648
     9  C    0.683096
    10  C    0.460026
    11  C    0.530789
    12  C    0.293807
    13  H   -0.490320
    14  H   -0.600868
    15  H   -0.417780
    16  H   -0.428605
    17  H   -0.452753
    18  C    0.002220
    19  Cl  -0.049636
    20  H    0.203019
    21  H    0.150229
 Sum of Mulliken charges =  -0.00000

 Dipole moment (field-independent basis, Debye):
    X=              2.6939    Y=             -0.1965    Z=              0.2907  Tot=              2.7166

 Test job not archived.
 1\1\GINC-SE054\SP\RHF\Aug-CC-pVDZ\C9H7Cl1O2S2\OHZDE\09-Apr-2025\0\\#t
 hf aug-cc-pvdz iop(5/13=1,5/36=2,99/5=2) pseudo=read geom=check guess=
 (read,tcheck) scf=(maxcycle=1)\\title\\0,1\C,0,0.967785,0.199217,-0.39
 4285\O,0,0.383001,1.140516,-0.85245\S,0,0.060964,-1.305161,0.195223\S,
 0,-1.853587,-0.878421,-0.455564\C,0,-2.35746,0.351069,0.793439\O,0,-1.
 679137,0.70203,1.713094\C,0,2.443257,0.140143,-0.196694\C,0,3.158096,1
 .336904,-0.342756\C,0,4.53632,1.350391,-0.174181\C,0,5.213596,0.170393
 ,0.134513\C,0,4.509225,-1.024096,0.272685\C,0,3.128142,-1.041936,0.107

 Normal termination of Gaussian 16 at Wed Apr  9 00:27:48 2025.
