 Gaussian 16, Revision C.01,

 ----------------------------------------------------------------------
 #t hf aug-cc-pvdz symm=none int=(grid=ultrafine) guess=(read,tcheck) s
 table=(opt,rrhf)
 ----------------------------------------------------------------------
 -----
 title
 -----
 Symbolic Z-matrix:
 Charge =  0 Multiplicity = 1

 SCF Done:  E(RHF) =  -423.831322843     A.U. after   16 cycles
 Normal termination of Gaussian 16 at Wed Apr  9 00:38:14 2025.
 Gaussian 16:  ES64L-G16RevC.01  3-Jul-2019

 ----------------------------------------------------------------------
 #t hf aug-cc-pvdz iop(5/13=1,5/36=2,99/5=2) pseudo=read geom=check gue
 ss=(read,tcheck) scf=(maxcycle=1)
 ----------------------------------------------------------------------
 -----
 title
 -----
 Structure from the checkpoint file:  "BDE49_nonexpt_573_mol1.chk"
 Charge =  0 Multiplicity = 1

                         Standard orientation:
 ---------------------------------------------------------------------
 Center     Atomic      Atomic             Coordinates (Angstroms)
 Number     Number       Type             X           Y           Z
 ---------------------------------------------------------------------
      1          6           0        2.052307   -1.372254   -0.144425
      2          6           0        0.674593   -1.171571   -0.164355
      3          6           0        0.144590    0.116075   -0.016347
      4          6           0       -1.325905    0.419481   -0.054865
      5          8           0       -1.742109    1.529645   -0.290984
      6          5           0       -3.599231   -0.662680    0.093322
      7          6           0        2.912218   -0.290474    0.029428
      8          6           0        2.392294    0.996526    0.168099
      9          6           0        1.018419    1.199340    0.136027
     10          1           0        0.594810    2.191654    0.226106
     11          1           0        2.452914   -2.371389   -0.270872
     12          1           0        0.025437   -2.023524   -0.333146
     13          1           0        3.984530   -0.448720    0.049878
     14          1           0        3.059741    1.840787    0.297067
     15          7           0       -2.191528   -0.662970    0.217489
     16          1           0       -4.154888    0.302922   -0.305515
     17          1           0       -4.169592   -1.663234    0.395382
     18          1           0       -1.730327   -1.494195    0.558560
 ---------------------------------------------------------------------

 SCF Done:  E(RHF) =  -423.959645191     A.U. after    2 cycles

 The electronic state is 1-A.
 Alpha  occ. eigenvalues --  -20.55524 -15.65089 -11.38209 -11.27353 -11.27011
 Alpha  occ. eigenvalues --  -11.26803 -11.26344 -11.26333 -11.26043  -7.62130
 Alpha  occ. eigenvalues --   -1.36593  -1.18377  -1.16006  -1.04131  -1.03047
 Alpha  occ. eigenvalues --   -0.88811  -0.84981  -0.80188  -0.75699  -0.72093
 Alpha  occ. eigenvalues --   -0.69074  -0.65873  -0.64096  -0.62420  -0.61199
 Alpha  occ. eigenvalues --   -0.59525  -0.56748  -0.53737  -0.51932  -0.51651
 Alpha  occ. eigenvalues --   -0.48470  -0.45460  -0.44280  -0.36220  -0.35769
 Alpha virt. eigenvalues --    0.02538   0.03450   0.04136   0.04462   0.05207
 Alpha virt. eigenvalues --    0.05436   0.06429   0.06669   0.07544   0.07942
 Alpha virt. eigenvalues --    0.09302   0.09919   0.10728   0.11252   0.11716

 Mulliken charges:
               1
     1  C    0.427328
     2  C    0.447480
     3  C    1.306147
     4  C    0.082808
     5  O   -0.429739
     6  B   -0.647111
     7  C    0.426717
     8  C    0.557339
     9  C    0.033387
    10  H   -0.587135
    11  H   -0.451519
    12  H   -0.626818
    13  H   -0.429560
    14  H   -0.416523
    15  N   -0.353140
    16  H    0.318204
    17  H    0.380193
    18  H   -0.038057
 Sum of Mulliken charges =  -0.00000

 Dipole moment (field-independent basis, Debye):
    X=              3.0261    Y=             -3.2271    Z=              0.8188  Tot=              4.4991

 Test job not archived.
 1\1\GINC-SE041\SP\RHF\Aug-CC-pVDZ\C7H8B1N1O1\OHZDE\09-Apr-2025\0\\#t h
 f aug-cc-pvdz iop(5/13=1,5/36=2,99/5=2) pseudo=read geom=check guess=(
 read,tcheck) scf=(maxcycle=1)\\title\\0,1\C,0,2.052307,-1.372254,-0.14
 4425\C,0,0.674593,-1.171571,-0.164355\C,0,0.14459,0.116075,-0.016347\C
 ,0,-1.325905,0.419481,-0.054865\O,0,-1.742109,1.529645,-0.290984\B,0,-
 3.599231,-0.66268,0.093322\C,0,2.912218,-0.290474,0.029428\C,0,2.39229
 4,0.996526,0.168099\C,0,1.018419,1.19934,0.136027\H,0,0.59481,2.191654
 ,0.226106\H,0,2.452914,-2.371389,-0.270872\H,0,0.025437,-2.023524,-0.3

 Normal termination of Gaussian 16 at Wed Apr  9 00:38:24 2025.
