 Gaussian 16, Revision C.01,

 ----------------------------------------------------------------------
 #t hf aug-cc-pvdz symm=none int=(grid=ultrafine) guess=(read,tcheck) s
 table=(opt,rrhf)
 ----------------------------------------------------------------------
 -----
 title
 -----
 Symbolic Z-matrix:
 Charge =  0 Multiplicity = 1

 SCF Done:  E(RHF) =  -522.306687868     A.U. after   12 cycles
 Normal termination of Gaussian 16 at Wed Apr  9 00:04:00 2025.
 Gaussian 16:  ES64L-G16RevC.01  3-Jul-2019

 ----------------------------------------------------------------------
 #t hf aug-cc-pvdz iop(5/13=1,5/36=2,99/5=2) pseudo=read geom=check gue
 ss=(read,tcheck) scf=(maxcycle=1)
 ----------------------------------------------------------------------
 -----
 title
 -----
 Structure from the checkpoint file:  "BDE49_nonexpt_2216_mol1.chk"
 Charge =  0 Multiplicity = 1

                         Standard orientation:
 ---------------------------------------------------------------------
 Center     Atomic      Atomic             Coordinates (Angstroms)
 Number     Number       Type             X           Y           Z
 ---------------------------------------------------------------------
      1          6           0        3.352872   -0.553379   -0.133925
      2          6           0        1.908982   -0.402265    0.351915
      3          1           0        3.824736   -1.442838    0.292092
      4          1           0        3.961478    0.312107    0.147383
      5          1           0        3.394764   -0.646059   -1.223628
      6          6           0        1.211563    0.834812   -0.222651
      7          1           0        1.894377   -0.346513    1.447631
      8          1           0        1.330328   -1.289295    0.079767
      9          6           0       -0.236753    0.984857    0.221314
     10          1           0        1.234117    0.798322   -1.317834
     11          1           0        1.752880    1.741868    0.075265
     12          8           0       -1.000370   -0.124795   -0.260579
     13          1           0       -0.656089    1.920135   -0.171685
     14          1           0       -0.295155    1.025475    1.318198
     15         14           0       -2.611931   -0.354157   -0.004230
     16          1           0       -2.961809   -1.618035   -0.680286
     17          1           0       -3.409234    0.764671   -0.568485
     18          1           0       -2.920386   -0.447430    1.445514
 ---------------------------------------------------------------------

 SCF Done:  E(RHF) =  -522.414819492     A.U. after    2 cycles

 The electronic state is 1-A.
 Alpha  occ. eigenvalues --  -69.08949 -20.56066 -11.29474 -11.23003 -11.22544
 Alpha  occ. eigenvalues --  -11.22163  -6.83769  -3.94680  -3.94548  -3.94518
 Alpha  occ. eigenvalues --   -1.30576  -1.05986  -0.97396  -0.86261  -0.79316
 Alpha  occ. eigenvalues --   -0.73206  -0.65486  -0.63444  -0.61515  -0.60555
 Alpha  occ. eigenvalues --   -0.56220  -0.53372  -0.52595  -0.50137  -0.47506
 Alpha  occ. eigenvalues --   -0.47373  -0.46822  -0.45634  -0.44118
 Alpha virt. eigenvalues --    0.03478   0.04248   0.04539   0.04824   0.05783
 Alpha virt. eigenvalues --    0.06304   0.06660   0.07066   0.07658   0.08001
 Alpha virt. eigenvalues --    0.08997   0.09247   0.09954   0.11237   0.11296

 Mulliken charges:
               1
     1  C    0.398589
     2  C    0.147823
     3  H   -0.064075
     4  H   -0.076635
     5  H   -0.059071
     6  C    0.110268
     7  H   -0.150288
     8  H   -0.118535
     9  C    0.845446
    10  H   -0.138015
    11  H   -0.092039
    12  O   -0.838345
    13  H   -0.174539
    14  H   -0.229716
    15  Si   0.364640
    16  H    0.025349
    17  H    0.031048
    18  H    0.018095
 Sum of Mulliken charges =   0.00000

 Dipole moment (field-independent basis, Debye):
    X=              0.2840    Y=              0.9880    Z=              0.5706  Tot=              1.1757

 Test job not archived.
 1\1\GINC-SE393\SP\RHF\Aug-CC-pVDZ\C4H12O1Si1\OHZDE\09-Apr-2025\0\\#t h
 f aug-cc-pvdz iop(5/13=1,5/36=2,99/5=2) pseudo=read geom=check guess=(
 read,tcheck) scf=(maxcycle=1)\\title\\0,1\C,0,3.352872,-0.553379,-0.13
 3925\C,0,1.908982,-0.402265,0.351915\H,0,3.824736,-1.442838,0.292092\H
 ,0,3.961478,0.312107,0.147383\H,0,3.394764,-0.646059,-1.223628\C,0,1.2
 11563,0.834812,-0.222651\H,0,1.894377,-0.346513,1.447631\H,0,1.330328,
 -1.289295,0.079767\C,0,-0.236753,0.984857,0.221314\H,0,1.234117,0.7983
 22,-1.317834\H,0,1.75288,1.741868,0.075265\O,0,-1.00037,-0.124795,-0.2

 Normal termination of Gaussian 16 at Wed Apr  9 00:04:07 2025.
