 Gaussian 16, Revision C.01,

 ----------------------------------------------------------------------
 #t hf aug-cc-pvdz symm=none int=(grid=ultrafine) guess=(read,tcheck) s
 table=opt
 ----------------------------------------------------------------------
 -----
 title
 -----
 Symbolic Z-matrix:
 Charge =  0 Multiplicity = 2

 SCF Done:  E(UHF) =  -634.483236351     A.U. after   16 cycles
 Normal termination of Gaussian 16 at Wed Apr  9 00:00:11 2025.
 Gaussian 16:  ES64L-G16RevC.01  3-Jul-2019

 ----------------------------------------------------------------------
 #t hf aug-cc-pvdz iop(5/13=1,5/36=2,99/5=2) pseudo=read geom=check gue
 ss=(read,tcheck) scf=(maxcycle=1)
 ----------------------------------------------------------------------
 -----
 title
 -----
 Structure from the checkpoint file:  "BDE49_nonexpt_2085_mol2.chk"
 Charge =  0 Multiplicity = 2

                         Standard orientation:
 ---------------------------------------------------------------------
 Center     Atomic      Atomic             Coordinates (Angstroms)
 Number     Number       Type             X           Y           Z
 ---------------------------------------------------------------------
      1         14           0        0.000000    1.797590   -0.208140
      2          8           0        1.325333    0.839906    0.034014
      3          8           0       -1.325333    0.839906    0.034012
      4          6           0       -0.000000   -1.220790   -0.143020
      5          6           0       -1.283650   -0.559141    0.373562
      6          6           0        1.283650   -0.559141    0.373562
      7          6           0        2.545352   -1.210607   -0.172873
      8          1           0        2.555212   -1.163608   -1.265004
      9          1           0        2.606438   -2.258659    0.134136
     10          1           0        3.427306   -0.686071    0.199412
     11          1           0        1.292969   -0.622712    1.470967
     12          1           0       -0.000000   -1.198429   -1.240241
     13          1           0       -0.000000   -2.273254    0.159855
     14          6           0       -2.545352   -1.210607   -0.172872
     15          1           0       -1.292969   -0.622711    1.470967
     16          1           0       -2.555213   -1.163609   -1.265003
     17          1           0       -3.427306   -0.686071    0.199412
     18          1           0       -2.606439   -2.258659    0.134137
     19          1           0        0.000000    2.890743    0.820962
 ---------------------------------------------------------------------

 SCF Done:  E(UHF) =  -634.629450439     A.U. after    2 cycles

 The electronic state is 2-A.
 Alpha  occ. eigenvalues --  -69.11602 -20.56144 -20.56144 -11.30535 -11.30530
 Alpha  occ. eigenvalues --  -11.24301 -11.22998 -11.22997  -6.86040  -3.97166
 Alpha  occ. eigenvalues --   -3.96702  -3.96436  -1.32559  -1.29476  -1.06956
 Alpha  occ. eigenvalues --   -1.01169  -0.94153  -0.83119  -0.82285  -0.72615
 Alpha  occ. eigenvalues --   -0.67023  -0.66298  -0.65405  -0.60437  -0.58141
 Alpha  occ. eigenvalues --   -0.57507  -0.55631  -0.55024  -0.53836  -0.53674
 Alpha  occ. eigenvalues --   -0.51399  -0.51244  -0.46603  -0.46411  -0.44531
 Alpha  occ. eigenvalues --   -0.32083
 Alpha virt. eigenvalues --    0.03283   0.04263   0.04388   0.04643   0.05897
 Alpha virt. eigenvalues --    0.06214   0.06273   0.06402   0.08033   0.08221
 Alpha virt. eigenvalues --    0.08938   0.09186   0.09565   0.10050   0.12939

  Beta  occ. eigenvalues --  -69.11078 -20.55811 -20.55811 -11.30529 -11.30524
  Beta  occ. eigenvalues --  -11.24301 -11.23000 -11.23000  -6.85171  -3.96351
  Beta  occ. eigenvalues --   -3.96175  -3.95346  -1.31740  -1.28626  -1.06776
  Beta  occ. eigenvalues --   -1.01052  -0.94140  -0.82883  -0.81494  -0.71956
  Beta  occ. eigenvalues --   -0.66627  -0.66078  -0.65038  -0.58802  -0.57179
  Beta  occ. eigenvalues --   -0.56469  -0.55203  -0.54897  -0.53708  -0.53088
  Beta  occ. eigenvalues --   -0.51222  -0.49335  -0.45568  -0.44803  -0.44379
  Beta virt. eigenvalues --    0.03282   0.03844   0.04276   0.04583   0.05689
  Beta virt. eigenvalues --    0.06225   0.06229   0.06346   0.06781   0.08399
  Beta virt. eigenvalues --    0.08892   0.09201   0.09328   0.10073   0.10786

 Mulliken charges and spin densities:
               1          2
     1  Si   0.488576   0.943563
     2  O   -0.849286  -0.059620
     3  O   -0.849286  -0.059621
     4  C   -0.190317  -0.062403
     5  C    0.425868   0.033317
     6  C    0.425868   0.033317
     7  C    0.578056   0.003696
     8  H   -0.021627   0.001750
     9  H   -0.027855   0.000046
    10  H   -0.028648   0.000643
    11  H   -0.248113   0.004270
    12  H   -0.109699  -0.004024
    13  H   -0.103987  -0.002219
    14  C    0.578058   0.003696
    15  H   -0.248113   0.004270
    16  H   -0.021628   0.001750
    17  H   -0.028649   0.000643
    18  H   -0.027855   0.000046
    19  H    0.258636   0.156880
 Sum of Mulliken charges =   0.00000   1.00000

 Dipole moment (field-independent basis, Debye):
    X=             -0.0000    Y=             -2.5685    Z=              0.4150  Tot=              2.6018
                          Isotropic Fermi Contact Couplings
        Atom                 a.u.       MegaHertz       Gauss      10(-4) cm-1
     1  Si(29)             0.74603    -663.01433    -236.58000    -221.15777
     2  O(17)              0.07403     -44.87947     -16.01411     -14.97018
     3  O(17)              0.07403     -44.87954     -16.01414     -14.97020
     4  C(13)             -0.00029      -0.32722      -0.11676      -0.10915
     5  C(13)              0.00094       1.05164       0.37525       0.35079
     6  C(13)              0.00094       1.05160       0.37524       0.35077
     7  C(13)             -0.00073      -0.82351      -0.29385      -0.27469
     8  H(1)              -0.00001      -0.03898      -0.01391      -0.01300

 Normal termination of Gaussian 16 at Wed Apr  9 00:00:21 2025.
