 Gaussian 16, Revision C.01,

 ----------------------------------------------------------------------
 #t hf aug-cc-pvdz symm=none int=(grid=ultrafine) guess=(read,tcheck) s
 table=(opt,rrhf)
 ----------------------------------------------------------------------
 -----
 title
 -----
 Symbolic Z-matrix:
 Charge =  0 Multiplicity = 1

 SCF Done:  E(RHF) =  -496.801427057     A.U. after   16 cycles
 Normal termination of Gaussian 16 at Tue Apr  8 23:58:26 2025.
 Gaussian 16:  ES64L-G16RevC.01  3-Jul-2019

 ----------------------------------------------------------------------
 #t hf aug-cc-pvdz iop(5/13=1,5/36=2,99/5=2) pseudo=read geom=check gue
 ss=(read,tcheck) scf=(maxcycle=1)
 ----------------------------------------------------------------------
 -----
 title
 -----
 Structure from the checkpoint file:  "BDE49_nonexpt_2109_mol1.chk"
 Charge =  0 Multiplicity = 1

                         Standard orientation:
 ---------------------------------------------------------------------
 Center     Atomic      Atomic             Coordinates (Angstroms)
 Number     Number       Type             X           Y           Z
 ---------------------------------------------------------------------
      1         14           0        0.085160    0.852635    0.083680
      2          7           0        1.759431    0.082111   -0.259203
      3          8           0        1.864478   -1.104939   -0.032834
      4          6           0       -1.272763   -0.354841    0.450741
      5          6           0       -2.358740   -0.478324   -0.318520
      6          1           0       -1.178024   -1.003320    1.319691
      7          1           0       -2.511966    0.134451   -1.202643
      8          1           0       -3.143729   -1.197123   -0.099508
      9          1           0       -0.210573    1.649003   -1.127206
     10          1           0        0.409237    1.743821    1.221912
 ---------------------------------------------------------------------

 SCF Done:  E(RHF) =  -496.889910464     A.U. after    2 cycles

 The electronic state is 1-A.
 Alpha  occ. eigenvalues --  -69.10070 -20.64732 -15.73766 -11.27571 -11.25201
 Alpha  occ. eigenvalues --   -6.85223  -3.96030  -3.95978  -3.95950  -1.44908
 Alpha  occ. eigenvalues --   -1.05120  -0.92961  -0.81286  -0.73466  -0.67256
 Alpha  occ. eigenvalues --   -0.65671  -0.62066  -0.58987  -0.57877  -0.50019
 Alpha  occ. eigenvalues --   -0.47885  -0.40967  -0.36728
 Alpha virt. eigenvalues --    0.03130   0.04280   0.04652   0.05831   0.06092
 Alpha virt. eigenvalues --    0.06855   0.07389   0.08123   0.09056   0.10083
 Alpha virt. eigenvalues --    0.12308   0.13438   0.14073   0.14847   0.15341

 Mulliken charges:
               1
     1  Si   1.056721
     2  N   -0.292897
     3  O   -0.381690
     4  C    0.081793
     5  C    0.569551
     6  H   -0.378330
     7  H   -0.294986
     8  H   -0.237416
     9  H   -0.065379
    10  H   -0.057367
 Sum of Mulliken charges =  -0.00000

 Dipole moment (field-independent basis, Debye):
    X=             -3.1741    Y=              1.1208    Z=              0.1876  Tot=              3.3714

 Test job not archived.
 1\1\GINC-SE070\SP\RHF\Aug-CC-pVDZ\C2H5N1O1Si1\OHZDE\08-Apr-2025\0\\#t
 hf aug-cc-pvdz iop(5/13=1,5/36=2,99/5=2) pseudo=read geom=check guess=
 (read,tcheck) scf=(maxcycle=1)\\title\\0,1\Si,0,0.08516,0.852635,0.083
 68\N,0,1.759431,0.082111,-0.259203\O,0,1.864478,-1.104939,-0.032834\C,
 0,-1.272763,-0.354841,0.450741\C,0,-2.35874,-0.478324,-0.31852\H,0,-1.
 178024,-1.00332,1.319691\H,0,-2.511966,0.134451,-1.202643\H,0,-3.14372
 9,-1.197123,-0.099508\H,0,-0.210573,1.649003,-1.127206\H,0,0.409237,1.
 743821,1.221912\\Version=ES64L-G16RevC.01\State=1-A\HF=-496.8899105\RM

 Normal termination of Gaussian 16 at Tue Apr  8 23:58:29 2025.
