 Gaussian 16, Revision C.01,

 ----------------------------------------------------------------------
 #t hf aug-cc-pvdz symm=none int=(grid=ultrafine) guess=(read,tcheck) s
 table=(opt,rrhf)
 ----------------------------------------------------------------------
 -----
 title
 -----
 Symbolic Z-matrix:
 Charge =  0 Multiplicity = 1

 SCF Done:  E(RHF) =  -691.034443510     A.U. after   14 cycles
 Normal termination of Gaussian 16 at Tue Apr  8 23:16:12 2025.
 Gaussian 16:  ES64L-G16RevC.01  3-Jul-2019

 ----------------------------------------------------------------------
 #t hf aug-cc-pvdz iop(5/13=1,5/36=2,99/5=2) pseudo=read geom=check gue
 ss=(read,tcheck) scf=(maxcycle=1)
 ----------------------------------------------------------------------
 -----
 title
 -----
 Structure from the checkpoint file:  "BDE49_nonexpt_1038_mol1.chk"
 Charge =  0 Multiplicity = 1

                         Standard orientation:
 ---------------------------------------------------------------------
 Center     Atomic      Atomic             Coordinates (Angstroms)
 Number     Number       Type             X           Y           Z
 ---------------------------------------------------------------------
      1         17           0       -2.640597   -0.309507    0.042061
      2          8           0       -0.963877   -0.226706   -0.400500
      3          6           0       -0.314136    0.888829    0.231257
      4          6           0        1.147061    0.812169   -0.195642
      5          1           0       -0.777255    1.822761   -0.103587
      6          6           0        1.896573   -0.411998    0.343367
      7          1           0        1.630615    1.732718    0.154391
      8          1           0        1.193585    0.832185   -1.289965
      9          6           0        3.358557   -0.455341   -0.107625
     10          1           0        1.380042   -1.318919    0.017602
     11          1           0        1.849239   -0.406471    1.438971
     12          1           0        3.434646   -0.495683   -1.198534
     13          1           0        3.870322   -1.334321    0.292457
     14          1           0        3.906551    0.430247    0.229862
     15          1           0       -0.414911    0.810788    1.319621
 ---------------------------------------------------------------------

 SCF Done:  E(RHF) =  -691.127409755     A.U. after    2 cycles

 The electronic state is 1-A.
 Alpha  occ. eigenvalues -- -103.70589 -20.64670 -11.30517 -11.24359 -11.23430
 Alpha  occ. eigenvalues --  -11.22775 -10.73289  -8.39047  -8.38648  -8.38626
 Alpha  occ. eigenvalues --   -1.36486  -1.11847  -1.05657  -0.97229  -0.86890
 Alpha  occ. eigenvalues --   -0.80247  -0.68454  -0.67736  -0.63609  -0.62406
 Alpha  occ. eigenvalues --   -0.57795  -0.55575  -0.53905  -0.51914  -0.48717
 Alpha  occ. eigenvalues --   -0.47941  -0.47553  -0.46767  -0.44537
 Alpha virt. eigenvalues --    0.03486   0.04312   0.04717   0.05305   0.05927
 Alpha virt. eigenvalues --    0.06545   0.07113   0.07563   0.08205   0.09465
 Alpha virt. eigenvalues --    0.11528   0.11697   0.13258   0.14538   0.14995

 Mulliken charges:
               1
     1  Cl   0.212651
     2  O   -0.692947
     3  C    0.898162
     4  C   -0.000766
     5  H   -0.145975
     6  C    0.162684
     7  H   -0.077747
     8  H   -0.137066
     9  C    0.415998
    10  H   -0.111716
    11  H   -0.140279
    12  H   -0.069188
    13  H   -0.064550
    14  H   -0.076612
    15  H   -0.172649
 Sum of Mulliken charges =  -0.00000

 Dipole moment (field-independent basis, Debye):
    X=              1.3033    Y=              1.4050    Z=              0.8005  Tot=              2.0768

 Test job not archived.
 1\1\GINC-SE060\SP\RHF\Aug-CC-pVDZ\C4H9Cl1O1\OHZDE\08-Apr-2025\0\\#t hf
  aug-cc-pvdz iop(5/13=1,5/36=2,99/5=2) pseudo=read geom=check guess=(r
 ead,tcheck) scf=(maxcycle=1)\\title\\0,1\Cl,0,-2.640597,-0.309507,0.04
 2061\O,0,-0.963877,-0.226706,-0.4005\C,0,-0.314136,0.888829,0.231257\C
 ,0,1.147061,0.812169,-0.195642\H,0,-0.777255,1.822761,-0.103587\C,0,1.
 896573,-0.411998,0.343367\H,0,1.630615,1.732718,0.154391\H,0,1.193585,
 0.832185,-1.289965\C,0,3.358557,-0.455341,-0.107625\H,0,1.380042,-1.31
 8919,0.017602\H,0,1.849239,-0.406471,1.438971\H,0,3.434646,-0.495683,-

 Normal termination of Gaussian 16 at Tue Apr  8 23:16:18 2025.
