 Gaussian 16, Revision C.01,

 ----------------------------------------------------------------------
 #t hf aug-cc-pvdz symm=none int=(grid=ultrafine) guess=(read,tcheck) s
 table=(opt,rrhf)
 ----------------------------------------------------------------------
 -----
 title
 -----
 Symbolic Z-matrix:
 Charge =  0 Multiplicity = 1

 SCF Done:  E(RHF) =  -1351.41208010     A.U. after   16 cycles
 Normal termination of Gaussian 16 at Wed Apr  9 00:25:42 2025.
 Gaussian 16:  ES64L-G16RevC.01  3-Jul-2019

 ----------------------------------------------------------------------
 #t hf aug-cc-pvdz iop(5/13=1,5/36=2,99/5=2) pseudo=read geom=check gue
 ss=(read,tcheck) scf=(maxcycle=1)
 ----------------------------------------------------------------------
 -----
 title
 -----
 Structure from the checkpoint file:  "BDE49_nonexpt_2517_mol1.chk"
 Charge =  0 Multiplicity = 1

                         Standard orientation:
 ---------------------------------------------------------------------
 Center     Atomic      Atomic             Coordinates (Angstroms)
 Number     Number       Type             X           Y           Z
 ---------------------------------------------------------------------
      1          6           0       -2.005520   -0.532958    1.215777
      2          6           0       -0.752323   -1.132179    1.210633
      3          6           0       -2.612690   -0.238550   -0.000030
      4          6           0       -2.005495   -0.532880   -1.215844
      5          6           0       -0.752299   -1.132101   -1.210713
      6          6           0       -0.113976   -1.429145   -0.000044
      7          1           0       -0.263544   -1.373757    2.145344
      8          1           0       -2.516368   -0.293055    2.137733
      9          7           0       -3.943590    0.404354   -0.000023
     10          1           0       -2.516325   -0.292917   -2.137794
     11          1           0       -0.263501   -1.373619   -2.145431
     12         16           0        1.477792   -2.258011   -0.000054
     13         14           0        2.879545   -0.573921    0.000007
     14          6           0        2.734051    0.476068    1.510768
     15          6           0        2.734076    0.476159   -1.510693
     16          6           0        2.069229    1.647217   -1.650016
     17          6           0        2.069201    1.647118    1.650151
     18          6           0        1.343838    2.439517    0.679676
     19          6           0        1.343850    2.439557   -0.679506
     20          1           0        3.217515    0.094786    2.409408
     21          1           0        2.051327    2.085176    2.647712
     22          1           0        3.217554    0.094931   -2.409347
     23          1           0        2.051371    2.085336   -2.647551
     24          1           0        0.732367    3.215851    1.132112
     25          1           0        0.732385    3.215919   -1.131905
     26          8           0       -4.453710    0.652310    1.084619
     27          8           0       -4.453689    0.652381   -1.084658
     28          1           0        4.151600   -1.330531   -0.000005
 ---------------------------------------------------------------------

 SCF Done:  E(RHF) =  -1351.64698791     A.U. after    2 cycles

 The electronic state is 1-A.
 Alpha  occ. eigenvalues --  -93.53685 -69.09901 -20.61877 -20.61867 -15.92150
 Alpha  occ. eigenvalues --  -11.32068 -11.30957 -11.28446 -11.28443 -11.27857
 Alpha  occ. eigenvalues --  -11.27853 -11.27455 -11.27450 -11.27170 -11.27031
 Alpha  occ. eigenvalues --  -11.24934 -11.24931  -8.83555  -6.84962  -6.17754
 Alpha  occ. eigenvalues --   -6.17496  -6.17265  -3.95745  -3.95743  -3.95698
 Alpha  occ. eigenvalues --   -1.55069  -1.36635  -1.19180  -1.11961  -1.09576
 Alpha  occ. eigenvalues --   -1.05829  -1.04762  -1.00385  -0.98734  -0.90468
 Alpha  occ. eigenvalues --   -0.88409  -0.87015  -0.82557  -0.81127  -0.78819
 Alpha  occ. eigenvalues --   -0.74068  -0.72772  -0.70980  -0.69799  -0.69272
 Alpha  occ. eigenvalues --   -0.67010  -0.66008  -0.64604  -0.64202  -0.62887
 Alpha  occ. eigenvalues --   -0.59589  -0.57147  -0.55231  -0.53675  -0.53506
 Alpha  occ. eigenvalues --   -0.51955  -0.51637  -0.50820  -0.49494  -0.47784
 Alpha  occ. eigenvalues --   -0.47620  -0.47116  -0.45223  -0.40744  -0.37420
 Alpha  occ. eigenvalues --   -0.36857  -0.36530  -0.32336
 Alpha virt. eigenvalues --    0.02414   0.02635   0.03084   0.03659   0.03861
 Alpha virt. eigenvalues --    0.04458   0.04952   0.05133   0.05319   0.05860
 Alpha virt. eigenvalues --    0.07053   0.07104   0.07380   0.07524   0.08236

 Mulliken charges:
               1
     1  C    0.366051
     2  C    0.571500
     3  C    0.916637
     4  C    0.366052
     5  C    0.571498
     6  C    0.311199
     7  H   -0.603025
     8  H   -0.517000
     9  N    0.117768
    10  H   -0.517001
    11  H   -0.603023
    12  S   -0.393302
    13  Si   1.292639
    14  C    0.193390
    15  C    0.193398
    16  C    0.632897
    17  C    0.632902
    18  C    0.462542
    19  C    0.462539
    20  H   -0.592645
    21  H   -0.498993
    22  H   -0.592648
    23  H   -0.498991
    24  H   -0.560625
    25  H   -0.560621
    26  O   -0.560777
    27  O   -0.560776
    28  H   -0.031585
 Sum of Mulliken charges =  -0.00000

 Dipole moment (field-independent basis, Debye):
    X=              4.5378    Y=              0.7724    Z=              0.0001  Tot=              4.6031

 Test job not archived.
 1\1\GINC-SE095\SP\RHF\Aug-CC-pVDZ\C12H11N1O2S1Si1\OHZDE\09-Apr-2025\0\
 \#t hf aug-cc-pvdz iop(5/13=1,5/36=2,99/5=2) pseudo=read geom=check gu
 ess=(read,tcheck) scf=(maxcycle=1)\\title\\0,1\C,0,-2.00552,-0.532958,
 1.215777\C,0,-0.752323,-1.132179,1.210633\C,0,-2.61269,-0.23855,-0.000
 03\C,0,-2.005495,-0.53288,-1.215844\C,0,-0.752299,-1.132101,-1.210713\
 C,0,-0.113976,-1.429145,-0.000044\H,0,-0.263544,-1.373757,2.145344\H,0
 ,-2.516368,-0.293055,2.137733\N,0,-3.94359,0.404354,-0.000023\H,0,-2.5
 16325,-0.292917,-2.137794\H,0,-0.263501,-1.373619,-2.145431\S,0,1.4777

 Normal termination of Gaussian 16 at Wed Apr  9 00:26:24 2025.
