 Gaussian 16, Revision C.01,

 ----------------------------------------------------------------------
 #t hf aug-cc-pvdz symm=none int=(grid=ultrafine) guess=(read,tcheck) s
 table=(opt,rrhf)
 ----------------------------------------------------------------------
 -----
 title
 -----
 Symbolic Z-matrix:
 Charge =  0 Multiplicity = 1

 SCF Done:  E(RHF) =  -1814.26272524     A.U. after   16 cycles
 Normal termination of Gaussian 16 at Wed Apr  9 00:53:40 2025.
 Gaussian 16:  ES64L-G16RevC.01  3-Jul-2019

 ----------------------------------------------------------------------
 #t hf aug-cc-pvdz iop(5/13=1,5/36=2,99/5=2) pseudo=read geom=check gue
 ss=(read,tcheck) scf=(maxcycle=1)
 ----------------------------------------------------------------------
 -----
 title
 -----
 Structure from the checkpoint file:  "BDE49_nonexpt_947_mol1.chk"
 Charge =  0 Multiplicity = 1

                         Standard orientation:
 ---------------------------------------------------------------------
 Center     Atomic      Atomic             Coordinates (Angstroms)
 Number     Number       Type             X           Y           Z
 ---------------------------------------------------------------------
      1          6           0       -1.308062    0.207313    0.055893
      2          6           0       -1.947599   -0.003419    1.279171
      3          1           0       -1.597291    0.522437    2.159236
      4          6           0       -3.022811   -0.883669    1.347085
      5          1           0       -3.519565   -1.054404    2.294803
      6          6           0       -3.458480   -1.543887    0.198398
      7          1           0       -4.295949   -2.229540    0.254488
      8          6           0       -2.822592   -1.322327   -1.021953
      9          1           0       -3.163401   -1.833529   -1.914437
     10          6           0       -1.748746   -0.439884   -1.099671
     11          1           0       -1.248396   -0.250680   -2.041437
     12          7           0       -0.199002    1.111878   -0.010246
     13         17           0       -0.605373    2.788395   -0.266909
     14          6           0        1.151901    0.815296   -0.035889
     15          8           0        2.025276    1.625019   -0.186845
     16          6           0        1.443232   -0.691035    0.164543
     17         17           0        1.925872   -1.392714   -1.419974
     18         17           0        2.721052   -0.896065    1.391927
     19          1           0        0.587986   -1.261382    0.502639
 ---------------------------------------------------------------------

 SCF Done:  E(RHF) =  -1814.44666862     A.U. after    2 cycles

 The electronic state is 1-A.
 Alpha  occ. eigenvalues -- -103.71201-103.68579-103.68216 -20.57349 -15.73246
 Alpha  occ. eigenvalues --  -11.41257 -11.39878 -11.32248 -11.28104 -11.28059
 Alpha  occ. eigenvalues --  -11.27883 -11.27647 -11.27598 -10.74067 -10.71827
 Alpha  occ. eigenvalues --  -10.71476  -8.39832  -8.39433  -8.39403  -8.37551
 Alpha  occ. eigenvalues --   -8.37235  -8.37218  -8.37204  -8.36880  -8.36864
 Alpha  occ. eigenvalues --   -1.39576  -1.28696  -1.22856  -1.17769  -1.15016
 Alpha  occ. eigenvalues --   -1.11555  -1.04636  -1.03484  -0.94848  -0.87851
 Alpha  occ. eigenvalues --   -0.86885  -0.79050  -0.75785  -0.71830  -0.69161
 Alpha  occ. eigenvalues --   -0.68840  -0.66233  -0.64316  -0.63740  -0.62632
 Alpha  occ. eigenvalues --   -0.61257  -0.58815  -0.55294  -0.54292  -0.53929
 Alpha  occ. eigenvalues --   -0.52389  -0.51465  -0.49365  -0.48777  -0.47969
 Alpha  occ. eigenvalues --   -0.46790  -0.45918  -0.41458  -0.37357  -0.37285
 Alpha virt. eigenvalues --    0.02452   0.03351   0.04290   0.05286   0.05602
 Alpha virt. eigenvalues --    0.05687   0.06412   0.07542   0.08290   0.08796
 Alpha virt. eigenvalues --    0.08968   0.10304   0.11001   0.11759   0.12159

 Mulliken charges:
               1
     1  C   -0.273716
     2  C    0.662719
     3  H   -0.598251
     4  C    0.569493
     5  H   -0.431842
     6  C    0.740827
     7  H   -0.454708
     8  C    0.541932
     9  H   -0.440141
    10  C    0.761929
    11  H   -0.586470
    12  N   -0.644617
    13  Cl   0.244890
    14  C    0.631972
    15  O   -0.391615
    16  C   -0.334661
    17  Cl  -0.013321
    18  Cl  -0.046822
    19  H    0.062404
 Sum of Mulliken charges =  -0.00000

 Dipole moment (field-independent basis, Debye):
    X=             -5.5425    Y=             -2.9481    Z=              0.7307  Tot=              6.3202

 Test job not archived.
 1\1\GINC-SE328\SP\RHF\Aug-CC-pVDZ\C8H6Cl3N1O1\OHZDE\09-Apr-2025\0\\#t
 hf aug-cc-pvdz iop(5/13=1,5/36=2,99/5=2) pseudo=read geom=check guess=
 (read,tcheck) scf=(maxcycle=1)\\title\\0,1\C,0,-1.308062,0.207313,0.05
 5893\C,0,-1.947599,-0.003419,1.279171\H,0,-1.597291,0.522437,2.159236\
 C,0,-3.022811,-0.883669,1.347085\H,0,-3.519565,-1.054404,2.294803\C,0,
 -3.45848,-1.543887,0.198398\H,0,-4.295949,-2.229541,0.254488\C,0,-2.82
 2592,-1.322327,-1.021953\H,0,-3.163401,-1.833529,-1.914437\C,0,-1.7487
 46,-0.439884,-1.099671\H,0,-1.248396,-0.25068,-2.041437\N,0,-0.199002,

 Normal termination of Gaussian 16 at Wed Apr  9 00:53:56 2025.
