 Gaussian 16, Revision C.01,

 ----------------------------------------------------------------------
 #t hf aug-cc-pvdz symm=none int=(grid=ultrafine) guess=(read,tcheck) s
 table=(opt,rrhf)
 ----------------------------------------------------------------------
 -----
 title
 -----
 Symbolic Z-matrix:
 Charge =  0 Multiplicity = 1

 SCF Done:  E(RHF) =  -420.549542211     A.U. after   12 cycles
 Normal termination of Gaussian 16 at Tue Apr  8 23:25:49 2025.
 Gaussian 16:  ES64L-G16RevC.01  3-Jul-2019

 ----------------------------------------------------------------------
 #t hf aug-cc-pvdz iop(5/13=1,5/36=2,99/5=2) pseudo=read geom=check gue
 ss=(read,tcheck) scf=(maxcycle=1)
 ----------------------------------------------------------------------
 -----
 title
 -----
 Structure from the checkpoint file:  "BDE49_nonexpt_1307_mol1.chk"
 Charge =  0 Multiplicity = 1

                         Standard orientation:
 ---------------------------------------------------------------------
 Center     Atomic      Atomic             Coordinates (Angstroms)
 Number     Number       Type             X           Y           Z
 ---------------------------------------------------------------------
      1         15           0       -1.214491   -0.040478   -0.000000
      2          6           0        0.521650    0.653638   -0.000000
      3          6           0        1.675993   -0.351327   -0.000000
      4          1           0        0.584817    1.312149    0.872924
      5          1           0        0.584817    1.312148   -0.872925
      6          1           0        1.638327   -0.996267    0.882091
      7          1           0        2.644559    0.159598   -0.000001
      8          1           0        1.638327   -0.996269   -0.882090
      9          1           0       -1.029666   -0.999028    1.032699
     10          1           0       -1.029667   -0.999029   -1.032697
 ---------------------------------------------------------------------

 SCF Done:  E(RHF) =  -420.598074173     A.U. after    2 cycles

 The electronic state is 1-A.
 Alpha  occ. eigenvalues --  -81.24983 -11.24554 -11.23396  -7.75345  -4.89286
 Alpha  occ. eigenvalues --   -4.89267  -4.88983  -1.02672  -0.86476  -0.75300
 Alpha  occ. eigenvalues --   -0.62264  -0.57656  -0.53570  -0.51696  -0.48362
 Alpha  occ. eigenvalues --   -0.45508  -0.34741
 Alpha virt. eigenvalues --    0.03504   0.04941   0.05235   0.05377   0.07249
 Alpha virt. eigenvalues --    0.07731   0.08960   0.10753   0.11570   0.12579
 Alpha virt. eigenvalues --    0.12730   0.14817   0.16131   0.16778   0.17163

 Mulliken charges:
               1
     1  P    0.097953
     2  C   -0.203037
     3  C    0.294573
     4  H   -0.066620
     5  H   -0.066619
     6  H   -0.090702
     7  H   -0.071256
     8  H   -0.090701
     9  H    0.098204
    10  H    0.098204
 Sum of Mulliken charges =  -0.00000

 Dipole moment (field-independent basis, Debye):
    X=              1.2500    Y=             -0.0881    Z=             -0.0000  Tot=              1.2531

 Test job not archived.
 1\1\GINC-SE054\SP\RHF\Aug-CC-pVDZ\C2H7P1\OHZDE\08-Apr-2025\0\\#t hf au
 g-cc-pvdz iop(5/13=1,5/36=2,99/5=2) pseudo=read geom=check guess=(read
 ,tcheck) scf=(maxcycle=1)\\title\\0,1\P,0,-1.214491,-0.040478,0.\C,0,0
 .52165,0.653638,0.\C,0,1.675993,-0.351327,0.\H,0,0.584817,1.312149,0.8
 72924\H,0,0.584817,1.312148,-0.872925\H,0,1.638327,-0.996267,0.882091\
 H,0,2.644559,0.159598,-0.000001\H,0,1.638327,-0.996269,-0.88209\H,0,-1
 .029666,-0.999028,1.032699\H,0,-1.029667,-0.999029,-1.032697\\Version=
 ES64L-G16RevC.01\State=1-A\HF=-420.5980742\RMSD=9.249e-03\Dipole=0.491

 Normal termination of Gaussian 16 at Tue Apr  8 23:25:52 2025.
