 Gaussian 16, Revision C.01,

 ----------------------------------------------------------------------
 #t hf aug-cc-pvdz symm=none int=(grid=ultrafine) guess=(read,tcheck) s
 table=(opt,rrhf)
 ----------------------------------------------------------------------
 -----
 title
 -----
 Symbolic Z-matrix:
 Charge =  0 Multiplicity = 1

 SCF Done:  E(RHF) =  -652.419675001     A.U. after   16 cycles
 Normal termination of Gaussian 16 at Wed Apr  9 00:43:09 2025.
 Gaussian 16:  ES64L-G16RevC.01  3-Jul-2019

 ----------------------------------------------------------------------
 #t hf aug-cc-pvdz iop(5/13=1,5/36=2,99/5=2) pseudo=read geom=check gue
 ss=(read,tcheck) scf=(maxcycle=1)
 ----------------------------------------------------------------------
 -----
 title
 -----
 Structure from the checkpoint file:  "BDE49_nonexpt_738_mol1.chk"
 Charge =  0 Multiplicity = 1

                         Standard orientation:
 ---------------------------------------------------------------------
 Center     Atomic      Atomic             Coordinates (Angstroms)
 Number     Number       Type             X           Y           Z
 ---------------------------------------------------------------------
      1          5           0        1.329965    0.485073   -0.122166
      2          6           0       -0.208190    0.180510   -0.058511
      3          6           0       -1.123422    1.174277    0.333775
      4          6           0       -0.729600   -1.083873   -0.383588
      5          6           0       -2.097568   -1.339495   -0.338026
      6          6           0       -2.982413   -0.336641    0.053244
      7          6           0       -2.491100    0.922211    0.394447
      8          1           0       -4.047506   -0.536019    0.096937
      9          1           0       -3.173439    1.704380    0.709374
     10          1           0       -0.757330    2.156265    0.618465
     11          1           0       -0.056043   -1.877601   -0.690889
     12          1           0       -2.473576   -2.321488   -0.603684
     13          7           0        1.776911    1.751132   -0.511499
     14         15           0        2.624301   -0.936431    0.219005
     15          1           0        1.146997    2.469815   -0.837944
     16          1           0        2.746828    2.023554   -0.530889
     17          1           0        2.226201   -1.230468    1.546141
     18          1           0        3.728912   -0.127200    0.590686
 ---------------------------------------------------------------------

 SCF Done:  E(RHF) =  -652.529952043     A.U. after    2 cycles

 The electronic state is 1-A.
 Alpha  occ. eigenvalues --  -81.23048 -15.62460 -11.24905 -11.24815 -11.24651
 Alpha  occ. eigenvalues --  -11.24523 -11.24428 -11.22714  -7.73657  -7.62110
 Alpha  occ. eigenvalues --   -4.87706  -4.87607  -4.87357  -1.14373  -1.12824
 Alpha  occ. eigenvalues --   -1.00955  -1.00758  -0.83188  -0.82661  -0.78826
 Alpha  occ. eigenvalues --   -0.72204  -0.68453  -0.67575  -0.63517  -0.62507
 Alpha  occ. eigenvalues --   -0.59082  -0.57575  -0.51377  -0.50230  -0.49823
 Alpha  occ. eigenvalues --   -0.48815  -0.45344  -0.42677  -0.34810  -0.34080
 Alpha  occ. eigenvalues --   -0.32874
 Alpha virt. eigenvalues --    0.02865   0.03868   0.04312   0.05114   0.05519
 Alpha virt. eigenvalues --    0.05930   0.06888   0.07826   0.07837   0.08145
 Alpha virt. eigenvalues --    0.08631   0.08887   0.09830   0.10772   0.11153

 Mulliken charges:
               1
     1  B    0.399161
     2  C   -0.224772
     3  C    0.620391
     4  C    0.568332
     5  C    0.475317
     6  C    0.696315
     7  C    0.485311
     8  H   -0.438673
     9  H   -0.445235
    10  H   -0.685517
    11  H   -0.592798
    12  H   -0.458371
    13  N   -0.267629
    14  P   -0.425677
    15  H   -0.000930
    16  H   -0.017444
    17  H    0.208335
    18  H    0.103885
 Sum of Mulliken charges =  -0.00000

 Dipole moment (field-independent basis, Debye):
    X=             -0.4903    Y=              2.0496    Z=             -0.1332  Tot=              2.1116

 Test job not archived.
 1\1\GINC-SE336\SP\RHF\Aug-CC-pVDZ\C6H9B1N1P1\OHZDE\09-Apr-2025\0\\#t h
 f aug-cc-pvdz iop(5/13=1,5/36=2,99/5=2) pseudo=read geom=check guess=(
 read,tcheck) scf=(maxcycle=1)\\title\\0,1\B,0,1.329965,0.485073,-0.122
 166\C,0,-0.20819,0.18051,-0.058511\C,0,-1.123422,1.174277,0.333775\C,0
 ,-0.7296,-1.083873,-0.383588\C,0,-2.097568,-1.339495,-0.338026\C,0,-2.
 982413,-0.336641,0.053244\C,0,-2.4911,0.922211,0.394447\H,0,-4.047506,
 -0.536019,0.096937\H,0,-3.173439,1.70438,0.709374\H,0,-0.75733,2.15626
 5,0.618465\H,0,-0.056043,-1.877601,-0.690889\H,0,-2.473576,-2.321488,-

 Normal termination of Gaussian 16 at Wed Apr  9 00:43:19 2025.
