 Gaussian 16, Revision C.01,

 ----------------------------------------------------------------------
 #t hf aug-cc-pvdz symm=none int=(grid=ultrafine) guess=(read,tcheck) s
 table=(opt,rrhf)
 ----------------------------------------------------------------------
 -----
 title
 -----
 Symbolic Z-matrix:
 Charge =  0 Multiplicity = 1

 SCF Done:  E(RHF) =  -271.221272752     A.U. after   12 cycles

 1\1\GINC-SE393\Stability\RHF\Aug-CC-pVDZ\C5H12O1\OHZDE\08-Apr-2025\0\\
 #t hf aug-cc-pvdz symm=none int=(grid=ultrafine) guess=(read,tcheck) s
 table=(opt,rrhf)\\title\\0,1\C,0,-0.408342,0.00474,0.009196\C,0,-0.479
 68,-0.422552,1.484786\H,0,0.414725,-0.099481,2.021356\H,0,-0.547998,-1
 .511333,1.574017\H,0,-1.355927,0.010046,1.976961\C,0,-1.605339,-0.5687
 15,-0.767475\H,0,-1.610993,-1.662773,-0.7343\H,0,-1.582803,-0.264489,-
 1.818965\H,0,-2.549729,-0.218983,-0.340365\C,0,-0.417035,1.540958,-0.0
 90242\H,0,-1.345308,1.952507,0.315919\H,0,-0.3337,1.873605,-1.130674\H

 Normal termination of Gaussian 16 at Tue Apr  8 22:47:03 2025.
 Gaussian 16:  ES64L-G16RevC.01  3-Jul-2019

 ----------------------------------------------------------------------
 #t hf aug-cc-pvdz iop(5/13=1,5/36=2,99/5=2) pseudo=read geom=check gue
 ss=(read,tcheck) scf=(maxcycle=1)
 ----------------------------------------------------------------------
 -----
 title
 -----
 Structure from the checkpoint file:  "BDE49_expt_163_mol1.chk"
 Charge =  0 Multiplicity = 1

                         Standard orientation:
 ---------------------------------------------------------------------
 Center     Atomic      Atomic             Coordinates (Angstroms)
 Number     Number       Type             X           Y           Z
 ---------------------------------------------------------------------
      1          6           0       -0.408342    0.004740    0.009196
      2          6           0       -0.479680   -0.422552    1.484786
      3          1           0        0.414725   -0.099481    2.021356
      4          1           0       -0.547998   -1.511333    1.574017
      5          1           0       -1.355927    0.010046    1.976961
      6          6           0       -1.605339   -0.568715   -0.767475
      7          1           0       -1.610993   -1.662773   -0.734300
      8          1           0       -1.582803   -0.264489   -1.818965
      9          1           0       -2.549729   -0.218983   -0.340365
     10          6           0       -0.417035    1.540958   -0.090242
     11          1           0       -1.345308    1.952507    0.315919
     12          1           0       -0.333700    1.873605   -1.130674
     13          1           0        0.406350    1.983007    0.479207
     14          6           0        0.883748   -0.553556   -0.626603
     15          8           0        2.083132   -0.115934    0.005972
     16          1           0        0.897840   -0.308068   -1.698837
     17          1           0        0.889478   -1.643567   -0.539377
     18          1           0        2.212894    0.811743   -0.210688
 ---------------------------------------------------------------------

 SCF Done:  E(RHF) =  -271.308079259     A.U. after    2 cycles

 The electronic state is 1-A.
 Alpha  occ. eigenvalues --  -20.56920 -11.28114 -11.24396 -11.22728 -11.22578
 Alpha  occ. eigenvalues --  -11.21710  -1.31808  -1.09044  -0.93454  -0.92735
 Alpha  occ. eigenvalues --   -0.91302  -0.75118  -0.69446  -0.63966  -0.62960
 Alpha  occ. eigenvalues --   -0.60202  -0.57896  -0.54859  -0.53677  -0.52825
 Alpha  occ. eigenvalues --   -0.51727  -0.49884  -0.46680  -0.45898  -0.43264
 Alpha virt. eigenvalues --    0.03368   0.04433   0.04642   0.04945   0.06595
 Alpha virt. eigenvalues --    0.06729   0.06892   0.07072   0.07527   0.09238
 Alpha virt. eigenvalues --    0.09414   0.09451   0.12396   0.13596   0.13904

 Mulliken charges:
               1
     1  C   -4.529338
     2  C    1.263930
     3  H    0.040049
     4  H   -0.018828
     5  H   -0.016886
     6  C    1.264933
     7  H   -0.036739
     8  H   -0.029650
     9  H   -0.009499
    10  C    1.265579
    11  H   -0.044252
    12  H    0.012278
    13  H   -0.073359
    14  C    1.466964
    15  O   -0.563945
    16  H   -0.076250
    17  H   -0.110565
    18  H    0.195580
 Sum of Mulliken charges =  -0.00000

 Dipole moment (field-independent basis, Debye):
    X=             -1.2522    Y=              1.0010    Z=             -0.9032  Tot=              1.8401

 Test job not archived.
 1\1\GINC-SE393\SP\RHF\Aug-CC-pVDZ\C5H12O1\OHZDE\08-Apr-2025\0\\#t hf a
 ug-cc-pvdz iop(5/13=1,5/36=2,99/5=2) pseudo=read geom=check guess=(rea
 d,tcheck) scf=(maxcycle=1)\\title\\0,1\C,0,-0.408342,0.00474,0.009196\
 C,0,-0.47968,-0.422552,1.484786\H,0,0.414725,-0.099481,2.021356\H,0,-0
 .547998,-1.511333,1.574017\H,0,-1.355927,0.010046,1.976961\C,0,-1.6053
 39,-0.568715,-0.767475\H,0,-1.610993,-1.662773,-0.7343\H,0,-1.582803,-
 0.264489,-1.818965\H,0,-2.549729,-0.218983,-0.340365\C,0,-0.417035,1.5
 40958,-0.090242\H,0,-1.345308,1.952507,0.315919\H,0,-0.3337,1.873605,-

 Normal termination of Gaussian 16 at Tue Apr  8 22:47:08 2025.
