 Gaussian 16, Revision C.01,

 ----------------------------------------------------------------------
 #t hf aug-cc-pvdz symm=none int=(grid=ultrafine) guess=(read,tcheck) s
 table=opt
 ----------------------------------------------------------------------
 -----
 title
 -----
 Symbolic Z-matrix:
 Charge =  0 Multiplicity = 2

 SCF Done:  E(UHF) =  -1706.49181461     A.U. after   16 cycles
 Normal termination of Gaussian 16 at Tue Apr  8 23:47:24 2025.
 Gaussian 16:  ES64L-G16RevC.01  3-Jul-2019

 ----------------------------------------------------------------------
 #t hf aug-cc-pvdz iop(5/13=1,5/36=2,99/5=2) pseudo=read geom=check gue
 ss=(read,tcheck) scf=(maxcycle=1)
 ----------------------------------------------------------------------
 -----
 title
 -----
 Structure from the checkpoint file:  "BDE49_nonexpt_1821_mol2.chk"
 Charge =  0 Multiplicity = 2

                         Standard orientation:
 ---------------------------------------------------------------------
 Center     Atomic      Atomic             Coordinates (Angstroms)
 Number     Number       Type             X           Y           Z
 ---------------------------------------------------------------------
      1          6           0        0.674699    0.025335   -0.460068
      2         14           0       -0.780140   -0.919219    0.336296
      3         17           0        0.800461    1.714490    0.160637
      4         17           0        2.169250   -0.922877   -0.090138
      5         17           0       -2.564588    0.000800   -0.200721
      6          1           0        0.613021    0.099303   -1.541785
      7          1           0       -0.626347   -0.853282    1.807796
 ---------------------------------------------------------------------

 SCF Done:  E(UHF) =  -1706.57961315     A.U. after    2 cycles

 The electronic state is 2-A.
 Alpha  occ. eigenvalues -- -103.68707-103.68355-103.67128 -69.15060 -11.38009
 Alpha  occ. eigenvalues --  -10.71958 -10.71604 -10.70548  -8.37666  -8.37383
 Alpha  occ. eigenvalues --   -8.37367  -8.37354  -8.37008  -8.36987  -8.36310
 Alpha  occ. eigenvalues --   -8.36037  -8.35977  -6.89908  -4.01097  -4.00373
 Alpha  occ. eigenvalues --   -4.00227  -1.22124  -1.15616  -1.15013  -0.91346
 Alpha  occ. eigenvalues --   -0.73250  -0.64877  -0.60780  -0.59058  -0.55264
 Alpha  occ. eigenvalues --   -0.51662  -0.49884  -0.49508  -0.48397  -0.46956
 Alpha  occ. eigenvalues --   -0.44833  -0.36582
 Alpha virt. eigenvalues --    0.03657   0.04781   0.05323   0.06428   0.07217
 Alpha virt. eigenvalues --    0.07806   0.09263   0.11456   0.12381   0.13104
 Alpha virt. eigenvalues --    0.13613   0.14466   0.15472   0.15867   0.16153

  Beta  occ. eigenvalues -- -103.68710-103.68301-103.67031 -69.14465 -11.37884
  Beta  occ. eigenvalues --  -10.71961 -10.71546 -10.70443  -8.37681  -8.37367
  Beta  occ. eigenvalues --   -8.37352  -8.37215  -8.36956  -8.36927  -8.36119
  Beta  occ. eigenvalues --   -8.35926  -8.35791  -6.88965  -3.99985  -3.99842
  Beta  occ. eigenvalues --   -3.98970  -1.21884  -1.14943  -1.14652  -0.90711
  Beta  occ. eigenvalues --   -0.70544  -0.64005  -0.60318  -0.58134  -0.53849
  Beta  occ. eigenvalues --   -0.50202  -0.49449  -0.49106  -0.48184  -0.46814
  Beta  occ. eigenvalues --   -0.44013
  Beta virt. eigenvalues --    0.00928   0.04222   0.05038   0.05588   0.06978
  Beta virt. eigenvalues --    0.07810   0.07921   0.09395   0.12013   0.12688
  Beta virt. eigenvalues --    0.13862   0.14637   0.15186   0.15972   0.16562

 Mulliken charges and spin densities:
               1          2
     1  C   -0.385254   0.013872
     2  Si   1.033561   0.855451
     3  Cl  -0.103121   0.026169
     4  Cl  -0.093378  -0.008868
     5  Cl  -0.519300   0.036352
     6  H    0.088281  -0.001546
     7  H   -0.020789   0.078571
 Sum of Mulliken charges =  -0.00000   1.00000

 Dipole moment (field-independent basis, Debye):
    X=             -0.1562    Y=             -1.2901    Z=             -0.5064  Tot=              1.3947
                          Isotropic Fermi Contact Couplings
        Atom                 a.u.       MegaHertz       Gauss      10(-4) cm-1
     1  C(13)              0.04486      50.43043      17.99483      16.82178
     2  Si(29)             0.73536    -653.53391    -233.19715    -217.99545
     3  Cl(35)             0.02284      10.01624       3.57404       3.34106
     4  Cl(35)            -0.00058      -0.25537      -0.09112      -0.08518
     5  Cl(35)             0.05708      25.02610       8.92994       8.34781
     6  H(1)              -0.00069      -3.08973      -1.10249      -1.03062
     7  H(1)               0.01755      78.42733      27.98482      26.16054
 --------------------------------------------------------

 Normal termination of Gaussian 16 at Tue Apr  8 23:47:28 2025.
