 Gaussian 16, Revision C.01,

 ----------------------------------------------------------------------
 #t hf aug-cc-pvdz symm=none int=(grid=ultrafine) guess=(read,tcheck) s
 table=(opt,rrhf)
 ----------------------------------------------------------------------
 -----
 title
 -----
 Symbolic Z-matrix:
 Charge =  0 Multiplicity = 1

 SCF Done:  E(RHF) =  -1723.26331550     A.U. after   17 cycles
 Normal termination of Gaussian 16 at Tue Apr  8 23:43:42 2025.
 Gaussian 16:  ES64L-G16RevC.01  3-Jul-2019

 ----------------------------------------------------------------------
 #t hf aug-cc-pvdz iop(5/13=1,5/36=2,99/5=2) pseudo=read geom=check gue
 ss=(read,tcheck) scf=(maxcycle=1)
 ----------------------------------------------------------------------
 -----
 title
 -----
 Structure from the checkpoint file:  "BDE49_nonexpt_1695_mol1.chk"
 Charge =  0 Multiplicity = 1

                         Standard orientation:
 ---------------------------------------------------------------------
 Center     Atomic      Atomic             Coordinates (Angstroms)
 Number     Number       Type             X           Y           Z
 ---------------------------------------------------------------------
      1         14           0       -0.453274    0.037411    0.306467
      2          7           0       -1.301311   -1.411917   -0.519174
      3          7           0       -0.907920    1.452932   -0.839488
      4         15           0        1.793900   -0.283782    0.162489
      5         17           0       -1.297222    0.417845    2.101501
      6          8           0        2.021761   -0.419977   -1.412562
      7          8           0       -1.998416    1.499215   -1.374420
      8          8           0       -2.356964   -1.873957   -0.150286
      9          8           0       -0.014615    2.297710   -0.955336
     10          8           0       -0.634813   -1.809425   -1.485773
     11          8           0        2.209048   -1.368075    1.047112
     12          1           0        1.573465   -1.192179   -1.792141
     13          8           0        2.429833    1.137622    0.456987
     14          1           0        2.134598    1.829776   -0.156390
 ---------------------------------------------------------------------

 SCF Done:  E(RHF) =  -1723.57101373     A.U. after    2 cycles

 The electronic state is 1-A.
 Alpha  occ. eigenvalues -- -103.74087 -81.47049 -69.26609 -20.68225 -20.67955
 Alpha  occ. eigenvalues --  -20.67084 -20.66804 -20.65846 -20.65831 -20.57225
 Alpha  occ. eigenvalues --  -15.94339 -15.94324 -10.77436  -8.43138  -8.42882
 Alpha  occ. eigenvalues --   -8.42875  -7.95343  -7.00848  -5.10004  -5.09912
 Alpha  occ. eigenvalues --   -5.09539  -4.11632  -4.11615  -4.11435  -1.59267
 Alpha  occ. eigenvalues --   -1.58827  -1.42630  -1.41508  -1.41381  -1.38856
 Alpha  occ. eigenvalues --   -1.30684  -1.22627  -1.01865  -0.97179  -0.88586
 Alpha  occ. eigenvalues --   -0.86149  -0.83388  -0.81312  -0.78566  -0.78501
 Alpha  occ. eigenvalues --   -0.77042  -0.76416  -0.74698  -0.69998  -0.67946
 Alpha  occ. eigenvalues --   -0.64760  -0.63908  -0.62068  -0.58886  -0.57948
 Alpha  occ. eigenvalues --   -0.57655  -0.56388  -0.56209  -0.54636  -0.53520
 Alpha  occ. eigenvalues --   -0.52355  -0.52189  -0.51794  -0.48057
 Alpha virt. eigenvalues --    0.00009   0.01047   0.03424   0.03818   0.04887
 Alpha virt. eigenvalues --    0.05645   0.06826   0.07830   0.08973   0.09164
 Alpha virt. eigenvalues --    0.10052   0.10178   0.11370   0.12187   0.13420

 Mulliken charges:
               1
     1  Si   1.769094
     2  N    0.434971
     3  N    0.310407
     4  P    2.082317
     5  Cl  -0.455898
     6  O   -0.765898
     7  O   -0.497450
     8  O   -0.487293
     9  O   -0.573094
    10  O   -0.615137
    11  O   -0.932353
    12  H    0.224120
    13  O   -0.685073
    14  H    0.191286
 Sum of Mulliken charges =  -0.00000

 Dipole moment (field-independent basis, Debye):
    X=             -0.1665    Y=              1.7799    Z=              0.4255  Tot=              1.8376

 Test job not archived.
 1\1\GINC-SE092\SP\RHF\Aug-CC-pVDZ\Cl1H2N2O7P1Si1\OHZDE\08-Apr-2025\0\\
 #t hf aug-cc-pvdz iop(5/13=1,5/36=2,99/5=2) pseudo=read geom=check gue
 ss=(read,tcheck) scf=(maxcycle=1)\\title\\0,1\Si,0,-0.453274,0.037411,
 0.306467\N,0,-1.301312,-1.411916,-0.519174\N,0,-0.90792,1.452932,-0.83
 9488\P,0,1.7939,-0.283782,0.162489\Cl,0,-1.297222,0.417846,2.101501\O,
 0,2.021761,-0.419977,-1.412562\O,0,-1.998416,1.499216,-1.37442\O,0,-2.
 356965,-1.873956,-0.150286\O,0,-0.014614,2.29771,-0.955336\O,0,-0.6348
 14,-1.809425,-1.485773\O,0,2.209048,-1.368076,1.047112\H,0,1.573465,-1

 Normal termination of Gaussian 16 at Tue Apr  8 23:43:53 2025.
