 Gaussian 16, Revision C.01,

 ----------------------------------------------------------------------
 #t hf aug-cc-pvdz symm=none int=(grid=ultrafine) guess=(read,tcheck) s
 table=opt
 ----------------------------------------------------------------------
 -----
 title
 -----
 Symbolic Z-matrix:
 Charge =  0 Multiplicity = 2

 SCF Done:  E(UHF) =  -266.247085196     A.U. after   18 cycles
 Normal termination of Gaussian 16 at Tue Apr  8 22:48:39 2025.
 Gaussian 16:  ES64L-G16RevC.01  3-Jul-2019

 ----------------------------------------------------------------------
 #t hf aug-cc-pvdz iop(5/13=1,5/36=2,99/5=2) pseudo=read geom=check gue
 ss=(read,tcheck) scf=(maxcycle=1)
 ----------------------------------------------------------------------
 -----
 title
 -----
 Structure from the checkpoint file:  "BDE49_expt_1717_mol2.chk"
 Charge =  0 Multiplicity = 2

                         Standard orientation:
 ---------------------------------------------------------------------
 Center     Atomic      Atomic             Coordinates (Angstroms)
 Number     Number       Type             X           Y           Z
 ---------------------------------------------------------------------
      1          6           0       -0.525448    0.125760   -0.000143
      2          8           0       -0.407930    1.336648    0.000056
      3          6           0       -1.786905   -0.581669    0.000029
      4          8           0        0.532776   -0.727218   -0.000050
      5          1           0       -1.819706   -1.662106    0.000022
      6          1           0       -2.696923    0.000505    0.000188
      7          6           0        1.824468   -0.101071    0.000040
      8          1           0        2.544631   -0.916467    0.000107
      9          1           0        1.950202    0.522270    0.887536
     10          1           0        1.950334    0.522243   -0.887457
 ---------------------------------------------------------------------

 SCF Done:  E(UHF) =  -266.333886133     A.U. after    2 cycles

 The electronic state is 2-A.
 Alpha  occ. eigenvalues --  -20.61454 -20.57624 -11.38991 -11.29702 -11.28303
 Alpha  occ. eigenvalues --   -1.42012  -1.33303  -1.05020  -0.94813  -0.78856
 Alpha  occ. eigenvalues --   -0.71825  -0.69861  -0.68683  -0.62098  -0.58940
 Alpha  occ. eigenvalues --   -0.58847  -0.54149  -0.49786  -0.48980  -0.41997
 Alpha virt. eigenvalues --    0.03473   0.04482   0.05288   0.06321   0.06487
 Alpha virt. eigenvalues --    0.09021   0.11123   0.12674   0.14107   0.14253
 Alpha virt. eigenvalues --    0.14935   0.15797   0.16284   0.17898   0.18315

  Beta  occ. eigenvalues --  -20.61458 -20.56329 -11.39651 -11.29709 -11.26049
  Beta  occ. eigenvalues --   -1.41321  -1.31317  -1.00903  -0.91607  -0.78137
  Beta  occ. eigenvalues --   -0.70634  -0.68844  -0.67884  -0.61051  -0.58164
  Beta  occ. eigenvalues --   -0.54566  -0.53982  -0.47442  -0.45641
  Beta virt. eigenvalues --    0.03524   0.03659   0.04544   0.05306   0.06454
  Beta virt. eigenvalues --    0.06496   0.09031   0.12708   0.13029   0.14170
  Beta virt. eigenvalues --    0.14331   0.15393   0.16060   0.16456   0.18008

 Mulliken charges and spin densities:
               1          2
     1  C    0.383766  -0.338976
     2  O   -0.427764   0.295265
     3  C    0.696574   1.240923
     4  O   -0.544251   0.008303
     5  H   -0.265697  -0.102419
     6  H   -0.218824  -0.098825
     7  C    0.748523  -0.004730
     8  H   -0.237725  -0.000321
     9  H   -0.067298   0.000389
    10  H   -0.067304   0.000390
 Sum of Mulliken charges =  -0.00000   1.00000

 Dipole moment (field-independent basis, Debye):
    X=              0.1095    Y=             -2.0046    Z=             -0.0002  Tot=              2.0076
                          Isotropic Fermi Contact Couplings
        Atom                 a.u.       MegaHertz       Gauss      10(-4) cm-1
     1  C(13)             -0.09425    -105.96001     -37.80917     -35.34446
     2  O(17)              0.10948     -66.36452     -23.68051     -22.13682
     3  C(13)              0.18757     210.86723      75.24267      70.33774
     4  O(17)             -0.00891       5.39920       1.92657       1.80098
     5  H(1)              -0.02355    -105.24593     -37.55437     -35.10626
     6  H(1)              -0.02323    -103.82753     -37.04825     -34.63314
     7  C(13)             -0.00161      -1.80678      -0.64470      -0.60268
     8  H(1)               0.00013       0.56283       0.20083       0.18774

 Normal termination of Gaussian 16 at Tue Apr  8 22:48:43 2025.
