 Gaussian 16, Revision C.01,

 ----------------------------------------------------------------------
 #t hf aug-cc-pvdz symm=none int=(grid=ultrafine) guess=(read,tcheck) s
 table=(opt,rrhf)
 ----------------------------------------------------------------------
 -----
 title
 -----
 Symbolic Z-matrix:
 Charge =  0 Multiplicity = 1

 SCF Done:  E(RHF) =  -332.456125550     A.U. after   12 cycles
 Normal termination of Gaussian 16 at Wed Apr  9 00:24:19 2025.
 Gaussian 16:  ES64L-G16RevC.01  3-Jul-2019

 ----------------------------------------------------------------------
 #t hf aug-cc-pvdz iop(5/13=1,5/36=2,99/5=2) pseudo=read geom=check gue
 ss=(read,tcheck) scf=(maxcycle=1)
 ----------------------------------------------------------------------
 -----
 title
 -----
 Structure from the checkpoint file:  "BDE49_nonexpt_274_mol1.chk"
 Charge =  0 Multiplicity = 1

                         Standard orientation:
 ---------------------------------------------------------------------
 Center     Atomic      Atomic             Coordinates (Angstroms)
 Number     Number       Type             X           Y           Z
 ---------------------------------------------------------------------
      1          6           0        0.225367    0.667314   -0.324439
      2          5           0       -0.965036   -0.330775   -0.007806
      3          8           0       -2.041165   -0.523155   -0.841494
      4          8           0       -0.970898   -1.008346    1.177571
      5          6           0        1.586120    0.188423    0.218018
      6          6           0        2.074863   -1.121921   -0.406517
      7          1           0        1.509930    0.065457    1.303627
      8          1           0        2.333931    0.972779    0.045691
      9          1           0        2.160890   -1.035620   -1.494932
     10          1           0        1.388698   -1.944845   -0.186806
     11          6           0       -0.129891    2.064996    0.237918
     12          1           0        0.319328    0.770105   -1.416886
     13          1           0        0.650273    2.794406   -0.002727
     14          1           0       -0.229847    2.032588    1.326931
     15          1           0       -1.073363    2.442940   -0.168267
     16          1           0        3.058399   -1.402652   -0.019669
     17          1           0       -1.972840   -0.033859   -1.665140
     18          1           0       -1.762466   -1.548291    1.278706
 ---------------------------------------------------------------------

 SCF Done:  E(RHF) =  -332.567494597     A.U. after    2 cycles

 The electronic state is 1-A.
 Alpha  occ. eigenvalues --  -20.58187 -20.57370 -11.22757 -11.22329 -11.21821
 Alpha  occ. eigenvalues --  -11.21343  -7.64820  -1.34157  -1.30272  -1.05782
 Alpha  occ. eigenvalues --   -0.97461  -0.85957  -0.79841  -0.76973  -0.74187
 Alpha  occ. eigenvalues --   -0.63687  -0.61518  -0.59956  -0.57720  -0.57625
 Alpha  occ. eigenvalues --   -0.57105  -0.55854  -0.51946  -0.51202  -0.49201
 Alpha  occ. eigenvalues --   -0.46635  -0.45660  -0.43582
 Alpha virt. eigenvalues --    0.02918   0.04437   0.04525   0.04765   0.06278
 Alpha virt. eigenvalues --    0.06580   0.06927   0.07040   0.07135   0.09152
 Alpha virt. eigenvalues --    0.09297   0.09575   0.09972   0.10597   0.12206

 Mulliken charges:
               1
     1  C   -0.369004
     2  B    0.984605
     3  O   -0.544282
     4  O   -0.577407
     5  C    0.263471
     6  C    0.404178
     7  H   -0.139861
     8  H   -0.114344
     9  H   -0.068088
    10  H   -0.103947
    11  C    0.563286
    12  H   -0.279224
    13  H   -0.092120
    14  H   -0.060608
    15  H   -0.147797
    16  H   -0.081529
    17  H    0.172481
    18  H    0.190189
 Sum of Mulliken charges =  -0.00000

 Dipole moment (field-independent basis, Debye):
    X=             -0.3022    Y=              0.5968    Z=             -1.2857  Tot=              1.4493

 Test job not archived.
 1\1\GINC-SE071\SP\RHF\Aug-CC-pVDZ\C4H11B1O2\OHZDE\09-Apr-2025\0\\#t hf
  aug-cc-pvdz iop(5/13=1,5/36=2,99/5=2) pseudo=read geom=check guess=(r
 ead,tcheck) scf=(maxcycle=1)\\title\\0,1\C,0,0.225367,0.667314,-0.3244
 39\B,0,-0.965036,-0.330775,-0.007806\O,0,-2.041165,-0.523155,-0.841494
 \O,0,-0.970898,-1.008346,1.177571\C,0,1.58612,0.188423,0.218018\C,0,2.
 074863,-1.121921,-0.406517\H,0,1.50993,0.065457,1.303627\H,0,2.333931,
 0.972779,0.045691\H,0,2.16089,-1.03562,-1.494932\H,0,1.388698,-1.94484
 5,-0.186806\C,0,-0.129891,2.064996,0.237918\H,0,0.319328,0.770105,-1.4

 Normal termination of Gaussian 16 at Wed Apr  9 00:24:26 2025.
