 Gaussian 16, Revision C.01,

 ----------------------------------------------------------------------
 #t hf aug-cc-pvdz symm=none int=(grid=ultrafine) guess=(read,tcheck) s
 table=(opt,rrhf)
 ----------------------------------------------------------------------
 -----
 title
 -----
 Symbolic Z-matrix:
 Charge =  0 Multiplicity = 1

 SCF Done:  E(RHF) =  -492.621499966     A.U. after   14 cycles
 Normal termination of Gaussian 16 at Wed Apr  9 00:50:42 2025.
 Gaussian 16:  ES64L-G16RevC.01  3-Jul-2019

 ----------------------------------------------------------------------
 #t hf aug-cc-pvdz iop(5/13=1,5/36=2,99/5=2) pseudo=read geom=check gue
 ss=(read,tcheck) scf=(maxcycle=1)
 ----------------------------------------------------------------------
 -----
 title
 -----
 Structure from the checkpoint file:  "BDE49_nonexpt_954_mol1.chk"
 Charge =  0 Multiplicity = 1

                         Standard orientation:
 ---------------------------------------------------------------------
 Center     Atomic      Atomic             Coordinates (Angstroms)
 Number     Number       Type             X           Y           Z
 ---------------------------------------------------------------------
      1          9           0       -2.177319   -1.660575    0.048772
      2          8           0        2.630705   -1.138444    0.040444
      3          7           0       -1.946064   -0.245587   -0.008035
      4          7           0        0.315887   -1.066561   -0.029415
      5          7           0       -0.051246    1.131768   -0.178726
      6          6           0       -0.664841   -0.090068   -0.066932
      7          6           0        1.592454   -0.532862    0.007213
      8          6           0        1.382917    0.984428    0.014281
      9          6           0       -0.752519    2.376570    0.075335
     10          1           0        0.094553   -2.050342   -0.013216
     11          1           0        1.726771    1.388331    0.976462
     12          1           0        1.964630    1.453655   -0.783981
     13          1           0       -0.780412    2.624023    1.144536
     14          1           0       -0.258026    3.185895   -0.464974
     15          1           0       -1.775387    2.285413   -0.287469
 ---------------------------------------------------------------------

 SCF Done:  E(RHF) =  -492.774180184     A.U. after    2 cycles

 The electronic state is 1-A.
 Alpha  occ. eigenvalues --  -26.12097 -20.58236 -15.70345 -15.69832 -15.68512
 Alpha  occ. eigenvalues --  -11.41016 -11.40304 -11.32381 -11.29909  -1.63495
 Alpha  occ. eigenvalues --   -1.40041  -1.33849  -1.20970  -1.16476  -1.02556
 Alpha  occ. eigenvalues --   -0.96087  -0.86361  -0.82646  -0.77438  -0.73442
 Alpha  occ. eigenvalues --   -0.72304  -0.70807  -0.70028  -0.66924  -0.64489
 Alpha  occ. eigenvalues --   -0.63976  -0.62077  -0.58819  -0.57451  -0.54781
 Alpha  occ. eigenvalues --   -0.50575  -0.47141  -0.43261  -0.37934
 Alpha virt. eigenvalues --    0.02358   0.03771   0.03985   0.04991   0.06728
 Alpha virt. eigenvalues --    0.07208   0.09152   0.09357   0.09377   0.12073
 Alpha virt. eigenvalues --    0.12623   0.12866   0.13338   0.14146   0.14245

 Mulliken charges:
               1
     1  F   -0.503925
     2  O   -0.469471
     3  N   -0.236206
     4  N   -0.378494
     5  N   -0.517737
     6  C    0.920475
     7  C    0.402226
     8  C    0.692358
     9  C    0.743836
    10  H   -0.083731
    11  H   -0.041585
    12  H   -0.103472
    13  H   -0.088113
    14  H   -0.164006
    15  H   -0.172156
 Sum of Mulliken charges =  -0.00000

 Dipole moment (field-independent basis, Debye):
    X=              1.1457    Y=              4.1796    Z=              0.1424  Tot=              4.3361

 Test job not archived.
 1\1\GINC-SE435\SP\RHF\Aug-CC-pVDZ\C4H6F1N3O1\OHZDE\09-Apr-2025\0\\#t h
 f aug-cc-pvdz iop(5/13=1,5/36=2,99/5=2) pseudo=read geom=check guess=(
 read,tcheck) scf=(maxcycle=1)\\title\\0,1\F,0,-2.177319,-1.660575,0.04
 8772\O,0,2.630705,-1.138444,0.040444\N,0,-1.946064,-0.245587,-0.008035
 \N,0,0.315887,-1.066561,-0.029415\N,0,-0.051246,1.131768,-0.178726\C,0
 ,-0.664841,-0.090068,-0.066932\C,0,1.592454,-0.532862,0.007213\C,0,1.3
 82917,0.984428,0.014281\C,0,-0.752519,2.37657,0.075335\H,0,0.094553,-2
 .050342,-0.013216\H,0,1.726771,1.388331,0.976462\H,0,1.96463,1.453655,

 Normal termination of Gaussian 16 at Wed Apr  9 00:50:47 2025.
