 Gaussian 16, Revision C.01,

 ----------------------------------------------------------------------
 #t hf aug-cc-pvdz symm=none int=(grid=ultrafine) guess=(read,tcheck) s
 table=(opt,rrhf)
 ----------------------------------------------------------------------
 -----
 title
 -----
 Symbolic Z-matrix:
 Charge =  0 Multiplicity = 1

 SCF Done:  E(RHF) =  -877.290045274     A.U. after   16 cycles
 Normal termination of Gaussian 16 at Tue Apr  8 23:07:50 2025.
 Gaussian 16:  ES64L-G16RevC.01  3-Jul-2019

 ----------------------------------------------------------------------
 #t hf aug-cc-pvdz iop(5/13=1,5/36=2,99/5=2) pseudo=read geom=check gue
 ss=(read,tcheck) scf=(maxcycle=1)
 ----------------------------------------------------------------------
 -----
 title
 -----
 Structure from the checkpoint file:  "BDE49_expt_607_mol1.chk"
 Charge =  0 Multiplicity = 1

                         Standard orientation:
 ---------------------------------------------------------------------
 Center     Atomic      Atomic             Coordinates (Angstroms)
 Number     Number       Type             X           Y           Z
 ---------------------------------------------------------------------
      1          6           0       -1.850332    0.887639    0.000002
      2          6           0       -2.680013   -0.226030    0.000050
      3          6           0       -2.127820   -1.505066    0.000070
      4          6           0        1.571529   -0.901938   -0.000013
      5          8           0        1.966981   -2.044764   -0.000327
      6          8           0        2.420309    0.141601    0.000386
      7          1           0        3.310339   -0.241898    0.000300
      8          6           0       -0.462939    0.738338   -0.000009
      9          6           0       -0.750339   -1.650349    0.000041
     10          6           0        0.116093   -0.544103    0.000016
     11          1           0       -2.765654   -2.380557    0.000100
     12          1           0       -0.292818   -2.630995    0.000034
     13          1           0       -3.755320   -0.089476    0.000067
     14          1           0       -2.267280    1.886033   -0.000031
     15         17           0        0.457373    2.228897   -0.000111
 ---------------------------------------------------------------------

 SCF Done:  E(RHF) =  -877.434487535     A.U. after    2 cycles

 The electronic state is 1-A.
 Alpha  occ. eigenvalues -- -103.67223 -20.63153 -20.56969 -11.41564 -11.33952
 Alpha  occ. eigenvalues --  -11.28600 -11.27856 -11.27360 -11.27007 -11.26492
 Alpha  occ. eigenvalues --  -10.70516  -8.36252  -8.35935  -8.35924  -1.43653
 Alpha  occ. eigenvalues --   -1.33413  -1.21109  -1.14739  -1.05766  -1.01923
 Alpha  occ. eigenvalues --   -0.91383  -0.84915  -0.82753  -0.74279  -0.72945
 Alpha  occ. eigenvalues --   -0.69364  -0.66340  -0.65875  -0.64485  -0.61553
 Alpha  occ. eigenvalues --   -0.60807  -0.55911  -0.54808  -0.52802  -0.51492
 Alpha  occ. eigenvalues --   -0.48601  -0.48422  -0.46847  -0.37196  -0.35542
 Alpha virt. eigenvalues --    0.02960   0.04012   0.04224   0.05478   0.05513
 Alpha virt. eigenvalues --    0.06740   0.08571   0.09108   0.09563   0.10812
 Alpha virt. eigenvalues --    0.11059   0.12317   0.12861   0.13352   0.13975

 Mulliken charges:
               1
     1  C    0.703061
     2  C    0.464252
     3  C    0.260096
     4  C    0.166511
     5  O   -0.459796
     6  O   -0.540895
     7  H    0.257213
     8  C   -0.523774
     9  C    0.151442
    10  C    1.831675
    11  H   -0.420865
    12  H   -0.634936
    13  H   -0.418737
    14  H   -0.439259
    15  Cl  -0.395987
 Sum of Mulliken charges =  -0.00000

 Dipole moment (field-independent basis, Debye):
    X=             -2.2518    Y=              0.2656    Z=              0.0005  Tot=              2.2674

 Test job not archived.
 1\1\GINC-SE080\SP\RHF\Aug-CC-pVDZ\C7H5Cl1O2\OHZDE\08-Apr-2025\0\\#t hf
  aug-cc-pvdz iop(5/13=1,5/36=2,99/5=2) pseudo=read geom=check guess=(r
 ead,tcheck) scf=(maxcycle=1)\\title\\0,1\C,0,-1.850332,0.887638,0.0000
 02\C,0,-2.680013,-0.226031,0.00005\C,0,-2.127819,-1.505067,0.00007\C,0
 ,1.57153,-0.901937,-0.000013\O,0,1.966982,-2.044763,-0.000327\O,0,2.42
 0309,0.141602,0.000386\H,0,3.310339,-0.241896,0.0003\C,0,-0.462939,0.7
 38338,-0.000009\C,0,-0.750338,-1.650349,0.000041\C,0,0.116093,-0.54410
 3,0.000016\H,0,-2.765653,-2.380558,0.0001\H,0,-0.292817,-2.630995,0.00

 Normal termination of Gaussian 16 at Tue Apr  8 23:07:58 2025.
