 Gaussian 16, Revision C.01,

 ----------------------------------------------------------------------
 #t hf aug-cc-pvdz symm=none int=(grid=ultrafine) guess=(read,tcheck) s
 table=(opt,rrhf)
 ----------------------------------------------------------------------
 -----
 title
 -----
 Symbolic Z-matrix:
 Charge =  0 Multiplicity = 1

 SCF Done:  E(RHF) =  -334.075496212     A.U. after   15 cycles

 1\1\GINC-SE015\Stability\RHF\Aug-CC-pVDZ\C8H11B1\OHZDE\09-Apr-2025\0\\
 #t hf aug-cc-pvdz symm=none int=(grid=ultrafine) guess=(read,tcheck) s
 table=(opt,rrhf)\\title\\0,1\C,0,-2.551011,-0.395766,-0.295021\B,0,-1.
 374239,0.630903,-0.153189\C,0,0.131034,0.268784,-0.06231\C,0,1.094603,
 1.29742,-0.025244\C,0,0.603142,-1.059116,-0.019293\C,0,1.961412,-1.345
 366,0.053112\C,0,2.889682,-0.303765,0.087155\C,0,2.455916,1.020572,0.0
 48243\H,0,3.949947,-0.525516,0.145419\H,0,3.177912,1.829241,0.075791\H
 ,0,0.758226,2.328551,-0.055608\H,0,-0.107128,-1.878511,-0.042506\H,0,2

 Normal termination of Gaussian 16 at Wed Apr  9 00:29:05 2025.
 Gaussian 16:  ES64L-G16RevC.01  3-Jul-2019

 ----------------------------------------------------------------------
 #t hf aug-cc-pvdz iop(5/13=1,5/36=2,99/5=2) pseudo=read geom=check gue
 ss=(read,tcheck) scf=(maxcycle=1)
 ----------------------------------------------------------------------
 -----
 title
 -----
 Structure from the checkpoint file:  "BDE49_nonexpt_335_mol1.chk"
 Charge =  0 Multiplicity = 1

                         Standard orientation:
 ---------------------------------------------------------------------
 Center     Atomic      Atomic             Coordinates (Angstroms)
 Number     Number       Type             X           Y           Z
 ---------------------------------------------------------------------
      1          6           0       -2.551011   -0.395766   -0.295021
      2          5           0       -1.374239    0.630903   -0.153189
      3          6           0        0.131034    0.268784   -0.062310
      4          6           0        1.094603    1.297420   -0.025244
      5          6           0        0.603142   -1.059116   -0.019293
      6          6           0        1.961412   -1.345366    0.053112
      7          6           0        2.889682   -0.303765    0.087155
      8          6           0        2.455916    1.020572    0.048243
      9          1           0        3.949947   -0.525516    0.145419
     10          1           0        3.177912    1.829241    0.075791
     11          1           0        0.758226    2.328551   -0.055608
     12          1           0       -0.107128   -1.878511   -0.042506
     13          1           0        2.301554   -2.374646    0.084858
     14          6           0       -3.896052    0.036196    0.317753
     15          1           0       -2.286885   -1.403780    0.045055
     16          1           0       -2.681481   -0.496624   -1.388198
     17          1           0       -3.826071    0.119202    1.406363
     18          1           0       -4.693004   -0.679291    0.095579
     19          1           0       -4.206559    1.013150   -0.062523
     20          1           0       -1.647676    1.799958   -0.164653
 ---------------------------------------------------------------------

 SCF Done:  E(RHF) =  -334.175408206     A.U. after    2 cycles

 The electronic state is 1-A.
 Alpha  occ. eigenvalues --  -11.25667 -11.25206 -11.25143 -11.24556 -11.24500
 Alpha  occ. eigenvalues --  -11.22216 -11.22136 -11.20694  -7.59660  -1.14155
 Alpha  occ. eigenvalues --   -1.01665  -1.01204  -1.00041  -0.84999  -0.82899
 Alpha  occ. eigenvalues --   -0.81874  -0.71722  -0.66077  -0.63292  -0.62234
 Alpha  occ. eigenvalues --   -0.60031  -0.59209  -0.57719  -0.52737  -0.51260
 Alpha  occ. eigenvalues --   -0.50527  -0.49768  -0.48593  -0.45205  -0.43854
 Alpha  occ. eigenvalues --   -0.34513  -0.34229
 Alpha virt. eigenvalues --    0.03125   0.03866   0.03998   0.04941   0.05301
 Alpha virt. eigenvalues --    0.05503   0.06200   0.06737   0.07285   0.07498
 Alpha virt. eigenvalues --    0.07943   0.09071   0.09726   0.09886   0.10961

 Mulliken charges:
               1
     1  C    0.200231
     2  B   -0.328384
     3  C   -0.409060
     4  C    0.370501
     5  C    0.892726
     6  C    0.515718
     7  C    0.785064
     8  C    0.515028
     9  H   -0.443086
    10  H   -0.445940
    11  H   -0.611732
    12  H   -0.638442
    13  H   -0.471542
    14  C    0.400931
    15  H   -0.311839
    16  H   -0.076965
    17  H   -0.083802
    18  H   -0.108220
    19  H   -0.111458
    20  H    0.360270
 Sum of Mulliken charges =  -0.00000

 Dipole moment (field-independent basis, Debye):
    X=              0.7646    Y=             -0.5137    Z=             -0.0427  Tot=              0.9222

 Test job not archived.
 1\1\GINC-SE015\SP\RHF\Aug-CC-pVDZ\C8H11B1\OHZDE\09-Apr-2025\0\\#t hf a
 ug-cc-pvdz iop(5/13=1,5/36=2,99/5=2) pseudo=read geom=check guess=(rea
 d,tcheck) scf=(maxcycle=1)\\title\\0,1\C,0,-2.551011,-0.395766,-0.2950
 21\B,0,-1.374239,0.630903,-0.153189\C,0,0.131034,0.268784,-0.06231\C,0
 ,1.094603,1.29742,-0.025244\C,0,0.603142,-1.059116,-0.019293\C,0,1.961
 412,-1.345366,0.053112\C,0,2.889682,-0.303765,0.087155\C,0,2.455916,1.
 020572,0.048243\H,0,3.949947,-0.525516,0.145419\H,0,3.177912,1.829241,
 0.075791\H,0,0.758226,2.328551,-0.055608\H,0,-0.107128,-1.878511,-0.04

 Normal termination of Gaussian 16 at Wed Apr  9 00:29:15 2025.
