 Gaussian 16, Revision C.01,

 ----------------------------------------------------------------------
 #t hf aug-cc-pvdz symm=none int=(grid=ultrafine) guess=(read,tcheck) s
 table=opt
 ----------------------------------------------------------------------
 -----
 title
 -----
 Symbolic Z-matrix:
 Charge =  0 Multiplicity = 2

 SCF Done:  E(UHF) =  -315.849153812     A.U. after   18 cycles

 1\1\GINC-SE336\Stability\UHF\Aug-CC-pVDZ\B1H4Si1\OHZDE\09-Apr-2025\0\\
 #t hf aug-cc-pvdz symm=none int=(grid=ultrafine) guess=(read,tcheck) s
 table=opt\\title\\0,2\H,0,2.48989,0.483338,-0.020035\B,0,1.482988,-0.1
 41249,-0.014235\Si,0,-0.490109,0.013442,-0.003244\H,0,-0.883717,-0.273
 091,1.402567\H,0,-1.068242,1.329536,-0.387101\H,0,-1.091352,-1.021719,
 -0.878847\\Version=ES64L-G16RevC.01\HF=-315.8491538\S2=0.758405\S2-1=0
 .\S2A=0.750026\RMSD=2.765e-09\Dipole=0.1125692,0.1714924,-0.0558176\Qu
 adrupole=-0.2906594,-0.9460617,1.2367211,0.7672457,-0.1574539,0.142289

 Normal termination of Gaussian 16 at Wed Apr  9 00:33:44 2025.
 Gaussian 16:  ES64L-G16RevC.01  3-Jul-2019

 ----------------------------------------------------------------------
 #t hf aug-cc-pvdz iop(5/13=1,5/36=2,99/5=2) pseudo=read geom=check gue
 ss=(read,tcheck) scf=(maxcycle=1)
 ----------------------------------------------------------------------
 -----
 title
 -----
 Structure from the checkpoint file:  "BDE49_nonexpt_459_mol2.chk"
 Charge =  0 Multiplicity = 2

                         Standard orientation:
 ---------------------------------------------------------------------
 Center     Atomic      Atomic             Coordinates (Angstroms)
 Number     Number       Type             X           Y           Z
 ---------------------------------------------------------------------
      1          1           0        2.489890    0.483338   -0.020035
      2          5           0        1.482988   -0.141249   -0.014235
      3         14           0       -0.490109    0.013442   -0.003244
      4          1           0       -0.883717   -0.273091    1.402567
      5          1           0       -1.068242    1.329536   -0.387101
      6          1           0       -1.091352   -1.021719   -0.878847
 ---------------------------------------------------------------------

 SCF Done:  E(UHF) =  -315.878004588     A.U. after    2 cycles

 The electronic state is 2-A.
 Alpha  occ. eigenvalues --  -69.06028  -7.65304  -6.81449  -3.92248  -3.92229
 Alpha  occ. eigenvalues --   -3.92160  -0.74052  -0.63960  -0.49523  -0.48426
 Alpha  occ. eigenvalues --   -0.45984  -0.32496
 Alpha virt. eigenvalues --    0.02272   0.03753   0.04353   0.06475   0.07278
 Alpha virt. eigenvalues --    0.07365   0.07921   0.08151   0.09406   0.10050
 Alpha virt. eigenvalues --    0.12122   0.14057   0.16476   0.19488   0.19983

  Beta  occ. eigenvalues --  -69.06050  -7.63645  -6.81478  -3.92277  -3.92258
  Beta  occ. eigenvalues --   -3.92207  -0.71969  -0.60444  -0.48404  -0.47838
  Beta  occ. eigenvalues --   -0.44374
  Beta virt. eigenvalues --    0.03349   0.03713   0.04399   0.04857   0.07266
  Beta virt. eigenvalues --    0.07422   0.07927   0.08415   0.08896   0.10587
  Beta virt. eigenvalues --    0.11085   0.12378   0.15000   0.16710   0.19912

 Mulliken charges and spin densities:
               1          2
     1  H    0.427139  -0.036788
     2  B   -0.420179   1.114598
     3  Si   0.121202  -0.116251
     4  H   -0.044174  -0.008170
     5  H   -0.047658   0.042796
     6  H   -0.036330   0.003815
 Sum of Mulliken charges =   0.00000   1.00000

 Dipole moment (field-independent basis, Debye):
    X=              0.3206    Y=              0.4332    Z=             -0.1524  Tot=              0.5600
                          Isotropic Fermi Contact Couplings
        Atom                 a.u.       MegaHertz       Gauss      10(-4) cm-1
     1  H(1)              -0.01090     -48.73613     -17.39026     -16.25662
     2  B(11)              0.19319     277.11105      98.88011      92.43430
     3  Si(29)            -0.01800      15.99535       5.70754       5.33548
     4  H(1)              -0.00125      -5.59650      -1.99697      -1.86679
     5  H(1)               0.01413      63.15781      22.53628      21.06718
     6  H(1)               0.00095       4.24980       1.51643       1.41758
 --------------------------------------------------------
       Center         ----  Spin Dipole Couplings  ----

 Normal termination of Gaussian 16 at Wed Apr  9 00:33:46 2025.
