 Gaussian 16, Revision C.01,

 ----------------------------------------------------------------------
 #t hf aug-cc-pvdz symm=none int=(grid=ultrafine) guess=(read,tcheck) s
 table=(opt,rrhf)
 ----------------------------------------------------------------------
 -----
 title
 -----
 Symbolic Z-matrix:
 Charge =  0 Multiplicity = 1

 SCF Done:  E(RHF) =  -873.416582605     A.U. after   17 cycles
 Normal termination of Gaussian 16 at Wed Apr  9 00:46:45 2025.
 Gaussian 16:  ES64L-G16RevC.01  3-Jul-2019

 ----------------------------------------------------------------------
 #t hf aug-cc-pvdz iop(5/13=1,5/36=2,99/5=2) pseudo=read geom=check gue
 ss=(read,tcheck) scf=(maxcycle=1)
 ----------------------------------------------------------------------
 -----
 title
 -----
 Structure from the checkpoint file:  "BDE49_nonexpt_858_mol1.chk"
 Charge =  0 Multiplicity = 1

                         Standard orientation:
 ---------------------------------------------------------------------
 Center     Atomic      Atomic             Coordinates (Angstroms)
 Number     Number       Type             X           Y           Z
 ---------------------------------------------------------------------
      1         14           0       -0.034769    0.164520   -0.696453
      2          7           0       -1.118542   -1.303451   -0.226548
      3          5           0        1.847647   -0.237562   -0.022586
      4          7           0       -0.812855    1.543017    0.285554
      5          8           0       -0.434025    2.646984   -0.102974
      6          8           0        2.066073   -1.307263    0.764415
      7          8           0       -0.628688   -2.138141    0.549735
      8          8           0        2.819846    0.614659   -0.412593
      9          8           0       -2.240894   -1.377232   -0.691376
     10          8           0       -1.559775    1.334052    1.226889
     11          1           0        3.690605    0.391305   -0.057722
     12          1           0        1.258349   -1.824404    0.931529
     13          1           0       -0.360938    0.456188   -2.096347
 ---------------------------------------------------------------------

 SCF Done:  E(RHF) =  -873.626964331     A.U. after    2 cycles

 The electronic state is 1-A.
 Alpha  occ. eigenvalues --  -69.19363 -20.66043 -20.64986 -20.64918 -20.64489
 Alpha  occ. eigenvalues --  -20.63125 -20.62356 -15.91935 -15.91492  -7.72523
 Alpha  occ. eigenvalues --   -6.94264  -4.05084  -4.04966  -4.04782  -1.56869
 Alpha  occ. eigenvalues --   -1.56178  -1.39372  -1.38817  -1.38743  -1.35698
 Alpha  occ. eigenvalues --   -0.99771  -0.94644  -0.84266  -0.83430  -0.80556
 Alpha  occ. eigenvalues --   -0.79356  -0.76485  -0.75740  -0.74034  -0.73716
 Alpha  occ. eigenvalues --   -0.69049  -0.65001  -0.63620  -0.63379  -0.56489
 Alpha  occ. eigenvalues --   -0.55714  -0.55177  -0.52723  -0.50459  -0.50217
 Alpha  occ. eigenvalues --   -0.49504  -0.48691
 Alpha virt. eigenvalues --    0.01298   0.02374   0.03219   0.03945   0.04944
 Alpha virt. eigenvalues --    0.05331   0.06376   0.06604   0.07260   0.08092
 Alpha virt. eigenvalues --    0.09035   0.09644   0.10555   0.11197   0.14073

 Mulliken charges:
               1
     1  Si   1.006234
     2  N    0.331070
     3  B    0.735615
     4  N    0.397226
     5  O   -0.584203
     6  O   -0.501098
     7  O   -0.602206
     8  O   -0.429450
     9  O   -0.515956
    10  O   -0.503253
    11  H    0.203634
    12  H    0.302950
    13  H    0.159437
 Sum of Mulliken charges =  -0.00000

 Dipole moment (field-independent basis, Debye):
    X=              4.2543    Y=             -1.0686    Z=             -2.4172  Tot=              5.0084

 Test job not archived.
 1\1\GINC-SE461\SP\RHF\Aug-CC-pVDZ\B1H3N2O6Si1\OHZDE\09-Apr-2025\0\\#t
 hf aug-cc-pvdz iop(5/13=1,5/36=2,99/5=2) pseudo=read geom=check guess=
 (read,tcheck) scf=(maxcycle=1)\\title\\0,1\Si,0,-0.034769,0.16452,-0.6
 96453\N,0,-1.118542,-1.303451,-0.226548\B,0,1.847647,-0.237562,-0.0225
 86\N,0,-0.812856,1.543017,0.285554\O,0,-0.434026,2.646984,-0.102974\O,
 0,2.066073,-1.307262,0.764415\O,0,-0.628687,-2.138141,0.549735\O,0,2.8
 19846,0.61466,-0.412593\O,0,-2.240894,-1.377233,-0.691376\O,0,-1.55977
 5,1.334051,1.226889\H,0,3.690605,0.391306,-0.057722\H,0,1.258349,-1.82

 Normal termination of Gaussian 16 at Wed Apr  9 00:46:51 2025.
