 Gaussian 16, Revision C.01,

 ----------------------------------------------------------------------
 #t hf aug-cc-pvdz symm=none int=(grid=ultrafine) guess=(read,tcheck) s
 table=(opt,rrhf)
 ----------------------------------------------------------------------
 -----
 title
 -----
 Symbolic Z-matrix:
 Charge =  0 Multiplicity = 1

 SCF Done:  E(RHF) =  -653.682578814     A.U. after   14 cycles
 Normal termination of Gaussian 16 at Wed Apr  9 00:19:58 2025.
 Gaussian 16:  ES64L-G16RevC.01  3-Jul-2019

 ----------------------------------------------------------------------
 #t hf aug-cc-pvdz iop(5/13=1,5/36=2,99/5=2) pseudo=read geom=check gue
 ss=(read,tcheck) scf=(maxcycle=1)
 ----------------------------------------------------------------------
 -----
 title
 -----
 Structure from the checkpoint file:  "BDE49_nonexpt_2639_mol1.chk"
 Charge =  0 Multiplicity = 1

                         Standard orientation:
 ---------------------------------------------------------------------
 Center     Atomic      Atomic             Coordinates (Angstroms)
 Number     Number       Type             X           Y           Z
 ---------------------------------------------------------------------
      1          9           0        1.450738   -1.393433    0.285705
      2         16           0        1.818451    0.108001   -0.373385
      3          6           0        0.567846    1.118166    0.451028
      4          6           0       -0.871061    0.985797   -0.054208
      5          1           0        0.648935    0.936450    1.526635
      6          6           0       -1.529533   -0.368210    0.235632
      7          1           0       -0.888525    1.181633   -1.131849
      8          1           0       -1.461399    1.782352    0.418302
      9          6           0       -2.982612   -0.428614   -0.241931
     10          1           0       -1.487139   -0.564502    1.313678
     11          1           0       -0.948308   -1.163254   -0.238507
     12          1           0       -3.595456    0.336113    0.245858
     13          1           0       -3.429987   -1.401566   -0.023197
     14          1           0       -3.051031   -0.268218   -1.322384
     15          1           0        0.953222    2.131041    0.271153
 ---------------------------------------------------------------------

 SCF Done:  E(RHF) =  -653.790665209     A.U. after    2 cycles

 The electronic state is 1-A.
 Alpha  occ. eigenvalues --  -93.61242 -26.11778 -11.28661 -11.24636 -11.23206
 Alpha  occ. eigenvalues --  -11.22641  -8.90120  -6.24325  -6.23922  -6.23528
 Alpha  occ. eigenvalues --   -1.62759  -1.09271  -1.02454  -0.93710  -0.85511
 Alpha  occ. eigenvalues --   -0.80014  -0.72447  -0.72033  -0.68634  -0.63494
 Alpha  occ. eigenvalues --   -0.61091  -0.60124  -0.56189  -0.53683  -0.49912
 Alpha  occ. eigenvalues --   -0.48453  -0.47761  -0.46075  -0.37100
 Alpha virt. eigenvalues --    0.03334   0.04144   0.04658   0.05431   0.06341
 Alpha virt. eigenvalues --    0.06831   0.06968   0.07852   0.08808   0.09344
 Alpha virt. eigenvalues --    0.09996   0.12164   0.12956   0.14393   0.15041

 Mulliken charges:
               1
     1  F   -0.646559
     2  S    0.829903
     3  C   -0.021744
     4  C    0.035152
     5  H   -0.062852
     6  C    0.090893
     7  H   -0.153375
     8  H   -0.085470
     9  C    0.417833
    10  H   -0.124015
    11  H   -0.108225
    12  H   -0.078268
    13  H   -0.064842
    14  H   -0.062203
    15  H    0.033773
 Sum of Mulliken charges =   0.00000

 Dipole moment (field-independent basis, Debye):
    X=             -1.1912    Y=              2.6887    Z=              0.1305  Tot=              2.9436

 Test job not archived.
 1\1\GINC-SE460\SP\RHF\Aug-CC-pVDZ\C4H9F1S1\OHZDE\09-Apr-2025\0\\#t hf
 aug-cc-pvdz iop(5/13=1,5/36=2,99/5=2) pseudo=read geom=check guess=(re
 ad,tcheck) scf=(maxcycle=1)\\title\\0,1\F,0,1.450738,-1.393433,0.28570
 5\S,0,1.818451,0.108001,-0.373385\C,0,0.567846,1.118166,0.451028\C,0,-
 0.871061,0.985797,-0.054208\H,0,0.648935,0.93645,1.526635\C,0,-1.52953
 3,-0.36821,0.235632\H,0,-0.888525,1.181633,-1.131849\H,0,-1.461399,1.7
 82352,0.418302\C,0,-2.982612,-0.428614,-0.241931\H,0,-1.487139,-0.5645
 02,1.313678\H,0,-0.948308,-1.163254,-0.238507\H,0,-3.595456,0.336113,0

 Normal termination of Gaussian 16 at Wed Apr  9 00:20:02 2025.
