 Gaussian 16, Revision C.01,

 ----------------------------------------------------------------------
 #t hf aug-cc-pvdz symm=none int=(grid=ultrafine) guess=(read,tcheck) s
 table=(opt,rrhf)
 ----------------------------------------------------------------------
 -----
 title
 -----
 Symbolic Z-matrix:
 Charge =  0 Multiplicity = 1

 SCF Done:  E(RHF) =  -2042.80946591     A.U. after   16 cycles
 Normal termination of Gaussian 16 at Tue Apr  8 23:25:08 2025.
 Gaussian 16:  ES64L-G16RevC.01  3-Jul-2019

 ----------------------------------------------------------------------
 #t hf aug-cc-pvdz iop(5/13=1,5/36=2,99/5=2) pseudo=read geom=check gue
 ss=(read,tcheck) scf=(maxcycle=1)
 ----------------------------------------------------------------------
 -----
 title
 -----
 Structure from the checkpoint file:  "BDE49_nonexpt_1250_mol1.chk"
 Charge =  0 Multiplicity = 1

                         Standard orientation:
 ---------------------------------------------------------------------
 Center     Atomic      Atomic             Coordinates (Angstroms)
 Number     Number       Type             X           Y           Z
 ---------------------------------------------------------------------
      1          6           0        0.258380   -0.038906   -0.271959
      2          6           0       -1.236285   -0.203899   -0.124483
      3          6           0       -2.012442   -0.585579   -1.223869
      4          1           0       -1.544761   -0.711322   -2.194374
      5          6           0       -3.379211   -0.795422   -1.078206
      6          1           0       -3.973390   -1.085410   -1.937154
      7          6           0       -3.985614   -0.624472    0.166324
      8          1           0       -5.051849   -0.784957    0.277037
      9          6           0       -3.219219   -0.240386    1.263397
     10          1           0       -3.686872   -0.098560    2.230843
     11          6           0       -1.849182   -0.031709    1.122928
     12          1           0       -1.257200    0.291485    1.970803
     13          7           0        0.660376    1.227730    0.394846
     14         15           0        1.033148   -1.498995    0.684699
     15         17           0       -0.025706    2.602381   -0.541738
     16         17           0        2.437048    1.403376    0.363642
     17         17           0        2.717105   -2.011489   -0.482423
     18          1           0        0.184709   -2.428029    0.042189
     19          1           0        0.567341   -0.072694   -1.319728
 ---------------------------------------------------------------------

 SCF Done:  E(RHF) =  -2042.97692981     A.U. after    2 cycles

 The electronic state is 1-A.
 Alpha  occ. eigenvalues -- -103.70235-103.69968-103.65847 -81.32985 -15.77599
 Alpha  occ. eigenvalues --  -11.32800 -11.27924 -11.26631 -11.26460 -11.26425
 Alpha  occ. eigenvalues --  -11.26339 -11.26254 -10.73231 -10.72936 -10.69162
 Alpha  occ. eigenvalues --   -8.38967  -8.38671  -8.38600  -8.38566  -8.38304
 Alpha  occ. eigenvalues --   -8.38279  -8.34865  -8.34593  -8.34575  -7.82799
 Alpha  occ. eigenvalues --   -4.96695  -4.96567  -4.96292  -1.29169  -1.17072
 Alpha  occ. eigenvalues --   -1.15026  -1.13801  -1.09193  -1.03119  -1.01292
 Alpha  occ. eigenvalues --   -0.90671  -0.85208  -0.82649  -0.77083  -0.72588
 Alpha  occ. eigenvalues --   -0.68495  -0.66739  -0.63585  -0.62930  -0.62452
 Alpha  occ. eigenvalues --   -0.61011  -0.56997  -0.55786  -0.54357  -0.52339
 Alpha  occ. eigenvalues --   -0.51738  -0.51154  -0.49931  -0.48967  -0.48750
 Alpha  occ. eigenvalues --   -0.46595  -0.45296  -0.41945  -0.38790  -0.35911
 Alpha  occ. eigenvalues --   -0.34660
 Alpha virt. eigenvalues --    0.02780   0.03706   0.04497   0.04651   0.05581
 Alpha virt. eigenvalues --    0.05716   0.06632   0.06793   0.07920   0.08214
 Alpha virt. eigenvalues --    0.08651   0.09292   0.09738   0.10468   0.11252

 Mulliken charges:
               1
     1  C    0.678941
     2  C    0.965495
     3  C    0.330765
     4  H   -0.584696
     5  C    0.391918
     6  H   -0.450371
     7  C    0.698696
     8  H   -0.445494
     9  C    0.357703
    10  H   -0.446177
    11  C    0.096294
    12  H   -0.650645
    13  N   -0.912220
    14  P    0.336528
    15  Cl   0.112582
    16  Cl   0.184734
    17  Cl  -0.488537
    18  H    0.313285
    19  H   -0.488801
 Sum of Mulliken charges =  -0.00000

 Dipole moment (field-independent basis, Debye):
    X=             -3.4062    Y=             -0.9620    Z=             -0.3253  Tot=              3.5543

 Test job not archived.
 1\1\GINC-SE070\SP\RHF\Aug-CC-pVDZ\C7H7Cl3N1P1\OHZDE\08-Apr-2025\0\\#t
 hf aug-cc-pvdz iop(5/13=1,5/36=2,99/5=2) pseudo=read geom=check guess=
 (read,tcheck) scf=(maxcycle=1)\\title\\0,1\C,0,0.25838,-0.038906,-0.27
 1959\C,0,-1.236285,-0.203899,-0.124483\C,0,-2.012442,-0.585579,-1.2238
 69\H,0,-1.544761,-0.711322,-2.194374\C,0,-3.379211,-0.795422,-1.078206
 \H,0,-3.97339,-1.08541,-1.937154\C,0,-3.985614,-0.624472,0.166324\H,0,
 -5.051849,-0.784957,0.277037\C,0,-3.219219,-0.240386,1.263397\H,0,-3.6
 86872,-0.09856,2.230843\C,0,-1.849182,-0.031709,1.122928\H,0,-1.2572,0

 Normal termination of Gaussian 16 at Tue Apr  8 23:25:24 2025.
