 Gaussian 16, Revision C.01,

 ----------------------------------------------------------------------
 #t hf aug-cc-pvdz symm=none int=(grid=ultrafine) guess=(read,tcheck) s
 table=(opt,rrhf)
 ----------------------------------------------------------------------
 -----
 title
 -----
 Symbolic Z-matrix:
 Charge =  0 Multiplicity = 1

 SCF Done:  E(RHF) =  -615.054715319     A.U. after   14 cycles

 1\1\GINC-SE424\Stability\RHF\Aug-CC-pVDZ\C4H7Cl1\OHZDE\08-Apr-2025\0\\
 #t hf aug-cc-pvdz symm=none int=(grid=ultrafine) guess=(read,tcheck) s
 table=(opt,rrhf)\\title\\0,1\C,0,0.766721,0.844796,0.080997\C,0,-0.527
 077,0.214764,0.45295\C,0,-1.597866,0.21126,-0.340487\Cl,0,2.105185,-0.
 409369,-0.088558\H,0,1.135745,1.527649,0.844964\H,0,0.717454,1.355811,
 -0.878313\C,0,-2.926471,-0.389121,0.003206\H,0,-0.5704,-0.256257,1.432
 034\H,0,-1.520417,0.677753,-1.321962\H,0,-2.920752,-0.839423,0.998016\
 H,0,-3.202233,-1.162652,-0.721878\H,0,-3.719385,0.366191,-0.027377\\Ve

 Normal termination of Gaussian 16 at Tue Apr  8 22:46:35 2025.
 Gaussian 16:  ES64L-G16RevC.01  3-Jul-2019

 ----------------------------------------------------------------------
 #t hf aug-cc-pvdz iop(5/13=1,5/36=2,99/5=2) pseudo=read geom=check gue
 ss=(read,tcheck) scf=(maxcycle=1)
 ----------------------------------------------------------------------
 -----
 title
 -----
 Structure from the checkpoint file:  "BDE49_expt_1651_mol1.chk"
 Charge =  0 Multiplicity = 1

                         Standard orientation:
 ---------------------------------------------------------------------
 Center     Atomic      Atomic             Coordinates (Angstroms)
 Number     Number       Type             X           Y           Z
 ---------------------------------------------------------------------
      1          6           0        0.766721    0.844796    0.080997
      2          6           0       -0.527077    0.214764    0.452950
      3          6           0       -1.597866    0.211260   -0.340487
      4         17           0        2.105185   -0.409369   -0.088558
      5          1           0        1.135745    1.527649    0.844964
      6          1           0        0.717454    1.355811   -0.878313
      7          6           0       -2.926471   -0.389121    0.003206
      8          1           0       -0.570400   -0.256257    1.432034
      9          1           0       -1.520417    0.677753   -1.321962
     10          1           0       -2.920752   -0.839423    0.998016
     11          1           0       -3.202233   -1.162652   -0.721878
     12          1           0       -3.719385    0.366191   -0.027377
 ---------------------------------------------------------------------

 SCF Done:  E(RHF) =  -615.122626415     A.U. after    2 cycles

 The electronic state is 1-A.
 Alpha  occ. eigenvalues -- -103.64164 -11.31009 -11.25941 -11.25094 -11.24364
 Alpha  occ. eigenvalues --  -10.67415  -8.33125  -8.32844  -8.32837  -1.15333
 Alpha  occ. eigenvalues --   -1.07871  -0.98076  -0.88091  -0.77093  -0.64896
 Alpha  occ. eigenvalues --   -0.64502  -0.58523  -0.57390  -0.55338  -0.53399
 Alpha  occ. eigenvalues --   -0.51324  -0.44488  -0.44070  -0.36855
 Alpha virt. eigenvalues --    0.03350   0.04327   0.04542   0.05599   0.06509
 Alpha virt. eigenvalues --    0.06815   0.08171   0.09444   0.10688   0.12070
 Alpha virt. eigenvalues --    0.13170   0.14171   0.15082   0.15915   0.16142

 Mulliken charges:
               1
     1  C    0.017614
     2  C    0.629899
     3  C    0.194578
     4  Cl  -0.176560
     5  H    0.024719
     6  H   -0.078400
     7  C    0.137351
     8  H   -0.359310
     9  H   -0.391597
    10  H   -0.113591
    11  H    0.059152
    12  H    0.056145
 Sum of Mulliken charges =  -0.00000

 Dipole moment (field-independent basis, Debye):
    X=             -2.5507    Y=              1.4133    Z=              0.0838  Tot=              2.9173

 Test job not archived.
 1\1\GINC-SE424\SP\RHF\Aug-CC-pVDZ\C4H7Cl1\OHZDE\08-Apr-2025\0\\#t hf a
 ug-cc-pvdz iop(5/13=1,5/36=2,99/5=2) pseudo=read geom=check guess=(rea
 d,tcheck) scf=(maxcycle=1)\\title\\0,1\C,0,0.766721,0.844796,0.080997\
 C,0,-0.527077,0.214764,0.45295\C,0,-1.597866,0.21126,-0.340487\Cl,0,2.
 105185,-0.409369,-0.088558\H,0,1.135745,1.527649,0.844964\H,0,0.717454
 ,1.355811,-0.878313\C,0,-2.926471,-0.389121,0.003206\H,0,-0.5704,-0.25
 6257,1.432034\H,0,-1.520417,0.677753,-1.321962\H,0,-2.920752,-0.839423
 ,0.998016\H,0,-3.202233,-1.162652,-0.721878\H,0,-3.719385,0.366191,-0.

 Normal termination of Gaussian 16 at Tue Apr  8 22:46:39 2025.
