 Gaussian 16, Revision C.01,

 ----------------------------------------------------------------------
 #t hf aug-cc-pvdz symm=none int=(grid=ultrafine) guess=(read,tcheck) s
 table=opt
 ----------------------------------------------------------------------
 -----
 title
 -----
 Symbolic Z-matrix:
 Charge =  0 Multiplicity = 2

 SCF Done:  E(UHF) =  -2522.82844911     A.U. after   24 cycles

 1\1\GINC-SE339\Stability\UHF\Aug-CC-pVDZ\C2Cl5O2\OHZDE\08-Apr-2025\0\\
 #t hf aug-cc-pvdz symm=none int=(grid=ultrafine) guess=(read,tcheck) s
 table=opt\\title\\0,2\C,0,0.772984,-0.188849,-0.093014\O,0,1.24624,0.4
 57594,-1.325254\O,0,1.63876,1.702688,-1.179495\C,0,-0.782427,0.076482,
 0.044961\Cl,0,1.105892,-1.905858,-0.388978\Cl,0,-1.08146,1.82247,0.271
 794\Cl,0,-1.608861,-0.45889,-1.448115\Cl,0,-1.432329,-0.825301,1.44471
 \Cl,0,1.662444,0.390634,1.316254\\Version=ES64L-G16RevC.01\HF=-2522.82
 84491\S2=0.761924\S2-1=0.\S2A=0.750108\RMSD=7.685e-09\Dipole=-0.083358

 Normal termination of Gaussian 16 at Tue Apr  8 23:08:28 2025.
 Gaussian 16:  ES64L-G16RevC.01  3-Jul-2019

 ----------------------------------------------------------------------
 #t hf aug-cc-pvdz iop(5/13=1,5/36=2,99/5=2) pseudo=read geom=check gue
 ss=(read,tcheck) scf=(maxcycle=1)
 ----------------------------------------------------------------------
 -----
 title
 -----
 Structure from the checkpoint file:  "BDE49_expt_627_mol2.chk"
 Charge =  0 Multiplicity = 2

                         Standard orientation:
 ---------------------------------------------------------------------
 Center     Atomic      Atomic             Coordinates (Angstroms)
 Number     Number       Type             X           Y           Z
 ---------------------------------------------------------------------
      1          6           0        0.772984   -0.188849   -0.093014
      2          8           0        1.246240    0.457594   -1.325254
      3          8           0        1.638760    1.702688   -1.179495
      4          6           0       -0.782427    0.076482    0.044961
      5         17           0        1.105891   -1.905858   -0.388978
      6         17           0       -1.081460    1.822470    0.271794
      7         17           0       -1.608861   -0.458890   -1.448115
      8         17           0       -1.432329   -0.825301    1.444710
      9         17           0        1.662444    0.390634    1.316254
 ---------------------------------------------------------------------

 SCF Done:  E(UHF) =  -2522.98800201     A.U. after    2 cycles

 The electronic state is 2-A.
 Alpha  occ. eigenvalues -- -103.70909-103.70754-103.70718-103.70693-103.70515
 Alpha  occ. eigenvalues --  -20.73083 -20.72812 -11.49129 -11.48404 -10.74237
 Alpha  occ. eigenvalues --  -10.74075 -10.74024 -10.73987 -10.73807  -8.39971
 Alpha  occ. eigenvalues --   -8.39801  -8.39740  -8.39710  -8.39615  -8.39608
 Alpha  occ. eigenvalues --   -8.39528  -8.39453  -8.39445  -8.39404  -8.39387
 Alpha  occ. eigenvalues --   -8.39363  -8.39356  -8.39183  -8.39176  -1.57019
 Alpha  occ. eigenvalues --   -1.31621  -1.26245  -1.20431  -1.18421  -1.17314
 Alpha  occ. eigenvalues --   -1.16731  -0.97753  -0.85215  -0.82177  -0.75945
 Alpha  occ. eigenvalues --   -0.75630  -0.69762  -0.67465  -0.65415  -0.60950
 Alpha  occ. eigenvalues --   -0.57845  -0.56994  -0.54015  -0.53078  -0.52648
 Alpha  occ. eigenvalues --   -0.51773  -0.51451  -0.49829  -0.49296  -0.48435
 Alpha  occ. eigenvalues --   -0.47983  -0.47164
 Alpha virt. eigenvalues --    0.05359   0.06665   0.06873   0.08019   0.09140
 Alpha virt. eigenvalues --    0.09194   0.10336   0.10838   0.11536   0.12955
 Alpha virt. eigenvalues --    0.13312   0.13939   0.15650   0.15948   0.16836

  Beta  occ. eigenvalues -- -103.70907-103.70755-103.70713-103.70692-103.70515
  Beta  occ. eigenvalues --  -20.72057 -20.68912 -11.49210 -11.48385 -10.74235
  Beta  occ. eigenvalues --  -10.74077 -10.74019 -10.73985 -10.73807  -8.39955
  Beta  occ. eigenvalues --   -8.39802  -8.39738  -8.39705  -8.39617  -8.39609
  Beta  occ. eigenvalues --   -8.39530  -8.39453  -8.39451  -8.39386  -8.39383
  Beta  occ. eigenvalues --   -8.39363  -8.39355  -8.39182  -8.39175  -1.51147
  Beta  occ. eigenvalues --   -1.30361  -1.24911  -1.19051  -1.17674  -1.16802
  Beta  occ. eigenvalues --   -1.12254  -0.96767  -0.83766  -0.75098  -0.73575
  Beta  occ. eigenvalues --   -0.72408  -0.67093  -0.65290  -0.60641  -0.60602
  Beta  occ. eigenvalues --   -0.55164  -0.53249  -0.52733  -0.52661  -0.51744
  Beta  occ. eigenvalues --   -0.51589  -0.49893  -0.49235  -0.48184  -0.47990
  Beta  occ. eigenvalues --   -0.47153
  Beta virt. eigenvalues --    0.05081   0.06282   0.06670   0.06933   0.08089
  Beta virt. eigenvalues --    0.09210   0.09243   0.10650   0.11075   0.11604
  Beta virt. eigenvalues --    0.13041   0.13545   0.14109   0.15744   0.16116

 Mulliken charges and spin densities:
               1          2
     1  C    0.785520  -0.024328
     2  O   -0.424788   0.055584
     3  O   -0.092356   0.960760
     4  C   -0.433312   0.010899
     5  Cl  -0.007684  -0.000447
     6  Cl   0.079030  -0.001474
     7  Cl   0.065723  -0.000606
     8  Cl   0.029083   0.000987
     9  Cl  -0.001215  -0.001374
 Sum of Mulliken charges =  -0.00000   1.00000

 Dipole moment (field-independent basis, Debye):
    X=             -0.2421    Y=             -0.3701    Z=              0.7694  Tot=              0.8875
                          Isotropic Fermi Contact Couplings
        Atom                 a.u.       MegaHertz       Gauss      10(-4) cm-1
     1  C(13)             -0.01545     -17.36867      -6.19757      -5.79357
     2  O(17)              0.07774     -47.12577     -16.81565     -15.71946
     3  O(17)              0.29844    -180.91006     -64.55321     -60.34510
     4  C(13)              0.00429       4.82271       1.72086       1.60868
     5  Cl(35)            -0.00080      -0.35015      -0.12494      -0.11680
     6  Cl(35)             0.00420       1.84128       0.65702       0.61419
     7  Cl(35)             0.00035       0.15359       0.05480       0.05123
     8  Cl(35)             0.00019       0.08447       0.03014       0.02818

 Normal termination of Gaussian 16 at Tue Apr  8 23:08:35 2025.
