 Gaussian 16, Revision C.01,

 ----------------------------------------------------------------------
 #t hf aug-cc-pvdz symm=none int=(grid=ultrafine) guess=(read,tcheck) s
 table=(opt,rrhf)
 ----------------------------------------------------------------------
 -----
 title
 -----
 Symbolic Z-matrix:
 Charge =  0 Multiplicity = 1

 SCF Done:  E(RHF) =  -1248.19863899     A.U. after   12 cycles
 Normal termination of Gaussian 16 at Tue Apr  8 23:44:13 2025.
 Gaussian 16:  ES64L-G16RevC.01  3-Jul-2019

 ----------------------------------------------------------------------
 #t hf aug-cc-pvdz iop(5/13=1,5/36=2,99/5=2) pseudo=read geom=check gue
 ss=(read,tcheck) scf=(maxcycle=1)
 ----------------------------------------------------------------------
 -----
 title
 -----
 Structure from the checkpoint file:  "BDE49_nonexpt_1758_mol1.chk"
 Charge =  0 Multiplicity = 1

                         Standard orientation:
 ---------------------------------------------------------------------
 Center     Atomic      Atomic             Coordinates (Angstroms)
 Number     Number       Type             X           Y           Z
 ---------------------------------------------------------------------
      1         14           0       -0.480161    0.619501    0.000000
      2          6           0        0.795647   -0.762839    0.000000
      3         17           0       -2.372942   -0.257475    0.000000
      4          1           0        0.733463   -1.391358   -0.887417
      5          1           0        0.733463   -1.391359    0.887415
      6         17           0        2.443041    0.011534    0.000000
      7          1           0       -0.355116    1.433870   -1.219914
      8          1           0       -0.355116    1.433868    1.219916
 ---------------------------------------------------------------------

 SCF Done:  E(RHF) =  -1248.27274310     A.U. after    2 cycles

 The electronic state is 1-A.
 Alpha  occ. eigenvalues -- -103.66810-103.66034 -69.12836 -11.30872 -10.70029
 Alpha  occ. eigenvalues --  -10.69479  -8.35746  -8.35459  -8.35446  -8.35168
 Alpha  occ. eigenvalues --   -8.34947  -8.34940  -6.87674  -3.98542  -3.98389
 Alpha  occ. eigenvalues --   -3.98362  -1.17001  -1.14311  -0.93390  -0.71769
 Alpha  occ. eigenvalues --   -0.64179  -0.58893  -0.54922  -0.53423  -0.53333
 Alpha  occ. eigenvalues --   -0.48467  -0.46743  -0.46290  -0.43832
 Alpha virt. eigenvalues --    0.03561   0.04821   0.04939   0.05509   0.07346
 Alpha virt. eigenvalues --    0.08050   0.09244   0.09996   0.11638   0.13643
 Alpha virt. eigenvalues --    0.14372   0.15220   0.16081   0.16188   0.16559

 Mulliken charges:
               1
     1  Si   1.021773
     2  C   -0.146120
     3  Cl  -0.529813
     4  H   -0.041984
     5  H   -0.041987
     6  Cl  -0.211761
     7  H   -0.025054
     8  H   -0.025054
 Sum of Mulliken charges =   0.00000

 Dipole moment (field-independent basis, Debye):
    X=             -0.0747    Y=             -0.4112    Z=             -0.0000  Tot=              0.4180

 Test job not archived.
 1\1\GINC-SE345\SP\RHF\Aug-CC-pVDZ\C1H4Cl2Si1\OHZDE\08-Apr-2025\0\\#t h
 f aug-cc-pvdz iop(5/13=1,5/36=2,99/5=2) pseudo=read geom=check guess=(
 read,tcheck) scf=(maxcycle=1)\\title\\0,1\Si,0,-0.480161,0.619501,0.\C
 ,0,0.795647,-0.762839,0.\Cl,0,-2.372942,-0.257475,0.\H,0,0.733463,-1.3
 91358,-0.887417\H,0,0.733463,-1.391359,0.887415\Cl,0,2.443041,0.011534
 ,0.\H,0,-0.355116,1.43387,-1.219914\H,0,-0.355116,1.433868,1.219916\\V
 ersion=ES64L-G16RevC.01\State=1-A\HF=-1248.2727431\RMSD=4.182e-03\Dipo
 le=-0.029407,-0.1617841,-0.0000012\Quadrupole=-5.0228824,3.0615231,1.9

 Normal termination of Gaussian 16 at Tue Apr  8 23:44:15 2025.
