 Gaussian 16, Revision C.01,

 ----------------------------------------------------------------------
 #t hf aug-cc-pvdz symm=none int=(grid=ultrafine) guess=(read,tcheck) s
 table=(opt,rrhf)
 ----------------------------------------------------------------------
 -----
 title
 -----
 Symbolic Z-matrix:
 Charge =  0 Multiplicity = 1

 SCF Done:  E(RHF) =  -633.530777206     A.U. after   13 cycles
 Normal termination of Gaussian 16 at Wed Apr  9 00:42:45 2025.
 Gaussian 16:  ES64L-G16RevC.01  3-Jul-2019

 ----------------------------------------------------------------------
 #t hf aug-cc-pvdz iop(5/13=1,5/36=2,99/5=2) pseudo=read geom=check gue
 ss=(read,tcheck) scf=(maxcycle=1)
 ----------------------------------------------------------------------
 -----
 title
 -----
 Structure from the checkpoint file:  "BDE49_nonexpt_758_mol1.chk"
 Charge =  0 Multiplicity = 1

                         Standard orientation:
 ---------------------------------------------------------------------
 Center     Atomic      Atomic             Coordinates (Angstroms)
 Number     Number       Type             X           Y           Z
 ---------------------------------------------------------------------
      1          5           0        1.590580    0.142122   -0.001042
      2          8           0        1.460525    1.503596    0.037051
      3          8           0        2.833200   -0.405698    0.070047
      4          6           0       -1.265768   -0.015454    0.511730
      5          6           0       -2.710231   -0.279099    0.153129
      6          6           0       -2.035594    0.951757   -0.381106
      7          1           0       -3.450448   -0.157671    0.934910
      8          1           0       -2.917572   -1.082081   -0.544153
      9          1           0       -1.793560    0.972196   -1.438060
     10          1           0       -2.318052    1.912466    0.034218
     11          1           0        3.520338    0.267999    0.142766
     12          1           0        0.543673    1.793485    0.000514
     13         15           0        0.062767   -1.036369   -0.267638
     14          1           0       -1.094484    0.325694    1.527856
     15          1           0        0.335455   -1.923564    0.802433
 ---------------------------------------------------------------------

 SCF Done:  E(RHF) =  -633.648738328     A.U. after    2 cycles

 The electronic state is 1-A.
 Alpha  occ. eigenvalues --  -81.23699 -20.59002 -20.58374 -11.25696 -11.25321
 Alpha  occ. eigenvalues --  -11.24891  -7.74259  -7.67218  -4.88329  -4.88232
 Alpha  occ. eigenvalues --   -4.87970  -1.35039  -1.31372  -1.13950  -0.85932
 Alpha  occ. eigenvalues --   -0.83509  -0.79226  -0.76322  -0.72876  -0.67648
 Alpha  occ. eigenvalues --   -0.63293  -0.61516  -0.59601  -0.58813  -0.53120
 Alpha  occ. eigenvalues --   -0.52732  -0.50637  -0.47858  -0.42649  -0.41707
 Alpha  occ. eigenvalues --   -0.33746
 Alpha virt. eigenvalues --    0.03032   0.04238   0.04618   0.04906   0.06117
 Alpha virt. eigenvalues --    0.06634   0.06844   0.07432   0.08057   0.09180
 Alpha virt. eigenvalues --    0.09956   0.10472   0.11451   0.12357   0.13042

 Mulliken charges:
               1
     1  B    0.828990
     2  O   -0.488789
     3  O   -0.533685
     4  C    0.222351
     5  C    0.819185
     6  C    0.590314
     7  H   -0.322105
     8  H   -0.344766
     9  H   -0.339856
    10  H   -0.309592
    11  H    0.197831
    12  H    0.272906
    13  P   -0.206143
    14  H   -0.516636
    15  H    0.129994
 Sum of Mulliken charges =  -0.00000

 Dipole moment (field-independent basis, Debye):
    X=             -1.3685    Y=              1.6805    Z=              0.9118  Tot=              2.3513

 Test job not archived.
 1\1\GINC-SE340\SP\RHF\Aug-CC-pVDZ\C3H8B1O2P1\OHZDE\09-Apr-2025\0\\#t h
 f aug-cc-pvdz iop(5/13=1,5/36=2,99/5=2) pseudo=read geom=check guess=(
 read,tcheck) scf=(maxcycle=1)\\title\\0,1\B,0,1.59058,0.142122,-0.0010
 42\O,0,1.460525,1.503596,0.037051\O,0,2.8332,-0.405698,0.070047\C,0,-1
 .265768,-0.015454,0.51173\C,0,-2.710231,-0.279099,0.153129\C,0,-2.0355
 94,0.951757,-0.381106\H,0,-3.450448,-0.157671,0.93491\H,0,-2.917572,-1
 .082081,-0.544153\H,0,-1.79356,0.972196,-1.43806\H,0,-2.318052,1.91246
 6,0.034218\H,0,3.520338,0.267999,0.142766\H,0,0.543673,1.793485,0.0005

 Normal termination of Gaussian 16 at Wed Apr  9 00:42:50 2025.
