 Gaussian 16, Revision C.01,

 ----------------------------------------------------------------------
 #t hf aug-cc-pvdz symm=none int=(grid=ultrafine) guess=(read,tcheck) s
 table=(opt,rrhf)
 ----------------------------------------------------------------------
 -----
 title
 -----
 Symbolic Z-matrix:
 Charge =  0 Multiplicity = 1

 SCF Done:  E(RHF) =  -764.519833974     A.U. after   16 cycles
 Normal termination of Gaussian 16 at Tue Apr  8 23:09:17 2025.
 Gaussian 16:  ES64L-G16RevC.01  3-Jul-2019

 ----------------------------------------------------------------------
 #t hf aug-cc-pvdz iop(5/13=1,5/36=2,99/5=2) pseudo=read geom=check gue
 ss=(read,tcheck) scf=(maxcycle=1)
 ----------------------------------------------------------------------
 -----
 title
 -----
 Structure from the checkpoint file:  "BDE49_expt_726_mol1.chk"
 Charge =  0 Multiplicity = 1

                         Standard orientation:
 ---------------------------------------------------------------------
 Center     Atomic      Atomic             Coordinates (Angstroms)
 Number     Number       Type             X           Y           Z
 ---------------------------------------------------------------------
      1          6           0       -1.791712   -1.324675    0.000001
      2          6           0       -0.406666   -1.470668    0.000001
      3          6           0        0.415161   -0.350283   -0.000000
      4          6           0       -2.347803   -0.048714    0.000001
      5          6           0       -1.524544    1.072991   -0.000000
      6          6           0       -0.133799    0.939190   -0.000000
      7          1           0       -3.423745    0.079764    0.000001
      8          1           0       -1.957662    2.069128   -0.000001
      9          8           0        0.710591    2.003366   -0.000001
     10          1           0        0.194069    2.815944   -0.000002
     11          1           0       -2.425638   -2.202733    0.000002
     12          1           0        0.048681   -2.452810    0.000001
     13         17           0        2.153867   -0.543722   -0.000000
 ---------------------------------------------------------------------

 SCF Done:  E(RHF) =  -764.630194630     A.U. after    2 cycles

 The electronic state is 1-A.
 Alpha  occ. eigenvalues -- -103.66194 -20.61903 -11.33434 -11.30878 -11.26602
 Alpha  occ. eigenvalues --  -11.26443 -11.25987 -11.25276 -10.69455  -8.35196
 Alpha  occ. eigenvalues --   -8.34884  -8.34868  -1.38539  -1.19285  -1.13426
 Alpha  occ. eigenvalues --   -1.02337  -1.00502  -0.87239  -0.83130  -0.76062
 Alpha  occ. eigenvalues --   -0.69926  -0.67811  -0.63178  -0.62567  -0.60650
 Alpha  occ. eigenvalues --   -0.59435  -0.54322  -0.52791  -0.51667  -0.47620
 Alpha  occ. eigenvalues --   -0.46292  -0.35337  -0.33142
 Alpha virt. eigenvalues --    0.02838   0.03685   0.04532   0.05921   0.06849
 Alpha virt. eigenvalues --    0.08774   0.09521   0.10881   0.11681   0.11909
 Alpha virt. eigenvalues --    0.12757   0.13772   0.13921   0.14272   0.14311

 Mulliken charges:
               1
     1  C    0.703189
     2  C    0.519085
     3  C   -0.231101
     4  C    0.143528
     5  C    0.973658
     6  C    0.535097
     7  H   -0.427367
     8  H   -0.589713
     9  O   -0.552680
    10  H    0.133939
    11  H   -0.429664
    12  H   -0.401208
    13  Cl  -0.376765
 Sum of Mulliken charges =  -0.00000

 Dipole moment (field-independent basis, Debye):
    X=             -3.2585    Y=              0.9578    Z=             -0.0000  Tot=              3.3964

 Test job not archived.
 1\1\GINC-SE453\SP\RHF\Aug-CC-pVDZ\C6H5Cl1O1\OHZDE\08-Apr-2025\0\\#t hf
  aug-cc-pvdz iop(5/13=1,5/36=2,99/5=2) pseudo=read geom=check guess=(r
 ead,tcheck) scf=(maxcycle=1)\\title\\0,1\C,0,-1.791712,-1.324675,0.000
 001\C,0,-0.406666,-1.470668,0.000001\C,0,0.415161,-0.350283,0.\C,0,-2.
 347803,-0.048714,0.000001\C,0,-1.524544,1.072991,0.\C,0,-0.133799,0.93
 919,0.\H,0,-3.423745,0.079764,0.000001\H,0,-1.957662,2.069128,-0.00000
 1\O,0,0.710591,2.003366,-0.000001\H,0,0.194069,2.815944,-0.000002\H,0,
 -2.425638,-2.202733,0.000002\H,0,0.048681,-2.45281,0.000001\Cl,0,2.153

 Normal termination of Gaussian 16 at Tue Apr  8 23:09:22 2025.
