 Gaussian 16, Revision C.01,

 ----------------------------------------------------------------------
 #t hf aug-cc-pvdz symm=none int=(grid=ultrafine) guess=(read,tcheck) s
 table=opt
 ----------------------------------------------------------------------
 -----
 title
 -----
 Symbolic Z-matrix:
 Charge =  0 Multiplicity = 2

 SCF Done:  E(UHF) =  -950.587580741     A.U. after   19 cycles
 Normal termination of Gaussian 16 at Tue Apr  8 23:03:17 2025.
 Gaussian 16:  ES64L-G16RevC.01  3-Jul-2019

 ----------------------------------------------------------------------
 #t hf aug-cc-pvdz iop(5/13=1,5/36=2,99/5=2) pseudo=read geom=check gue
 ss=(read,tcheck) scf=(maxcycle=1)
 ----------------------------------------------------------------------
 -----
 title
 -----
 Structure from the checkpoint file:  "BDE49_expt_380_mol2.chk"
 Charge =  0 Multiplicity = 2

                         Standard orientation:
 ---------------------------------------------------------------------
 Center     Atomic      Atomic             Coordinates (Angstroms)
 Number     Number       Type             X           Y           Z
 ---------------------------------------------------------------------
      1          6           0       -0.000466   -1.233382    0.608291
      2         16           0        1.550417   -0.776449   -0.311409
      3          6           0        1.332854    0.990155    0.059486
      4         16           0       -0.476619    1.384527    0.044556
      5          1           0        1.822847    1.579454   -0.714628
      6          1           0        1.743195    1.245539    1.036145
      7          6           0       -1.051734   -0.246435    0.243021
      8          6           0       -2.371727   -0.644719   -0.336960
      9          1           0       -2.249839   -1.090210   -1.336756
     10          1           0       -3.042631    0.210050   -0.442614
     11          1           0       -2.873712   -1.387124    0.292158
     12          1           0        0.236157   -1.230713    1.677680
     13          1           0       -0.270352   -2.249960    0.314639
 ---------------------------------------------------------------------

 SCF Done:  E(UHF) =  -950.675540119     A.U. after    2 cycles

 The electronic state is 2-A.
 Alpha  occ. eigenvalues --  -93.54305 -93.53932 -11.30264 -11.28245 -11.27638
 Alpha  occ. eigenvalues --  -11.24487  -8.84090  -8.83622  -6.18168  -6.17979
 Alpha  occ. eigenvalues --   -6.17836  -6.17809  -6.17584  -6.17179  -1.13710
 Alpha  occ. eigenvalues --   -1.03026  -0.98143  -0.92303  -0.80620  -0.74507
 Alpha  occ. eigenvalues --   -0.65358  -0.62889  -0.61143  -0.59483  -0.55664
 Alpha  occ. eigenvalues --   -0.51882  -0.50476  -0.48827  -0.44021  -0.40634
 Alpha  occ. eigenvalues --   -0.34921  -0.29345
 Alpha virt. eigenvalues --    0.03528   0.04496   0.04867   0.05317   0.06521
 Alpha virt. eigenvalues --    0.06933   0.07544   0.08568   0.09975   0.11124
 Alpha virt. eigenvalues --    0.12367   0.13703   0.14039   0.14431   0.15212

  Beta  occ. eigenvalues --  -93.54278 -93.53858 -11.30231 -11.28616 -11.25040
  Beta  occ. eigenvalues --  -11.24768  -8.84058  -8.83537  -6.18304  -6.18063
  Beta  occ. eigenvalues --   -6.17616  -6.17477  -6.17431  -6.17129  -1.11363
  Beta  occ. eigenvalues --   -1.01129  -0.97991  -0.91616  -0.80235  -0.70738
  Beta  occ. eigenvalues --   -0.64180  -0.61384  -0.60248  -0.57216  -0.55107
  Beta  occ. eigenvalues --   -0.51159  -0.50010  -0.47289  -0.42822  -0.36287
  Beta  occ. eigenvalues --   -0.34655
  Beta virt. eigenvalues --    0.03552   0.04397   0.04859   0.05317   0.06496
  Beta virt. eigenvalues --    0.06930   0.07517   0.08317   0.09599   0.10318
  Beta virt. eigenvalues --    0.11493   0.13739   0.14004   0.14193   0.14491

 Mulliken charges and spin densities:
               1          2
     1  C   -0.027025  -0.253123
     2  S    0.481173   0.063938
     3  C   -0.350845  -0.014542
     4  S    0.382442  -0.006874
     5  H   -0.049748  -0.000665
     6  H   -0.058560  -0.004344
     7  C   -0.412455   1.344085
     8  C    0.223069  -0.219401
     9  H    0.075127   0.046617
    10  H   -0.084678   0.000405
    11  H    0.023166   0.012942
    12  H   -0.017668   0.024082
    13  H   -0.183999   0.006879
 Sum of Mulliken charges =   0.00000   1.00000

 Dipole moment (field-independent basis, Debye):
    X=             -0.5543    Y=             -0.6423    Z=              0.7107  Tot=              1.1067
                          Isotropic Fermi Contact Couplings
        Atom                 a.u.       MegaHertz       Gauss      10(-4) cm-1
     1  C(13)             -0.06383     -71.75454     -25.60380     -23.93474
     2  S(33)              0.02832       9.72861       3.47141       3.24512
     3  C(13)              0.01129      12.69592       4.53022       4.23490
     4  S(33)              0.03352      11.51339       4.10826       3.84045
     5  H(1)               0.00014       0.62771       0.22398       0.20938
     6  H(1)               0.00016       0.72393       0.25832       0.24148
     7  C(13)              0.26512     298.04774     106.35085      99.41803
     8  C(13)             -0.05095     -57.27960     -20.43879     -19.10642

 Normal termination of Gaussian 16 at Tue Apr  8 23:03:22 2025.
