 Gaussian 16, Revision C.01,

 ----------------------------------------------------------------------
 #t hf aug-cc-pvdz symm=none int=(grid=ultrafine) guess=(read,tcheck) s
 table=(opt,rrhf)
 ----------------------------------------------------------------------
 -----
 title
 -----
 Symbolic Z-matrix:
 Charge =  0 Multiplicity = 1

 SCF Done:  E(RHF) =  -276.982301584     A.U. after   11 cycles
 Normal termination of Gaussian 16 at Tue Apr  8 22:27:16 2025.
 Gaussian 16:  ES64L-G16RevC.01  3-Jul-2019

 ----------------------------------------------------------------------
 #t hf aug-cc-pvdz iop(5/13=1,5/36=2,99/5=2) pseudo=read geom=check gue
 ss=(read,tcheck) scf=(maxcycle=1)
 ----------------------------------------------------------------------
 -----
 title
 -----
 Structure from the checkpoint file:  "BDE49_expt_1008_mol1.chk"
 Charge =  0 Multiplicity = 1

                         Standard orientation:
 ---------------------------------------------------------------------
 Center     Atomic      Atomic             Coordinates (Angstroms)
 Number     Number       Type             X           Y           Z
 ---------------------------------------------------------------------
      1          6           0       -0.324080    0.166855    0.000000
      2          6           0        0.903923    1.036414   -0.000000
      3          9           0       -0.324080   -0.648874    1.104465
      4          9           0       -0.324080   -0.648874   -1.104465
      5          1           0       -1.268052    0.718496    0.000000
      6          1           0        1.792548    0.402762   -0.000000
      7          1           0        0.914948    1.669434    0.889054
      8          1           0        0.914948    1.669434   -0.889054
 ---------------------------------------------------------------------

 SCF Done:  E(RHF) =  -277.081362993     A.U. after    2 cycles

 The electronic state is 1-A'.
 Alpha  occ. eigenvalues --  -26.12926 -26.12917 -11.42131 -11.25426  -1.69030
 Alpha  occ. eigenvalues --   -1.64646  -1.06125  -0.92019  -0.81271  -0.80549
 Alpha  occ. eigenvalues --   -0.76871  -0.72386  -0.68894  -0.65187  -0.57869
 Alpha  occ. eigenvalues --   -0.57472  -0.53658
 Alpha virt. eigenvalues --    0.03366   0.04618   0.05503   0.06402   0.10677
 Alpha virt. eigenvalues --    0.11459   0.11568   0.14121   0.15553   0.15699
 Alpha virt. eigenvalues --    0.16977   0.20470   0.23975   0.25853   0.27632

 Mulliken charges:
               1
     1  C    0.838861
     2  C    0.102547
     3  F   -0.374340
     4  F   -0.374340
     5  H   -0.184988
     6  H   -0.003685
     7  H   -0.002028
     8  H   -0.002028
 Sum of Mulliken charges =  -0.00000

 Dipole moment (field-independent basis, Debye):
    X=              0.3771    Y=              2.7867    Z=             -0.0000  Tot=              2.8121

 Test job not archived.
 1\1\GINC-SE252\SP\RHF\Aug-CC-pVDZ\C2H4F2\OHZDE\08-Apr-2025\0\\#t hf au
 g-cc-pvdz iop(5/13=1,5/36=2,99/5=2) pseudo=read geom=check guess=(read
 ,tcheck) scf=(maxcycle=1)\\title\\0,1\C,0,-0.32408,0.166855,0.\C,0,0.9
 03923,1.036414,0.\F,0,-0.32408,-0.648874,1.104465\F,0,-0.32408,-0.6488
 74,-1.104465\H,0,-1.268052,0.718496,0.\H,0,1.792548,0.402762,0.\H,0,0.
 914948,1.669434,0.889054\H,0,0.914948,1.669434,-0.889054\\Version=ES64
 L-G16RevC.01\State=1-A'\HF=-277.081363\RMSD=6.004e-03\Dipole=0.1483454
 ,1.0963596,0.\Quadrupole=1.651781,0.3445362,-1.9963171,-0.4895525,0.,0

 Normal termination of Gaussian 16 at Tue Apr  8 22:27:18 2025.
