 Gaussian 16, Revision C.01,

 ----------------------------------------------------------------------
 #t hf aug-cc-pvdz symm=none int=(grid=ultrafine) guess=(read,tcheck) s
 table=(opt,rrhf)
 ----------------------------------------------------------------------
 -----
 title
 -----
 Symbolic Z-matrix:
 Charge =  0 Multiplicity = 1

 SCF Done:  E(RHF) =  -608.794148394     A.U. after   12 cycles
 Normal termination of Gaussian 16 at Tue Apr  8 23:54:17 2025.
 Gaussian 16:  ES64L-G16RevC.01  3-Jul-2019

 ----------------------------------------------------------------------
 #t hf aug-cc-pvdz iop(5/13=1,5/36=2,99/5=2) pseudo=read geom=check gue
 ss=(read,tcheck) scf=(maxcycle=1)
 ----------------------------------------------------------------------
 -----
 title
 -----
 Structure from the checkpoint file:  "BDE49_nonexpt_1963_mol1.chk"
 Charge =  0 Multiplicity = 1

                         Standard orientation:
 ---------------------------------------------------------------------
 Center     Atomic      Atomic             Coordinates (Angstroms)
 Number     Number       Type             X           Y           Z
 ---------------------------------------------------------------------
      1         14           0       -0.552494   -1.286665   -0.077730
      2          6           0        1.080309   -0.910752    0.844199
      3          5           0        1.922257    0.198256    0.139427
      4          8           0        1.406789    1.481346    0.210214
      5          6           0        3.263743   -0.080116   -0.637814
      6          1           0        3.140042   -0.913468   -1.337968
      7          1           0        4.041567   -0.398539    0.067081
      8          1           0        3.656613    0.774935   -1.198633
      9          5           0       -1.865287    0.296572   -0.062239
     10          1           0       -1.159220   -2.504084    0.527786
     11          1           0       -0.219063   -1.661351   -1.483853
     12          8           0       -1.424556    1.557419    0.164645
     13          6           0       -3.405425    0.084557   -0.308313
     14          1           0       -3.590299   -0.466472   -1.238414
     15          1           0       -3.957351    1.028348   -0.346085
     16          1           0       -3.837118   -0.535262    0.487887
     17          1           0        1.935787    2.137200   -0.254944
     18          1           0       -0.464298    1.633856    0.293922
     19          1           0        1.636092   -1.846321    0.951854
     20          1           0        0.777686   -0.581927    1.846360
 ---------------------------------------------------------------------

 SCF Done:  E(RHF) =  -608.922048574     A.U. after    2 cycles

 The electronic state is 1-A.
 Alpha  occ. eigenvalues --  -69.04086 -20.60153 -20.56675 -11.21678 -11.19993
 Alpha  occ. eigenvalues --  -11.19342  -7.64032  -7.62009  -6.79490  -3.90249
 Alpha  occ. eigenvalues --   -3.90239  -3.90159  -1.34381  -1.30842  -0.96523
 Alpha  occ. eigenvalues --   -0.93217  -0.92766  -0.77486  -0.75367  -0.68587
 Alpha  occ. eigenvalues --   -0.65264  -0.60257  -0.59918  -0.58493  -0.55654
 Alpha  occ. eigenvalues --   -0.54818  -0.54618  -0.54247  -0.53110  -0.51640
 Alpha  occ. eigenvalues --   -0.50920  -0.48481  -0.44983  -0.42831  -0.37169
 Alpha virt. eigenvalues --    0.02454   0.04291   0.04377   0.04715   0.05829
 Alpha virt. eigenvalues --    0.06003   0.06116   0.06854   0.06939   0.07889
 Alpha virt. eigenvalues --    0.08292   0.08414   0.09116   0.09402   0.09742

 Mulliken charges:
               1
     1  Si  -0.487840
     2  C    0.326120
     3  B    1.018023
     4  O   -0.634062
     5  C    0.523722
     6  H   -0.198612
     7  H   -0.135494
     8  H   -0.380582
     9  B    0.732712
    10  H    0.114022
    11  H    0.172083
    12  O   -0.547846
    13  C    0.506234
    14  H   -0.127955
    15  H   -0.370645
    16  H   -0.123060
    17  H    0.194951
    18  H    0.323976
    19  H   -0.570701
    20  H   -0.335046
 Sum of Mulliken charges =   0.00000

 Dipole moment (field-independent basis, Debye):
    X=              3.0010    Y=              0.1390    Z=             -0.2870  Tot=              3.0179

 Test job not archived.
 1\1\GINC-SE329\SP\RHF\Aug-CC-pVDZ\C3H12B2O2Si1\OHZDE\08-Apr-2025\0\\#t
  hf aug-cc-pvdz iop(5/13=1,5/36=2,99/5=2) pseudo=read geom=check guess
 =(read,tcheck) scf=(maxcycle=1)\\title\\0,1\Si,0,0.552494,-1.286665,0.
 07773\C,0,-1.080309,-0.910752,-0.844199\B,0,-1.922257,0.198256,-0.1394
 27\O,0,-1.406789,1.481346,-0.210214\C,0,-3.263743,-0.080116,0.637814\H
 ,0,-3.140042,-0.913468,1.337968\H,0,-4.041567,-0.398539,-0.067081\H,0,
 -3.656613,0.774935,1.198633\B,0,1.865287,0.296572,0.062239\H,0,1.15922
 ,-2.504084,-0.527786\H,0,0.219063,-1.661351,1.483853\O,0,1.424556,1.55

 Normal termination of Gaussian 16 at Tue Apr  8 23:54:26 2025.
