 Gaussian 16, Revision C.01,

 ----------------------------------------------------------------------
 #t hf aug-cc-pvdz symm=none int=(grid=ultrafine) guess=(read,tcheck) s
 table=(opt,rrhf)
 ----------------------------------------------------------------------
 -----
 title
 -----
 Symbolic Z-matrix:
 Charge =  0 Multiplicity = 1

 SCF Done:  E(RHF) =  -2255.09016411     A.U. after   12 cycles
 Normal termination of Gaussian 16 at Wed Apr  9 00:08:09 2025.
 Gaussian 16:  ES64L-G16RevC.01  3-Jul-2019

 ----------------------------------------------------------------------
 #t hf aug-cc-pvdz iop(5/13=1,5/36=2,99/5=2) pseudo=read geom=check gue
 ss=(read,tcheck) scf=(maxcycle=1)
 ----------------------------------------------------------------------
 -----
 title
 -----
 Structure from the checkpoint file:  "BDE49_nonexpt_2330_mol1.chk"
 Charge =  0 Multiplicity = 1

                         Standard orientation:
 ---------------------------------------------------------------------
 Center     Atomic      Atomic             Coordinates (Angstroms)
 Number     Number       Type             X           Y           Z
 ---------------------------------------------------------------------
      1         14           0        1.305826   -0.000003    0.394216
      2         14           0       -1.034730   -0.000001    0.301429
      3          9           0       -1.620887   -0.000007    1.784992
      4         17           0       -1.712112   -1.679987   -0.650568
      5          9           0        1.816476   -1.281442    1.183425
      6         17           0        2.135754    0.000009   -1.469805
      7         17           0       -1.712110    1.679994   -0.650554
      8          9           0        1.816477    1.281426    1.183442
 ---------------------------------------------------------------------

 SCF Done:  E(RHF) =  -2255.32931054     A.U. after    2 cycles

 The electronic state is 1-A.
 Alpha  occ. eigenvalues -- -103.69548-103.69548-103.69513 -69.23713 -69.23431
 Alpha  occ. eigenvalues --  -26.15768 -26.15767 -26.15695 -10.73023 -10.73011
 Alpha  occ. eigenvalues --  -10.72999  -8.38712  -8.38706  -8.38691  -8.38466
 Alpha  occ. eigenvalues --   -8.38466  -8.38463  -8.38459  -8.38450  -8.38446
 Alpha  occ. eigenvalues --   -6.97403  -6.97230  -4.08380  -4.08328  -4.08144
 Alpha  occ. eigenvalues --   -4.08125  -4.08097  -4.07897  -1.69348  -1.68557
 Alpha  occ. eigenvalues --   -1.68132  -1.19329  -1.18240  -1.17112  -0.87504
 Alpha  occ. eigenvalues --   -0.84555  -0.81393  -0.78749  -0.78194  -0.76901
 Alpha  occ. eigenvalues --   -0.76681  -0.75795  -0.74329  -0.68928  -0.62698
 Alpha  occ. eigenvalues --   -0.59037  -0.56403  -0.53834  -0.52584  -0.52277
 Alpha  occ. eigenvalues --   -0.51549  -0.50323  -0.47169
 Alpha virt. eigenvalues --    0.04810   0.04887   0.05175   0.05267   0.07555
 Alpha virt. eigenvalues --    0.07797   0.07930   0.09286   0.09363   0.10391
 Alpha virt. eigenvalues --    0.12228   0.13142   0.14515   0.15579   0.15899

 Mulliken charges:
               1
     1  Si   2.081858
     2  Si   1.497825
     3  F   -0.745017
     4  Cl  -0.448522
     5  F   -0.743600
     6  Cl  -0.450423
     7  Cl  -0.448522
     8  F   -0.743599
 Sum of Mulliken charges =   0.00000

 Dipole moment (field-independent basis, Debye):
    X=             -0.2855    Y=              0.0000    Z=             -1.2017  Tot=              1.2352

 Test job not archived.
 1\1\GINC-SE343\SP\RHF\Aug-CC-pVDZ\Cl3F3Si2\OHZDE\09-Apr-2025\0\\#t hf
 aug-cc-pvdz iop(5/13=1,5/36=2,99/5=2) pseudo=read geom=check guess=(re
 ad,tcheck) scf=(maxcycle=1)\\title\\0,1\Si,0,1.305826,-0.000003,0.3942
 16\Si,0,-1.03473,-0.000001,0.301429\F,0,-1.620887,-0.000007,1.784992\C
 l,0,-1.712112,-1.679987,-0.650568\F,0,1.816476,-1.281442,1.183425\Cl,0
 ,2.135754,0.000009,-1.469805\Cl,0,-1.71211,1.679994,-0.650554\F,0,1.81
 6477,1.281426,1.183442\\Version=ES64L-G16RevC.01\State=1-A\HF=-2255.32
 93105\RMSD=4.330e-03\Dipole=-0.1123144,0.0000011,-0.4728006\Quadrupole

 Normal termination of Gaussian 16 at Wed Apr  9 00:08:13 2025.
