 Gaussian 16, Revision C.01,

 ----------------------------------------------------------------------
 #t hf aug-cc-pvdz symm=none int=(grid=ultrafine) guess=(read,tcheck) s
 table=opt
 ----------------------------------------------------------------------
 -----
 title
 -----
 Symbolic Z-matrix:
 Charge =  0 Multiplicity = 2

 SCF Done:  E(UHF) =  -2165.39905096     A.U. after   17 cycles
 Normal termination of Gaussian 16 at Tue Apr  8 23:47:28 2025.
 Gaussian 16:  ES64L-G16RevC.01  3-Jul-2019

 ----------------------------------------------------------------------
 #t hf aug-cc-pvdz iop(5/13=1,5/36=2,99/5=2) pseudo=read geom=check gue
 ss=(read,tcheck) scf=(maxcycle=1)
 ----------------------------------------------------------------------
 -----
 title
 -----
 Structure from the checkpoint file:  "BDE49_nonexpt_1817_mol2.chk"
 Charge =  0 Multiplicity = 2

                         Standard orientation:
 ---------------------------------------------------------------------
 Center     Atomic      Atomic             Coordinates (Angstroms)
 Number     Number       Type             X           Y           Z
 ---------------------------------------------------------------------
      1         14           0       -0.964080   -1.025645   -0.437484
      2          6           0        0.595302    0.020408   -0.006179
      3         17           0       -2.675863    0.055429   -0.010732
      4         17           0        0.650504    0.426531    1.746242
      5         17           0        0.661460    1.523500   -0.979267
      6         17           0        2.002209   -1.037169   -0.419230
      7          1           0       -0.925965   -2.224380    0.432626
 ---------------------------------------------------------------------

 SCF Done:  E(UHF) =  -2165.50419263     A.U. after    2 cycles

 The electronic state is 2-A.
 Alpha  occ. eigenvalues -- -103.69990-103.69750-103.69709-103.67557 -69.16073
 Alpha  occ. eigenvalues --  -11.44315 -10.73259 -10.73031 -10.72974 -10.70979
 Alpha  occ. eigenvalues --   -8.38962  -8.38739  -8.38734  -8.38644  -8.38640
 Alpha  occ. eigenvalues --   -8.38413  -8.38407  -8.38366  -8.38341  -8.36749
 Alpha  occ. eigenvalues --   -8.36466  -8.36404  -6.90859  -4.02027  -4.01309
 Alpha  occ. eigenvalues --   -4.01169  -1.26223  -1.16512  -1.16401  -1.16059
 Alpha  occ. eigenvalues --   -0.88530  -0.73122  -0.64393  -0.64236  -0.61799
 Alpha  occ. eigenvalues --   -0.56213  -0.53204  -0.52193  -0.51297  -0.49947
 Alpha  occ. eigenvalues --   -0.48515  -0.48286  -0.47198  -0.45314  -0.37426
 Alpha virt. eigenvalues --    0.03941   0.05269   0.05909   0.06121   0.07136
 Alpha virt. eigenvalues --    0.08584   0.08970   0.10461   0.11994   0.12514
 Alpha virt. eigenvalues --    0.13579   0.13835   0.14187   0.14676   0.16672

  Beta  occ. eigenvalues -- -103.69993-103.69755-103.69663-103.67458 -69.15466
  Beta  occ. eigenvalues --  -11.44186 -10.73263 -10.73036 -10.72925 -10.70872
  Beta  occ. eigenvalues --   -8.38979  -8.38762  -8.38651  -8.38634  -8.38605
  Beta  occ. eigenvalues --   -8.38414  -8.38410  -8.38315  -8.38286  -8.36548
  Beta  occ. eigenvalues --   -8.36353  -8.36217  -6.89887  -4.00909  -4.00776
  Beta  occ. eigenvalues --   -3.99899  -1.26052  -1.16499  -1.16167  -1.15257
  Beta  occ. eigenvalues --   -0.87618  -0.70503  -0.64201  -0.63901  -0.60540
  Beta  occ. eigenvalues --   -0.54856  -0.52434  -0.52056  -0.50130  -0.49356
  Beta  occ. eigenvalues --   -0.48363  -0.48201  -0.47133  -0.44515
  Beta virt. eigenvalues --    0.00660   0.04397   0.05529   0.06008   0.06669
  Beta virt. eigenvalues --    0.07779   0.08715   0.09127   0.10804   0.12351
  Beta virt. eigenvalues --    0.13084   0.13742   0.14881   0.15273   0.16362

 Mulliken charges and spin densities:
               1          2
     1  Si   0.947966   0.875431
     2  C   -0.504642  -0.023610
     3  Cl  -0.506557   0.040842
     4  Cl   0.005929   0.021124
     5  Cl   0.018309   0.003519
     6  Cl   0.013814  -0.001861
     7  H    0.025181   0.084555
 Sum of Mulliken charges =  -0.00000   1.00000

 Dipole moment (field-independent basis, Debye):
    X=             -0.1626    Y=             -1.3838    Z=             -0.5883  Tot=              1.5125
                          Isotropic Fermi Contact Couplings
        Atom                 a.u.       MegaHertz       Gauss      10(-4) cm-1
     1  Si(29)             0.78006    -693.25760    -247.37155    -231.24584
     2  C(13)              0.03942      44.31948      15.81429      14.78339
     3  Cl(35)             0.05663      24.82800       8.85925       8.28173
     4  Cl(35)             0.01913       8.38614       2.99238       2.79731
     5  Cl(35)            -0.00100      -0.43750      -0.15611      -0.14594
     6  Cl(35)            -0.00125      -0.55025      -0.19634      -0.18354
     7  H(1)               0.01965      87.85306      31.34816      29.30463
 --------------------------------------------------------

 Normal termination of Gaussian 16 at Tue Apr  8 23:47:31 2025.
