 Gaussian 16, Revision C.01,

 ----------------------------------------------------------------------
 #t hf aug-cc-pvdz symm=none int=(grid=ultrafine) guess=(read,tcheck) s
 table=(opt,rrhf)
 ----------------------------------------------------------------------
 -----
 title
 -----
 Symbolic Z-matrix:
 Charge =  0 Multiplicity = 1

 SCF Done:  E(RHF) =  -115.878202684     A.U. after   11 cycles
 Normal termination of Gaussian 16 at Tue Apr  8 23:00:35 2025.
 Gaussian 16:  ES64L-G16RevC.01  3-Jul-2019

 ----------------------------------------------------------------------
 #t hf aug-cc-pvdz iop(5/13=1,5/36=2,99/5=2) pseudo=read geom=check gue
 ss=(read,tcheck) scf=(maxcycle=1)
 ----------------------------------------------------------------------
 -----
 title
 -----
 Structure from the checkpoint file:  "BDE49_expt_25_mol1.chk"
 Charge =  0 Multiplicity = 1

                         Standard orientation:
 ---------------------------------------------------------------------
 Center     Atomic      Atomic             Coordinates (Angstroms)
 Number     Number       Type             X           Y           Z
 ---------------------------------------------------------------------
      1          6           0        1.419867   -0.000046    0.000096
      2          6           0        0.219111    0.000011   -0.000022
      3          1           0        2.481974    0.000170   -0.000362
      4          6           0       -1.237811    0.000007   -0.000010
      5          1           0       -1.629652   -0.440183    0.921257
      6          1           0       -1.629664   -0.577757   -0.841841
      7          1           0       -1.629658    1.017939   -0.079433
 ---------------------------------------------------------------------

 SCF Done:  E(RHF) =  -115.917805877     A.U. after    2 cycles

 The electronic state is 1-A.
 Alpha  occ. eigenvalues --  -11.26232 -11.24777 -11.23202  -1.05210  -0.95745
 Alpha  occ. eigenvalues --   -0.72059  -0.62774  -0.59427  -0.59426  -0.38898
 Alpha  occ. eigenvalues --   -0.38898
 Alpha virt. eigenvalues --    0.03452   0.04124   0.06010   0.06010   0.09065
 Alpha virt. eigenvalues --    0.12083   0.12083   0.13596   0.15476   0.15477
 Alpha virt. eigenvalues --    0.15919   0.16925   0.17129   0.17129   0.23062

 Mulliken charges:
               1
     1  C    1.116706
     2  C   -0.931664
     3  H   -0.502187
     4  C    0.216849
     5  H    0.033481
     6  H    0.033404
     7  H    0.033411
 Sum of Mulliken charges =  -0.00000

 Dipole moment (field-independent basis, Debye):
    X=             -0.7980    Y=              0.0002    Z=             -0.0005  Tot=              0.7980

 Test job not archived.
 1\1\GINC-SE094\SP\RHF\Aug-CC-pVDZ\C3H4\OHZDE\08-Apr-2025\0\\#t hf aug-
 cc-pvdz iop(5/13=1,5/36=2,99/5=2) pseudo=read geom=check guess=(read,t
 check) scf=(maxcycle=1)\\title\\0,1\C,0,-1.419867,-0.000048,-0.000095\
 C,0,-0.219111,0.000012,0.000022\H,0,-2.481974,0.000179,0.000357\C,0,1.
 237811,0.000007,0.00001\H,0,1.629652,-0.461546,-0.910742\H,0,1.629664,
 -0.557969,0.855085\H,0,1.629658,1.019515,0.055674\\Version=ES64L-G16Re
 vC.01\State=1-A\HF=-115.9178059\RMSD=9.771e-03\Dipole=0.3139509,0.0001
 014,0.0002067\Quadrupole=3.0573113,-1.5286286,-1.5286827,-0.0004954,-0

 Normal termination of Gaussian 16 at Tue Apr  8 23:00:37 2025.
