 Gaussian 16, Revision C.01,

 ----------------------------------------------------------------------
 #t hf aug-cc-pvdz symm=none int=(grid=ultrafine) guess=(read,tcheck) s
 table=(opt,rrhf)
 ----------------------------------------------------------------------
 -----
 title
 -----
 Symbolic Z-matrix:
 Charge =  0 Multiplicity = 1

 SCF Done:  E(RHF) =  -855.522639016     A.U. after   16 cycles
 Normal termination of Gaussian 16 at Tue Apr  8 23:18:36 2025.
 Gaussian 16:  ES64L-G16RevC.01  3-Jul-2019

 ----------------------------------------------------------------------
 #t hf aug-cc-pvdz iop(5/13=1,5/36=2,99/5=2) pseudo=read geom=check gue
 ss=(read,tcheck) scf=(maxcycle=1)
 ----------------------------------------------------------------------
 -----
 title
 -----
 Structure from the checkpoint file:  "BDE49_nonexpt_1083_mol1.chk"
 Charge =  0 Multiplicity = 1

                         Standard orientation:
 ---------------------------------------------------------------------
 Center     Atomic      Atomic             Coordinates (Angstroms)
 Number     Number       Type             X           Y           Z
 ---------------------------------------------------------------------
      1         17           0       -2.666796   -0.010775   -0.549304
      2          8           0       -1.633063    0.255759    0.868087
      3          8           0       -0.375186    0.712088    0.471440
      4          6           0        0.505489   -0.385896    0.229770
      5          8           0        0.157747   -1.527376    0.331085
      6          7           0        1.721303    0.098231   -0.119330
      7          6           0        2.074269    1.514297   -0.171551
      8          1           0        1.182359    2.132308   -0.197558
      9          1           0        2.658208    1.702178   -1.076680
     10          1           0        2.678552    1.798742    0.697325
     11          6           0        2.807393   -0.856121   -0.312442
     12          1           0        3.270495   -0.699612   -1.291145
     13          1           0        2.405969   -1.864623   -0.260075
     14          1           0        3.571934   -0.730881    0.462058
 ---------------------------------------------------------------------

 SCF Done:  E(RHF) =  -855.668180096     A.U. after    2 cycles

 The electronic state is 1-A.
 Alpha  occ. eigenvalues -- -103.72414 -20.72812 -20.69386 -20.56201 -15.67633
 Alpha  occ. eigenvalues --  -11.43743 -11.29216 -11.28491 -10.75081  -8.40829
 Alpha  occ. eigenvalues --   -8.40413  -8.40377  -1.50318  -1.38171  -1.27202
 Alpha  occ. eigenvalues --   -1.22529  -1.09534  -0.98811  -0.95424  -0.81503
 Alpha  occ. eigenvalues --   -0.75260  -0.72794  -0.72013  -0.66950  -0.66483
 Alpha  occ. eigenvalues --   -0.63192  -0.60034  -0.58552  -0.57761  -0.57539
 Alpha  occ. eigenvalues --   -0.55347  -0.51555  -0.49969  -0.49242  -0.46968
 Alpha  occ. eigenvalues --   -0.39964
 Alpha virt. eigenvalues --    0.02815   0.03000   0.04203   0.04512   0.06085
 Alpha virt. eigenvalues --    0.07346   0.07927   0.08670   0.10578   0.11006
 Alpha virt. eigenvalues --    0.13019   0.13593   0.14555   0.14861   0.15301

 Mulliken charges:
               1
     1  Cl   0.324164
     2  O   -0.417057
     3  O   -0.402003
     4  C    0.523959
     5  O   -0.369356
     6  N   -0.424482
     7  C    0.811687
     8  H   -0.215911
     9  H   -0.126762
    10  H   -0.086436
    11  C    0.757256
    12  H   -0.109340
    13  H   -0.223073
    14  H   -0.042646
 Sum of Mulliken charges =  -0.00000

 Dipole moment (field-independent basis, Debye):
    X=              3.5091    Y=              2.2500    Z=             -1.4606  Tot=              4.4170

 Test job not archived.
 1\1\GINC-SE084\SP\RHF\Aug-CC-pVDZ\C3H6Cl1N1O3\OHZDE\08-Apr-2025\0\\#t
 hf aug-cc-pvdz iop(5/13=1,5/36=2,99/5=2) pseudo=read geom=check guess=
 (read,tcheck) scf=(maxcycle=1)\\title\\0,1\Cl,0,-2.666796,-0.010775,-0
 .549304\O,0,-1.633063,0.255759,0.868087\O,0,-0.375186,0.712088,0.47144
 \C,0,0.505489,-0.385896,0.22977\O,0,0.157747,-1.527376,0.331085\N,0,1.
 721303,0.098231,-0.11933\C,0,2.074269,1.514297,-0.171551\H,0,1.182359,
 2.132308,-0.197558\H,0,2.658208,1.702178,-1.07668\H,0,2.678552,1.79874
 2,0.697325\C,0,2.807393,-0.856121,-0.312442\H,0,3.270495,-0.699612,-1.

 Normal termination of Gaussian 16 at Tue Apr  8 23:18:43 2025.
