 Gaussian 16, Revision C.01,

 ----------------------------------------------------------------------
 #t hf aug-cc-pvdz symm=none int=(grid=ultrafine) guess=(read,tcheck) s
 table=(opt,rrhf)
 ----------------------------------------------------------------------
 -----
 title
 -----
 Symbolic Z-matrix:
 Charge =  0 Multiplicity = 1

 SCF Done:  E(RHF) =  -230.993137126     A.U. after   13 cycles
 Normal termination of Gaussian 16 at Tue Apr  8 22:30:29 2025.
 Gaussian 16:  ES64L-G16RevC.01  3-Jul-2019

 ----------------------------------------------------------------------
 #t hf aug-cc-pvdz iop(5/13=1,5/36=2,99/5=2) pseudo=read geom=check gue
 ss=(read,tcheck) scf=(maxcycle=1)
 ----------------------------------------------------------------------
 -----
 title
 -----
 Structure from the checkpoint file:  "BDE49_expt_1057_mol1.chk"
 Charge =  0 Multiplicity = 1

                         Standard orientation:
 ---------------------------------------------------------------------
 Center     Atomic      Atomic             Coordinates (Angstroms)
 Number     Number       Type             X           Y           Z
 ---------------------------------------------------------------------
      1          6           0       -1.228656    0.491426    0.377279
      2          8           0       -1.837626   -0.697733   -0.124390
      3          1           0       -2.602338   -0.898716    0.421923
      4          6           0        0.066930    0.717113   -0.400007
      5          1           0       -1.004111    0.398348    1.449010
      6          1           0       -1.891256    1.357786    0.240410
      7          6           0        1.077764   -0.375337   -0.191929
      8          1           0        0.490827    1.685574   -0.114863
      9          1           0       -0.197531    0.776695   -1.463352
     10          6           0        2.326816   -0.189597    0.224671
     11          1           0        0.722115   -1.381082   -0.399341
     12          1           0        2.714405    0.801419    0.444222
     13          1           0        3.011774   -1.019780    0.357027
 ---------------------------------------------------------------------

 SCF Done:  E(RHF) =  -231.067245974     A.U. after    2 cycles

 The electronic state is 1-A.
 Alpha  occ. eigenvalues --  -20.57470 -11.29088 -11.23843 -11.23639 -11.22736
 Alpha  occ. eigenvalues --   -1.32304  -1.06782  -0.97915  -0.84965  -0.75657
 Alpha  occ. eigenvalues --   -0.71631  -0.65315  -0.62853  -0.59227  -0.56978
 Alpha  occ. eigenvalues --   -0.52639  -0.50774  -0.49129  -0.45437  -0.36098
 Alpha virt. eigenvalues --    0.03407   0.04457   0.04661   0.05287   0.06383
 Alpha virt. eigenvalues --    0.06792   0.07472   0.08654   0.11038   0.12252
 Alpha virt. eigenvalues --    0.13603   0.13909   0.14686   0.15861   0.16959

 Mulliken charges:
               1
     1  C    0.719240
     2  O   -0.563965
     3  H    0.137650
     4  C   -0.001918
     5  H   -0.146800
     6  H   -0.130635
     7  C    0.635284
     8  H   -0.089000
     9  H    0.013981
    10  C    0.387852
    11  H   -0.386318
    12  H   -0.287989
    13  H   -0.287381
 Sum of Mulliken charges =  -0.00000

 Dipole moment (field-independent basis, Debye):
    X=             -0.9528    Y=              1.0098    Z=              1.2719  Tot=              1.8829

 Test job not archived.
 1\1\GINC-SE461\SP\RHF\Aug-CC-pVDZ\C4H8O1\OHZDE\08-Apr-2025\0\\#t hf au
 g-cc-pvdz iop(5/13=1,5/36=2,99/5=2) pseudo=read geom=check guess=(read
 ,tcheck) scf=(maxcycle=1)\\title\\0,1\C,0,1.228656,0.491426,-0.377279\
 O,0,1.837626,-0.697733,0.12439\H,0,2.602338,-0.898716,-0.421923\C,0,-0
 .06693,0.717113,0.400007\H,0,1.004111,0.398348,-1.44901\H,0,1.891256,1
 .357786,-0.24041\C,0,-1.077764,-0.375337,0.191929\H,0,-0.490827,1.6855
 74,0.114863\H,0,0.197531,0.776695,1.463352\C,0,-2.326816,-0.189597,-0.
 224671\H,0,-0.722115,-1.381082,0.399341\H,0,-2.714405,0.801419,-0.4442

 Normal termination of Gaussian 16 at Tue Apr  8 22:30:33 2025.
