 Gaussian 16, Revision C.01,

 ----------------------------------------------------------------------
 #t hf aug-cc-pvdz symm=none int=(grid=ultrafine) guess=(read,tcheck) s
 table=(opt,rrhf)
 ----------------------------------------------------------------------
 -----
 title
 -----
 Symbolic Z-matrix:
 Charge =  0 Multiplicity = 1

 SCF Done:  E(RHF) =  -533.819256902     A.U. after   14 cycles
 Normal termination of Gaussian 16 at Tue Apr  8 23:59:26 2025.
 Gaussian 16:  ES64L-G16RevC.01  3-Jul-2019

 ----------------------------------------------------------------------
 #t hf aug-cc-pvdz iop(5/13=1,5/36=2,99/5=2) pseudo=read geom=check gue
 ss=(read,tcheck) scf=(maxcycle=1)
 ----------------------------------------------------------------------
 -----
 title
 -----
 Structure from the checkpoint file:  "BDE49_nonexpt_2142_mol1.chk"
 Charge =  0 Multiplicity = 1

                         Standard orientation:
 ---------------------------------------------------------------------
 Center     Atomic      Atomic             Coordinates (Angstroms)
 Number     Number       Type             X           Y           Z
 ---------------------------------------------------------------------
      1         14           0       -0.701454   -0.718903    0.000011
      2          7           0        0.961860    0.145213    0.000053
      3          8           0        1.005074    1.372572   -0.000029
      4          8           0        1.944882   -0.590402   -0.000045
      5          6           0       -2.040397    0.566522    0.000008
      6          1           0       -1.966470    1.202786    0.884446
      7          1           0       -3.023200    0.085207   -0.000019
      8          1           0       -1.966436    1.202816   -0.884405
      9          1           0       -0.656933   -1.549591    1.215930
     10          1           0       -0.656894   -1.549557   -1.215930
 ---------------------------------------------------------------------

 SCF Done:  E(RHF) =  -533.921698358     A.U. after    2 cycles

 The electronic state is 1-A.
 Alpha  occ. eigenvalues --  -69.13085 -20.61802 -20.61633 -15.88083 -11.25253
 Alpha  occ. eigenvalues --   -6.88140  -3.99019  -3.98832  -3.98831  -1.53028
 Alpha  occ. eigenvalues --   -1.35410  -0.98393  -0.92988  -0.79036  -0.72836
 Alpha  occ. eigenvalues --   -0.70659  -0.67032  -0.59794  -0.59095  -0.52725
 Alpha  occ. eigenvalues --   -0.51529  -0.49366  -0.47396  -0.46790
 Alpha virt. eigenvalues --    0.02479   0.04477   0.04597   0.05111   0.06769
 Alpha virt. eigenvalues --    0.07157   0.07534   0.08130   0.10184   0.11655
 Alpha virt. eigenvalues --    0.14129   0.14200   0.14723   0.15661   0.16295

 Mulliken charges:
               1
     1  Si   1.008790
     2  N    0.317177
     3  O   -0.501057
     4  O   -0.578123
     5  C    0.224362
     6  H   -0.111257
     7  H   -0.216917
     8  H   -0.111261
     9  H   -0.015850
    10  H   -0.015864
 Sum of Mulliken charges =  -0.00000

 Dipole moment (field-independent basis, Debye):
    X=             -4.8950    Y=             -1.3710    Z=              0.0002  Tot=              5.0833

 Test job not archived.
 1\1\GINC-SE073\SP\RHF\Aug-CC-pVDZ\C1H5N1O2Si1\OHZDE\08-Apr-2025\0\\#t
 hf aug-cc-pvdz iop(5/13=1,5/36=2,99/5=2) pseudo=read geom=check guess=
 (read,tcheck) scf=(maxcycle=1)\\title\\0,1\Si,0,0.701454,-0.718903,-0.
 000011\N,0,-0.96186,0.145213,-0.000053\O,0,-1.005074,1.372572,0.000029
 \O,0,-1.944882,-0.590402,0.000045\C,0,2.040397,0.566522,-0.000008\H,0,
 1.96647,1.202786,-0.884446\H,0,3.0232,0.085207,0.000019\H,0,1.966436,1
 .202816,0.884405\H,0,0.656933,-1.549591,-1.21593\H,0,0.656894,-1.54955
 7,1.21593\\Version=ES64L-G16RevC.01\State=1-A\HF=-533.9216984\RMSD=4.4

 Normal termination of Gaussian 16 at Tue Apr  8 23:59:29 2025.
