 Gaussian 16, Revision C.01,

 ----------------------------------------------------------------------
 #t hf aug-cc-pvdz symm=none int=(grid=ultrafine) guess=(read,tcheck) s
 table=opt
 ----------------------------------------------------------------------
 -----
 title
 -----
 Symbolic Z-matrix:
 Charge =  0 Multiplicity = 2

 SCF Done:  E(UHF) =  -481.462979486     A.U. after   20 cycles
 Normal termination of Gaussian 16 at Tue Apr  8 23:49:33 2025.
 Gaussian 16:  ES64L-G16RevC.01  3-Jul-2019

 ----------------------------------------------------------------------
 #t hf aug-cc-pvdz iop(5/13=1,5/36=2,99/5=2) pseudo=read geom=check gue
 ss=(read,tcheck) scf=(maxcycle=1)
 ----------------------------------------------------------------------
 -----
 title
 -----
 Structure from the checkpoint file:  "BDE49_nonexpt_1871_mol2.chk"
 Charge =  0 Multiplicity = 2

                         Standard orientation:
 ---------------------------------------------------------------------
 Center     Atomic      Atomic             Coordinates (Angstroms)
 Number     Number       Type             X           Y           Z
 ---------------------------------------------------------------------
      1         14           0        1.856661    0.115940   -0.188063
      2          6           0        0.320728   -0.134253    0.908794
      3          1           0        2.002662   -0.990902   -1.164444
      4          1           0        1.791825    1.418391   -0.901971
      5          6           0       -0.957569   -0.221867    0.087193
      6          1           0        0.449066   -1.075840    1.447218
      7          1           0        0.278725    0.689956    1.626621
      8          8           0       -1.361812   -1.279577   -0.338989
      9          6           0       -1.693877    1.081935   -0.166245
     10          1           0       -2.157417    1.422768    0.765863
     11          1           0       -2.470135    0.924946   -0.913835
     12          1           0       -1.009176    1.869247   -0.493112
 ---------------------------------------------------------------------

 SCF Done:  E(UHF) =  -481.543706407     A.U. after    2 cycles

 The electronic state is 2-A.
 Alpha  occ. eigenvalues --  -69.08565 -20.56183 -11.35082 -11.24913 -11.24734
 Alpha  occ. eigenvalues --   -6.83880  -3.95220  -3.94335  -3.94309  -1.35689
 Alpha  occ. eigenvalues --   -1.03616  -0.96514  -0.75435  -0.70034  -0.65809
 Alpha  occ. eigenvalues --   -0.65140  -0.60867  -0.58066  -0.54876  -0.53065
 Alpha  occ. eigenvalues --   -0.48811  -0.46623  -0.43349  -0.33349
 Alpha virt. eigenvalues --    0.02941   0.04344   0.04527   0.05183   0.06225
 Alpha virt. eigenvalues --    0.07181   0.07473   0.08545   0.08767   0.10382
 Alpha virt. eigenvalues --    0.11254   0.11942   0.13200   0.14766   0.15119

  Beta  occ. eigenvalues --  -69.07994 -20.55997 -11.35070 -11.24902 -11.24717
  Beta  occ. eigenvalues --   -6.83018  -3.93939  -3.93913  -3.93050  -1.35306
  Beta  occ. eigenvalues --   -1.03355  -0.96273  -0.74817  -0.66656  -0.65614
  Beta  occ. eigenvalues --   -0.64881  -0.60257  -0.57879  -0.54761  -0.52288
  Beta  occ. eigenvalues --   -0.47975  -0.45945  -0.42424
  Beta virt. eigenvalues --    0.02291   0.03350   0.04496   0.05193   0.05340
  Beta virt. eigenvalues --    0.06371   0.07269   0.08463   0.08633   0.09236
  Beta virt. eigenvalues --    0.10631   0.11374   0.12716   0.13638   0.15164

 Mulliken charges and spin densities:
               1          2
     1  Si   0.264849   0.987298
     2  C    0.175218  -0.033487
     3  H    0.067178   0.016959
     4  H   -0.010323   0.011028
     5  C    0.056471  -0.027215
     6  H   -0.089945  -0.001786
     7  H   -0.164880   0.002184
     8  O   -0.533331   0.044092
     9  C    0.271281   0.006538
    10  H    0.072237  -0.000533
    11  H   -0.091830  -0.000745
    12  H   -0.016925  -0.004333
 Sum of Mulliken charges =  -0.00000   1.00000

 Dipole moment (field-independent basis, Debye):
    X=              0.9991    Y=              2.9328    Z=              1.5388  Tot=              3.4594
                          Isotropic Fermi Contact Couplings
        Atom                 a.u.       MegaHertz       Gauss      10(-4) cm-1
     1  Si(29)             0.55056    -489.29351    -174.59209    -163.21075
     2  C(13)              0.00671       7.54820       2.69339       2.51781
     3  H(1)               0.00390      17.41197       6.21302       5.80801
     4  H(1)               0.00242      10.82542       3.86278       3.61097
     5  C(13)              0.01482      16.65557       5.94312       5.55570
     6  H(1)               0.00095       4.25806       1.51938       1.42034
     7  H(1)               0.00084       3.76066       1.34190       1.25442
     8  O(17)              0.01570      -9.51873      -3.39652      -3.17511

 Normal termination of Gaussian 16 at Tue Apr  8 23:49:37 2025.
