 Gaussian 16, Revision C.01,

 ----------------------------------------------------------------------
 #t hf aug-cc-pvdz symm=none int=(grid=ultrafine) guess=(read,tcheck) s
 table=(opt,rrhf)
 ----------------------------------------------------------------------
 -----
 title
 -----
 Symbolic Z-matrix:
 Charge =  0 Multiplicity = 1

 SCF Done:  E(RHF) =  -804.722655702     A.U. after   15 cycles
 Normal termination of Gaussian 16 at Tue Apr  8 23:52:36 2025.
 Gaussian 16:  ES64L-G16RevC.01  3-Jul-2019

 ----------------------------------------------------------------------
 #t hf aug-cc-pvdz iop(5/13=1,5/36=2,99/5=2) pseudo=read geom=check gue
 ss=(read,tcheck) scf=(maxcycle=1)
 ----------------------------------------------------------------------
 -----
 title
 -----
 Structure from the checkpoint file:  "BDE49_nonexpt_1939_mol1.chk"
 Charge =  0 Multiplicity = 1

                         Standard orientation:
 ---------------------------------------------------------------------
 Center     Atomic      Atomic             Coordinates (Angstroms)
 Number     Number       Type             X           Y           Z
 ---------------------------------------------------------------------
      1         14           0       -2.044411   -0.235179   -0.264001
      2          6           0       -0.595868    0.159357    0.915848
      3          6           0        0.704949    0.308672    0.191884
      4         16           0        1.692672   -0.961930   -0.108334
      5          1           0       -3.297105   -0.238354    0.526452
      6          1           0       -1.838726   -1.556401   -0.890773
      7          6           0        1.038734    1.706964   -0.258952
      8          1           0        1.224712    2.334613    0.621285
      9          1           0        0.192728    2.157503   -0.789891
     10          1           0        1.920384    1.721631   -0.895727
     11          1           0       -2.138366    0.805351   -1.314045
     12          1           0       -0.549965   -0.668195    1.626878
     13          1           0       -0.861545    1.077284    1.452507
 ---------------------------------------------------------------------

 SCF Done:  E(RHF) =  -804.799871616     A.U. after    2 cycles

 The electronic state is 1-A.
 Alpha  occ. eigenvalues --  -93.50514 -69.08002 -11.33888 -11.25597 -11.25161
 Alpha  occ. eigenvalues --   -8.80423  -6.83253  -6.14604  -6.14226  -6.13992
 Alpha  occ. eigenvalues --   -3.94037  -3.94018  -3.94002  -1.11061  -0.96500
 Alpha  occ. eigenvalues --   -0.93739  -0.73319  -0.69669  -0.62347  -0.61634
 Alpha  occ. eigenvalues --   -0.59700  -0.54182  -0.50732  -0.48848  -0.48617
 Alpha  occ. eigenvalues --   -0.48166  -0.36930  -0.33098
 Alpha virt. eigenvalues --    0.02829   0.04263   0.04503   0.05163   0.05652
 Alpha virt. eigenvalues --    0.06792   0.06977   0.07544   0.08442   0.08844
 Alpha virt. eigenvalues --    0.09461   0.10356   0.10616   0.12205   0.13803

 Mulliken charges:
               1
     1  Si   0.247218
     2  C    0.274100
     3  C   -0.495900
     4  S    0.009424
     5  H    0.016745
     6  H    0.093258
     7  C    0.198861
     8  H    0.097825
     9  H    0.001698
    10  H   -0.080086
    11  H   -0.002263
    12  H   -0.138205
    13  H   -0.222674
 Sum of Mulliken charges =  -0.00000

 Dipole moment (field-independent basis, Debye):
    X=             -1.9910    Y=              2.4985    Z=              0.8249  Tot=              3.2995

 Test job not archived.
 1\1\GINC-SE060\SP\RHF\Aug-CC-pVDZ\C3H8S1Si1\OHZDE\08-Apr-2025\0\\#t hf
  aug-cc-pvdz iop(5/13=1,5/36=2,99/5=2) pseudo=read geom=check guess=(r
 ead,tcheck) scf=(maxcycle=1)\\title\\0,1\Si,0,-2.044411,-0.235179,-0.2
 64001\C,0,-0.595868,0.159357,0.915848\C,0,0.704949,0.308672,0.191884\S
 ,0,1.692672,-0.96193,-0.108334\H,0,-3.297105,-0.238354,0.526452\H,0,-1
 .838726,-1.556401,-0.890773\C,0,1.038734,1.706964,-0.258952\H,0,1.2247
 12,2.334613,0.621285\H,0,0.192728,2.157503,-0.789891\H,0,1.920384,1.72
 1631,-0.895727\H,0,-2.138366,0.805351,-1.314045\H,0,-0.549965,-0.66819

 Normal termination of Gaussian 16 at Tue Apr  8 23:52:41 2025.
