 Gaussian 16, Revision C.01,

 ----------------------------------------------------------------------
 #t hf aug-cc-pvdz symm=none int=(grid=ultrafine) guess=(read,tcheck) s
 table=(opt,rrhf)
 ----------------------------------------------------------------------
 -----
 title
 -----
 Symbolic Z-matrix:
 Charge =  0 Multiplicity = 1

 SCF Done:  E(RHF) =  -1007.79378836     A.U. after   15 cycles
 Normal termination of Gaussian 16 at Wed Apr  9 00:20:38 2025.
 Gaussian 16:  ES64L-G16RevC.01  3-Jul-2019

 ----------------------------------------------------------------------
 #t hf aug-cc-pvdz iop(5/13=1,5/36=2,99/5=2) pseudo=read geom=check gue
 ss=(read,tcheck) scf=(maxcycle=1)
 ----------------------------------------------------------------------
 -----
 title
 -----
 Structure from the checkpoint file:  "BDE49_nonexpt_2666_mol1.chk"
 Charge =  0 Multiplicity = 1

                         Standard orientation:
 ---------------------------------------------------------------------
 Center     Atomic      Atomic             Coordinates (Angstroms)
 Number     Number       Type             X           Y           Z
 ---------------------------------------------------------------------
      1          9           0       -2.207057    0.127083   -0.000360
      2         16           0       -0.790962   -0.859236    0.000356
      3          6           0        0.404615    0.368476    0.000324
      4         16           0        1.908199   -0.277301   -0.000266
      5          8           0        0.059385    1.640992   -0.000036
      6          1           0       -0.915047    1.702069    0.000153
 ---------------------------------------------------------------------

 SCF Done:  E(RHF) =  -1007.90579280     A.U. after    2 cycles

 The electronic state is 1-A.
 Alpha  occ. eigenvalues --  -93.67992 -93.53637 -26.16196 -20.68489 -11.45056
 Alpha  occ. eigenvalues --   -8.96879  -8.83585  -6.30991  -6.30643  -6.30180
 Alpha  occ. eigenvalues --   -6.17790  -6.17253  -6.17168  -1.66536  -1.45902
 Alpha  occ. eigenvalues --   -1.12774  -0.99095  -0.86565  -0.80825  -0.76198
 Alpha  occ. eigenvalues --   -0.74798  -0.69825  -0.67526  -0.60885  -0.53404
 Alpha  occ. eigenvalues --   -0.48285  -0.37770  -0.37354
 Alpha virt. eigenvalues --    0.02529   0.04528   0.04568   0.06777   0.08279
 Alpha virt. eigenvalues --    0.11623   0.11632   0.12656   0.12889   0.13640
 Alpha virt. eigenvalues --    0.15001   0.16064   0.16407   0.20659   0.21745

 Mulliken charges:
               1
     1  F   -0.652616
     2  S    0.927319
     3  C   -0.276977
     4  S    0.189902
     5  O   -0.415462
     6  H    0.227833
 Sum of Mulliken charges =  -0.00000

 Dipole moment (field-independent basis, Debye):
    X=             -1.3187    Y=             -0.2351    Z=              0.0014  Tot=              1.3394

 Test job not archived.
 1\1\GINC-SE461\SP\RHF\Aug-CC-pVDZ\C1H1F1O1S2\OHZDE\09-Apr-2025\0\\#t h
 f aug-cc-pvdz iop(5/13=1,5/36=2,99/5=2) pseudo=read geom=check guess=(
 read,tcheck) scf=(maxcycle=1)\\title\\0,1\F,0,2.207057,0.127083,0.0003
 6\S,0,0.790962,-0.859236,-0.000356\C,0,-0.404615,0.368476,-0.000324\S,
 0,-1.908199,-0.277301,0.000266\O,0,-0.059385,1.640992,0.000036\H,0,0.9
 15047,1.702069,-0.000153\\Version=ES64L-G16RevC.01\State=1-A\HF=-1007.
 9057928\RMSD=6.171e-03\Dipole=0.5187969,-0.0924833,-0.0005447\Quadrupo
 le=-2.6236989,2.16967,0.4540289,1.2859212,-0.0017277,-0.0007612\PG=C01

 Normal termination of Gaussian 16 at Wed Apr  9 00:20:41 2025.
