 Gaussian 16, Revision C.01,

 ----------------------------------------------------------------------
 #t hf aug-cc-pvdz symm=none int=(grid=ultrafine) guess=(read,tcheck) s
 table=(opt,rrhf)
 ----------------------------------------------------------------------
 -----
 title
 -----
 Symbolic Z-matrix:
 Charge =  0 Multiplicity = 1

 SCF Done:  E(RHF) =  -621.003231512     A.U. after   15 cycles
 Normal termination of Gaussian 16 at Wed Apr  9 00:46:40 2025.
 Gaussian 16:  ES64L-G16RevC.01  3-Jul-2019

 ----------------------------------------------------------------------
 #t hf aug-cc-pvdz iop(5/13=1,5/36=2,99/5=2) pseudo=read geom=check gue
 ss=(read,tcheck) scf=(maxcycle=1)
 ----------------------------------------------------------------------
 -----
 title
 -----
 Structure from the checkpoint file:  "BDE49_nonexpt_838_mol1.chk"
 Charge =  0 Multiplicity = 1

                         Standard orientation:
 ---------------------------------------------------------------------
 Center     Atomic      Atomic             Coordinates (Angstroms)
 Number     Number       Type             X           Y           Z
 ---------------------------------------------------------------------
      1          6           0       -2.890812    0.662637   -0.077557
      2          6           0       -1.810023    1.491888    0.214049
      3          6           0       -0.523584    0.962395    0.296372
      4          6           0       -2.679638   -0.698171   -0.290490
      5          6           0       -1.392686   -1.224709   -0.207075
      6          6           0       -0.290248   -0.407760    0.092281
      7          1           0       -3.891811    1.074902   -0.142952
      8          1           0       -1.967777    2.553142    0.373784
      9          1           0        0.309173    1.624396    0.505776
     10          1           0       -3.516167   -1.348287   -0.523141
     11          1           0       -1.245737   -2.286272   -0.380756
     12          5           0        2.969882    0.102517   -0.241818
     13          8           0        2.758603    1.441632   -0.270977
     14          1           0        3.544816    1.956101   -0.485726
     15         14           0        1.437592   -1.145619    0.236618
     16          1           0        4.071129   -0.320285   -0.471061
     17          1           0        1.678036   -1.611262    1.633634
     18          1           0        1.495776   -2.367100   -0.610780
 ---------------------------------------------------------------------

 SCF Done:  E(RHF) =  -621.127018958     A.U. after    2 cycles

 The electronic state is 1-A.
 Alpha  occ. eigenvalues --  -69.04312 -20.60427 -11.24453 -11.24411 -11.24197
 Alpha  occ. eigenvalues --  -11.24075 -11.24004 -11.22930  -7.64524  -6.79818
 Alpha  occ. eigenvalues --   -3.90572  -3.90545  -3.90507  -1.34432  -1.13511
 Alpha  occ. eigenvalues --   -1.00495  -1.00233  -0.82194  -0.82033  -0.79039
 Alpha  occ. eigenvalues --   -0.71559  -0.67944  -0.65815  -0.62499  -0.62322
 Alpha  occ. eigenvalues --   -0.58658  -0.57146  -0.55785  -0.53718  -0.50562
 Alpha  occ. eigenvalues --   -0.49126  -0.46417  -0.44458  -0.40022  -0.33591
 Alpha  occ. eigenvalues --   -0.33312
 Alpha virt. eigenvalues --    0.02775   0.03794   0.04261   0.04994   0.05200
 Alpha virt. eigenvalues --    0.05437   0.06757   0.06934   0.07246   0.07670
 Alpha virt. eigenvalues --    0.08898   0.09315   0.09642   0.10526   0.10877

 Mulliken charges:
               1
     1  C    0.571571
     2  C    0.605475
     3  C    0.513526
     4  C    0.649678
     5  C    0.579874
     6  C   -0.436323
     7  H   -0.442928
     8  H   -0.459631
     9  H   -0.596833
    10  H   -0.442449
    11  H   -0.631828
    12  B    0.242272
    13  O   -0.494184
    14  H    0.178783
    15  Si  -0.186466
    16  H    0.204463
    17  H    0.092077
    18  H    0.052922
 Sum of Mulliken charges =  -0.00000

 Dipole moment (field-independent basis, Debye):
    X=              1.2769    Y=              1.2233    Z=             -0.6144  Tot=              1.8719

 Test job not archived.
 1\1\GINC-SE116\SP\RHF\Aug-CC-pVDZ\C6H9B1O1Si1\OHZDE\09-Apr-2025\0\\#t
 hf aug-cc-pvdz iop(5/13=1,5/36=2,99/5=2) pseudo=read geom=check guess=
 (read,tcheck) scf=(maxcycle=1)\\title\\0,1\C,0,-2.890812,0.662637,-0.0
 77557\C,0,-1.810023,1.491888,0.214049\C,0,-0.523584,0.962395,0.296372\
 C,0,-2.679638,-0.698171,-0.29049\C,0,-1.392686,-1.224709,-0.207075\C,0
 ,-0.290248,-0.40776,0.092281\H,0,-3.891811,1.074902,-0.142952\H,0,-1.9
 67777,2.553142,0.373784\H,0,0.309173,1.624396,0.505776\H,0,-3.516167,-
 1.348287,-0.523141\H,0,-1.245737,-2.286272,-0.380756\B,0,2.969882,0.10

 Normal termination of Gaussian 16 at Wed Apr  9 00:46:51 2025.
