 Gaussian 16, Revision C.01,

 ----------------------------------------------------------------------
 #t hf aug-cc-pvdz symm=none int=(grid=ultrafine) guess=(read,tcheck) s
 table=(opt,rrhf)
 ----------------------------------------------------------------------
 -----
 title
 -----
 Symbolic Z-matrix:
 Charge =  0 Multiplicity = 1

 SCF Done:  E(RHF) =  -636.138953167     A.U. after   14 cycles
 Normal termination of Gaussian 16 at Wed Apr  9 00:07:10 2025.
 Gaussian 16:  ES64L-G16RevC.01  3-Jul-2019

 ----------------------------------------------------------------------
 #t hf aug-cc-pvdz iop(5/13=1,5/36=2,99/5=2) pseudo=read geom=check gue
 ss=(read,tcheck) scf=(maxcycle=1)
 ----------------------------------------------------------------------
 -----
 title
 -----
 Structure from the checkpoint file:  "BDE49_nonexpt_2250_mol1.chk"
 Charge =  0 Multiplicity = 1

                         Standard orientation:
 ---------------------------------------------------------------------
 Center     Atomic      Atomic             Coordinates (Angstroms)
 Number     Number       Type             X           Y           Z
 ---------------------------------------------------------------------
      1         14           0        1.331597   -0.141479    0.372204
      2          8           0        1.074736    1.213251   -0.619416
      3          8           0        0.465859    2.251087    0.219888
      4          1           0        1.093581    2.970451    0.069693
      5          6           0       -0.243722   -0.759641    1.181132
      6          6           0       -1.308105   -1.421462    0.279086
      7          1           0       -0.676400    0.074769    1.743653
      8          1           0        0.081493   -1.481716    1.943401
      9          6           0       -1.958987   -0.502763   -0.769091
     10          1           0       -2.099529   -1.836779    0.915939
     11          1           0       -0.860605   -2.279856   -0.235382
     12          6           0       -2.749019    0.669871   -0.177736
     13          1           0       -2.630257   -1.114654   -1.382696
     14          1           0       -1.193407   -0.110764   -1.447103
     15          6           0        2.106617   -1.362208   -0.813715
     16          1           0        1.428571   -1.614301   -1.632685
     17          1           0        2.361312   -2.287287   -0.287005
     18          1           0        3.025305   -0.957070   -1.245137
     19          1           0       -3.501479    0.319393    0.537075
     20          1           0       -3.271666    1.220470   -0.964845
     21          1           0       -2.094715    1.379822    0.332438
     22          1           0        2.289984    0.240737    1.439977
 ---------------------------------------------------------------------

 SCF Done:  E(RHF) =  -636.280954986     A.U. after    2 cycles

 The electronic state is 1-A.
 Alpha  occ. eigenvalues --  -69.08167 -20.64260 -20.61639 -11.23066 -11.22114
 Alpha  occ. eigenvalues --  -11.21696 -11.21536 -11.21166  -6.83041  -3.93950
 Alpha  occ. eigenvalues --   -3.93806  -3.93754  -1.40431  -1.17199  -1.05595
 Alpha  occ. eigenvalues --   -0.96820  -0.93903  -0.86930  -0.77571  -0.72682
 Alpha  occ. eigenvalues --   -0.70379  -0.63998  -0.62518  -0.61473  -0.59012
 Alpha  occ. eigenvalues --   -0.56952  -0.55368  -0.54093  -0.53753  -0.53417
 Alpha  occ. eigenvalues --   -0.51980  -0.48785  -0.47655  -0.46622  -0.45912
 Alpha  occ. eigenvalues --   -0.44377  -0.41399
 Alpha virt. eigenvalues --    0.03160   0.04134   0.04477   0.04660   0.05801
 Alpha virt. eigenvalues --    0.06186   0.06381   0.06662   0.06934   0.08456
 Alpha virt. eigenvalues --    0.08629   0.09032   0.09331   0.09630   0.11310

 Mulliken charges:
               1
     1  Si   1.514887
     2  O   -0.696693
     3  O   -0.372068
     4  H    0.248849
     5  C    0.329971
     6  C    0.211265
     7  H   -0.282997
     8  H   -0.204944
     9  C    0.148187
    10  H   -0.101489
    11  H   -0.155676
    12  C    0.374891
    13  H   -0.116777
    14  H   -0.158657
    15  C    0.380845
    16  H   -0.199061
    17  H   -0.259247
    18  H   -0.295999
    19  H   -0.072400
    20  H   -0.119928
    21  H   -0.111860
    22  H   -0.061098
 Sum of Mulliken charges =  -0.00000

 Dipole moment (field-independent basis, Debye):
    X=              0.9091    Y=             -0.3621    Z=              0.4744  Tot=              1.0875

 Test job not archived.
 1\1\GINC-SE094\SP\RHF\Aug-CC-pVDZ\C5H14O2Si1\OHZDE\09-Apr-2025\0\\#t h
 f aug-cc-pvdz iop(5/13=1,5/36=2,99/5=2) pseudo=read geom=check guess=(
 read,tcheck) scf=(maxcycle=1)\\title\\0,1\Si,0,1.331597,-0.141479,0.37
 2204\O,0,1.074736,1.213251,-0.619416\O,0,0.465859,2.251087,0.219888\H,
 0,1.093581,2.970451,0.069693\C,0,-0.243722,-0.759641,1.181132\C,0,-1.3
 08105,-1.421462,0.279086\H,0,-0.6764,0.074769,1.743653\H,0,0.081493,-1
 .481716,1.943401\C,0,-1.958987,-0.502763,-0.769091\H,0,-2.099529,-1.83
 6779,0.915939\H,0,-0.860605,-2.279856,-0.235382\C,0,-2.749019,0.669871

 Normal termination of Gaussian 16 at Wed Apr  9 00:07:22 2025.
