 Gaussian 16, Revision C.01,

 ----------------------------------------------------------------------
 #t hf aug-cc-pvdz symm=none int=(grid=ultrafine) guess=(read,tcheck) s
 table=(opt,rrhf)
 ----------------------------------------------------------------------
 -----
 title
 -----
 Symbolic Z-matrix:
 Charge =  0 Multiplicity = 1

 SCF Done:  E(RHF) =  -808.068411861     A.U. after   13 cycles
 Normal termination of Gaussian 16 at Wed Apr  9 00:09:54 2025.
 Gaussian 16:  ES64L-G16RevC.01  3-Jul-2019

 ----------------------------------------------------------------------
 #t hf aug-cc-pvdz iop(5/13=1,5/36=2,99/5=2) pseudo=read geom=check gue
 ss=(read,tcheck) scf=(maxcycle=1)
 ----------------------------------------------------------------------
 -----
 title
 -----
 Structure from the checkpoint file:  "BDE49_nonexpt_2362_mol1.chk"
 Charge =  0 Multiplicity = 1

                         Standard orientation:
 ---------------------------------------------------------------------
 Center     Atomic      Atomic             Coordinates (Angstroms)
 Number     Number       Type             X           Y           Z
 ---------------------------------------------------------------------
      1         14           0       -0.776861    1.125603    0.212414
      2         14           0       -2.168514   -0.722763   -0.244032
      3          8           0        0.845437    0.871508   -0.271353
      4          1           0       -0.785593    1.479230    1.650035
      5          1           0       -1.143355    2.317751   -0.580334
      6          6           0        1.492244   -0.255233    0.095236
      7          1           0       -3.534615   -0.221305   -0.543463
      8          1           0       -2.242995   -1.642311    0.910680
      9          1           0       -1.669175   -1.446024   -1.437357
     10          8           0        0.952154   -1.121836    0.742213
     11          6           0        2.915489   -0.289838   -0.391149
     12          1           0        3.460306    0.568544    0.008396
     13          1           0        2.932969   -0.206277   -1.480152
     14          1           0        3.390584   -1.216321   -0.076571
 ---------------------------------------------------------------------

 SCF Done:  E(RHF) =  -808.190319753     A.U. after    2 cycles

 The electronic state is 1-A.
 Alpha  occ. eigenvalues --  -69.10321 -69.06136 -20.60701 -20.57118 -11.40850
 Alpha  occ. eigenvalues --  -11.25876  -6.85160  -6.81531  -3.96036  -3.95882
 Alpha  occ. eigenvalues --   -3.95840  -3.92294  -3.92284  -3.92268  -1.41619
 Alpha  occ. eigenvalues --   -1.31772  -1.02213  -0.83571  -0.72973  -0.71260
 Alpha  occ. eigenvalues --   -0.69350  -0.66820  -0.62951  -0.58902  -0.57324
 Alpha  occ. eigenvalues --   -0.55064  -0.51376  -0.49069  -0.48628  -0.47574
 Alpha  occ. eigenvalues --   -0.46711  -0.40086
 Alpha virt. eigenvalues --    0.03283   0.04302   0.04609   0.05557   0.05889
 Alpha virt. eigenvalues --    0.06573   0.07211   0.07531   0.07992   0.08675
 Alpha virt. eigenvalues --    0.09503   0.09988   0.10724   0.11241   0.12480

 Mulliken charges:
               1
     1  Si   0.423785
     2  Si  -0.331897
     3  O   -0.818462
     4  H    0.102389
     5  H    0.059267
     6  C    0.341114
     7  H    0.036423
     8  H    0.099003
     9  H    0.092471
    10  O   -0.370418
    11  C    0.314263
    12  H    0.039774
    13  H    0.037810
    14  H   -0.025522
 Sum of Mulliken charges =  -0.00000

 Dipole moment (field-independent basis, Debye):
    X=              1.2375    Y=              1.2310    Z=             -1.0780  Tot=              2.0516

 Test job not archived.
 1\1\GINC-SE273\SP\RHF\Aug-CC-pVDZ\C2H8O2Si2\OHZDE\09-Apr-2025\0\\#t hf
  aug-cc-pvdz iop(5/13=1,5/36=2,99/5=2) pseudo=read geom=check guess=(r
 ead,tcheck) scf=(maxcycle=1)\\title\\0,1\Si,0,-0.776861,1.125603,0.212
 414\Si,0,-2.168514,-0.722763,-0.244032\O,0,0.845437,0.871508,-0.271353
 \H,0,-0.785593,1.47923,1.650035\H,0,-1.143355,2.317751,-0.580334\C,0,1
 .492244,-0.255233,0.095236\H,0,-3.534615,-0.221305,-0.543463\H,0,-2.24
 2995,-1.642311,0.91068\H,0,-1.669175,-1.446024,-1.437357\O,0,0.952154,
 -1.121836,0.742213\C,0,2.915489,-0.289838,-0.391149\H,0,3.460306,0.568

 Normal termination of Gaussian 16 at Wed Apr  9 00:10:21 2025.
