 Gaussian 16, Revision C.01,

 ----------------------------------------------------------------------
 #t hf aug-cc-pvdz symm=none int=(grid=ultrafine) guess=(read,tcheck) s
 table=(opt,rrhf)
 ----------------------------------------------------------------------
 -----
 title
 -----
 Symbolic Z-matrix:
 Charge =  0 Multiplicity = 1

 SCF Done:  E(RHF) =  -984.411943690     A.U. after   14 cycles
 Normal termination of Gaussian 16 at Tue Apr  8 23:07:57 2025.
 Gaussian 16:  ES64L-G16RevC.01  3-Jul-2019

 ----------------------------------------------------------------------
 #t hf aug-cc-pvdz iop(5/13=1,5/36=2,99/5=2) pseudo=read geom=check gue
 ss=(read,tcheck) scf=(maxcycle=1)
 ----------------------------------------------------------------------
 -----
 title
 -----
 Structure from the checkpoint file:  "BDE49_expt_625_mol1.chk"
 Charge =  0 Multiplicity = 1

                         Standard orientation:
 ---------------------------------------------------------------------
 Center     Atomic      Atomic             Coordinates (Angstroms)
 Number     Number       Type             X           Y           Z
 ---------------------------------------------------------------------
      1          6           0        0.381296   -0.076901   -0.352263
      2          8           0        1.009544   -1.052579    0.391264
      3          8           0        2.276440   -1.341813   -0.239109
      4          1           0        2.882299   -0.864728    0.349403
      5          6           0       -1.118640   -0.162129   -0.020178
      6         17           0        1.021748    1.591131    0.021771
      7          1           0        0.531271   -0.223215   -1.420272
      8          9           0       -1.796379    0.781787   -0.687328
      9          9           0       -1.585823   -1.359908   -0.408145
     10          9           0       -1.356364   -0.018762    1.286380
 ---------------------------------------------------------------------

 SCF Done:  E(RHF) =  -984.611853082     A.U. after    2 cycles

 The electronic state is 1-A.
 Alpha  occ. eigenvalues -- -103.68525 -26.18565 -26.18460 -26.18446 -20.69748
 Alpha  occ. eigenvalues --  -20.68806 -11.55464 -11.41769 -10.71815  -8.37528
 Alpha  occ. eigenvalues --   -8.37230  -8.37214  -1.78289  -1.71231  -1.71055
 Alpha  occ. eigenvalues --   -1.49123  -1.28162  -1.17756  -1.07252  -0.95905
 Alpha  occ. eigenvalues --   -0.90317  -0.90032  -0.85074  -0.80556  -0.79161
 Alpha  occ. eigenvalues --   -0.78416  -0.74897  -0.74761  -0.73529  -0.71805
 Alpha  occ. eigenvalues --   -0.70968  -0.65173  -0.60075  -0.56794  -0.52577
 Alpha  occ. eigenvalues --   -0.49525  -0.48691
 Alpha virt. eigenvalues --    0.03396   0.04821   0.07453   0.08067   0.10272
 Alpha virt. eigenvalues --    0.11169   0.11910   0.12794   0.14403   0.15065
 Alpha virt. eigenvalues --    0.15570   0.16244   0.17340   0.18266   0.19333

 Mulliken charges:
               1
     1  C    0.310546
     2  O   -0.433027
     3  O   -0.265745
     4  H    0.245179
     5  C    1.073949
     6  Cl  -0.128762
     7  H    0.050641
     8  F   -0.281102
     9  F   -0.294361
    10  F   -0.277318
 Sum of Mulliken charges =  -0.00000

 Dipole moment (field-independent basis, Debye):
    X=              2.2485    Y=              0.2682    Z=             -0.6615  Tot=              2.3591

 Test job not archived.
 1\1\GINC-SE095\SP\RHF\Aug-CC-pVDZ\C2H2Cl1F3O2\OHZDE\08-Apr-2025\0\\#t
 hf aug-cc-pvdz iop(5/13=1,5/36=2,99/5=2) pseudo=read geom=check guess=
 (read,tcheck) scf=(maxcycle=1)\\title\\0,1\C,0,0.381296,-0.076901,-0.3
 52263\O,0,1.009545,-1.052579,0.391264\O,0,2.276441,-1.341812,-0.239109
 \H,0,2.882299,-0.864727,0.349403\C,0,-1.11864,-0.162129,-0.020178\Cl,0
 ,1.021747,1.591131,0.021771\H,0,0.531271,-0.223215,-1.420272\F,0,-1.79
 6379,0.781786,-0.687328\F,0,-1.585822,-1.359909,-0.408145\F,0,-1.35636
 4,-0.018763,1.28638\\Version=ES64L-G16RevC.01\State=1-A\HF=-984.611853

 Normal termination of Gaussian 16 at Tue Apr  8 23:08:01 2025.
