 Gaussian 16, Revision C.01,

 ----------------------------------------------------------------------
 #t hf aug-cc-pvdz symm=none int=(grid=ultrafine) guess=(read,tcheck) s
 table=(opt,rrhf)
 ----------------------------------------------------------------------
 -----
 title
 -----
 Symbolic Z-matrix:
 Charge =  0 Multiplicity = 1

 SCF Done:  E(RHF) =  -878.155592846     A.U. after   11 cycles

 1\1\GINC-SE364\Stability\RHF\Aug-CC-pVDZ\F3H3Si2\OHZDE\08-Apr-2025\0\\
 #t hf aug-cc-pvdz symm=none int=(grid=ultrafine) guess=(read,tcheck) s
 table=(opt,rrhf)\\title\\0,1\Si,0,1.905813,0.000008,-0.000002\Si,0,-0.
 432819,0.000006,-0.000011\F,0,-1.028207,-1.232778,-0.812026\F,0,-1.028
 217,-0.086878,1.473608\F,0,-1.028244,1.319634,-0.661566\H,0,2.380015,-
 1.25153,0.628786\H,0,2.380026,1.170306,0.769496\H,0,2.380058,0.081241,
 -1.398247\\Version=ES64L-G16RevC.01\HF=-878.1555928\RMSD=1.271e-09\Dip
 ole=0.9978935,0.0000282,-0.0000471\Quadrupole=1.2352425,-0.6177072,-0.

 Normal termination of Gaussian 16 at Tue Apr  8 23:55:21 2025.
 Gaussian 16:  ES64L-G16RevC.01  3-Jul-2019

 ----------------------------------------------------------------------
 #t hf aug-cc-pvdz iop(5/13=1,5/36=2,99/5=2) pseudo=read geom=check gue
 ss=(read,tcheck) scf=(maxcycle=1)
 ----------------------------------------------------------------------
 -----
 title
 -----
 Structure from the checkpoint file:  "BDE49_nonexpt_2018_mol1.chk"
 Charge =  0 Multiplicity = 1

                         Standard orientation:
 ---------------------------------------------------------------------
 Center     Atomic      Atomic             Coordinates (Angstroms)
 Number     Number       Type             X           Y           Z
 ---------------------------------------------------------------------
      1         14           0        1.905813    0.000008   -0.000001
      2         14           0       -0.432819    0.000006   -0.000011
      3          9           0       -1.028207   -1.229219   -0.817404
      4          9           0       -1.028217   -0.093315    1.473214
      5          9           0       -1.028244    1.322512   -0.655795
      6          1           0        2.380015   -1.254266    0.623313
      7          1           0        2.380026    1.166933    0.774602
      8          1           0        2.380058    0.087348   -1.397878
 ---------------------------------------------------------------------

 SCF Done:  E(RHF) =  -878.334304126     A.U. after    2 cycles

 The electronic state is 1-A.
 Alpha  occ. eigenvalues --  -69.21066 -69.09230 -26.13728 -26.13726 -26.13725
 Alpha  occ. eigenvalues --   -6.94745  -6.84691  -4.05733  -4.05733  -4.05448
 Alpha  occ. eigenvalues --   -3.95449  -3.95445  -3.95445  -1.67958  -1.66121
 Alpha  occ. eigenvalues --   -1.66121  -0.87185  -0.80261  -0.80260  -0.78270
 Alpha  occ. eigenvalues --   -0.75225  -0.75225  -0.72846  -0.72845  -0.72619
 Alpha  occ. eigenvalues --   -0.71465  -0.51338  -0.51338  -0.46694
 Alpha virt. eigenvalues --    0.03208   0.04858   0.05821   0.05822   0.07165
 Alpha virt. eigenvalues --    0.07574   0.07574   0.08219   0.08219   0.13171
 Alpha virt. eigenvalues --    0.13171   0.13811   0.15515   0.16989   0.18883

 Mulliken charges:
               1
     1  Si  -0.261602
     2  Si   2.454558
     3  F   -0.741805
     4  F   -0.741808
     5  F   -0.741808
     6  H    0.010828
     7  H    0.010820
     8  H    0.010818
 Sum of Mulliken charges =  -0.00000

 Dipole moment (field-independent basis, Debye):
    X=              2.7410    Y=              0.0001    Z=             -0.0001  Tot=              2.7410

 Test job not archived.
 1\1\GINC-SE364\SP\RHF\Aug-CC-pVDZ\F3H3Si2\OHZDE\08-Apr-2025\0\\#t hf a
 ug-cc-pvdz iop(5/13=1,5/36=2,99/5=2) pseudo=read geom=check guess=(rea
 d,tcheck) scf=(maxcycle=1)\\title\\0,1\Si,0,1.905813,0.000008,-0.00000
 2\Si,0,-0.432819,0.000006,-0.000011\F,0,-1.028207,-1.232778,-0.812026\
 F,0,-1.028217,-0.086878,1.473608\F,0,-1.028244,1.319634,-0.661566\H,0,
 2.380015,-1.25153,0.628786\H,0,2.380026,1.170306,0.769496\H,0,2.380058
 ,0.081241,-1.398247\\Version=ES64L-G16RevC.01\State=1-A\HF=-878.334304
 1\RMSD=5.017e-03\Dipole=1.0783987,0.0000307,-0.0000508\Quadrupole=1.32

 Normal termination of Gaussian 16 at Tue Apr  8 23:55:23 2025.
