 Gaussian 16, Revision C.01,

 ----------------------------------------------------------------------
 #t hf aug-cc-pvdz symm=none int=(grid=ultrafine) guess=(read,tcheck) s
 table=(opt,rrhf)
 ----------------------------------------------------------------------
 -----
 title
 -----
 Symbolic Z-matrix:
 Charge =  0 Multiplicity = 1

 SCF Done:  E(RHF) =  -1257.17155087     A.U. after   16 cycles
 Normal termination of Gaussian 16 at Tue Apr  8 23:30:42 2025.
 Gaussian 16:  ES64L-G16RevC.01  3-Jul-2019

 ----------------------------------------------------------------------
 #t hf aug-cc-pvdz iop(5/13=1,5/36=2,99/5=2) pseudo=read geom=check gue
 ss=(read,tcheck) scf=(maxcycle=1)
 ----------------------------------------------------------------------
 -----
 title
 -----
 Structure from the checkpoint file:  "BDE49_nonexpt_1360_mol1.chk"
 Charge =  0 Multiplicity = 1

                         Standard orientation:
 ---------------------------------------------------------------------
 Center     Atomic      Atomic             Coordinates (Angstroms)
 Number     Number       Type             X           Y           Z
 ---------------------------------------------------------------------
      1          9           0        1.574742    1.971067   -0.326099
      2         16           0        0.658561   -0.715957    0.483849
      3          8           0        0.862994   -2.085108    0.023091
      4          8           0        0.991981   -0.317359    1.843102
      5         15           0        1.817421    0.499765   -0.998256
      6          6           0       -1.045425   -0.260395    0.180211
      7          6           0       -1.584295    0.834738    0.855268
      8          1           0       -0.980824    1.376155    1.572094
      9          6           0       -2.903891    1.195850    0.600171
     10          1           0       -3.339647    2.041653    1.118793
     11          6           0       -3.664180    0.467189   -0.314337
     12          1           0       -4.692308    0.751746   -0.507059
     13          6           0       -3.112901   -0.628155   -0.978267
     14          1           0       -3.711074   -1.196818   -1.680508
     15          6           0       -1.792966   -0.998663   -0.736022
     16          1           0       -1.347186   -1.853720   -1.227893
     17          6           0        3.434640    0.101141   -0.231954
     18          1           0        3.653720   -0.953417   -0.418422
     19          1           0        3.417608    0.291681    0.842362
     20          1           0        4.203055    0.711452   -0.712179
 ---------------------------------------------------------------------

 SCF Done:  E(RHF) =  -1257.42869582     A.U. after    2 cycles

 The electronic state is 1-A.
 Alpha  occ. eigenvalues --  -93.77617 -81.36800 -26.14045 -20.56475 -20.56454
 Alpha  occ. eigenvalues --  -11.29121 -11.27870 -11.27842 -11.27556 -11.26876
 Alpha  occ. eigenvalues --  -11.26847 -11.26431  -9.04521  -7.86191  -6.39135
 Alpha  occ. eigenvalues --   -6.38890  -6.38812  -5.00201  -4.99923  -4.99606
 Alpha  occ. eigenvalues --   -1.66102  -1.41585  -1.30690  -1.17469  -1.05458
 Alpha  occ. eigenvalues --   -1.03967  -1.00506  -0.92151  -0.85896  -0.85110
 Alpha  occ. eigenvalues --   -0.81364  -0.75728  -0.75094  -0.74232  -0.70703
 Alpha  occ. eigenvalues --   -0.67961  -0.67201  -0.64602  -0.64208  -0.62180
 Alpha  occ. eigenvalues --   -0.62091  -0.59479  -0.58255  -0.55504  -0.53821
 Alpha  occ. eigenvalues --   -0.52975  -0.52539  -0.50535  -0.50162  -0.44946
 Alpha  occ. eigenvalues --   -0.38766  -0.37257  -0.36547
 Alpha virt. eigenvalues --    0.02932   0.03657   0.03968   0.04986   0.05588
 Alpha virt. eigenvalues --    0.06124   0.06524   0.06882   0.07578   0.08002
 Alpha virt. eigenvalues --    0.08435   0.08905   0.09705   0.10798   0.12170

 Mulliken charges:
               1
     1  F   -0.666872
     2  S    2.702150
     3  O   -1.223403
     4  O   -1.222934
     5  P    1.054266
     6  C    0.089504
     7  C    0.129103
     8  H   -0.526705
     9  C    0.554336
    10  H   -0.435955
    11  C    0.477030
    12  H   -0.433017
    13  C    0.563020
    14  H   -0.436635
    15  C    0.092355
    16  H   -0.531620
    17  C    0.133484
    18  H   -0.077860
    19  H   -0.071882
    20  H   -0.168365
 Sum of Mulliken charges =  -0.00000

 Dipole moment (field-independent basis, Debye):
    X=             -1.4666    Y=              1.9036    Z=             -3.0300  Tot=              3.8673

 Test job not archived.
 1\1\GINC-SE453\SP\RHF\Aug-CC-pVDZ\C7H8F1O2P1S1\OHZDE\08-Apr-2025\0\\#t
  hf aug-cc-pvdz iop(5/13=1,5/36=2,99/5=2) pseudo=read geom=check guess
 =(read,tcheck) scf=(maxcycle=1)\\title\\0,1\F,0,1.574742,1.971067,-0.3
 26099\S,0,0.658561,-0.715957,0.483849\O,0,0.862994,-2.085108,0.023091\
 O,0,0.991981,-0.317359,1.843102\P,0,1.817421,0.499765,-0.998256\C,0,-1
 .045425,-0.260395,0.180211\C,0,-1.584295,0.834738,0.855268\H,0,-0.9808
 24,1.376155,1.572094\C,0,-2.903891,1.19585,0.600171\H,0,-3.339647,2.04
 1653,1.118793\C,0,-3.66418,0.467189,-0.314337\H,0,-4.692308,0.751746,-

 Normal termination of Gaussian 16 at Tue Apr  8 23:30:56 2025.
