 Gaussian 16, Revision C.01,

 ----------------------------------------------------------------------
 #t hf aug-cc-pvdz symm=none int=(grid=ultrafine) guess=(read,tcheck) s
 table=(opt,rrhf)
 ----------------------------------------------------------------------
 -----
 title
 -----
 Symbolic Z-matrix:
 Charge =  0 Multiplicity = 1

 SCF Done:  E(RHF) =  -2003.83164763     A.U. after   12 cycles
 Normal termination of Gaussian 16 at Tue Apr  8 23:48:24 2025.
 Gaussian 16:  ES64L-G16RevC.01  3-Jul-2019

 ----------------------------------------------------------------------
 #t hf aug-cc-pvdz iop(5/13=1,5/36=2,99/5=2) pseudo=read geom=check gue
 ss=(read,tcheck) scf=(maxcycle=1)
 ----------------------------------------------------------------------
 -----
 title
 -----
 Structure from the checkpoint file:  "BDE49_nonexpt_1859_mol1.chk"
 Charge =  0 Multiplicity = 1

                         Standard orientation:
 ---------------------------------------------------------------------
 Center     Atomic      Atomic             Coordinates (Angstroms)
 Number     Number       Type             X           Y           Z
 ---------------------------------------------------------------------
      1          6           0       -1.047727   -0.541266   -0.252441
      2         14           0        0.662234    0.118386    0.305107
      3          9           0        0.615676    0.266368    1.883367
      4         17           0        1.031401    1.926180   -0.541135
      5          9           0       -1.268597   -1.766191    0.278978
      6         17           0       -2.366894    0.556970    0.275209
      7         17           0        2.087695   -1.242620   -0.194963
      8          9           0       -1.099562   -0.666711   -1.598094
 ---------------------------------------------------------------------

 SCF Done:  E(RHF) =  -2004.04429718     A.U. after    2 cycles

 The electronic state is 1-A.
 Alpha  occ. eigenvalues -- -103.70184-103.70159-103.70006 -69.24617 -26.18721
 Alpha  occ. eigenvalues --  -26.18656 -26.16321 -11.51092 -10.73632 -10.73529
 Alpha  occ. eigenvalues --  -10.73478  -8.39329  -8.39242  -8.39173  -8.39081
 Alpha  occ. eigenvalues --   -8.39074  -8.38927  -8.38920  -8.38919  -8.38910
 Alpha  occ. eigenvalues --   -6.98379  -4.09330  -4.09277  -4.09153  -1.75500
 Alpha  occ. eigenvalues --   -1.70762  -1.69326  -1.21262  -1.19823  -1.17752
 Alpha  occ. eigenvalues --   -1.00743  -0.87944  -0.86661  -0.83933  -0.83478
 Alpha  occ. eigenvalues --   -0.77984  -0.77590  -0.77232  -0.74341  -0.70071
 Alpha  occ. eigenvalues --   -0.65372  -0.59674  -0.57229  -0.54096  -0.53035
 Alpha  occ. eigenvalues --   -0.52389  -0.51413  -0.50661  -0.48989
 Alpha virt. eigenvalues --    0.04788   0.05733   0.05975   0.06119   0.08652
 Alpha virt. eigenvalues --    0.10604   0.11183   0.11795   0.12030   0.12597
 Alpha virt. eigenvalues --    0.13406   0.14451   0.16095   0.16282   0.17074

 Mulliken charges:
               1
     1  C    0.554771
     2  Si   1.940470
     3  F   -0.770176
     4  Cl  -0.425267
     5  F   -0.350847
     6  Cl  -0.187651
     7  Cl  -0.422161
     8  F   -0.339139
 Sum of Mulliken charges =  -0.00000

 Dipole moment (field-independent basis, Debye):
    X=              0.7627    Y=              0.7953    Z=             -0.2315  Tot=              1.1260

 Test job not archived.
 1\1\GINC-SE343\SP\RHF\Aug-CC-pVDZ\C1Cl3F3Si1\OHZDE\08-Apr-2025\0\\#t h
 f aug-cc-pvdz iop(5/13=1,5/36=2,99/5=2) pseudo=read geom=check guess=(
 read,tcheck) scf=(maxcycle=1)\\title\\0,1\C,0,-1.047727,-0.541266,-0.2
 52441\Si,0,0.662234,0.118386,0.305107\F,0,0.615676,0.266368,1.883367\C
 l,0,1.031401,1.92618,-0.541135\F,0,-1.268597,-1.766191,0.278978\Cl,0,-
 2.366894,0.55697,0.275209\Cl,0,2.087695,-1.24262,-0.194963\F,0,-1.0995
 62,-0.666711,-1.598094\\Version=ES64L-G16RevC.01\State=1-A\HF=-2004.04
 42972\RMSD=4.481e-03\Dipole=0.3000649,0.3129086,-0.0910947\Quadrupole=

 Normal termination of Gaussian 16 at Tue Apr  8 23:48:28 2025.
