 Gaussian 16, Revision C.01,

 ----------------------------------------------------------------------
 #t hf aug-cc-pvdz symm=none int=(grid=ultrafine) guess=(read,tcheck) s
 table=(opt,rrhf)
 ----------------------------------------------------------------------
 -----
 title
 -----
 Symbolic Z-matrix:
 Charge =  0 Multiplicity = 1

 SCF Done:  E(RHF) =  -1129.83466899     A.U. after   17 cycles
 Normal termination of Gaussian 16 at Tue Apr  8 23:27:49 2025.
 Gaussian 16:  ES64L-G16RevC.01  3-Jul-2019

 ----------------------------------------------------------------------
 #t hf aug-cc-pvdz iop(5/13=1,5/36=2,99/5=2) pseudo=read geom=check gue
 ss=(read,tcheck) scf=(maxcycle=1)
 ----------------------------------------------------------------------
 -----
 title
 -----
 Structure from the checkpoint file:  "BDE49_nonexpt_1332_mol1.chk"
 Charge =  0 Multiplicity = 1

                         Standard orientation:
 ---------------------------------------------------------------------
 Center     Atomic      Atomic             Coordinates (Angstroms)
 Number     Number       Type             X           Y           Z
 ---------------------------------------------------------------------
      1          7           0       -2.392194   -0.353915   -0.079339
      2         15           0       -1.326327    1.159252   -0.410517
      3          6           0        0.006804    0.756098    0.792142
      4         15           0        0.926957   -0.815011    0.392654
      5          1           0       -0.365824    0.686243    1.814283
      6          1           0        0.753663    1.557406    0.743587
      7          7           0        2.568307   -0.019995   -0.147027
      8          8           0        2.865134    1.110865    0.206435
      9          8           0        3.278896   -0.772193   -0.791057
     10          8           0       -1.831325   -1.373510    0.313557
     11          8           0       -3.573091   -0.255018   -0.343361
     12          1           0       -2.149579    1.955366    0.419959
     13          1           0        0.561759   -0.963002   -0.962760
 ---------------------------------------------------------------------

 SCF Done:  E(RHF) =  -1130.01661658     A.U. after    2 cycles

 The electronic state is 1-A.
 Alpha  occ. eigenvalues --  -81.36451 -81.35518 -20.65179 -20.64800 -20.63038
 Alpha  occ. eigenvalues --  -20.62942 -15.92812 -15.90729 -11.30710  -7.86421
 Alpha  occ. eigenvalues --   -7.85336  -5.00424  -5.00235  -4.99913  -4.99322
 Alpha  occ. eigenvalues --   -4.99090  -4.98808  -1.57115  -1.55154  -1.39460
 Alpha  occ. eigenvalues --   -1.37514  -1.05692  -0.98114  -0.94605  -0.84106
 Alpha  occ. eigenvalues --   -0.82268  -0.76431  -0.75433  -0.74444  -0.74068
 Alpha  occ. eigenvalues --   -0.73010  -0.71270  -0.64600  -0.59523  -0.55970
 Alpha  occ. eigenvalues --   -0.54717  -0.52212  -0.50881  -0.50492  -0.48657
 Alpha  occ. eigenvalues --   -0.48423  -0.43262  -0.41454
 Alpha virt. eigenvalues --    0.02203   0.03476   0.04275   0.04500   0.05691
 Alpha virt. eigenvalues --    0.06145   0.07174   0.08015   0.08212   0.08395
 Alpha virt. eigenvalues --    0.10487   0.11032   0.11615   0.12499   0.13007

 Mulliken charges:
               1
     1  N    0.297412
     2  P    0.812339
     3  C   -0.265096
     4  P    0.963183
     5  H   -0.157042
     6  H   -0.081502
     7  N    0.334089
     8  O   -0.563903
     9  O   -0.553191
    10  O   -0.517164
    11  O   -0.526584
    12  H    0.152847
    13  H    0.104613
 Sum of Mulliken charges =  -0.00000

 Dipole moment (field-independent basis, Debye):
    X=             -2.1209    Y=              2.8310    Z=              1.4450  Tot=              3.8211

 Test job not archived.
 1\1\GINC-SE048\SP\RHF\Aug-CC-pVDZ\C1H4N2O4P2\OHZDE\08-Apr-2025\0\\#t h
 f aug-cc-pvdz iop(5/13=1,5/36=2,99/5=2) pseudo=read geom=check guess=(
 read,tcheck) scf=(maxcycle=1)\\title\\0,1\N,0,-2.392194,-0.353915,-0.0
 79339\P,0,-1.326327,1.159252,-0.410517\C,0,0.006804,0.756098,0.792142\
 P,0,0.926957,-0.815011,0.392654\H,0,-0.365824,0.686243,1.814283\H,0,0.
 753663,1.557406,0.743587\N,0,2.568307,-0.019995,-0.147027\O,0,2.865134
 ,1.110865,0.206435\O,0,3.278896,-0.772193,-0.791057\O,0,-1.831325,-1.3
 7351,0.313557\O,0,-3.573091,-0.255018,-0.343361\H,0,-2.149579,1.955366

 Normal termination of Gaussian 16 at Tue Apr  8 23:27:55 2025.
