 Gaussian 16, Revision C.01,

 ----------------------------------------------------------------------
 #t hf aug-cc-pvdz symm=none int=(grid=ultrafine) guess=(read,tcheck) s
 table=(opt,rrhf)
 ----------------------------------------------------------------------
 -----
 title
 -----
 Symbolic Z-matrix:
 Charge =  0 Multiplicity = 1

 SCF Done:  E(RHF) =  -710.663935902     A.U. after   12 cycles
 Normal termination of Gaussian 16 at Tue Apr  8 23:41:03 2025.
 Gaussian 16:  ES64L-G16RevC.01  3-Jul-2019

 ----------------------------------------------------------------------
 #t hf aug-cc-pvdz iop(5/13=1,5/36=2,99/5=2) pseudo=read geom=check gue
 ss=(read,tcheck) scf=(maxcycle=1)
 ----------------------------------------------------------------------
 -----
 title
 -----
 Structure from the checkpoint file:  "BDE49_nonexpt_1666_mol1.chk"
 Charge =  0 Multiplicity = 1

                         Standard orientation:
 ---------------------------------------------------------------------
 Center     Atomic      Atomic             Coordinates (Angstroms)
 Number     Number       Type             X           Y           Z
 ---------------------------------------------------------------------
      1         14           0        0.864770    0.616886   -0.031562
      2         15           0       -0.944381   -0.763002   -0.141430
      3          6           0       -2.324767    0.486834    0.087054
      4          1           0       -3.258420   -0.051033    0.263851
      5          1           0       -2.438118    1.053194   -0.839768
      6          1           0       -2.156761    1.184557    0.908469
      7          6           0        2.453248   -0.387273    0.064278
      8          1           0        2.479801   -0.995734    0.972137
      9          1           0        3.324553    0.273426    0.076079
     10          1           0        2.545653   -1.055798   -0.795360
     11          1           0       -0.835748   -1.185917    1.210886
     12          1           0        0.774330    1.546475    1.125776
     13          1           0        0.852757    1.442101   -1.266746
 ---------------------------------------------------------------------

 SCF Done:  E(RHF) =  -710.734323600     A.U. after    2 cycles

 The electronic state is 1-A.
 Alpha  occ. eigenvalues --  -81.24027 -69.06473 -11.24184 -11.22250  -7.74498
 Alpha  occ. eigenvalues --   -6.81695  -4.88450  -4.88370  -4.88128  -3.92449
 Alpha  occ. eigenvalues --   -3.92438  -3.92430  -0.96091  -0.94319  -0.75418
 Alpha  occ. eigenvalues --   -0.65425  -0.58011  -0.57311  -0.56676  -0.56252
 Alpha  occ. eigenvalues --   -0.48737  -0.47105  -0.45496  -0.41056  -0.33033
 Alpha virt. eigenvalues --    0.03532   0.04156   0.05016   0.05603   0.06378
 Alpha virt. eigenvalues --    0.06865   0.07183   0.07918   0.08669   0.09509
 Alpha virt. eigenvalues --    0.10083   0.10551   0.11763   0.13332   0.13967

 Mulliken charges:
               1
     1  Si   0.706556
     2  P   -0.139527
     3  C    0.229411
     4  H   -0.197846
     5  H   -0.140632
     6  H   -0.165612
     7  C    0.197185
     8  H   -0.171903
     9  H   -0.291685
    10  H   -0.182633
    11  H    0.203141
    12  H   -0.005054
    13  H   -0.041399
 Sum of Mulliken charges =  -0.00000

 Dipole moment (field-independent basis, Debye):
    X=              0.1578    Y=              0.4833    Z=              0.6003  Tot=              0.7867

 Test job not archived.
 1\1\GINC-SE116\SP\RHF\Aug-CC-pVDZ\C2H9P1Si1\OHZDE\08-Apr-2025\0\\#t hf
  aug-cc-pvdz iop(5/13=1,5/36=2,99/5=2) pseudo=read geom=check guess=(r
 ead,tcheck) scf=(maxcycle=1)\\title\\0,1\Si,0,0.86477,0.616886,-0.0315
 62\P,0,-0.944381,-0.763002,-0.14143\C,0,-2.324767,0.486834,0.087054\H,
 0,-3.25842,-0.051033,0.263851\H,0,-2.438118,1.053194,-0.839768\H,0,-2.
 156761,1.184557,0.908469\C,0,2.453248,-0.387273,0.064278\H,0,2.479801,
 -0.995734,0.972137\H,0,3.324553,0.273426,0.076079\H,0,2.545653,-1.0557
 98,-0.79536\H,0,-0.835748,-1.185917,1.210886\H,0,0.77433,1.546475,1.12

 Normal termination of Gaussian 16 at Tue Apr  8 23:41:08 2025.
