 Gaussian 16, Revision C.01,

 ----------------------------------------------------------------------
 #t hf aug-cc-pvdz symm=none int=(grid=ultrafine) guess=(read,tcheck) s
 table=(opt,rrhf)
 ----------------------------------------------------------------------
 -----
 title
 -----
 Symbolic Z-matrix:
 Charge =  0 Multiplicity = 1

 SCF Done:  E(RHF) =  -249.508375600     A.U. after   12 cycles
 Normal termination of Gaussian 16 at Wed Apr  9 00:40:19 2025.
 Gaussian 16:  ES64L-G16RevC.01  3-Jul-2019

 ----------------------------------------------------------------------
 #t hf aug-cc-pvdz iop(5/13=1,5/36=2,99/5=2) pseudo=read geom=check gue
 ss=(read,tcheck) scf=(maxcycle=1)
 ----------------------------------------------------------------------
 -----
 title
 -----
 Structure from the checkpoint file:  "BDE49_nonexpt_6_mol1.chk"
 Charge =  0 Multiplicity = 1

                         Standard orientation:
 ---------------------------------------------------------------------
 Center     Atomic      Atomic             Coordinates (Angstroms)
 Number     Number       Type             X           Y           Z
 ---------------------------------------------------------------------
      1          5           0        0.782988    0.415406    0.338385
      2          5           0       -0.782960    0.415340   -0.338427
      3          9           0       -1.744563   -0.354779    0.173140
      4          9           0        1.744556   -0.354787   -0.173130
      5          1           0       -1.109036    1.116243   -1.256548
      6          1           0        1.108961    1.116126    1.256674
 ---------------------------------------------------------------------

 SCF Done:  E(RHF) =  -249.608932500     A.U. after    2 cycles

 The electronic state is 1-A.
 Alpha  occ. eigenvalues --  -26.13495 -26.13495  -7.68233  -7.68168  -1.67281
 Alpha  occ. eigenvalues --   -1.67130  -0.85420  -0.83574  -0.76814  -0.75931
 Alpha  occ. eigenvalues --   -0.73680  -0.73487  -0.65472  -0.56776  -0.44806
 Alpha virt. eigenvalues --    0.03943   0.04239   0.04615   0.04755   0.06983
 Alpha virt. eigenvalues --    0.07158   0.07766   0.09413   0.10449   0.10898
 Alpha virt. eigenvalues --    0.14321   0.15163   0.23895   0.24026   0.25299

 Mulliken charges:
               1
     1  B    0.416398
     2  B    0.416367
     3  F   -0.476190
     4  F   -0.476183
     5  H    0.059807
     6  H    0.059801
 Sum of Mulliken charges =  -0.00000

 Dipole moment (field-independent basis, Debye):
    X=              0.0002    Y=              1.3912    Z=             -0.0002  Tot=              1.3912

 Test job not archived.
 1\1\GINC-SE227\SP\RHF\Aug-CC-pVDZ\B2F2H2\OHZDE\09-Apr-2025\0\\#t hf au
 g-cc-pvdz iop(5/13=1,5/36=2,99/5=2) pseudo=read geom=check guess=(read
 ,tcheck) scf=(maxcycle=1)\\title\\0,1\B,0,-0.782988,0.415406,-0.338385
 \B,0,0.78296,0.41534,0.338427\F,0,1.744563,-0.354779,-0.17314\F,0,-1.7
 44556,-0.354787,0.17313\H,0,1.109036,1.116243,1.256548\H,0,-1.108961,1
 .116126,-1.256674\\Version=ES64L-G16RevC.01\State=1-A\HF=-249.6089325\
 RMSD=8.875e-03\Dipole=-0.000083,0.5473542,0.000069\Quadrupole=-3.43272
 63,1.7832386,1.6494877,-0.0003989,0.4723617,-0.0001198\PG=C01 [X(B2F2H

 Normal termination of Gaussian 16 at Wed Apr  9 00:40:21 2025.
