 Gaussian 16, Revision C.01,

 ----------------------------------------------------------------------
 #t hf aug-cc-pvdz symm=none int=(grid=ultrafine) guess=(read,tcheck) s
 table=opt
 ----------------------------------------------------------------------
 -----
 title
 -----
 Symbolic Z-matrix:
 Charge =  0 Multiplicity = 2

 SCF Done:  E(UHF) =  -537.626600556     A.U. after   16 cycles
 Normal termination of Gaussian 16 at Tue Apr  8 23:57:07 2025.
 Gaussian 16:  ES64L-G16RevC.01  3-Jul-2019

 ----------------------------------------------------------------------
 #t hf aug-cc-pvdz iop(5/13=1,5/36=2,99/5=2) pseudo=read geom=check gue
 ss=(read,tcheck) scf=(maxcycle=1)
 ----------------------------------------------------------------------
 -----
 title
 -----
 Structure from the checkpoint file:  "BDE49_nonexpt_2050_mol2.chk"
 Charge =  0 Multiplicity = 2

                         Standard orientation:
 ---------------------------------------------------------------------
 Center     Atomic      Atomic             Coordinates (Angstroms)
 Number     Number       Type             X           Y           Z
 ---------------------------------------------------------------------
      1         14           0       -1.931888    0.374907   -0.352430
      2          6           0       -0.239506   -0.529161   -0.258655
      3          8           0       -0.270693   -1.390460    0.913981
      4          7           0        0.925199    0.303495   -0.390048
      5          6           0        2.170771   -0.450347   -0.533205
      6          1           0        2.059883   -1.188552   -1.330760
      7          1           0        2.464548   -0.979585    0.385566
      8          1           0        2.976630    0.233028   -0.812831
      9          6           0        1.047607    1.381715    0.582929
     10          1           0        0.131821    1.978033    0.604538
     11          1           0        1.863536    2.045569    0.287368
     12          1           0        1.260086    1.032882    1.608623
     13          1           0       -0.222018   -1.243192   -1.086010
     14          1           0       -0.423354   -0.840452    1.690695
     15          1           0       -2.275553    0.912841    0.996326
     16          1           0       -2.973225   -0.613294   -0.737412
 ---------------------------------------------------------------------

 SCF Done:  E(UHF) =  -537.724896677     A.U. after    2 cycles

 The electronic state is 2-A.
 Alpha  occ. eigenvalues --  -69.07372 -20.57722 -15.62226 -11.31166 -11.26568
 Alpha  occ. eigenvalues --  -11.25621  -6.82743  -3.94087  -3.93184  -3.93158
 Alpha  occ. eigenvalues --   -1.32540  -1.19139  -0.95918  -0.94219  -0.81300
 Alpha  occ. eigenvalues --   -0.72658  -0.68028  -0.65621  -0.62141  -0.61103
 Alpha  occ. eigenvalues --   -0.58038  -0.55453  -0.54471  -0.52207  -0.50504
 Alpha  occ. eigenvalues --   -0.48003  -0.43493  -0.36504  -0.32969
 Alpha virt. eigenvalues --    0.03278   0.04165   0.04327   0.05061   0.06194
 Alpha virt. eigenvalues --    0.07240   0.07285   0.07567   0.07813   0.08854
 Alpha virt. eigenvalues --    0.09433   0.09990   0.11262   0.13015   0.14511

  Beta  occ. eigenvalues --  -69.06807 -20.57519 -15.62230 -11.31091 -11.26562
  Beta  occ. eigenvalues --  -11.25627  -6.81892  -3.92795  -3.92780  -3.91913
  Beta  occ. eigenvalues --   -1.31993  -1.19087  -0.95902  -0.93983  -0.80992
  Beta  occ. eigenvalues --   -0.70768  -0.67268  -0.65429  -0.61707  -0.59613
  Beta  occ. eigenvalues --   -0.57804  -0.55148  -0.54077  -0.52154  -0.50250
  Beta  occ. eigenvalues --   -0.47136  -0.42076  -0.36357
  Beta virt. eigenvalues --    0.02823   0.03491   0.04248   0.04469   0.06002
  Beta virt. eigenvalues --    0.06307   0.07303   0.07464   0.07738   0.08897
  Beta virt. eigenvalues --    0.09103   0.09594   0.10226   0.11468   0.13168

 Mulliken charges and spin densities:
               1          2
     1  Si  -0.108794   0.987720
     2  C    0.792759   0.006793
     3  O   -0.628581   0.018128
     4  N   -0.732028  -0.035414
     5  C    0.693728  -0.009934
     6  H   -0.167954   0.000736
     7  H    0.000659   0.000085
     8  H   -0.194738   0.000092
     9  C    0.703837   0.017687
    10  H   -0.208590  -0.003256
    11  H   -0.183169  -0.000028
    12  H   -0.061924  -0.001022
    13  H   -0.270679  -0.005473
    14  H    0.170711  -0.016364
    15  H    0.132768   0.010114
    16  H    0.061993   0.030137
 Sum of Mulliken charges =   0.00000   1.00000

 Dipole moment (field-independent basis, Debye):
    X=              0.7417    Y=              1.3879    Z=              0.3050  Tot=              1.6029
                          Isotropic Fermi Contact Couplings
        Atom                 a.u.       MegaHertz       Gauss      10(-4) cm-1
     1  Si(29)             0.53680    -477.06942    -170.23023    -159.13323
     2  C(13)              0.01892      21.27196       7.59036       7.09556
     3  O(17)              0.02517     -15.25651      -5.44390      -5.08903
     4  N(14)             -0.00256      -0.82842      -0.29560      -0.27633
     5  C(13)             -0.00119      -1.34239      -0.47900      -0.44777
     6  H(1)               0.00000       0.01377       0.00491       0.00459
     7  H(1)               0.00004       0.18540       0.06616       0.06184
     8  H(1)              -0.00004      -0.16807      -0.05997      -0.05606

 Normal termination of Gaussian 16 at Tue Apr  8 23:57:14 2025.
