 Gaussian 16, Revision C.01,

 ----------------------------------------------------------------------
 #t hf aug-cc-pvdz symm=none int=(grid=ultrafine) guess=(read,tcheck) s
 table=(opt,rrhf)
 ----------------------------------------------------------------------
 -----
 title
 -----
 Symbolic Z-matrix:
 Charge =  0 Multiplicity = 1

 SCF Done:  E(RHF) =  -554.841689283     A.U. after   12 cycles

 1\1\GINC-SE116\Stability\RHF\Aug-CC-pVDZ\C4H10S1\OHZDE\08-Apr-2025\0\\
 #t hf aug-cc-pvdz symm=none int=(grid=ultrafine) guess=(read,tcheck) s
 table=(opt,rrhf)\\title\\0,1\S,0,-1.053298,-0.687025,-0.244747\C,0,-1.
 930681,0.908756,-0.178573\H,0,-2.257062,1.131541,0.839306\H,0,-2.81031
 5,0.805171,-0.815102\H,0,-1.318504,1.726249,-0.561509\C,0,0.312091,-0.
 374867,0.939556\C,0,1.421245,0.566985,0.456989\H,0,0.722064,-1.367737,
 1.146837\H,0,-0.131275,-0.010318,1.870424\C,0,2.235894,0.025558,-0.719
 431\H,0,2.087704,0.754505,1.308216\H,0,0.989903,1.539001,0.195061\H,0,

 Normal termination of Gaussian 16 at Tue Apr  8 22:44:57 2025.
 Gaussian 16:  ES64L-G16RevC.01  3-Jul-2019

 ----------------------------------------------------------------------
 #t hf aug-cc-pvdz iop(5/13=1,5/36=2,99/5=2) pseudo=read geom=check gue
 ss=(read,tcheck) scf=(maxcycle=1)
 ----------------------------------------------------------------------
 -----
 title
 -----
 Structure from the checkpoint file:  "BDE49_expt_1564_mol1.chk"
 Charge =  0 Multiplicity = 1

                         Standard orientation:
 ---------------------------------------------------------------------
 Center     Atomic      Atomic             Coordinates (Angstroms)
 Number     Number       Type             X           Y           Z
 ---------------------------------------------------------------------
      1         16           0       -1.053298   -0.687025   -0.244747
      2          6           0       -1.930681    0.908756   -0.178573
      3          1           0       -2.257062    1.131541    0.839306
      4          1           0       -2.810315    0.805171   -0.815102
      5          1           0       -1.318504    1.726249   -0.561509
      6          6           0        0.312091   -0.374867    0.939556
      7          6           0        1.421245    0.566985    0.456989
      8          1           0        0.722064   -1.367737    1.146837
      9          1           0       -0.131275   -0.010318    1.870424
     10          6           0        2.235894    0.025558   -0.719431
     11          1           0        2.087704    0.754505    1.308216
     12          1           0        0.989903    1.539001    0.195061
     13          1           0        2.728355   -0.915832   -0.455340
     14          1           0        3.012397    0.734812   -1.017466
     15          1           0        1.598201   -0.163587   -1.585728
 ---------------------------------------------------------------------

 SCF Done:  E(RHF) =  -554.914395354     A.U. after    2 cycles

 The electronic state is 1-A.
 Alpha  occ. eigenvalues --  -93.52017 -11.26421 -11.26057 -11.23807 -11.22236
 Alpha  occ. eigenvalues --   -8.81732  -6.15881  -6.15667  -6.15354  -1.07382
 Alpha  occ. eigenvalues --   -1.00847  -0.93328  -0.84357  -0.76840  -0.63193
 Alpha  occ. eigenvalues --   -0.62177  -0.58280  -0.57967  -0.57283  -0.50955
 Alpha  occ. eigenvalues --   -0.49846  -0.49658  -0.46830  -0.41722  -0.33243
 Alpha virt. eigenvalues --    0.03467   0.04423   0.04682   0.05123   0.06544
 Alpha virt. eigenvalues --    0.06691   0.07151   0.07775   0.08485   0.09428
 Alpha virt. eigenvalues --    0.11256   0.12876   0.14123   0.14430   0.15043

 Mulliken charges:
               1
     1  S    0.380445
     2  C    0.090215
     3  H   -0.087826
     4  H   -0.105114
     5  H   -0.091524
     6  C    0.099183
     7  C    0.083652
     8  H   -0.100335
     9  H   -0.111715
    10  C    0.279651
    11  H   -0.060833
    12  H   -0.161631
    13  H   -0.069507
    14  H   -0.081905
    15  H   -0.062755
 Sum of Mulliken charges =   0.00000

 Dipole moment (field-independent basis, Debye):
    X=              0.5125    Y=              1.4986    Z=              0.9056  Tot=              1.8244

 Test job not archived.
 1\1\GINC-SE116\SP\RHF\Aug-CC-pVDZ\C4H10S1\OHZDE\08-Apr-2025\0\\#t hf a
 ug-cc-pvdz iop(5/13=1,5/36=2,99/5=2) pseudo=read geom=check guess=(rea
 d,tcheck) scf=(maxcycle=1)\\title\\0,1\S,0,-1.053298,-0.687025,-0.2447
 47\C,0,-1.930681,0.908756,-0.178573\H,0,-2.257062,1.131541,0.839306\H,
 0,-2.810315,0.805171,-0.815102\H,0,-1.318504,1.726249,-0.561509\C,0,0.
 312091,-0.374867,0.939556\C,0,1.421245,0.566985,0.456989\H,0,0.722064,
 -1.367737,1.146837\H,0,-0.131275,-0.010318,1.870424\C,0,2.235894,0.025
 558,-0.719431\H,0,2.087704,0.754505,1.308216\H,0,0.989903,1.539001,0.1

 Normal termination of Gaussian 16 at Tue Apr  8 22:45:04 2025.
