 Gaussian 16, Revision C.01,

 ----------------------------------------------------------------------
 #t hf aug-cc-pvdz symm=none int=(grid=ultrafine) guess=(read,tcheck) s
 table=opt
 ----------------------------------------------------------------------
 -----
 title
 -----
 Symbolic Z-matrix:
 Charge =  0 Multiplicity = 2

 SCF Done:  E(UHF) =  -482.683431595     A.U. after   18 cycles
 Normal termination of Gaussian 16 at Tue Apr  8 22:42:50 2025.
 Gaussian 16:  ES64L-G16RevC.01  3-Jul-2019

 ----------------------------------------------------------------------
 #t hf aug-cc-pvdz iop(5/13=1,5/36=2,99/5=2) pseudo=read geom=check gue
 ss=(read,tcheck) scf=(maxcycle=1)
 ----------------------------------------------------------------------
 -----
 title
 -----
 Structure from the checkpoint file:  "BDE49_expt_1490_mol2.chk"
 Charge =  0 Multiplicity = 2

                         Standard orientation:
 ---------------------------------------------------------------------
 Center     Atomic      Atomic             Coordinates (Angstroms)
 Number     Number       Type             X           Y           Z
 ---------------------------------------------------------------------
      1          8           0       -0.475436   -0.000002    1.668325
      2         14           0        0.024387    0.000000    0.079972
      3          6           0       -1.650610   -0.000001   -0.803937
      4          1           0       -2.231685   -0.888234   -0.551097
      5          1           0       -1.458607    0.000001   -1.882461
      6          1           0       -2.231687    0.888229   -0.551094
      7          6           0        1.002979    1.544133   -0.340204
      8          1           0        0.422776    2.444787   -0.124050
      9          1           0        1.272799    1.555434   -1.401305
     10          1           0        1.930392    1.593805    0.237621
     11          6           0        1.002982   -1.544131   -0.340206
     12          1           0        0.422780   -2.444786   -0.124054
     13          1           0        1.930394   -1.593802    0.237622
     14          1           0        1.272805   -1.555429   -1.401306
 ---------------------------------------------------------------------

 SCF Done:  E(UHF) =  -482.779642489     A.U. after    2 cycles

 The electronic state is 2-A.
 Alpha  occ. eigenvalues --  -69.07830 -20.61418 -11.21751 -11.21747 -11.21722
 Alpha  occ. eigenvalues --   -6.82790  -3.93730  -3.93550  -3.93534  -1.31475
 Alpha  occ. eigenvalues --   -0.96507  -0.92836  -0.92802  -0.67584  -0.66391
 Alpha  occ. eigenvalues --   -0.59352  -0.58760  -0.57110  -0.56375  -0.54927
 Alpha  occ. eigenvalues --   -0.54168  -0.54084  -0.53341  -0.43564  -0.43534
 Alpha virt. eigenvalues --    0.02896   0.04721   0.04773   0.05129   0.06770
 Alpha virt. eigenvalues --    0.06805   0.07296   0.07321   0.07890   0.09148
 Alpha virt. eigenvalues --    0.10464   0.10562   0.12622   0.14609   0.16367

  Beta  occ. eigenvalues --  -69.07889 -20.57562 -11.21735 -11.21731 -11.21559
  Beta  occ. eigenvalues --   -6.82877  -3.93867  -3.93652  -3.93582  -1.15791
  Beta  occ. eigenvalues --   -0.96096  -0.92800  -0.92396  -0.64313  -0.58385
  Beta  occ. eigenvalues --   -0.57935  -0.57245  -0.55762  -0.55191  -0.54097
  Beta  occ. eigenvalues --   -0.51777  -0.51383  -0.43910  -0.42848
  Beta virt. eigenvalues --    0.02890   0.04006   0.04779   0.05139   0.05962
  Beta virt. eigenvalues --    0.06778   0.06806   0.07299   0.07518   0.08000
  Beta virt. eigenvalues --    0.09149   0.10582   0.11304   0.12742   0.14667

 Mulliken charges and spin densities:
               1          2
     1  O   -0.715499   1.046643
     2  Si   1.991489  -0.118866
     3  C    0.396560   0.052958
     4  H   -0.281928   0.005327
     5  H   -0.224729   0.003337
     6  H   -0.281930   0.005327
     7  C    0.375706   0.002201
     8  H   -0.306305  -0.002638
     9  H   -0.219261   0.000222
    10  H   -0.292122   0.002850
    11  C    0.375705   0.002201
    12  H   -0.306305  -0.002638
    13  H   -0.292119   0.002850
    14  H   -0.219262   0.000222
 Sum of Mulliken charges =  -0.00000   1.00000

 Dipole moment (field-independent basis, Debye):
    X=              0.8399    Y=              0.0000    Z=             -1.9203  Tot=              2.0960
                          Isotropic Fermi Contact Couplings
        Atom                 a.u.       MegaHertz       Gauss      10(-4) cm-1
     1  O(17)              0.23454    -142.17935     -50.73313     -47.42592
     2  Si(29)            -0.05890      52.34579      18.67828      17.46068
     3  C(13)              0.03137      35.26795      12.58448      11.76412
     4  H(1)              -0.00105      -4.69500      -1.67529      -1.56608
     5  H(1)               0.00259      11.59587       4.13770       3.86797
     6  H(1)              -0.00105      -4.69499      -1.67529      -1.56608
     7  C(13)              0.00252       2.83104       1.01019       0.94433
     8  H(1)              -0.00020      -0.90903      -0.32436      -0.30322

 Normal termination of Gaussian 16 at Tue Apr  8 22:42:54 2025.
