 Gaussian 16, Revision C.01,

 ----------------------------------------------------------------------
 #t hf aug-cc-pvdz symm=none int=(grid=ultrafine) guess=(read,tcheck) s
 table=(opt,rrhf)
 ----------------------------------------------------------------------
 -----
 title
 -----
 Symbolic Z-matrix:
 Charge =  0 Multiplicity = 1

 SCF Done:  E(RHF) =  -608.673718757     A.U. after   15 cycles
 Normal termination of Gaussian 16 at Wed Apr  9 00:04:33 2025.
 Gaussian 16:  ES64L-G16RevC.01  3-Jul-2019

 ----------------------------------------------------------------------
 #t hf aug-cc-pvdz iop(5/13=1,5/36=2,99/5=2) pseudo=read geom=check gue
 ss=(read,tcheck) scf=(maxcycle=1)
 ----------------------------------------------------------------------
 -----
 title
 -----
 Structure from the checkpoint file:  "BDE49_nonexpt_2240_mol1.chk"
 Charge =  0 Multiplicity = 1

                         Standard orientation:
 ---------------------------------------------------------------------
 Center     Atomic      Atomic             Coordinates (Angstroms)
 Number     Number       Type             X           Y           Z
 ---------------------------------------------------------------------
      1          8           0        0.364090   -0.849281   -0.276203
      2          7           0        1.340580    0.112003    0.001549
      3          8           0        0.967385    1.085089    0.629677
      4          8           0        2.430876   -0.143193   -0.415942
      5         14           0       -1.241640   -0.569079    0.302157
      6          6           0       -2.056298    0.872777   -0.544681
      7          1           0       -1.583568    1.817046   -0.270700
      8          1           0       -3.109595    0.916557   -0.248489
      9          1           0       -2.018812    0.761141   -1.631444
     10          1           0       -1.202047   -0.434928    1.769181
     11          1           0       -1.848095   -1.854311   -0.091761
 ---------------------------------------------------------------------

 SCF Done:  E(RHF) =  -608.804939823     A.U. after    2 cycles

 The electronic state is 1-A.
 Alpha  occ. eigenvalues --  -69.12393 -20.66629 -20.65356 -20.64653 -15.99652
 Alpha  occ. eigenvalues --  -11.24031  -6.87188  -3.98109  -3.97924  -3.97886
 Alpha  occ. eigenvalues --   -1.61567  -1.42006  -1.36828  -0.97039  -0.93453
 Alpha  occ. eigenvalues --   -0.82763  -0.79108  -0.78642  -0.70608  -0.62576
 Alpha  occ. eigenvalues --   -0.60098  -0.58124  -0.57500  -0.55693  -0.53810
 Alpha  occ. eigenvalues --   -0.51335  -0.49374  -0.47874
 Alpha virt. eigenvalues --    0.02943   0.04425   0.04803   0.05477   0.07166
 Alpha virt. eigenvalues --    0.07719   0.07861   0.08453   0.10366   0.11622
 Alpha virt. eigenvalues --    0.14053   0.14153   0.14450   0.15562   0.16678

 Mulliken charges:
               1
     1  O   -0.739523
     2  N    0.826269
     3  O   -0.431983
     4  O   -0.412206
     5  Si   1.139340
     6  C    0.179789
     7  H   -0.156144
     8  H   -0.232405
     9  H   -0.152471
    10  H   -0.027309
    11  H    0.006642
 Sum of Mulliken charges =  -0.00000

 Dipole moment (field-independent basis, Debye):
    X=             -3.5545    Y=             -0.1845    Z=             -0.0283  Tot=              3.5594

 Test job not archived.
 1\1\GINC-SE412\SP\RHF\Aug-CC-pVDZ\C1H5N1O3Si1\OHZDE\09-Apr-2025\0\\#t
 hf aug-cc-pvdz iop(5/13=1,5/36=2,99/5=2) pseudo=read geom=check guess=
 (read,tcheck) scf=(maxcycle=1)\\title\\0,1\O,0,0.36409,-0.849281,-0.27
 6203\N,0,1.34058,0.112003,0.001549\O,0,0.967385,1.085089,0.629677\O,0,
 2.430876,-0.143193,-0.415942\Si,0,-1.24164,-0.569079,0.302157\C,0,-2.0
 56298,0.872777,-0.544681\H,0,-1.583568,1.817046,-0.2707\H,0,-3.109595,
 0.916557,-0.248489\H,0,-2.018812,0.761141,-1.631444\H,0,-1.202047,-0.4
 34928,1.769181\H,0,-1.848095,-1.854311,-0.091761\\Version=ES64L-G16Rev

 Normal termination of Gaussian 16 at Wed Apr  9 00:04:37 2025.
