 Gaussian 16, Revision C.01,

 ----------------------------------------------------------------------
 #t hf aug-cc-pvdz symm=none int=(grid=ultrafine) guess=(read,tcheck) s
 table=opt
 ----------------------------------------------------------------------
 -----
 title
 -----
 Symbolic Z-matrix:
 Charge =  0 Multiplicity = 2

 SCF Done:  E(UHF) =  -564.645131786     A.U. after   24 cycles
 Normal termination of Gaussian 16 at Wed Apr  9 00:16:55 2025.
 Gaussian 16:  ES64L-G16RevC.01  3-Jul-2019

 ----------------------------------------------------------------------
 #t hf aug-cc-pvdz iop(5/13=1,5/36=2,99/5=2) pseudo=read geom=check gue
 ss=(read,tcheck) scf=(maxcycle=1)
 ----------------------------------------------------------------------
 -----
 title
 -----
 Structure from the checkpoint file:  "BDE49_nonexpt_2582_mol2.chk"
 Charge =  0 Multiplicity = 2

                         Standard orientation:
 ---------------------------------------------------------------------
 Center     Atomic      Atomic             Coordinates (Angstroms)
 Number     Number       Type             X           Y           Z
 ---------------------------------------------------------------------
      1         16           0       -1.405583   -0.257625    0.000000
      2          6           0        1.155843    0.122723    0.000000
      3          7           0        2.222038   -0.325577    0.000000
      4          8           0        0.000000    0.708087    0.000000
 ---------------------------------------------------------------------

 SCF Done:  E(UHF) =  -564.718686462     A.U. after    2 cycles

 The electronic state is 2-A".
 Alpha  occ. eigenvalues --  -93.67258 -20.72292 -15.65567 -11.36837  -8.96262
 Alpha  occ. eigenvalues --   -6.31452  -6.30013  -6.29267  -1.47622  -1.20617
 Alpha  occ. eigenvalues --   -1.03388  -0.81532  -0.73697  -0.70095  -0.56808
 Alpha  occ. eigenvalues --   -0.51774  -0.47432  -0.45704  -0.44763
 Alpha virt. eigenvalues --    0.02493   0.05846   0.08496   0.09205   0.09657
 Alpha virt. eigenvalues --    0.11822   0.12314   0.13457   0.18422   0.19348
 Alpha virt. eigenvalues --    0.20437   0.22345   0.23295   0.23680   0.27186

  Beta  occ. eigenvalues --  -93.66349 -20.71850 -15.65473 -11.36927  -8.95253
  Beta  occ. eigenvalues --   -6.29584  -6.28725  -6.27356  -1.46395  -1.20400
  Beta  occ. eigenvalues --   -0.97512  -0.78930  -0.69563  -0.67605  -0.56632
  Beta  occ. eigenvalues --   -0.47320  -0.46424  -0.42637
  Beta virt. eigenvalues --   -0.03456   0.03647   0.06010   0.09302   0.09633
  Beta virt. eigenvalues --    0.09831   0.11951   0.13444   0.14141   0.18471
  Beta virt. eigenvalues --    0.19557   0.20555   0.23179   0.23981   0.24127

 Mulliken charges and spin densities:
               1          2
     1  S    0.596168   0.977448
     2  C    0.024314  -0.030829
     3  N   -0.070506   0.030945
     4  O   -0.549976   0.022435
 Sum of Mulliken charges =   0.00000   1.00000

 Dipole moment (field-independent basis, Debye):
    X=             -3.8829    Y=              0.0137    Z=              0.0000  Tot=              3.8829
                          Isotropic Fermi Contact Couplings
        Atom                 a.u.       MegaHertz       Gauss      10(-4) cm-1
     1  S(33)              0.20343      69.87367      24.93266      23.30735
     2  C(13)             -0.01139     -12.80847      -4.57038      -4.27245
     3  N(14)              0.00723       2.33618       0.83361       0.77927
     4  O(17)              0.04833     -29.29477     -10.45310      -9.77168
 --------------------------------------------------------
       Center         ----  Spin Dipole Couplings  ----
                      3XX-RR        3YY-RR        3ZZ-RR
 --------------------------------------------------------

 Normal termination of Gaussian 16 at Wed Apr  9 00:16:57 2025.
