 Gaussian 16, Revision C.01,

 ----------------------------------------------------------------------
 #t hf aug-cc-pvdz symm=none int=(grid=ultrafine) guess=(read,tcheck) s
 table=opt
 ----------------------------------------------------------------------
 -----
 title
 -----
 Symbolic Z-matrix:
 Charge =  0 Multiplicity = 2

 SCF Done:  E(UHF) =  -308.483712915     A.U. after   17 cycles

 1\1\GINC-SE367\Stability\UHF\Aug-CC-pVDZ\C6H11O1\OHZDE\08-Apr-2025\0\\
 #t hf aug-cc-pvdz symm=none int=(grid=ultrafine) guess=(read,tcheck) s
 table=opt\\title\\0,2\C,0,-1.834643,0.025483,0.256933\C,0,-1.150757,-1
 .252515,-0.248421\C,0,0.329315,-1.301712,0.167402\C,0,1.02991,-0.02605
 1,-0.165042\H,0,0.845554,-2.139524,-0.311876\H,0,0.392924,-1.487886,1.
 25655\H,0,-1.218131,-1.286676,-1.34201\H,0,-1.671535,-2.137548,0.12950
 6\C,0,0.372445,1.276338,0.1734\C,0,-1.109616,1.283674,-0.240865\H,0,0.
 903036,2.109681,-0.307416\H,0,0.443578,1.459632,1.263559\H,0,-1.597889

 Normal termination of Gaussian 16 at Tue Apr  8 22:47:32 2025.
 Gaussian 16:  ES64L-G16RevC.01  3-Jul-2019

 ----------------------------------------------------------------------
 #t hf aug-cc-pvdz iop(5/13=1,5/36=2,99/5=2) pseudo=read geom=check gue
 ss=(read,tcheck) scf=(maxcycle=1)
 ----------------------------------------------------------------------
 -----
 title
 -----
 Structure from the checkpoint file:  "BDE49_expt_165_mol2.chk"
 Charge =  0 Multiplicity = 2

                         Standard orientation:
 ---------------------------------------------------------------------
 Center     Atomic      Atomic             Coordinates (Angstroms)
 Number     Number       Type             X           Y           Z
 ---------------------------------------------------------------------
      1          6           0       -1.834643    0.025483    0.256933
      2          6           0       -1.150757   -1.252515   -0.248421
      3          6           0        0.329315   -1.301712    0.167402
      4          6           0        1.029910   -0.026051   -0.165042
      5          1           0        0.845554   -2.139524   -0.311876
      6          1           0        0.392924   -1.487886    1.256550
      7          1           0       -1.218131   -1.286676   -1.342010
      8          1           0       -1.671535   -2.137548    0.129506
      9          6           0        0.372445    1.276338    0.173400
     10          6           0       -1.109616    1.283674   -0.240865
     11          1           0        0.903036    2.109681   -0.307416
     12          1           0        0.443578    1.459632    1.263559
     13          1           0       -1.597889    2.184429    0.143185
     14          1           0       -1.174452    1.326419   -1.334131
     15          1           0       -1.844672    0.022733    1.354906
     16          1           0       -2.880755    0.045552   -0.064804
     17          8           0        2.400226   -0.111101   -0.032848
     18          1           0        2.780614    0.760694   -0.185134
 ---------------------------------------------------------------------

 SCF Done:  E(UHF) =  -308.577668227     A.U. after    2 cycles

 The electronic state is 2-A.
 Alpha  occ. eigenvalues --  -20.58702 -11.28011 -11.23640 -11.23256 -11.22861
 Alpha  occ. eigenvalues --  -11.22795 -11.22542  -1.34827  -1.10420  -1.00457
 Alpha  occ. eigenvalues --   -0.98968  -0.85029  -0.82648  -0.75333  -0.69964
 Alpha  occ. eigenvalues --   -0.65209  -0.63144  -0.61366  -0.59966  -0.56402
 Alpha  occ. eigenvalues --   -0.54486  -0.53784  -0.50754  -0.49016  -0.46674
 Alpha  occ. eigenvalues --   -0.45688  -0.44382  -0.31166
 Alpha virt. eigenvalues --    0.03403   0.04075   0.04544   0.04667   0.06181
 Alpha virt. eigenvalues --    0.06543   0.06820   0.06993   0.07497   0.08925
 Alpha virt. eigenvalues --    0.09179   0.11898   0.13718   0.14233   0.14437

  Beta  occ. eigenvalues --  -20.58238 -11.25470 -11.23866 -11.23223 -11.22867
  Beta  occ. eigenvalues --  -11.22810 -11.22747  -1.33087  -1.09538  -1.00404
  Beta  occ. eigenvalues --   -0.96921  -0.84736  -0.81118  -0.74363  -0.68140
  Beta  occ. eigenvalues --   -0.64083  -0.61761  -0.59554  -0.57621  -0.55251
  Beta  occ. eigenvalues --   -0.53639  -0.51882  -0.50227  -0.48503  -0.46297
  Beta  occ. eigenvalues --   -0.45561  -0.43885
  Beta virt. eigenvalues --    0.03324   0.04081   0.04541   0.04679   0.06178
  Beta virt. eigenvalues --    0.06501   0.06771   0.06949   0.07527   0.08927
  Beta virt. eigenvalues --    0.09187   0.11483   0.13294   0.14276   0.14397

 Mulliken charges and spin densities:
               1          2
     1  C    0.235382   0.006793
     2  C    0.293750  -0.000648
     3  C    0.201610  -0.213208
     4  C    0.079634   1.254474
     5  H   -0.082670   0.004275
     6  H    0.031333   0.053139
     7  H   -0.107589  -0.004182
     8  H   -0.090899  -0.000191
     9  C    0.204368  -0.188269
    10  C    0.254085  -0.007759
    11  H   -0.147920   0.003070
    12  H    0.036335   0.054544
    13  H   -0.096416  -0.000767
    14  H   -0.107174  -0.004421
    15  H   -0.127917  -0.002140
    16  H   -0.092270   0.001707
    17  O   -0.634996   0.053289
    18  H    0.151354  -0.009708
 Sum of Mulliken charges =   0.00000   1.00000

 Dipole moment (field-independent basis, Debye):
    X=             -0.9582    Y=              1.4630    Z=             -0.0118  Tot=              1.7489
                          Isotropic Fermi Contact Couplings
        Atom                 a.u.       MegaHertz       Gauss      10(-4) cm-1
     1  C(13)             -0.00266      -2.99321      -1.06805      -0.99843
     2  C(13)              0.00848       9.52787       3.39978       3.17816
     3  C(13)             -0.04040     -45.41690     -16.20588     -15.14945
     4  C(13)              0.29950     336.70017     120.14299     112.31109
     5  H(1)               0.00651      29.07798      10.37575       9.69937
     6  H(1)               0.02063      92.21934      32.90615      30.76106
     7  H(1)              -0.00070      -3.13380      -1.11822      -1.04532
     8  H(1)              -0.00083      -3.70468      -1.32192      -1.23575

 Normal termination of Gaussian 16 at Tue Apr  8 22:47:38 2025.
