 Gaussian 16, Revision C.01,

 ----------------------------------------------------------------------
 #t hf aug-cc-pvdz symm=none int=(grid=ultrafine) guess=(read,tcheck) s
 table=opt
 ----------------------------------------------------------------------
 -----
 title
 -----
 Symbolic Z-matrix:
 Charge =  0 Multiplicity = 2

 SCF Done:  E(UHF) =  -484.652180958     A.U. after   15 cycles
 Normal termination of Gaussian 16 at Wed Apr  9 00:44:46 2025.
 Gaussian 16:  ES64L-G16RevC.01  3-Jul-2019

 ----------------------------------------------------------------------
 #t hf aug-cc-pvdz iop(5/13=1,5/36=2,99/5=2) pseudo=read geom=check gue
 ss=(read,tcheck) scf=(maxcycle=1)
 ----------------------------------------------------------------------
 -----
 title
 -----
 Structure from the checkpoint file:  "BDE49_nonexpt_806_mol2.chk"
 Charge =  0 Multiplicity = 2

                         Standard orientation:
 ---------------------------------------------------------------------
 Center     Atomic      Atomic             Coordinates (Angstroms)
 Number     Number       Type             X           Y           Z
 ---------------------------------------------------------------------
      1          6           0       -0.381092    0.000001    0.766932
      2          6           0        0.568057    1.204863    0.571831
      3          6           0        0.568057   -1.204862    0.571832
      4          6           0        1.520070   -0.778413   -0.570049
      5          1           0        0.050897   -2.144539    0.359313
      6          1           0        1.137456   -1.358868    1.495651
      7          6           0        1.520073    0.778411   -0.570048
      8          1           0        1.156368   -1.156353   -1.529097
      9          1           0        2.521290   -1.191503   -0.429120
     10          1           0        2.521293    1.191498   -0.429116
     11          1           0        1.156374    1.156353   -1.529098
     12          1           0        1.137455    1.358871    1.495650
     13          1           0        0.050898    2.144539    0.359309
     14         14           0       -1.875619   -0.000000   -0.412273
     15          1           0       -0.816666    0.000002    1.775008
     16          1           0       -2.713843    1.213963   -0.209829
     17          1           0       -2.713844   -1.213962   -0.209827
 ---------------------------------------------------------------------

 SCF Done:  E(UHF) =  -484.730376774     A.U. after    2 cycles

 The electronic state is 2-A.
 Alpha  occ. eigenvalues --  -69.06102 -11.23246 -11.23243 -11.22862 -11.22756
 Alpha  occ. eigenvalues --  -11.22712  -6.81475  -3.92823  -3.91935  -3.91910
 Alpha  occ. eigenvalues --   -1.10644  -0.95842  -0.95539  -0.78451  -0.77517
 Alpha  occ. eigenvalues --   -0.68501  -0.65628  -0.63274  -0.58020  -0.54968
 Alpha  occ. eigenvalues --   -0.49064  -0.48692  -0.48416  -0.47451  -0.46292
 Alpha  occ. eigenvalues --   -0.45246  -0.41725  -0.31240
 Alpha virt. eigenvalues --    0.03260   0.04494   0.04719   0.04880   0.06323
 Alpha virt. eigenvalues --    0.06653   0.06676   0.06743   0.07060   0.09102
 Alpha virt. eigenvalues --    0.09433   0.09717   0.09990   0.11479   0.13239

  Beta  occ. eigenvalues --  -69.05552 -11.23251 -11.23247 -11.22794 -11.22751
  Beta  occ. eigenvalues --  -11.22707  -6.80657  -3.91555  -3.91537  -3.90678
  Beta  occ. eigenvalues --   -1.10555  -0.95840  -0.95301  -0.77765  -0.77493
  Beta  occ. eigenvalues --   -0.66504  -0.65377  -0.61541  -0.57972  -0.54544
  Beta  occ. eigenvalues --   -0.48622  -0.48371  -0.48203  -0.47417  -0.46130
  Beta  occ. eigenvalues --   -0.44969  -0.40739
  Beta virt. eigenvalues --    0.03155   0.03969   0.04585   0.04894   0.05467
  Beta virt. eigenvalues --    0.06439   0.06730   0.06754   0.06773   0.08237
  Beta virt. eigenvalues --    0.09204   0.09461   0.10144   0.10638   0.11827

 Mulliken charges and spin densities:
               1          2
     1  C    0.072039  -0.085104
     2  C    0.371284   0.029985
     3  C    0.371282   0.029985
     4  C    0.189936  -0.000118
     5  H   -0.144227  -0.001444
     6  H   -0.120841  -0.000397
     7  C    0.189931  -0.000118
     8  H   -0.129879  -0.003734
     9  H   -0.110471   0.000243
    10  H   -0.110474   0.000243
    11  H   -0.129873  -0.003734
    12  H   -0.120841  -0.000397
    13  H   -0.144230  -0.001444
    14  Si  -0.272106   1.040194
    15  H   -0.088057  -0.014389
    16  H    0.088264   0.005114
    17  H    0.088264   0.005115
 Sum of Mulliken charges =  -0.00000   1.00000

 Dipole moment (field-independent basis, Debye):
    X=              0.8997    Y=             -0.0000    Z=              0.5154  Tot=              1.0369
                          Isotropic Fermi Contact Couplings
        Atom                 a.u.       MegaHertz       Gauss      10(-4) cm-1
     1  C(13)              0.00891      10.02037       3.57552       3.34244
     2  C(13)             -0.00041      -0.46142      -0.16465      -0.15391
     3  C(13)             -0.00041      -0.46142      -0.16465      -0.15391
     4  C(13)              0.00009       0.10161       0.03626       0.03389
     5  H(1)              -0.00004      -0.17144      -0.06117      -0.05719
     6  H(1)              -0.00031      -1.40481      -0.50127      -0.46859
     7  C(13)              0.00009       0.10160       0.03625       0.03389
     8  H(1)               0.00014       0.62147       0.22175       0.20730

 Normal termination of Gaussian 16 at Wed Apr  9 00:44:53 2025.
