 Gaussian 16, Revision C.01,

 ----------------------------------------------------------------------
 #t hf aug-cc-pvdz symm=none int=(grid=ultrafine) guess=(read,tcheck) s
 table=opt
 ----------------------------------------------------------------------
 -----
 title
 -----
 Symbolic Z-matrix:
 Charge =  0 Multiplicity = 2

 SCF Done:  E(UHF) =  -423.798020816     A.U. after   15 cycles
 Normal termination of Gaussian 16 at Wed Apr  9 00:03:37 2025.
 Gaussian 16:  ES64L-G16RevC.01  3-Jul-2019

 ----------------------------------------------------------------------
 #t hf aug-cc-pvdz iop(5/13=1,5/36=2,99/5=2) pseudo=read geom=check gue
 ss=(read,tcheck) scf=(maxcycle=1)
 ----------------------------------------------------------------------
 -----
 title
 -----
 Structure from the checkpoint file:  "BDE49_nonexpt_2228_mol2.chk"
 Charge =  0 Multiplicity = 2

                         Standard orientation:
 ---------------------------------------------------------------------
 Center     Atomic      Atomic             Coordinates (Angstroms)
 Number     Number       Type             X           Y           Z
 ---------------------------------------------------------------------
      1          7           0        0.000001    1.628002    0.245490
      2          6           0       -1.559075   -0.838959    0.187280
      3          6           0        1.559074   -0.838960    0.187279
      4         14           0       -0.000000    0.027370   -0.441954
      5          1           0       -1.554364   -0.885723    1.282333
      6          1           0       -1.617202   -1.858984   -0.201966
      7          1           0       -2.465127   -0.313846   -0.127926
      8          1           0       -0.827860    2.202713    0.158339
      9          1           0        0.827861    2.202711    0.158341
     10          1           0        1.554363   -0.885723    1.282333
     11          1           0        2.465126   -0.313848   -0.127927
     12          1           0        1.617200   -1.858986   -0.201966
 ---------------------------------------------------------------------

 SCF Done:  E(UHF) =  -423.870164619     A.U. after    2 cycles

 The electronic state is 2-A.
 Alpha  occ. eigenvalues --  -69.06479 -15.59992 -11.21204 -11.21199  -6.81518
 Alpha  occ. eigenvalues --   -3.92742  -3.92077  -3.91992  -1.09944  -0.94512
 Alpha  occ. eigenvalues --   -0.91975  -0.65849  -0.64788  -0.56894  -0.56510
 Alpha  occ. eigenvalues --   -0.54494  -0.54133  -0.49767  -0.44047  -0.43794
 Alpha  occ. eigenvalues --   -0.28234
 Alpha virt. eigenvalues --    0.03364   0.04501   0.04571   0.05266   0.06898
 Alpha virt. eigenvalues --    0.07106   0.07547   0.07715   0.09243   0.09612
 Alpha virt. eigenvalues --    0.10155   0.13581   0.15791   0.16171   0.17254

  Beta  occ. eigenvalues --  -69.06001 -15.59559 -11.21029 -11.21025  -6.80778
  Beta  occ. eigenvalues --   -3.91800  -3.91701  -3.90882  -1.08693  -0.93695
  Beta  occ. eigenvalues --   -0.91466  -0.64534  -0.63917  -0.56232  -0.55485
  Beta  occ. eigenvalues --   -0.54055  -0.53919  -0.48128  -0.42485  -0.40101
  Beta virt. eigenvalues --    0.02780   0.04569   0.04572   0.05347   0.06909
  Beta virt. eigenvalues --    0.07097   0.07358   0.07601   0.08842   0.09252
  Beta virt. eigenvalues --    0.10378   0.10391   0.14635   0.16248   0.16786

 Mulliken charges and spin densities:
               1          2
     1  N   -0.544895   0.096555
     2  C    0.288066   0.034113
     3  C    0.288065   0.034113
     4  Si   1.329050   0.878980
     5  H   -0.169105   0.011414
     6  H   -0.220673  -0.009832
     7  H   -0.240795  -0.009756
     8  H   -0.049570  -0.013706
     9  H   -0.049572  -0.013706
    10  H   -0.169101   0.011414
    11  H   -0.240798  -0.009756
    12  H   -0.220672  -0.009832
 Sum of Mulliken charges =  -0.00000   1.00000

 Dipole moment (field-independent basis, Debye):
    X=              0.0000    Y=              0.6787    Z=              0.0130  Tot=              0.6788
                          Isotropic Fermi Contact Couplings
        Atom                 a.u.       MegaHertz       Gauss      10(-4) cm-1
     1  N(14)              0.03894      12.58331       4.49004       4.19734
     2  C(13)              0.04317      48.53250      17.31760      16.18870
     3  C(13)              0.04317      48.53242      17.31758      16.18867
     4  Si(29)             0.51418    -456.96918    -163.05797    -152.42851
     5  H(1)               0.00673      30.09507      10.73867      10.03863
     6  H(1)              -0.00091      -4.05980      -1.44864      -1.35420
     7  H(1)              -0.00071      -3.15398      -1.12542      -1.05206
     8  H(1)              -0.00270     -12.07730      -4.30948      -4.02855

 Normal termination of Gaussian 16 at Wed Apr  9 00:03:41 2025.
