 Gaussian 16, Revision C.01,

 ----------------------------------------------------------------------
 #t hf aug-cc-pvdz symm=none int=(grid=ultrafine) guess=(read,tcheck) s
 table=opt
 ----------------------------------------------------------------------
 -----
 title
 -----
 Symbolic Z-matrix:
 Charge =  0 Multiplicity = 2

 SCF Done:  E(UHF) =  -1293.06088861     A.U. after   17 cycles

 1\1\GINC-SE343\Stability\UHF\Aug-CC-pVDZ\C2Cl2F3\OHZDE\08-Apr-2025\0\\
 #t hf aug-cc-pvdz symm=none int=(grid=ultrafine) guess=(read,tcheck) s
 table=opt\\title\\0,2\C,0,-0.28005,-0.413952,0.\C,0,0.190385,1.015824,
 0.\Cl,0,-0.256093,-1.278372,1.471253\Cl,0,-0.256093,-1.278372,-1.47125
 3\F,0,1.539425,1.107737,0.\F,0,-0.256093,1.66021,1.088396\F,0,-0.25609
 3,1.66021,-1.088396\\Version=ES64L-G16RevC.01\HF=-1293.0608886\S2=0.76
 9114\S2-1=0.\S2A=0.750298\RMSD=4.453e-09\Dipole=-0.1714627,-0.4405152,
 0.\Quadrupole=-0.5024096,-0.5038719,1.0062815,-0.1485203,0.,0.\PG=Unkn

 Normal termination of Gaussian 16 at Tue Apr  8 22:46:40 2025.
 Gaussian 16:  ES64L-G16RevC.01  3-Jul-2019

 ----------------------------------------------------------------------
 #t hf aug-cc-pvdz iop(5/13=1,5/36=2,99/5=2) pseudo=read geom=check gue
 ss=(read,tcheck) scf=(maxcycle=1)
 ----------------------------------------------------------------------
 -----
 title
 -----
 Structure from the checkpoint file:  "BDE49_expt_1633_mol2.chk"
 Charge =  0 Multiplicity = 2

                         Standard orientation:
 ---------------------------------------------------------------------
 Center     Atomic      Atomic             Coordinates (Angstroms)
 Number     Number       Type             X           Y           Z
 ---------------------------------------------------------------------
      1          6           0       -0.280050   -0.413952   -0.000000
      2          6           0        0.190385    1.015824    0.000000
      3         17           0       -0.256093   -1.278372    1.471253
      4         17           0       -0.256093   -1.278372   -1.471253
      5          9           0        1.539425    1.107737    0.000000
      6          9           0       -0.256093    1.660210    1.088396
      7          9           0       -0.256093    1.660210   -1.088396
 ---------------------------------------------------------------------

 SCF Done:  E(UHF) =  -1293.23346189     A.U. after    2 cycles

 The electronic state is 2-A'.
 Alpha  occ. eigenvalues -- -103.71818-103.71817 -26.18813 -26.18802 -26.18346
 Alpha  occ. eigenvalues --  -11.56226 -11.41311 -10.75111 -10.75099  -8.40745
 Alpha  occ. eigenvalues --   -8.40742  -8.40621  -8.40618  -8.40484  -8.40484
 Alpha  occ. eigenvalues --   -1.78378  -1.71475  -1.71057  -1.28672  -1.19525
 Alpha  occ. eigenvalues --   -1.08360  -0.95624  -0.90463  -0.90212  -0.81882
 Alpha  occ. eigenvalues --   -0.79504  -0.79504  -0.75103  -0.74765  -0.73678
 Alpha  occ. eigenvalues --   -0.67226  -0.65419  -0.63864  -0.53159  -0.52537
 Alpha  occ. eigenvalues --   -0.50217  -0.41245
 Alpha virt. eigenvalues --    0.05855   0.07415   0.08263   0.09423   0.10194
 Alpha virt. eigenvalues --    0.11329   0.12818   0.13760   0.14961   0.16266
 Alpha virt. eigenvalues --    0.16589   0.18062   0.18066   0.19176   0.20729

  Beta  occ. eigenvalues -- -103.71779-103.71779 -26.18796 -26.18786 -26.18136
  Beta  occ. eigenvalues --  -11.56470 -11.38364 -10.75067 -10.75055  -8.40963
  Beta  occ. eigenvalues --   -8.40958  -8.40457  -8.40457  -8.40245  -8.40245
  Beta  occ. eigenvalues --   -1.78191  -1.71425  -1.70566  -1.26055  -1.19119
  Beta  occ. eigenvalues --   -1.07361  -0.93549  -0.90181  -0.89659  -0.79335
  Beta  occ. eigenvalues --   -0.79076  -0.77944  -0.75009  -0.74562  -0.73506
  Beta  occ. eigenvalues --   -0.65927  -0.64281  -0.55629  -0.52482  -0.50590
  Beta  occ. eigenvalues --   -0.50017
  Beta virt. eigenvalues --    0.03944   0.06321   0.07578   0.08309   0.10025
  Beta virt. eigenvalues --    0.10917   0.11377   0.13185   0.13924   0.15065
  Beta virt. eigenvalues --    0.16597   0.17647   0.18111   0.18549   0.20712

 Mulliken charges and spin densities:
               1          2
     1  C   -0.340215   1.125003
     2  C    1.205561  -0.136372
     3  Cl  -0.035000  -0.002068
     4  Cl  -0.035000  -0.002068
     5  F   -0.280545   0.011970
     6  F   -0.257400   0.001768
     7  F   -0.257400   0.001768
 Sum of Mulliken charges =   0.00000   1.00000

 Dipole moment (field-independent basis, Debye):
    X=             -0.5117    Y=             -1.3310    Z=              0.0000  Tot=              1.4260
                          Isotropic Fermi Contact Couplings
        Atom                 a.u.       MegaHertz       Gauss      10(-4) cm-1
     1  C(13)              0.33882     380.90009     135.91462     127.05459
     2  C(13)             -0.05387     -60.56088     -21.60963     -20.20093
     3  Cl(35)             0.04284      18.78484       6.70290       6.26595
     4  Cl(35)             0.04284      18.78484       6.70290       6.26595
     5  F(19)              0.03403     143.16889      51.08622      47.75600
     6  F(19)              0.00094       3.96481       1.41474       1.32252
     7  F(19)              0.00094       3.96481       1.41474       1.32252
 --------------------------------------------------------

 Normal termination of Gaussian 16 at Tue Apr  8 22:46:43 2025.
