 Gaussian 16, Revision C.01,

 ----------------------------------------------------------------------
 #t hf aug-cc-pvdz symm=none int=(grid=ultrafine) guess=(read,tcheck) s
 table=(opt,rrhf)
 ----------------------------------------------------------------------
 -----
 title
 -----
 Symbolic Z-matrix:
 Charge =  0 Multiplicity = 1

 SCF Done:  E(RHF) =  -1049.93520042     A.U. after   15 cycles
 Normal termination of Gaussian 16 at Tue Apr  8 22:50:44 2025.
 Gaussian 16:  ES64L-G16RevC.01  3-Jul-2019

 ----------------------------------------------------------------------
 #t hf aug-cc-pvdz iop(5/13=1,5/36=2,99/5=2) pseudo=read geom=check gue
 ss=(read,tcheck) scf=(maxcycle=1)
 ----------------------------------------------------------------------
 -----
 title
 -----
 Structure from the checkpoint file:  "BDE49_expt_1796_mol1.chk"
 Charge =  0 Multiplicity = 1

                         Standard orientation:
 ---------------------------------------------------------------------
 Center     Atomic      Atomic             Coordinates (Angstroms)
 Number     Number       Type             X           Y           Z
 ---------------------------------------------------------------------
      1          8           0        1.107996    0.715696   -0.634606
      2          7           0        2.169749   -0.246023   -0.039457
      3          8           0        1.825702   -1.361341    0.144286
      4          8           0        3.178753    0.357630    0.107515
      5          8           0       -0.086070   -0.011433   -0.876000
      6          6           0       -0.994326    0.287661    0.137303
      7         17           0       -2.423140   -0.689033   -0.227643
      8          9           0       -1.301566    1.586021    0.145188
      9          9           0       -0.502873   -0.018762    1.342894
 ---------------------------------------------------------------------

 SCF Done:  E(RHF) =  -1050.15195634     A.U. after    2 cycles

 The electronic state is 1-A.
 Alpha  occ. eigenvalues -- -103.71701 -26.20335 -26.20067 -20.76664 -20.73883
 Alpha  occ. eigenvalues --  -20.70210 -20.69753 -16.03101 -11.58736 -10.75057
 Alpha  occ. eigenvalues --   -8.40786  -8.40431  -8.40424  -1.78319  -1.72814
 Alpha  occ. eigenvalues --   -1.65742  -1.52716  -1.48182  -1.30926  -1.21122
 Alpha  occ. eigenvalues --   -1.01612  -0.95580  -0.90529  -0.88984  -0.87095
 Alpha  occ. eigenvalues --   -0.84910  -0.82227  -0.81733  -0.79315  -0.76906
 Alpha  occ. eigenvalues --   -0.75729  -0.71971  -0.66245  -0.62885  -0.60136
 Alpha  occ. eigenvalues --   -0.58780  -0.55464  -0.55196  -0.52555  -0.52520
 Alpha virt. eigenvalues --    0.05500   0.06402   0.07318   0.09034   0.09584
 Alpha virt. eigenvalues --    0.10291   0.12112   0.12760   0.13100   0.14056
 Alpha virt. eigenvalues --    0.15040   0.15679   0.17030   0.19054   0.20706

 Mulliken charges:
               1
     1  O   -0.339915
     2  N    0.973228
     3  O   -0.341006
     4  O   -0.364648
     5  O   -0.310647
     6  C    0.983765
     7  Cl  -0.112006
     8  F   -0.239702
     9  F   -0.249069
 Sum of Mulliken charges =  -0.00000

 Dipole moment (field-independent basis, Debye):
    X=             -0.9453    Y=             -0.4469    Z=             -0.3572  Tot=              1.1050

 Test job not archived.
 1\1\GINC-SE339\SP\RHF\Aug-CC-pVDZ\C1Cl1F2N1O4\OHZDE\08-Apr-2025\0\\#t
 hf aug-cc-pvdz iop(5/13=1,5/36=2,99/5=2) pseudo=read geom=check guess=
 (read,tcheck) scf=(maxcycle=1)\\title\\0,1\O,0,1.107996,0.715696,-0.63
 4606\N,0,2.169749,-0.246023,-0.039457\O,0,1.825702,-1.361341,0.144286\
 O,0,3.178753,0.35763,0.107515\O,0,-0.08607,-0.011433,-0.876\C,0,-0.994
 326,0.287661,0.137303\Cl,0,-2.42314,-0.689033,-0.227643\F,0,-1.301566,
 1.586021,0.145188\F,0,-0.502873,-0.018762,1.342894\\Version=ES64L-G16R
 evC.01\State=1-A\HF=-1050.1519563\RMSD=3.931e-03\Dipole=-0.3719155,-0.

 Normal termination of Gaussian 16 at Tue Apr  8 22:50:48 2025.
