 Gaussian 16, Revision C.01,

 ----------------------------------------------------------------------
 #t hf aug-cc-pvdz symm=none int=(grid=ultrafine) guess=(read,tcheck) s
 table=(opt,rrhf)
 ----------------------------------------------------------------------
 -----
 title
 -----
 Symbolic Z-matrix:
 Charge =  0 Multiplicity = 1

 SCF Done:  E(RHF) =  -1208.13982836     A.U. after   13 cycles
 Normal termination of Gaussian 16 at Tue Apr  8 23:38:55 2025.
 Gaussian 16:  ES64L-G16RevC.01  3-Jul-2019

 ----------------------------------------------------------------------
 #t hf aug-cc-pvdz iop(5/13=1,5/36=2,99/5=2) pseudo=read geom=check gue
 ss=(read,tcheck) scf=(maxcycle=1)
 ----------------------------------------------------------------------
 -----
 title
 -----
 Structure from the checkpoint file:  "BDE49_nonexpt_1591_mol1.chk"
 Charge =  0 Multiplicity = 1

                         Standard orientation:
 ---------------------------------------------------------------------
 Center     Atomic      Atomic             Coordinates (Angstroms)
 Number     Number       Type             X           Y           Z
 ---------------------------------------------------------------------
      1         15           0       -1.383319    0.056986   -0.007992
      2          8           0       -0.000002   -0.000002    0.854152
      3         15           0        1.383319   -0.056986   -0.007986
      4          8           0       -1.344198    1.219129   -0.909492
      5          8           0       -1.509522   -1.385975   -0.617694
      6          8           0        1.344202   -1.219125   -0.909491
      7          8           0        1.509525    1.385977   -0.617681
      8          1           0        0.645464    1.688989   -0.965714
      9          1           0       -0.645459   -1.688984   -0.965724
     10          8           0        2.519905   -0.043260    1.082321
     11          1           0        2.898790   -0.918657    1.227864
     12          8           0       -2.519910    0.043256    1.082309
     13          1           0       -2.898795    0.918652    1.227854
 ---------------------------------------------------------------------

 SCF Done:  E(RHF) =  -1208.46250754     A.U. after    2 cycles

 The electronic state is 1-A.
 Alpha  occ. eigenvalues --  -81.48298 -81.48297 -20.65085 -20.65085 -20.64563
 Alpha  occ. eigenvalues --  -20.63149 -20.63149 -20.56167 -20.56167  -7.96187
 Alpha  occ. eigenvalues --   -7.96154  -5.10863  -5.10855  -5.10818  -5.10801
 Alpha  occ. eigenvalues --   -5.10771  -5.10706  -1.43891  -1.41586  -1.38674
 Alpha  occ. eigenvalues --   -1.37706  -1.36597  -1.30037  -1.29349  -0.91357
 Alpha  occ. eigenvalues --   -0.87684  -0.81132  -0.77521  -0.75852  -0.74139
 Alpha  occ. eigenvalues --   -0.71610  -0.70550  -0.69812  -0.65629  -0.64039
 Alpha  occ. eigenvalues --   -0.63871  -0.62049  -0.61094  -0.58801  -0.58647
 Alpha  occ. eigenvalues --   -0.58568  -0.52816  -0.52731  -0.52496  -0.51844
 Alpha virt. eigenvalues --    0.02773   0.03597   0.05889   0.06692   0.08504
 Alpha virt. eigenvalues --    0.08760   0.09744   0.09890   0.11682   0.12981
 Alpha virt. eigenvalues --    0.13503   0.15850   0.17538   0.18870   0.19224

 Mulliken charges:
               1
     1  P    2.405262
     2  O   -1.196951
     3  P    2.405261
     4  O   -0.893626
     5  O   -0.667734
     6  O   -0.893626
     7  O   -0.667734
     8  H    0.218433
     9  H    0.218433
    10  O   -0.624154
    11  H    0.160295
    12  O   -0.624153
    13  H    0.160295
 Sum of Mulliken charges =  -0.00000

 Dipole moment (field-independent basis, Debye):
    X=             -0.0000    Y=             -0.0000    Z=              2.8072  Tot=              2.8072

 Test job not archived.
 1\1\GINC-SE045\SP\RHF\Aug-CC-pVDZ\H4O7P2\OHZDE\08-Apr-2025\0\\#t hf au
 g-cc-pvdz iop(5/13=1,5/36=2,99/5=2) pseudo=read geom=check guess=(read
 ,tcheck) scf=(maxcycle=1)\\title\\0,1\P,0,-1.383319,0.056986,-0.007992
 \O,0,-0.000002,-0.000002,0.854152\P,0,1.383319,-0.056986,-0.007986\O,0
 ,-1.344198,1.219129,-0.909492\O,0,-1.509522,-1.385975,-0.617694\O,0,1.
 344202,-1.219125,-0.909491\O,0,1.509525,1.385977,-0.617681\H,0,0.64546
 4,1.688989,-0.965714\H,0,-0.645459,-1.688984,-0.965724\O,0,2.519905,-0
 .04326,1.082321\H,0,2.89879,-0.918657,1.227864\O,0,-2.51991,0.043256,1

 Normal termination of Gaussian 16 at Tue Apr  8 23:39:02 2025.
