 Gaussian 16, Revision C.01,

 ----------------------------------------------------------------------
 #t hf aug-cc-pvdz symm=none int=(grid=ultrafine) guess=(read,tcheck) s
 table=opt
 ----------------------------------------------------------------------
 -----
 title
 -----
 Symbolic Z-matrix:
 Charge =  0 Multiplicity = 2

 SCF Done:  E(UHF) =  -440.472469691     A.U. after   14 cycles

 1\1\GINC-SE127\Stability\UHF\Aug-CC-pVDZ\H3O2Si1\OHZDE\08-Apr-2025\0\\
 #t hf aug-cc-pvdz symm=none int=(grid=ultrafine) guess=(read,tcheck) s
 table=opt\\title\\0,2\Si,0,0.000621,0.499863,-0.148563\O,0,-1.370675,-
 0.378927,0.098341\H,0,-1.434408,-1.246209,-0.310559\O,0,1.293665,-0.50
 4518,0.125722\H,0,2.13485,-0.270727,-0.274395\H,0,-0.093055,1.586421,0
 .872338\\Version=ES64L-G16RevC.01\HF=-440.4724697\S2=0.754806\S2-1=0.\
 S2A=0.750013\RMSD=9.287e-09\Dipole=0.5237401,-0.0667049,-0.5977759\Qua
 drupole=1.0203538,0.2980057,-1.3183595,2.1026328,-0.2397347,1.1919779\

 Normal termination of Gaussian 16 at Tue Apr  8 23:41:09 2025.
 Gaussian 16:  ES64L-G16RevC.01  3-Jul-2019

 ----------------------------------------------------------------------
 #t hf aug-cc-pvdz iop(5/13=1,5/36=2,99/5=2) pseudo=read geom=check gue
 ss=(read,tcheck) scf=(maxcycle=1)
 ----------------------------------------------------------------------
 -----
 title
 -----
 Structure from the checkpoint file:  "BDE49_nonexpt_1676_mol3.chk"
 Charge =  0 Multiplicity = 2

                         Standard orientation:
 ---------------------------------------------------------------------
 Center     Atomic      Atomic             Coordinates (Angstroms)
 Number     Number       Type             X           Y           Z
 ---------------------------------------------------------------------
      1         14           0        0.000621    0.499863   -0.148563
      2          8           0       -1.370675   -0.378927    0.098341
      3          1           0       -1.434408   -1.246209   -0.310559
      4          8           0        1.293665   -0.504518    0.125722
      5          1           0        2.134850   -0.270727   -0.274395
      6          1           0       -0.093055    1.586421    0.872338
 ---------------------------------------------------------------------

 SCF Done:  E(UHF) =  -440.560681125     A.U. after    2 cycles

 The electronic state is 2-A.
 Alpha  occ. eigenvalues --  -69.12784 -20.58445 -20.57956  -6.87229  -3.98427
 Alpha  occ. eigenvalues --   -3.97876  -3.97683  -1.32468  -1.30385  -0.78308
 Alpha  occ. eigenvalues --   -0.72518  -0.62882  -0.60053  -0.56879  -0.55544
 Alpha  occ. eigenvalues --   -0.52208  -0.33359
 Alpha virt. eigenvalues --    0.03359   0.04691   0.05915   0.06660   0.07534
 Alpha virt. eigenvalues --    0.08463   0.12849   0.15950   0.16956   0.19384
 Alpha virt. eigenvalues --    0.20659   0.21623   0.22340   0.24421   0.25164

  Beta  occ. eigenvalues --  -69.12283 -20.58028 -20.57580  -6.86416  -3.97569
  Beta  occ. eigenvalues --   -3.97426  -3.96600  -1.31273  -1.29222  -0.77137
  Beta  occ. eigenvalues --   -0.72078  -0.59823  -0.58480  -0.54687  -0.53576
  Beta  occ. eigenvalues --   -0.49686
  Beta virt. eigenvalues --    0.02569   0.04872   0.05241   0.06158   0.07505
  Beta virt. eigenvalues --    0.08101   0.09220   0.15188   0.17242   0.18622
  Beta virt. eigenvalues --    0.19897   0.21179   0.22588   0.23547   0.25017

 Mulliken charges and spin densities:
               1          2
     1  Si   1.294239   0.836989
     2  O   -0.728533   0.023304
     3  H    0.132494  -0.007404
     4  O   -0.778097   0.045751
     5  H    0.134477  -0.022632
     6  H   -0.054580   0.123993
 Sum of Mulliken charges =  -0.00000   1.00000

 Dipole moment (field-independent basis, Debye):
    X=              1.3847    Y=             -0.1228    Z=             -1.6413  Tot=              2.1509
                          Isotropic Fermi Contact Couplings
        Atom                 a.u.       MegaHertz       Gauss      10(-4) cm-1
     1  Si(29)             0.67517    -600.03836    -214.10861    -200.15125
     2  O(17)              0.04295     -26.03623      -9.29038      -8.68475
     3  H(1)              -0.00199      -8.89848      -3.17520      -2.96821
     4  O(17)              0.05071     -30.73819     -10.96815     -10.25316
     5  H(1)              -0.00142      -6.33917      -2.26197      -2.11452
     6  H(1)               0.03648     163.05110      58.18069      54.38799
 --------------------------------------------------------
       Center         ----  Spin Dipole Couplings  ----

 Normal termination of Gaussian 16 at Tue Apr  8 23:41:10 2025.
