 Gaussian 16, Revision C.01,

 ----------------------------------------------------------------------
 #t hf aug-cc-pvdz symm=none int=(grid=ultrafine) guess=(read,tcheck) s
 table=(opt,rrhf)
 ----------------------------------------------------------------------
 -----
 title
 -----
 Symbolic Z-matrix:
 Charge =  0 Multiplicity = 1

 SCF Done:  E(RHF) =  -762.523290200     A.U. after   13 cycles
 Normal termination of Gaussian 16 at Wed Apr  9 00:13:31 2025.
 Gaussian 16:  ES64L-G16RevC.01  3-Jul-2019

 ----------------------------------------------------------------------
 #t hf aug-cc-pvdz iop(5/13=1,5/36=2,99/5=2) pseudo=read geom=check gue
 ss=(read,tcheck) scf=(maxcycle=1)
 ----------------------------------------------------------------------
 -----
 title
 -----
 Structure from the checkpoint file:  "BDE49_nonexpt_2503_mol1.chk"
 Charge =  0 Multiplicity = 1

                         Standard orientation:
 ---------------------------------------------------------------------
 Center     Atomic      Atomic             Coordinates (Angstroms)
 Number     Number       Type             X           Y           Z
 ---------------------------------------------------------------------
      1         16           0       -1.424101   -0.080689   -0.000000
      2         14           0        0.635977    0.394707   -0.000000
      3          1           0       -1.209581   -1.410789   -0.000000
      4          8           0        1.795240   -0.586375   -0.000000
      5          1           0        0.729600    1.866921    0.000001
 ---------------------------------------------------------------------

 SCF Done:  E(RHF) =  -762.601381938     A.U. after    2 cycles

 The electronic state is 1-A.
 Alpha  occ. eigenvalues --  -93.57778 -69.14992 -20.52905  -8.87733  -6.89846
 Alpha  occ. eigenvalues --   -6.21844  -6.21645  -6.21367  -4.00684  -4.00596
 Alpha  occ. eigenvalues --   -4.00468  -1.21483  -0.99671  -0.68348  -0.57637
 Alpha  occ. eigenvalues --   -0.54704  -0.51791  -0.48688  -0.45253  -0.42250
 Alpha virt. eigenvalues --    0.03626   0.03661   0.05032   0.06147   0.07429
 Alpha virt. eigenvalues --    0.08529   0.08635   0.11427   0.12386   0.13357
 Alpha virt. eigenvalues --    0.16164   0.16800   0.19495   0.21165   0.21996

 Mulliken charges:
               1
     1  S   -0.391868
     2  Si   1.440755
     3  H    0.107828
     4  O   -1.041687
     5  H   -0.115029
 Sum of Mulliken charges =  -0.00000

 Dipole moment (field-independent basis, Debye):
    X=             -3.2780    Y=              2.0572    Z=             -0.0000  Tot=              3.8700

 Test job not archived.
 1\1\GINC-SE069\SP\RHF\Aug-CC-pVDZ\H2O1S1Si1\OHZDE\09-Apr-2025\0\\#t hf
  aug-cc-pvdz iop(5/13=1,5/36=2,99/5=2) pseudo=read geom=check guess=(r
 ead,tcheck) scf=(maxcycle=1)\\title\\0,1\S,0,1.424101,-0.080689,0.\Si,
 0,-0.635978,0.394707,0.\H,0,1.209581,-1.410789,0.\O,0,-1.79524,-0.5863
 76,0.\H,0,-0.729601,1.866921,-0.000001\\Version=ES64L-G16RevC.01\State
 =1-A\HF=-762.6013819\RMSD=6.423e-03\Dipole=1.2896574,0.8093485,0.00000
 03\Quadrupole=-5.3219443,3.0237172,2.2982271,-4.6324574,-0.0000005,0.0
 000011\PG=C01 [X(H2O1S1Si1)]\\@

 Normal termination of Gaussian 16 at Wed Apr  9 00:13:32 2025.
