 Gaussian 16, Revision C.01,

 ----------------------------------------------------------------------
 #t hf aug-cc-pvdz symm=none int=(grid=ultrafine) guess=(read,tcheck) s
 table=(opt,rrhf)
 ----------------------------------------------------------------------
 -----
 title
 -----
 Symbolic Z-matrix:
 Charge =  0 Multiplicity = 1

 SCF Done:  E(RHF) =  -918.393956253     A.U. after   14 cycles
 Normal termination of Gaussian 16 at Wed Apr  9 00:13:45 2025.
 Gaussian 16:  ES64L-G16RevC.01  3-Jul-2019

 ----------------------------------------------------------------------
 #t hf aug-cc-pvdz iop(5/13=1,5/36=2,99/5=2) pseudo=read geom=check gue
 ss=(read,tcheck) scf=(maxcycle=1)
 ----------------------------------------------------------------------
 -----
 title
 -----
 Structure from the checkpoint file:  "BDE49_nonexpt_2477_mol1.chk"
 Charge =  0 Multiplicity = 1

                         Standard orientation:
 ---------------------------------------------------------------------
 Center     Atomic      Atomic             Coordinates (Angstroms)
 Number     Number       Type             X           Y           Z
 ---------------------------------------------------------------------
      1          6           0        2.237469   -1.299614    0.144663
      2          6           0        0.903127   -1.084557    0.476679
      3          6           0        0.318709    0.184496    0.330319
      4          6           0        1.115964    1.230971   -0.159002
      5          6           0        2.451900    1.017767   -0.492332
      6          6           0        3.013385   -0.247781   -0.340680
      7          1           0        2.672707   -2.285469    0.264599
      8          1           0        0.311705   -1.913490    0.852609
      9          1           0        0.691741    2.222497   -0.279939
     10          1           0        3.052960    1.837864   -0.869024
     11          1           0        4.053210   -0.414944   -0.598865
     12         14           0       -1.471753    0.479403    0.772558
     13         16           0       -2.688461   -0.407040   -0.794778
     14          1           0       -3.858962   -0.230259   -0.153924
     15          1           0       -1.722623    1.935511    0.865697
     16          1           0       -1.824147   -0.158416    2.061595
 ---------------------------------------------------------------------

 SCF Done:  E(RHF) =  -918.502964303     A.U. after    2 cycles

 The electronic state is 1-A.
 Alpha  occ. eigenvalues --  -93.52725 -69.09370 -11.25828 -11.25787 -11.25694
 Alpha  occ. eigenvalues --  -11.25201 -11.25187 -11.24296  -8.82625  -6.84414
 Alpha  occ. eigenvalues --   -6.16786  -6.16557  -6.16276  -3.95181  -3.95135
 Alpha  occ. eigenvalues --   -3.95108  -1.14843  -1.01825  -1.01680  -0.94635
 Alpha  occ. eigenvalues --   -0.83479  -0.83181  -0.72874  -0.67641  -0.63751
 Alpha  occ. eigenvalues --   -0.63519  -0.59997  -0.56217  -0.54852  -0.51144
 Alpha  occ. eigenvalues --   -0.50619  -0.49582  -0.45827  -0.43885  -0.37013
 Alpha  occ. eigenvalues --   -0.34868  -0.34716
 Alpha virt. eigenvalues --    0.03142   0.03886   0.04143   0.05275   0.05581
 Alpha virt. eigenvalues --    0.06051   0.07177   0.07698   0.08200   0.08645
 Alpha virt. eigenvalues --    0.09110   0.10149   0.11167   0.11351   0.12282

 Mulliken charges:
               1
     1  C    0.700107
     2  C    0.597820
     3  C   -0.612921
     4  C    0.451560
     5  C    0.651268
     6  C    0.610087
     7  H   -0.437150
     8  H   -0.608896
     9  H   -0.569372
    10  H   -0.442499
    11  H   -0.435827
    12  Si   0.561011
    13  S   -0.471635
    14  H    0.010145
    15  H   -0.025398
    16  H    0.021700
 Sum of Mulliken charges =   0.00000

 Dipole moment (field-independent basis, Debye):
    X=              1.0678    Y=              0.3357    Z=              0.8584  Tot=              1.4105

 Test job not archived.
 1\1\GINC-SE253\SP\RHF\Aug-CC-pVDZ\C6H8S1Si1\OHZDE\09-Apr-2025\0\\#t hf
  aug-cc-pvdz iop(5/13=1,5/36=2,99/5=2) pseudo=read geom=check guess=(r
 ead,tcheck) scf=(maxcycle=1)\\title\\0,1\C,0,2.237469,-1.299614,0.1446
 63\C,0,0.903127,-1.084557,0.476679\C,0,0.318709,0.184496,0.330319\C,0,
 1.115964,1.230971,-0.159002\C,0,2.4519,1.017767,-0.492332\C,0,3.013385
 ,-0.247781,-0.34068\H,0,2.672707,-2.285469,0.264599\H,0,0.311705,-1.91
 349,0.852609\H,0,0.691741,2.222497,-0.279939\H,0,3.05296,1.837864,-0.8
 69024\H,0,4.05321,-0.414944,-0.598865\Si,0,-1.471753,0.479403,0.772558

 Normal termination of Gaussian 16 at Wed Apr  9 00:13:53 2025.
