 Gaussian 16, Revision C.01,

 ----------------------------------------------------------------------
 #t hf aug-cc-pvdz symm=none int=(grid=ultrafine) guess=(read,tcheck) s
 table=(opt,rrhf)
 ----------------------------------------------------------------------
 -----
 title
 -----
 Symbolic Z-matrix:
 Charge =  0 Multiplicity = 1

 SCF Done:  E(RHF) =  -682.082783337     A.U. after   15 cycles
 Normal termination of Gaussian 16 at Tue Apr  8 23:38:14 2025.
 Gaussian 16:  ES64L-G16RevC.01  3-Jul-2019

 ----------------------------------------------------------------------
 #t hf aug-cc-pvdz iop(5/13=1,5/36=2,99/5=2) pseudo=read geom=check gue
 ss=(read,tcheck) scf=(maxcycle=1)
 ----------------------------------------------------------------------
 -----
 title
 -----
 Structure from the checkpoint file:  "BDE49_nonexpt_1579_mol1.chk"
 Charge =  0 Multiplicity = 1

                         Standard orientation:
 ---------------------------------------------------------------------
 Center     Atomic      Atomic             Coordinates (Angstroms)
 Number     Number       Type             X           Y           Z
 ---------------------------------------------------------------------
      1          6           0        0.407648    0.371117    0.359318
      2          7           0       -1.930719   -0.058987    0.749960
      3         15           0       -2.931278   -0.305541   -0.628553
      4          6           0        1.361670    1.293315   -0.094500
      5          6           0        2.639308    0.869687   -0.440824
      6          6           0        2.988598   -0.477147   -0.352255
      7          6           0        2.037401   -1.393338    0.091671
      8          6           0        0.756669   -0.981652    0.448333
      9          1           0        0.020258   -1.693613    0.796394
     10          1           0        1.098826    2.344322   -0.169670
     11          1           0        3.363895    1.597896   -0.788557
     12          1           0        3.983705   -0.805939   -0.627131
     13          1           0        2.292269   -2.445140    0.164576
     14          7           0       -0.852824    0.841057    0.773637
     15          1           0       -1.085508    1.748636    0.382222
     16          1           0       -1.921891   -0.674217   -1.552288
     17          1           0       -3.029252    1.023843   -1.148447
     18          1           0       -2.416104   -0.079045    1.635554
 ---------------------------------------------------------------------

 SCF Done:  E(RHF) =  -682.208428368     A.U. after    2 cycles

 The electronic state is 1-A.
 Alpha  occ. eigenvalues --  -81.28501 -15.66736 -15.65692 -11.28812 -11.24619
 Alpha  occ. eigenvalues --  -11.24463 -11.23762 -11.23213 -11.23130  -7.78533
 Alpha  occ. eigenvalues --   -4.92657  -4.92376  -4.92186  -1.26530  -1.14016
 Alpha  occ. eigenvalues --   -1.05899  -1.00739  -0.96226  -0.83550  -0.81658
 Alpha  occ. eigenvalues --   -0.79497  -0.71831  -0.69433  -0.66092  -0.62280
 Alpha  occ. eigenvalues --   -0.60956  -0.60331  -0.58775  -0.53483  -0.52539
 Alpha  occ. eigenvalues --   -0.51139  -0.49385  -0.44264  -0.40570  -0.36949
 Alpha  occ. eigenvalues --   -0.34017  -0.29643
 Alpha virt. eigenvalues --    0.03207   0.03952   0.04000   0.04663   0.05648
 Alpha virt. eigenvalues --    0.05770   0.07677   0.08363   0.08542   0.09156
 Alpha virt. eigenvalues --    0.10433   0.11032   0.11586   0.12503   0.12983

 Mulliken charges:
               1
     1  C    0.874315
     2  N   -0.570418
     3  P    0.407804
     4  C    0.242102
     5  C    0.552446
     6  C    0.482124
     7  C    0.569541
     8  C    0.313342
     9  H   -0.612225
    10  H   -0.570745
    11  H   -0.433678
    12  H   -0.458176
    13  H   -0.434745
    14  N   -0.401198
    15  H   -0.048016
    16  H    0.065043
    17  H   -0.014447
    18  H    0.036932
 Sum of Mulliken charges =   0.00000

 Dipole moment (field-independent basis, Debye):
    X=             -0.6493    Y=              1.0702    Z=             -0.1775  Tot=              1.2643

 Test job not archived.
 1\1\GINC-SE423\SP\RHF\Aug-CC-pVDZ\C6H9N2P1\OHZDE\08-Apr-2025\0\\#t hf
 aug-cc-pvdz iop(5/13=1,5/36=2,99/5=2) pseudo=read geom=check guess=(re
 ad,tcheck) scf=(maxcycle=1)\\title\\0,1\C,0,0.407648,0.371117,0.359318
 \N,0,-1.930719,-0.058987,0.74996\P,0,-2.931278,-0.305541,-0.628553\C,0
 ,1.36167,1.293315,-0.0945\C,0,2.639308,0.869687,-0.440824\C,0,2.988598
 ,-0.477147,-0.352255\C,0,2.037401,-1.393338,0.091671\C,0,0.756669,-0.9
 81652,0.448333\H,0,0.020258,-1.693613,0.796394\H,0,1.098826,2.344322,-
 0.16967\H,0,3.363895,1.597896,-0.788557\H,0,3.983705,-0.805939,-0.6271

 Normal termination of Gaussian 16 at Tue Apr  8 23:38:22 2025.
