 Gaussian 16, Revision C.01,

 ----------------------------------------------------------------------
 #t hf aug-cc-pvdz symm=none int=(grid=ultrafine) guess=(read,tcheck) s
 table=opt
 ----------------------------------------------------------------------
 -----
 title
 -----
 Symbolic Z-matrix:
 Charge =  0 Multiplicity = 2

 SCF Done:  E(UHF) =  -613.460875372     A.U. after   20 cycles
 Normal termination of Gaussian 16 at Tue Apr  8 23:56:19 2025.
 Gaussian 16:  ES64L-G16RevC.01  3-Jul-2019

 ----------------------------------------------------------------------
 #t hf aug-cc-pvdz iop(5/13=1,5/36=2,99/5=2) pseudo=read geom=check gue
 ss=(read,tcheck) scf=(maxcycle=1)
 ----------------------------------------------------------------------
 -----
 title
 -----
 Structure from the checkpoint file:  "BDE49_nonexpt_203_mol2.chk"
 Charge =  0 Multiplicity = 2

                         Standard orientation:
 ---------------------------------------------------------------------
 Center     Atomic      Atomic             Coordinates (Angstroms)
 Number     Number       Type             X           Y           Z
 ---------------------------------------------------------------------
      1         17           0        0.000000    0.000000    1.692792
      2          5           0        0.000000    0.000000   -0.001929
      3          7           0        0.000000    0.000000   -1.263856
      4          8           0        0.000000    0.000000   -2.490102
 ---------------------------------------------------------------------

 SCF Done:  E(UHF) =  -613.529936429     A.U. after    2 cycles

 Unable to determine electronic state:  an orbital has unidentified symmetry.
 Alpha  occ. eigenvalues -- -103.71916 -20.68380 -15.71434 -10.75339  -8.41025
 Alpha  occ. eigenvalues --   -8.40837  -8.40758  -7.72696  -1.48358  -1.21221
 Alpha  occ. eigenvalues --   -1.06158  -0.77528  -0.74695  -0.68898  -0.67041
 Alpha  occ. eigenvalues --   -0.55991  -0.55377  -0.42086  -0.38987
 Alpha virt. eigenvalues --    0.03682   0.04840   0.04985   0.05817   0.12306
 Alpha virt. eigenvalues --    0.13539   0.13834   0.15105   0.17526   0.17922
 Alpha virt. eigenvalues --    0.18363   0.20552   0.21194   0.22609   0.24366

  Beta  occ. eigenvalues -- -103.71898 -20.64831 -15.71640 -10.75320  -8.41082
  Beta  occ. eigenvalues --   -8.40745  -8.40700  -7.72258  -1.40759  -1.21046
  Beta  occ. eigenvalues --   -1.01299  -0.73479  -0.66745  -0.66649  -0.56446
  Beta  occ. eigenvalues --   -0.55097  -0.52145  -0.37426
  Beta virt. eigenvalues --    0.03583   0.03764   0.04977   0.05026   0.05849
  Beta virt. eigenvalues --    0.12351   0.13792   0.13988   0.15717   0.18153
  Beta virt. eigenvalues --    0.18461   0.19681   0.21443   0.22617   0.24645

 Mulliken charges and spin densities:
               1          2
     1  Cl  -0.133093   0.006527
     2  B    0.062254   0.232655
     3  N    0.346141  -0.047371
     4  O   -0.275303   0.808189
 Sum of Mulliken charges =   0.00000   1.00000

 Dipole moment (field-independent basis, Debye):
    X=              0.0000    Y=             -0.0000    Z=              2.2343  Tot=              2.2343
                          Isotropic Fermi Contact Couplings
        Atom                 a.u.       MegaHertz       Gauss      10(-4) cm-1
     1  Cl(35)             0.01140       4.99730       1.78316       1.66692
     2  B(11)              0.02449      35.12235      12.53253      11.71555
     3  N(14)             -0.08959     -28.94850     -10.32954      -9.65618
     4  O(17)              0.28206    -170.98464     -61.01157     -57.03434
 --------------------------------------------------------
       Center         ----  Spin Dipole Couplings  ----
                      3XX-RR        3YY-RR        3ZZ-RR
 --------------------------------------------------------

 Normal termination of Gaussian 16 at Tue Apr  8 23:56:20 2025.
