 Gaussian 16, Revision C.01,

 ----------------------------------------------------------------------
 #t hf aug-cc-pvdz symm=none int=(grid=ultrafine) guess=(read,tcheck) s
 table=(opt,rrhf)
 ----------------------------------------------------------------------
 -----
 title
 -----
 Symbolic Z-matrix:
 Charge =  0 Multiplicity = 1

 SCF Done:  E(RHF) =  -837.541289866     A.U. after   17 cycles
 Normal termination of Gaussian 16 at Wed Apr  9 00:51:08 2025.
 Gaussian 16:  ES64L-G16RevC.01  3-Jul-2019

 ----------------------------------------------------------------------
 #t hf aug-cc-pvdz iop(5/13=1,5/36=2,99/5=2) pseudo=read geom=check gue
 ss=(read,tcheck) scf=(maxcycle=1)
 ----------------------------------------------------------------------
 -----
 title
 -----
 Structure from the checkpoint file:  "BDE49_nonexpt_932_mol1.chk"
 Charge =  0 Multiplicity = 1

                         Standard orientation:
 ---------------------------------------------------------------------
 Center     Atomic      Atomic             Coordinates (Angstroms)
 Number     Number       Type             X           Y           Z
 ---------------------------------------------------------------------
      1         17           0       -2.447712   -0.956165   -0.267066
      2          7           0       -1.233865    0.103382    0.511194
      3          6           0       -1.398291    1.515083    0.062168
      4          7           0       -0.023310    2.039806    0.102374
      5          1           0        0.156494    2.796717   -0.543971
      6          6           0        0.113619   -0.243426    0.229576
      7          6           0        0.732608   -1.481543    0.257393
      8          1           0        0.155863   -2.383326    0.420342
      9          6           0        2.838552   -0.360028   -0.185723
     10          1           0        3.907727   -0.415710   -0.354375
     11          6           0        0.836639    0.934202    0.003200
     12          6           0        2.113856   -1.529178    0.040985
     13          1           0        2.621148   -2.486340    0.045392
     14          6           0        2.209106    0.889354   -0.201128
     15          1           0        2.775687    1.797006   -0.375442
     16          1           0       -1.831662    1.557175   -0.947394
     17          1           0       -2.050469    2.040181    0.761774
 ---------------------------------------------------------------------

 SCF Done:  E(RHF) =  -837.668598947     A.U. after    2 cycles

 The electronic state is 1-A.
 Alpha  occ. eigenvalues -- -103.68574 -15.70615 -15.64896 -11.32553 -11.29187
 Alpha  occ. eigenvalues --  -11.28422 -11.25245 -11.24972 -11.24842 -11.24313
 Alpha  occ. eigenvalues --  -10.71531  -8.37268  -8.36923  -8.36890  -1.29788
 Alpha  occ. eigenvalues --   -1.19921  -1.13534  -1.07727  -1.00807  -1.00112
 Alpha  occ. eigenvalues --   -0.87886  -0.83871  -0.81160  -0.72378  -0.68494
 Alpha  occ. eigenvalues --   -0.67356  -0.66599  -0.61542  -0.61091  -0.58118
 Alpha  occ. eigenvalues --   -0.57666  -0.54082  -0.53098  -0.52382  -0.50639
 Alpha  occ. eigenvalues --   -0.47169  -0.44316  -0.42287  -0.33627  -0.29266
 Alpha virt. eigenvalues --    0.02931   0.03679   0.04281   0.05233   0.05611
 Alpha virt. eigenvalues --    0.05978   0.07783   0.08040   0.09912   0.10521
 Alpha virt. eigenvalues --    0.11763   0.11942   0.12653   0.13617   0.13817

 Mulliken charges:
               1
     1  Cl   0.091650
     2  N   -1.080660
     3  C    1.224666
     4  N   -0.656786
     5  H   -0.055781
     6  C   -0.098611
     7  C    0.933918
     8  H   -0.525992
     9  C    0.572126
    10  H   -0.451023
    11  C   -0.231578
    12  C    0.578101
    13  H   -0.456952
    14  C    1.165700
    15  H   -0.519392
    16  H   -0.284198
    17  H   -0.205186
 Sum of Mulliken charges =   0.00000

 Dipole moment (field-independent basis, Debye):
    X=              0.7762    Y=              1.8990    Z=             -1.3577  Tot=              2.4601

 Test job not archived.
 1\1\GINC-SE187\SP\RHF\Aug-CC-pVDZ\C7H7Cl1N2\OHZDE\09-Apr-2025\0\\#t hf
  aug-cc-pvdz iop(5/13=1,5/36=2,99/5=2) pseudo=read geom=check guess=(r
 ead,tcheck) scf=(maxcycle=1)\\title\\0,1\Cl,0,2.447712,-0.956165,0.267
 066\N,0,1.233865,0.103382,-0.511194\C,0,1.398291,1.515083,-0.062168\N,
 0,0.02331,2.039806,-0.102374\H,0,-0.156494,2.796717,0.543971\C,0,-0.11
 3619,-0.243426,-0.229576\C,0,-0.732608,-1.481543,-0.257393\H,0,-0.1558
 63,-2.383326,-0.420342\C,0,-2.838552,-0.360028,0.185723\H,0,-3.907727,
 -0.41571,0.354375\C,0,-0.836639,0.934202,-0.0032\C,0,-2.113856,-1.5291

 Normal termination of Gaussian 16 at Wed Apr  9 00:51:19 2025.
