 Gaussian 16, Revision C.01,

 ----------------------------------------------------------------------
 #t hf aug-cc-pvdz symm=none int=(grid=ultrafine) guess=(read,tcheck) s
 table=(opt,rrhf)
 ----------------------------------------------------------------------
 -----
 title
 -----
 Symbolic Z-matrix:
 Charge =  0 Multiplicity = 1

 SCF Done:  E(RHF) =  -463.376832750     A.U. after   12 cycles
 Normal termination of Gaussian 16 at Tue Apr  8 23:50:36 2025.
 Gaussian 16:  ES64L-G16RevC.01  3-Jul-2019

 ----------------------------------------------------------------------
 #t hf aug-cc-pvdz iop(5/13=1,5/36=2,99/5=2) pseudo=read geom=check gue
 ss=(read,tcheck) scf=(maxcycle=1)
 ----------------------------------------------------------------------
 -----
 title
 -----
 Structure from the checkpoint file:  "BDE49_nonexpt_1899_mol1.chk"
 Charge =  0 Multiplicity = 1

                         Standard orientation:
 ---------------------------------------------------------------------
 Center     Atomic      Atomic             Coordinates (Angstroms)
 Number     Number       Type             X           Y           Z
 ---------------------------------------------------------------------
      1         14           0       -1.944672   -0.015716   -0.127055
      2          6           0       -0.242591   -0.575082    0.495731
      3          1           0       -2.096396    1.458636   -0.116564
      4          1           0       -2.989391   -0.588881    0.758243
      5          1           0       -2.160505   -0.503122   -1.508418
      6          7           0        0.870722   -0.008726   -0.273946
      7          6           0        1.146659    1.374116    0.094164
      8          1           0        1.478836    1.476613    1.145297
      9          1           0        0.255608    1.989944   -0.038608
     10          1           0        1.931358    1.777118   -0.550570
     11          6           0        2.076168   -0.822904   -0.170537
     12          1           0        1.872153   -1.836548   -0.523089
     13          1           0        2.464853   -0.887946    0.863564
     14          1           0        2.861466   -0.398787   -0.801684
     15          1           0       -0.230969   -1.663317    0.367738
     16          1           0       -0.138073   -0.399375    1.584329
 ---------------------------------------------------------------------

 SCF Done:  E(RHF) =  -463.456462946     A.U. after    2 cycles

 The electronic state is 1-A.
 Alpha  occ. eigenvalues --  -69.05574 -15.61784 -11.25507 -11.25490 -11.25041
 Alpha  occ. eigenvalues --   -6.80905  -3.91686  -3.91674  -3.91661  -1.19239
 Alpha  occ. eigenvalues --   -0.94946  -0.94566  -0.80337  -0.69183  -0.64121
 Alpha  occ. eigenvalues --   -0.63597  -0.60907  -0.55284  -0.54119  -0.51701
 Alpha  occ. eigenvalues --   -0.51224  -0.47085  -0.46544  -0.44641  -0.34743
 Alpha virt. eigenvalues --    0.03428   0.04242   0.04465   0.04725   0.06450
 Alpha virt. eigenvalues --    0.07023   0.07364   0.07458   0.08147   0.09007
 Alpha virt. eigenvalues --    0.09644   0.09995   0.10409   0.11922   0.13309

 Mulliken charges:
               1
     1  Si   0.185780
     2  C    0.426350
     3  H   -0.039344
     4  H    0.012914
     5  H    0.072578
     6  N   -0.808169
     7  C    0.712978
     8  H   -0.020783
     9  H   -0.279268
    10  H   -0.155646
    11  C    0.682954
    12  H   -0.236546
    13  H    0.033034
    14  H   -0.195423
    15  H   -0.224902
    16  H   -0.166508
 Sum of Mulliken charges =   0.00000

 Dipole moment (field-independent basis, Debye):
    X=              0.9364    Y=             -0.1747    Z=              0.7702  Tot=              1.2250

 Test job not archived.
 1\1\GINC-SE252\SP\RHF\Aug-CC-pVDZ\C3H11N1Si1\OHZDE\08-Apr-2025\0\\#t h
 f aug-cc-pvdz iop(5/13=1,5/36=2,99/5=2) pseudo=read geom=check guess=(
 read,tcheck) scf=(maxcycle=1)\\title\\0,1\Si,0,-1.944672,-0.015716,-0.
 127055\C,0,-0.242591,-0.575082,0.495731\H,0,-2.096396,1.458636,-0.1165
 64\H,0,-2.989391,-0.588881,0.758243\H,0,-2.160505,-0.503122,-1.508418\
 N,0,0.870722,-0.008726,-0.273946\C,0,1.146659,1.374116,0.094164\H,0,1.
 478836,1.476613,1.145297\H,0,0.255608,1.989944,-0.038608\H,0,1.931358,
 1.777118,-0.55057\C,0,2.076168,-0.822904,-0.170537\H,0,1.872153,-1.836

 Normal termination of Gaussian 16 at Tue Apr  8 23:50:41 2025.
