 Gaussian 16, Revision C.01,

 ----------------------------------------------------------------------
 #t hf aug-cc-pvdz symm=none int=(grid=ultrafine) guess=(read,tcheck) s
 table=(opt,rrhf)
 ----------------------------------------------------------------------
 -----
 title
 -----
 Symbolic Z-matrix:
 Charge =  0 Multiplicity = 1

 SCF Done:  E(RHF) =  -198.613199811     A.U. after   12 cycles
 Normal termination of Gaussian 16 at Wed Apr  9 00:36:00 2025.
 Gaussian 16:  ES64L-G16RevC.01  3-Jul-2019

 ----------------------------------------------------------------------
 #t hf aug-cc-pvdz iop(5/13=1,5/36=2,99/5=2) pseudo=read geom=check gue
 ss=(read,tcheck) scf=(maxcycle=1)
 ----------------------------------------------------------------------
 -----
 title
 -----
 Structure from the checkpoint file:  "BDE49_nonexpt_549_mol1.chk"
 Charge =  0 Multiplicity = 1

                         Standard orientation:
 ---------------------------------------------------------------------
 Center     Atomic      Atomic             Coordinates (Angstroms)
 Number     Number       Type             X           Y           Z
 ---------------------------------------------------------------------
      1          5           0        2.518739    0.268136   -0.349932
      2          7           0        1.412677   -0.317037    0.249284
      3          6           0       -2.393873    0.197075   -0.073333
      4          6           0        0.097177    0.280875    0.460996
      5          6           0       -1.016590   -0.423618   -0.321923
      6          1           0        0.161544    1.329307    0.160009
      7          1           0       -0.146191    0.267886    1.531419
      8          1           0       -1.034703   -1.484749   -0.044254
      9          1           0       -0.771447   -0.387059   -1.388418
     10          1           0       -2.414063    1.249295   -0.372994
     11          1           0       -2.667800    0.148722    0.985159
     12          1           0       -3.169853   -0.323003   -0.640129
     13          1           0        3.521735   -0.369263   -0.456725
     14          1           0        2.440060    1.393384   -0.741540
     15          1           0        1.477996   -1.271928    0.577702
 ---------------------------------------------------------------------

 SCF Done:  E(RHF) =  -198.679359041     A.U. after    2 cycles

 The electronic state is 1-A.
 Alpha  occ. eigenvalues --  -15.61831 -11.26730 -11.23462 -11.22945  -7.59092
 Alpha  occ. eigenvalues --   -1.16072  -1.03464  -0.90826  -0.81238  -0.72290
 Alpha  occ. eigenvalues --   -0.64807  -0.62443  -0.58099  -0.56156  -0.53863
 Alpha  occ. eigenvalues --   -0.51017  -0.49764  -0.48001  -0.45578  -0.39442
 Alpha virt. eigenvalues --    0.03376   0.03869   0.04259   0.04654   0.06155
 Alpha virt. eigenvalues --    0.06515   0.06636   0.07306   0.08574   0.09111
 Alpha virt. eigenvalues --    0.09392   0.11165   0.12468   0.12842   0.13789

 Mulliken charges:
               1
     1  B   -0.535513
     2  N   -0.323625
     3  C    0.308735
     4  C    0.794905
     5  C    0.085401
     6  H   -0.279303
     7  H   -0.139713
     8  H   -0.103984
     9  H   -0.089029
    10  H   -0.052856
    11  H   -0.055094
    12  H   -0.080768
    13  H    0.349358
    14  H    0.157077
    15  H   -0.035591
 Sum of Mulliken charges =   0.00000

 Dipole moment (field-independent basis, Debye):
    X=             -1.5635    Y=             -0.7438    Z=              0.6504  Tot=              1.8496

 Test job not archived.
 1\1\GINC-SE362\SP\RHF\Aug-CC-pVDZ\C3H10B1N1\OHZDE\09-Apr-2025\0\\#t hf
  aug-cc-pvdz iop(5/13=1,5/36=2,99/5=2) pseudo=read geom=check guess=(r
 ead,tcheck) scf=(maxcycle=1)\\title\\0,1\B,0,2.518739,0.268136,-0.3499
 32\N,0,1.412677,-0.317037,0.249284\C,0,-2.393873,0.197075,-0.073333\C,
 0,0.097177,0.280875,0.460996\C,0,-1.01659,-0.423618,-0.321923\H,0,0.16
 1544,1.329307,0.160009\H,0,-0.146191,0.267886,1.531419\H,0,-1.034703,-
 1.484749,-0.044254\H,0,-0.771447,-0.387059,-1.388418\H,0,-2.414063,1.2
 49295,-0.372994\H,0,-2.6678,0.148722,0.985159\H,0,-3.169853,-0.323003,

 Normal termination of Gaussian 16 at Wed Apr  9 00:36:03 2025.
