 Gaussian 16, Revision C.01,

 ----------------------------------------------------------------------
 #t hf aug-cc-pvdz symm=none int=(grid=ultrafine) guess=(read,tcheck) s
 table=(opt,rrhf)
 ----------------------------------------------------------------------
 -----
 title
 -----
 Symbolic Z-matrix:
 Charge =  0 Multiplicity = 1

 SCF Done:  E(RHF) =  -1203.60414677     A.U. after   15 cycles
 Normal termination of Gaussian 16 at Tue Apr  8 22:50:26 2025.
 Gaussian 16:  ES64L-G16RevC.01  3-Jul-2019

 ----------------------------------------------------------------------
 #t hf aug-cc-pvdz iop(5/13=1,5/36=2,99/5=2) pseudo=read geom=check gue
 ss=(read,tcheck) scf=(maxcycle=1)
 ----------------------------------------------------------------------
 -----
 title
 -----
 Structure from the checkpoint file:  "BDE49_expt_1732_mol1.chk"
 Charge =  0 Multiplicity = 1

                         Standard orientation:
 ---------------------------------------------------------------------
 Center     Atomic      Atomic             Coordinates (Angstroms)
 Number     Number       Type             X           Y           Z
 ---------------------------------------------------------------------
      1          6           0        2.232373   -0.000001    1.290153
      2          6           0        0.859746   -0.000001    1.096188
      3          6           0        3.067118   -0.000000    0.170966
      4          7           0        2.615594    0.000001   -1.084152
      5          6           0        1.292262    0.000001   -1.259386
      6          6           0        0.370052    0.000000   -0.211536
      7          1           0        2.655442   -0.000002    2.287298
      8          1           0        0.176112   -0.000002    1.937091
      9          1           0        0.946390    0.000002   -2.290445
     10          6           0       -1.092518    0.000000   -0.527631
     11         17           0       -1.921694    1.480605    0.106171
     12         17           0       -1.921694   -1.480605    0.106169
     13          1           0       -1.270428    0.000001   -1.597571
     14          1           0        4.146737   -0.000000    0.290383
 ---------------------------------------------------------------------

 SCF Done:  E(RHF) =  -1203.72113692     A.U. after    2 cycles

 The electronic state is 1-A.
 Alpha  occ. eigenvalues -- -103.67618-103.67618 -15.64736 -11.39442 -11.30713
 Alpha  occ. eigenvalues --  -11.30398 -11.28714 -11.28270 -11.26780 -10.70882
 Alpha  occ. eigenvalues --  -10.70878  -8.36597  -8.36595  -8.36287  -8.36286
 Alpha  occ. eigenvalues --   -8.36285  -8.36283  -1.25345  -1.22064  -1.14059
 Alpha  occ. eigenvalues --   -1.09962  -1.05787  -0.93531  -0.88071  -0.83748
 Alpha  occ. eigenvalues --   -0.73801  -0.70839  -0.67429  -0.62574  -0.61513
 Alpha  occ. eigenvalues --   -0.61283  -0.59522  -0.55296  -0.55146  -0.49008
 Alpha  occ. eigenvalues --   -0.49002  -0.46628  -0.46060  -0.42878  -0.39728
 Alpha  occ. eigenvalues --   -0.36582
 Alpha virt. eigenvalues --    0.03124   0.03777   0.04487   0.06214   0.06350
 Alpha virt. eigenvalues --    0.06498   0.07760   0.08828   0.08835   0.10436
 Alpha virt. eigenvalues --    0.10566   0.12033   0.12336   0.12916   0.13557

 Mulliken charges:
               1
     1  C    0.584035
     2  C   -0.152706
     3  C    0.476681
     4  N   -0.506307
     5  C    0.684374
     6  C    1.035285
     7  H   -0.371315
     8  H   -0.516994
     9  H   -0.408670
    10  C   -0.121454
    11  Cl  -0.094058
    12  Cl  -0.094058
    13  H   -0.178258
    14  H   -0.336555
 Sum of Mulliken charges =  -0.00000

 Dipole moment (field-independent basis, Debye):
    X=              1.0549    Y=             -0.0000    Z=              0.7997  Tot=              1.3238

 Test job not archived.
 1\1\GINC-SE084\SP\RHF\Aug-CC-pVDZ\C6H5Cl2N1\OHZDE\08-Apr-2025\0\\#t hf
  aug-cc-pvdz iop(5/13=1,5/36=2,99/5=2) pseudo=read geom=check guess=(r
 ead,tcheck) scf=(maxcycle=1)\\title\\0,1\C,0,2.232373,-0.000001,1.2901
 53\C,0,0.859746,-0.000001,1.096188\C,0,3.067118,0.,0.170966\N,0,2.6155
 94,0.000001,-1.084152\C,0,1.292262,0.000001,-1.259386\C,0,0.370052,0.,
 -0.211536\H,0,2.655442,-0.000002,2.287298\H,0,0.176112,-0.000002,1.937
 091\H,0,0.94639,0.000002,-2.290445\C,0,-1.092518,0.,-0.527631\Cl,0,-1.
 921694,1.480605,0.106171\Cl,0,-1.921694,-1.480605,0.106169\H,0,-1.2704

 Normal termination of Gaussian 16 at Tue Apr  8 22:50:36 2025.
