 Gaussian 16, Revision C.01,

 ----------------------------------------------------------------------
 #t hf aug-cc-pvdz symm=none int=(grid=ultrafine) guess=(read,tcheck) s
 table=opt
 ----------------------------------------------------------------------
 -----
 title
 -----
 Symbolic Z-matrix:
 Charge =  0 Multiplicity = 2

 SCF Done:  E(UHF) =  -632.699543558     A.U. after   20 cycles
 Normal termination of Gaussian 16 at Wed Apr  9 00:08:34 2025.
 Gaussian 16:  ES64L-G16RevC.01  3-Jul-2019

 ----------------------------------------------------------------------
 #t hf aug-cc-pvdz iop(5/13=1,5/36=2,99/5=2) pseudo=read geom=check gue
 ss=(read,tcheck) scf=(maxcycle=1)
 ----------------------------------------------------------------------
 -----
 title
 -----
 Structure from the checkpoint file:  "BDE49_nonexpt_234_mol2.chk"
 Charge =  0 Multiplicity = 2

                         Standard orientation:
 ---------------------------------------------------------------------
 Center     Atomic      Atomic             Coordinates (Angstroms)
 Number     Number       Type             X           Y           Z
 ---------------------------------------------------------------------
      1         17           0       -2.316876    0.125426   -0.000100
      2          5           0       -0.634514   -0.129409    0.000525
      3          7           0        0.605362   -0.314123   -0.000012
      4          7           0        1.848094   -0.660925   -0.000189
      5          6           0        2.744034    0.495145    0.000039
      6          1           0        3.770881    0.131749    0.000176
      7          1           0        2.574941    1.118731    0.887316
      8          1           0        2.575248    1.118802   -0.887247
 ---------------------------------------------------------------------

 SCF Done:  E(UHF) =  -632.770929282     A.U. after    2 cycles

 The electronic state is 2-A.
 Alpha  occ. eigenvalues -- -103.70445 -15.69292 -15.65408 -11.26593 -10.73868
 Alpha  occ. eigenvalues --   -8.39543  -8.39363  -8.39310  -7.69826  -1.29180
 Alpha  occ. eigenvalues --   -1.19667  -1.03495  -0.90359  -0.69394  -0.65952
 Alpha  occ. eigenvalues --   -0.65310  -0.62221  -0.55257  -0.54462  -0.51480
 Alpha  occ. eigenvalues --   -0.51433  -0.36791  -0.34627
 Alpha virt. eigenvalues --    0.03446   0.04216   0.04713   0.05113   0.07274
 Alpha virt. eigenvalues --    0.07882   0.08440   0.11675   0.14213   0.14494
 Alpha virt. eigenvalues --    0.14518   0.15814   0.16234   0.17152   0.18298

  Beta  occ. eigenvalues -- -103.70433 -15.66363 -15.66184 -11.26901 -10.73855
  Beta  occ. eigenvalues --   -8.39629  -8.39287  -8.39240  -7.69197  -1.25227
  Beta  occ. eigenvalues --   -1.19494  -1.02072  -0.87910  -0.66760  -0.64854
  Beta  occ. eigenvalues --   -0.61890  -0.59153  -0.54243  -0.53828  -0.50562
  Beta  occ. eigenvalues --   -0.47667  -0.35710
  Beta virt. eigenvalues --    0.03506   0.04255   0.04601   0.05110   0.07290
  Beta virt. eigenvalues --    0.07834   0.08508   0.08984   0.11728   0.14233
  Beta virt. eigenvalues --    0.14562   0.14731   0.16241   0.16334   0.17317

 Mulliken charges and spin densities:
               1          2
     1  Cl  -0.187884   0.003770
     2  B   -0.230475   0.339633
     3  N    0.331046  -0.279383
     4  N   -0.394833   1.022456
     5  C    0.735611  -0.169663
     6  H   -0.177893   0.009059
     7  H   -0.037790   0.037048
     8  H   -0.037781   0.037079
 Sum of Mulliken charges =  -0.00000   1.00000

 Dipole moment (field-independent basis, Debye):
    X=             -0.0930    Y=              1.5569    Z=              0.0012  Tot=              1.5597
                          Isotropic Fermi Contact Couplings
        Atom                 a.u.       MegaHertz       Gauss      10(-4) cm-1
     1  Cl(35)             0.00915       4.01153       1.43142       1.33810
     2  B(11)              0.04256      61.04839      21.78358      20.36355
     3  N(14)             -0.16524     -53.39034     -19.05100     -17.80910
     4  N(14)              0.28888      93.33989      33.30599      31.13484
     5  C(13)             -0.05383     -60.51047     -21.59164     -20.18412
     6  H(1)               0.00101       4.52660       1.61521       1.50991
     7  H(1)               0.01621      72.45175      25.85259      24.16730
     8  H(1)               0.01622      72.50603      25.87195      24.18541

 1\1\GINC-SE455\SP\UHF\Aug-CC-pVDZ\C1H3B1Cl1N2(2)\OHZDE\09-Apr-2025\0\\
 #t hf aug-cc-pvdz iop(5/13=1,5/36=2,99/5=2) pseudo=read geom=check gue
 ss=(read,tcheck) scf=(maxcycle=1)\\title\\0,2\Cl,0,-2.316876,0.125426,
 -0.0001\B,0,-0.634514,-0.129409,0.000525\N,0,0.605362,-0.314123,-0.000
 012\N,0,1.848094,-0.660925,-0.000189\C,0,2.744034,0.495145,0.000039\H,
 0,3.770881,0.131749,0.000176\H,0,2.574941,1.118731,0.887316\H,0,2.5752
 48,1.118802,-0.887247\\Version=ES64L-G16RevC.01\State=2-A\HF=-632.7709
 293\S2=0.800167\S2-1=0.\S2A=0.751411\RMSD=2.837e-03\Dipole=-0.0366071,

 Normal termination of Gaussian 16 at Wed Apr  9 00:08:37 2025.
