 Gaussian 16, Revision C.01,

 ----------------------------------------------------------------------
 #t hf aug-cc-pvdz symm=none int=(grid=ultrafine) guess=(read,tcheck) s
 table=(opt,rrhf)
 ----------------------------------------------------------------------
 -----
 title
 -----
 Symbolic Z-matrix:
 Charge =  0 Multiplicity = 1

 SCF Done:  E(RHF) =  -254.378030731     A.U. after   12 cycles
 Normal termination of Gaussian 16 at Wed Apr  9 00:38:24 2025.
 Gaussian 16:  ES64L-G16RevC.01  3-Jul-2019

 ----------------------------------------------------------------------
 #t hf aug-cc-pvdz iop(5/13=1,5/36=2,99/5=2) pseudo=read geom=check gue
 ss=(read,tcheck) scf=(maxcycle=1)
 ----------------------------------------------------------------------
 -----
 title
 -----
 Structure from the checkpoint file:  "BDE49_nonexpt_642_mol1.chk"
 Charge =  0 Multiplicity = 1

                         Standard orientation:
 ---------------------------------------------------------------------
 Center     Atomic      Atomic             Coordinates (Angstroms)
 Number     Number       Type             X           Y           Z
 ---------------------------------------------------------------------
      1          5           0       -0.631956    0.027185    0.000065
      2          6           0        0.727980   -0.796267    0.000022
      3          6           0        2.023111    0.031039   -0.000005
      4          1           0        2.088933    0.673545    0.884586
      5          1           0        2.088893    0.673553   -0.884594
      6          1           0        2.913716   -0.602468   -0.000028
      7          8           0       -0.684072    1.391777   -0.000017
      8          1           0        0.184700    1.799804   -0.000038
      9          8           0       -1.852035   -0.592329   -0.000026
     10          1           0       -1.783427   -1.549537   -0.000050
     11          1           0        0.724618   -1.467518   -0.869838
     12          1           0        0.724656   -1.467521    0.869877
 ---------------------------------------------------------------------

 SCF Done:  E(RHF) =  -254.466117537     A.U. after    2 cycles

 The electronic state is 1-A.
 Alpha  occ. eigenvalues --  -20.57397 -20.57303 -11.23963 -11.22203  -7.65110
 Alpha  occ. eigenvalues --   -1.33542  -1.30311  -1.02292  -0.85813  -0.79807
 Alpha  occ. eigenvalues --   -0.68358  -0.65229  -0.62202  -0.60847  -0.57348
 Alpha  occ. eigenvalues --   -0.56309  -0.51616  -0.51577  -0.49836  -0.45802
 Alpha virt. eigenvalues --    0.02924   0.04230   0.04865   0.04983   0.07101
 Alpha virt. eigenvalues --    0.07308   0.07365   0.08033   0.08398   0.10300
 Alpha virt. eigenvalues --    0.11481   0.13717   0.14872   0.15524   0.16857

 Mulliken charges:
               1
     1  B    0.853880
     2  C    0.262578
     3  C    0.211089
     4  H   -0.083190
     5  H   -0.083193
     6  H   -0.136921
     7  O   -0.488910
     8  H    0.203874
     9  O   -0.596265
    10  H    0.191300
    11  H   -0.167128
    12  H   -0.167114
 Sum of Mulliken charges =  -0.00000

 Dipole moment (field-independent basis, Debye):
    X=              2.7993    Y=             -1.7035    Z=              0.0002  Tot=              3.2769

 Test job not archived.
 1\1\GINC-SE015\SP\RHF\Aug-CC-pVDZ\C2H7B1O2\OHZDE\09-Apr-2025\0\\#t hf
 aug-cc-pvdz iop(5/13=1,5/36=2,99/5=2) pseudo=read geom=check guess=(re
 ad,tcheck) scf=(maxcycle=1)\\title\\0,1\B,0,-0.631956,0.027185,0.00006
 5\C,0,0.72798,-0.796267,0.000022\C,0,2.023111,0.031039,-0.000005\H,0,2
 .088933,0.673545,0.884586\H,0,2.088893,0.673553,-0.884594\H,0,2.913716
 ,-0.602468,-0.000028\O,0,-0.684072,1.391777,-0.000017\H,0,0.1847,1.799
 804,-0.000038\O,0,-1.852035,-0.592329,-0.000026\H,0,-1.783427,-1.54953
 7,-0.00005\H,0,0.724618,-1.467518,-0.869838\H,0,0.724656,-1.467521,0.8

 Normal termination of Gaussian 16 at Wed Apr  9 00:38:28 2025.
