 Gaussian 16, Revision C.01,

 ----------------------------------------------------------------------
 #t hf aug-cc-pvdz symm=none int=(grid=ultrafine) guess=(read,tcheck) s
 table=(opt,rrhf)
 ----------------------------------------------------------------------
 -----
 title
 -----
 Symbolic Z-matrix:
 Charge =  0 Multiplicity = 1

 SCF Done:  E(RHF) =  -772.178800969     A.U. after   14 cycles
 Normal termination of Gaussian 16 at Wed Apr  9 00:09:00 2025.
 Gaussian 16:  ES64L-G16RevC.01  3-Jul-2019

 ----------------------------------------------------------------------
 #t hf aug-cc-pvdz iop(5/13=1,5/36=2,99/5=2) pseudo=read geom=check gue
 ss=(read,tcheck) scf=(maxcycle=1)
 ----------------------------------------------------------------------
 -----
 title
 -----
 Structure from the checkpoint file:  "BDE49_nonexpt_2343_mol1.chk"
 Charge =  0 Multiplicity = 1

                         Standard orientation:
 ---------------------------------------------------------------------
 Center     Atomic      Atomic             Coordinates (Angstroms)
 Number     Number       Type             X           Y           Z
 ---------------------------------------------------------------------
      1         14           0        2.219975   -0.708238   -0.088378
      2         14           0        0.806543    1.177488   -0.172619
      3          6           0       -1.559537   -0.355575    0.180060
      4          8           0       -1.085060   -1.466987    0.292773
      5          1           0        2.311619   -1.217386    1.299997
      6          1           0        1.748721   -1.781838   -0.989460
      7          1           0        3.579247   -0.294104   -0.522130
      8          6           0       -0.843203    0.857648    0.735538
      9          1           0       -0.581485    0.650911    1.778038
     10          1           0       -1.462248    1.757919    0.705614
     11          1           0        0.514639    1.548972   -1.581698
     12          1           0        1.454021    2.346302    0.475025
     13          6           0       -2.873411   -0.118822   -0.537040
     14          1           0       -3.238077   -1.053257   -0.961085
     15          1           0       -2.747292    0.627544   -1.327817
     16          1           0       -3.613015    0.281836    0.163945
 ---------------------------------------------------------------------

 SCF Done:  E(RHF) =  -772.280804506     A.U. after    2 cycles

 The electronic state is 1-A.
 Alpha  occ. eigenvalues --  -69.06909 -69.05505 -20.56330 -11.35290 -11.25048
 Alpha  occ. eigenvalues --  -11.24332  -6.82224  -6.80890  -3.92990  -3.92975
 Alpha  occ. eigenvalues --   -3.92929  -3.91648  -3.91642  -3.91625  -1.35668
 Alpha  occ. eigenvalues --   -1.03596  -0.96541  -0.75722  -0.72108  -0.66748
 Alpha  occ. eigenvalues --   -0.65418  -0.64807  -0.60832  -0.57752  -0.55427
 Alpha  occ. eigenvalues --   -0.52610  -0.49179  -0.47713  -0.47058  -0.45670
 Alpha  occ. eigenvalues --   -0.42495  -0.39308
 Alpha virt. eigenvalues --    0.03000   0.04406   0.04440   0.04671   0.05918
 Alpha virt. eigenvalues --    0.06405   0.07055   0.07279   0.07848   0.08732
 Alpha virt. eigenvalues --    0.09331   0.09673   0.10077   0.10437   0.10628

 Mulliken charges:
               1
     1  Si  -0.272405
     2  Si   0.273286
     3  C   -0.043989
     4  O   -0.519637
     5  H    0.059660
     6  H    0.104898
     7  H    0.018747
     8  C    0.421999
     9  H   -0.080546
    10  H   -0.343495
    11  H    0.112421
    12  H    0.047327
    13  C    0.206915
    14  H   -0.083036
    15  H    0.028492
    16  H    0.069364
 Sum of Mulliken charges =  -0.00000

 Dipole moment (field-independent basis, Debye):
    X=             -1.7952    Y=              2.8935    Z=             -0.0473  Tot=              3.4055

 Test job not archived.
 1\1\GINC-SE341\SP\RHF\Aug-CC-pVDZ\C3H10O1Si2\OHZDE\09-Apr-2025\0\\#t h
 f aug-cc-pvdz iop(5/13=1,5/36=2,99/5=2) pseudo=read geom=check guess=(
 read,tcheck) scf=(maxcycle=1)\\title\\0,1\Si,0,2.219975,-0.708238,-0.0
 88378\Si,0,0.806543,1.177488,-0.172619\C,0,-1.559537,-0.355575,0.18006
 \O,0,-1.08506,-1.466987,0.292773\H,0,2.311619,-1.217386,1.299997\H,0,1
 .748721,-1.781838,-0.98946\H,0,3.579247,-0.294104,-0.52213\C,0,-0.8432
 03,0.857648,0.735538\H,0,-0.581485,0.650911,1.778038\H,0,-1.462248,1.7
 57919,0.705614\H,0,0.514639,1.548972,-1.581698\H,0,1.454021,2.346302,0

 Normal termination of Gaussian 16 at Wed Apr  9 00:09:05 2025.
