 Gaussian 16, Revision C.01,

 ----------------------------------------------------------------------
 #t hf aug-cc-pvdz symm=none int=(grid=ultrafine) guess=(read,tcheck) s
 table=(opt,rrhf)
 ----------------------------------------------------------------------
 -----
 title
 -----
 Symbolic Z-matrix:
 Charge =  0 Multiplicity = 1

 SCF Done:  E(RHF) =  -1120.87817273     A.U. after   13 cycles
 Normal termination of Gaussian 16 at Tue Apr  8 23:43:46 2025.
 Gaussian 16:  ES64L-G16RevC.01  3-Jul-2019

 ----------------------------------------------------------------------
 #t hf aug-cc-pvdz iop(5/13=1,5/36=2,99/5=2) pseudo=read geom=check gue
 ss=(read,tcheck) scf=(maxcycle=1)
 ----------------------------------------------------------------------
 -----
 title
 -----
 Structure from the checkpoint file:  "BDE49_nonexpt_1700_mol1.chk"
 Charge =  0 Multiplicity = 1

                         Standard orientation:
 ---------------------------------------------------------------------
 Center     Atomic      Atomic             Coordinates (Angstroms)
 Number     Number       Type             X           Y           Z
 ---------------------------------------------------------------------
      1         16           0       -0.374460    1.486166   -0.322361
      2         15           0       -1.358941   -0.307491    0.106995
      3          8           0       -1.012149   -0.932062    1.392028
      4          6           0        1.172321    1.299595    0.688714
      5          6           0        2.412215    0.912515   -0.120776
      6          1           0        0.942408    0.593037    1.485640
      7          6           0        2.430227   -0.513935   -0.687538
      8          1           0        3.277863    1.046210    0.542181
      9          1           0        2.538357    1.630452   -0.937773
     10          6           0        2.478403   -1.615466    0.378002
     11          1           0        3.306428   -0.604446   -1.338486
     12          1           0        1.558005   -0.659832   -1.332667
     13          1           0        3.348119   -1.493748    1.032181
     14          1           0        2.555147   -2.601198   -0.089338
     15          1           0        1.583149   -1.620838    1.004414
     16          1           0        1.303720    2.284013    1.141378
     17          8           0       -1.128463   -1.222195   -1.187418
     18          1           0       -1.345334   -2.147687   -1.012191
     19          8           0       -2.908276    0.072737   -0.098106
     20          1           0       -3.260266    0.563651    0.655067
 ---------------------------------------------------------------------

 SCF Done:  E(RHF) =  -1121.08456084     A.U. after    2 cycles

 The electronic state is 1-A.
 Alpha  occ. eigenvalues --  -93.54881 -81.43823 -20.62286 -20.62134 -20.53611
 Alpha  occ. eigenvalues --  -11.28208 -11.24304 -11.22996 -11.21886  -8.84787
 Alpha  occ. eigenvalues --   -7.91982  -6.18929  -6.18698  -6.18417  -5.06618
 Alpha  occ. eigenvalues --   -5.06499  -5.06208  -1.38676  -1.35247  -1.26940
 Alpha  occ. eigenvalues --   -1.08613  -1.01621  -0.94260  -0.87481  -0.83191
 Alpha  occ. eigenvalues --   -0.77628  -0.76112  -0.68904  -0.67002  -0.65199
 Alpha  occ. eigenvalues --   -0.63647  -0.61786  -0.59922  -0.58161  -0.57137
 Alpha  occ. eigenvalues --   -0.56204  -0.55410  -0.51811  -0.50126  -0.49780
 Alpha  occ. eigenvalues --   -0.47513  -0.47363  -0.46492  -0.43824  -0.37975
 Alpha virt. eigenvalues --    0.03211   0.04045   0.04200   0.05108   0.05309
 Alpha virt. eigenvalues --    0.06438   0.07020   0.07427   0.08140   0.08729
 Alpha virt. eigenvalues --    0.10151   0.10547   0.11360   0.11853   0.12612

 Mulliken charges:
               1
     1  S   -0.125932
     2  P    2.196483
     3  O   -0.981886
     4  C    0.154294
     5  C    0.133091
     6  H   -0.125340
     7  C    0.228195
     8  H   -0.078538
     9  H   -0.129173
    10  C    0.458562
    11  H   -0.095829
    12  H   -0.151467
    13  H   -0.067751
    14  H   -0.084252
    15  H   -0.239520
    16  H   -0.056129
    17  O   -0.673224
    18  H    0.167011
    19  O   -0.677158
    20  H    0.148562
 Sum of Mulliken charges =  -0.00000

 Dipole moment (field-independent basis, Debye):
    X=              0.5264    Y=              0.7474    Z=             -0.2224  Tot=              0.9409

 Test job not archived.
 1\1\GINC-SE127\SP\RHF\Aug-CC-pVDZ\C4H11O3P1S1\OHZDE\08-Apr-2025\0\\#t
 hf aug-cc-pvdz iop(5/13=1,5/36=2,99/5=2) pseudo=read geom=check guess=
 (read,tcheck) scf=(maxcycle=1)\\title\\0,1\S,0,0.37446,-1.486166,-0.32
 2361\P,0,1.358941,0.307491,0.106995\O,0,1.012149,0.932062,1.392028\C,0
 ,-1.172321,-1.299595,0.688714\C,0,-2.412215,-0.912515,-0.120776\H,0,-0
 .942408,-0.593037,1.48564\C,0,-2.430227,0.513935,-0.687538\H,0,-3.2778
 63,-1.04621,0.542181\H,0,-2.538357,-1.630452,-0.937773\C,0,-2.478403,1
 .615466,0.378002\H,0,-3.306428,0.604446,-1.338486\H,0,-1.558005,0.6598

 Normal termination of Gaussian 16 at Tue Apr  8 23:43:57 2025.
