 Gaussian 16, Revision C.01,

 ----------------------------------------------------------------------
 #t hf aug-cc-pvdz symm=none int=(grid=ultrafine) guess=(read,tcheck) s
 table=(opt,rrhf)
 ----------------------------------------------------------------------
 -----
 title
 -----
 Symbolic Z-matrix:
 Charge =  0 Multiplicity = 1

 SCF Done:  E(RHF) =  -512.941380909     A.U. after   16 cycles
 Normal termination of Gaussian 16 at Wed Apr  9 00:37:18 2025.
 Gaussian 16:  ES64L-G16RevC.01  3-Jul-2019

 ----------------------------------------------------------------------
 #t hf aug-cc-pvdz iop(5/13=1,5/36=2,99/5=2) pseudo=read geom=check gue
 ss=(read,tcheck) scf=(maxcycle=1)
 ----------------------------------------------------------------------
 -----
 title
 -----
 Structure from the checkpoint file:  "BDE49_nonexpt_566_mol1.chk"
 Charge =  0 Multiplicity = 1

                         Standard orientation:
 ---------------------------------------------------------------------
 Center     Atomic      Atomic             Coordinates (Angstroms)
 Number     Number       Type             X           Y           Z
 ---------------------------------------------------------------------
      1          7           0       -0.078754   -0.070360   -0.228326
      2          7           0       -0.622454    1.190628   -0.071512
      3          5           0        1.363466   -0.333529   -0.034117
      4          8           0       -1.826085    1.316080   -0.212817
      5          8           0        0.143641    2.123999    0.197047
      6          8           0        2.280137    0.607005    0.270315
      7          8           0        1.716159   -1.642909   -0.188989
      8          6           0       -1.036299   -1.147156   -0.546093
      9          6           0       -1.775168   -1.679310    0.680801
     10          1           0       -0.439409   -1.933400   -1.003859
     11          1           0       -1.737186   -0.767110   -1.288882
     12          1           0       -1.069941   -2.077342    1.413871
     13          1           0       -2.447068   -2.488323    0.382450
     14          1           0       -2.374203   -0.897550    1.149608
     15          1           0        2.662285   -1.762521   -0.060345
     16          1           0        1.854637    1.477415    0.343914
 ---------------------------------------------------------------------

 SCF Done:  E(RHF) =  -513.107742616     A.U. after    2 cycles

 The electronic state is 1-A.
 Alpha  occ. eigenvalues --  -20.63240 -20.62407 -20.60286 -20.58953 -15.96609
 Alpha  occ. eigenvalues --  -15.71188 -11.29606 -11.24177  -7.70771  -1.57879
 Alpha  occ. eigenvalues --   -1.38539  -1.36533  -1.32762  -1.25104  -1.04463
 Alpha  occ. eigenvalues --   -0.93069  -0.85879  -0.83300  -0.77526  -0.76510
 Alpha  occ. eigenvalues --   -0.75884  -0.74094  -0.68324  -0.63504  -0.62183
 Alpha  occ. eigenvalues --   -0.61071  -0.60300  -0.57200  -0.55102  -0.54103
 Alpha  occ. eigenvalues --   -0.53313  -0.52941  -0.51339  -0.49470  -0.44150
 Alpha virt. eigenvalues --    0.02979   0.03988   0.04090   0.05366   0.06691
 Alpha virt. eigenvalues --    0.06816   0.06951   0.07374   0.08276   0.08740
 Alpha virt. eigenvalues --    0.09751   0.10616   0.13163   0.13839   0.14117

 Mulliken charges:
               1
     1  N   -0.007066
     2  N    0.624123
     3  B    0.615073
     4  O   -0.531867
     5  O   -0.635195
     6  O   -0.419696
     7  O   -0.545420
     8  C    0.767336
     9  C    0.231403
    10  H   -0.214455
    11  H   -0.178003
    12  H   -0.089381
    13  H   -0.036848
    14  H   -0.044317
    15  H    0.171489
    16  H    0.292824
 Sum of Mulliken charges =  -0.00000

 Dipole moment (field-independent basis, Debye):
    X=              0.8011    Y=             -3.2922    Z=             -0.3643  Tot=              3.4078

 Test job not archived.
 1\1\GINC-SE099\SP\RHF\Aug-CC-pVDZ\C2H7B1N2O4\OHZDE\09-Apr-2025\0\\#t h
 f aug-cc-pvdz iop(5/13=1,5/36=2,99/5=2) pseudo=read geom=check guess=(
 read,tcheck) scf=(maxcycle=1)\\title\\0,1\N,0,0.078754,0.07036,-0.2283
 26\N,0,0.622454,-1.190628,-0.071512\B,0,-1.363466,0.333529,-0.034117\O
 ,0,1.826085,-1.31608,-0.212817\O,0,-0.143641,-2.123999,0.197047\O,0,-2
 .280137,-0.607005,0.270315\O,0,-1.716159,1.642909,-0.188989\C,0,1.0362
 99,1.147156,-0.546093\C,0,1.775168,1.67931,0.680801\H,0,0.439409,1.933
 4,-1.003859\H,0,1.737186,0.76711,-1.288882\H,0,1.069941,2.077342,1.413

 Normal termination of Gaussian 16 at Wed Apr  9 00:37:25 2025.
