 Gaussian 16, Revision C.01,

 ----------------------------------------------------------------------
 #t hf aug-cc-pvdz symm=none int=(grid=ultrafine) guess=(read,tcheck) s
 table=(opt,rrhf)
 ----------------------------------------------------------------------
 -----
 title
 -----
 Symbolic Z-matrix:
 Charge =  0 Multiplicity = 1

 SCF Done:  E(RHF) =  -688.815312751     A.U. after   11 cycles

 1\1\GINC-SE060\Stability\RHF\Aug-CC-pVDZ\H4S1Si1\OHZDE\08-Apr-2025\0\\
 #t hf aug-cc-pvdz symm=none int=(grid=ultrafine) guess=(read,tcheck) s
 table=(opt,rrhf)\\title\\0,1\S,0,1.118894,0.081694,0.\Si,0,-1.043845,-
 0.00515,0.\H,0,1.297018,-1.251926,0.000001\H,0,-1.475284,1.407254,-0.0
 00002\H,0,-1.555104,-0.695162,1.204292\H,0,-1.555104,-0.695165,-1.2042
 9\\Version=ES64L-G16RevC.01\HF=-688.8153128\RMSD=3.857e-09\Dipole=-0.3
 814848,-0.35132,0.0000002\Quadrupole=-0.0815541,1.3981526,-1.3165986,-
 1.2905857,0.0000014,-0.000002\PG=Unknown\\@

 Normal termination of Gaussian 16 at Tue Apr  8 23:54:51 2025.
 Gaussian 16:  ES64L-G16RevC.01  3-Jul-2019

 ----------------------------------------------------------------------
 #t hf aug-cc-pvdz iop(5/13=1,5/36=2,99/5=2) pseudo=read geom=check gue
 ss=(read,tcheck) scf=(maxcycle=1)
 ----------------------------------------------------------------------
 -----
 title
 -----
 Structure from the checkpoint file:  "BDE49_nonexpt_2007_mol1.chk"
 Charge =  0 Multiplicity = 1

                         Standard orientation:
 ---------------------------------------------------------------------
 Center     Atomic      Atomic             Coordinates (Angstroms)
 Number     Number       Type             X           Y           Z
 ---------------------------------------------------------------------
      1         16           0        1.118894    0.081694   -0.000000
      2         14           0       -1.043845   -0.005150   -0.000000
      3          1           0        1.297018   -1.251926    0.000001
      4          1           0       -1.475284    1.407254   -0.000002
      5          1           0       -1.555104   -0.695162    1.204292
      6          1           0       -1.555104   -0.695165   -1.204290
 ---------------------------------------------------------------------

 SCF Done:  E(RHF) =  -688.858290150     A.U. after    2 cycles

 The electronic state is 1-A.
 Alpha  occ. eigenvalues --  -93.53523 -69.09836  -8.83454  -6.84883  -6.17592
 Alpha  occ. eigenvalues --   -6.17377  -6.17075  -3.95707  -3.95629  -3.95598
 Alpha  occ. eigenvalues --   -0.95568  -0.70604  -0.55547  -0.50539  -0.49051
 Alpha  occ. eigenvalues --   -0.44670  -0.37667
 Alpha virt. eigenvalues --    0.03455   0.04680   0.05962   0.06421   0.07803
 Alpha virt. eigenvalues --    0.08993   0.09017   0.12021   0.13450   0.14340
 Alpha virt. eigenvalues --    0.15678   0.16095   0.18458   0.19113   0.19670

 Mulliken charges:
               1
     1  S   -0.435448
     2  Si   0.661349
     3  H    0.046900
     4  H   -0.122857
     5  H   -0.074972
     6  H   -0.074972
 Sum of Mulliken charges =  -0.00000

 Dipole moment (field-independent basis, Debye):
    X=             -0.8981    Y=             -0.8492    Z=              0.0000  Tot=              1.2360

 Test job not archived.
 1\1\GINC-SE060\SP\RHF\Aug-CC-pVDZ\H4S1Si1\OHZDE\08-Apr-2025\0\\#t hf a
 ug-cc-pvdz iop(5/13=1,5/36=2,99/5=2) pseudo=read geom=check guess=(rea
 d,tcheck) scf=(maxcycle=1)\\title\\0,1\S,0,1.118894,0.081694,0.\Si,0,-
 1.043845,-0.00515,0.\H,0,1.297018,-1.251926,0.000001\H,0,-1.475284,1.4
 07254,-0.000002\H,0,-1.555104,-0.695162,1.204292\H,0,-1.555104,-0.6951
 65,-1.20429\\Version=ES64L-G16RevC.01\State=1-A\HF=-688.8582901\RMSD=7
 .983e-03\Dipole=-0.353321,-0.3341171,0.0000002\Quadrupole=-0.085357,1.
 388823,-1.303466,-1.2582422,0.0000013,-0.0000019\PG=C01 [X(H4S1Si1)]\\

 Normal termination of Gaussian 16 at Tue Apr  8 23:54:53 2025.
