 Gaussian 16, Revision C.01,

 ----------------------------------------------------------------------
 #t hf aug-cc-pvdz symm=none int=(grid=ultrafine) guess=(read,tcheck) s
 table=(opt,rrhf)
 ----------------------------------------------------------------------
 -----
 title
 -----
 Symbolic Z-matrix:
 Charge =  0 Multiplicity = 1

 SCF Done:  E(RHF) =  -986.254997243     A.U. after   15 cycles
 Normal termination of Gaussian 16 at Wed Apr  9 00:16:33 2025.
 Gaussian 16:  ES64L-G16RevC.01  3-Jul-2019

 ----------------------------------------------------------------------
 #t hf aug-cc-pvdz iop(5/13=1,5/36=2,99/5=2) pseudo=read geom=check gue
 ss=(read,tcheck) scf=(maxcycle=1)
 ----------------------------------------------------------------------
 -----
 title
 -----
 Structure from the checkpoint file:  "BDE49_nonexpt_2569_mol1.chk"
 Charge =  0 Multiplicity = 1

                         Standard orientation:
 ---------------------------------------------------------------------
 Center     Atomic      Atomic             Coordinates (Angstroms)
 Number     Number       Type             X           Y           Z
 ---------------------------------------------------------------------
      1         17           0       -1.423899   -0.457225    0.000000
      2         16           0        0.000000    1.011261    0.000000
      3          7           0        1.641556    0.059449    0.000000
      4          8           0        1.589424   -1.102937    0.000000
 ---------------------------------------------------------------------

 SCF Done:  E(RHF) =  -986.335618314     A.U. after    2 cycles

 The electronic state is 1-A'.
 Alpha  occ. eigenvalues -- -103.70107 -93.63071 -20.71667 -15.86081 -10.73285
 Alpha  occ. eigenvalues --   -8.92377  -8.39016  -8.38656  -8.38624  -6.26366
 Alpha  occ. eigenvalues --   -6.26083  -6.25684  -1.56602  -1.19349  -1.02415
 Alpha  occ. eigenvalues --   -0.88238  -0.74410  -0.72776  -0.68516  -0.54914
 Alpha  occ. eigenvalues --   -0.53836  -0.51461  -0.40986  -0.39817
 Alpha virt. eigenvalues --    0.03620   0.04789   0.06805   0.09474   0.11172
 Alpha virt. eigenvalues --    0.11389   0.11653   0.14463   0.15285   0.16093
 Alpha virt. eigenvalues --    0.17820   0.17930   0.19506   0.23193   0.26124

 Mulliken charges:
               1
     1  Cl  -0.257760
     2  S    0.587997
     3  N   -0.053093
     4  O   -0.277144
 Sum of Mulliken charges =  -0.00000

 Dipole moment (field-independent basis, Debye):
    X=              0.3715    Y=              1.0417    Z=              0.0000  Tot=              1.1060

 Test job not archived.
 1\1\GINC-SE367\SP\RHF\Aug-CC-pVDZ\Cl1N1O1S1\OHZDE\09-Apr-2025\0\\#t hf
  aug-cc-pvdz iop(5/13=1,5/36=2,99/5=2) pseudo=read geom=check guess=(r
 ead,tcheck) scf=(maxcycle=1)\\title\\0,1\Cl,0,-1.423899,-0.457225,0.\S
 ,0,0.,1.011261,0.\N,0,1.641556,0.059449,0.\O,0,1.589424,-1.102937,0.\\
 Version=ES64L-G16RevC.01\State=1-A'\HF=-986.3356183\RMSD=3.903e-03\Dip
 ole=0.1461522,0.4098522,0.\Quadrupole=0.0454121,0.1669571,-0.2123692,1
 .1458752,0.,0.\PG=CS [SG(Cl1N1O1S1)]\\@

 Normal termination of Gaussian 16 at Wed Apr  9 00:16:34 2025.
