 Gaussian 16, Revision C.01,

 ----------------------------------------------------------------------
 #t hf aug-cc-pvdz symm=none int=(grid=ultrafine) guess=(read,tcheck) s
 table=opt
 ----------------------------------------------------------------------
 -----
 title
 -----
 Symbolic Z-matrix:
 Charge =  0 Multiplicity = 2

 SCF Done:  E(UHF) =  -951.797199873     A.U. after   20 cycles
 Normal termination of Gaussian 16 at Tue Apr  8 22:59:28 2025.
 Gaussian 16:  ES64L-G16RevC.01  3-Jul-2019

 ----------------------------------------------------------------------
 #t hf aug-cc-pvdz iop(5/13=1,5/36=2,99/5=2) pseudo=read geom=check gue
 ss=(read,tcheck) scf=(maxcycle=1)
 ----------------------------------------------------------------------
 -----
 title
 -----
 Structure from the checkpoint file:  "BDE49_expt_1970_mol2.chk"
 Charge =  0 Multiplicity = 2

                         Standard orientation:
 ---------------------------------------------------------------------
 Center     Atomic      Atomic             Coordinates (Angstroms)
 Number     Number       Type             X           Y           Z
 ---------------------------------------------------------------------
      1         16           0        2.161884    0.272925   -0.000024
      2         16           0        0.590866   -0.939069    0.000012
      3          6           0       -0.980840    0.119028    0.000007
      4          6           0       -2.113006   -0.916960   -0.000001
      5          1           0       -2.075655   -1.555408    0.886454
      6          1           0       -2.075645   -1.555405   -0.886458
      7          1           0       -3.077402   -0.399952   -0.000005
      8          6           0       -1.008981    0.979214    1.264769
      9          1           0       -0.989804    0.363823    2.167342
     10          1           0       -1.925560    1.578145    1.278776
     11          1           0       -0.156928    1.661050    1.293990
     12          6           0       -1.008968    0.979220   -1.264751
     13          1           0       -0.989782    0.363833   -2.167326
     14          1           0       -0.156915    1.661057   -1.293960
     15          1           0       -1.925547    1.578151   -1.278764
 ---------------------------------------------------------------------

 SCF Done:  E(UHF) =  -951.885804551     A.U. after    2 cycles

 The electronic state is 2-A.
 Alpha  occ. eigenvalues --  -93.57358 -93.55989 -11.29729 -11.24609 -11.23896
 Alpha  occ. eigenvalues --  -11.23886  -8.86903  -8.85651  -6.20977  -6.20908
 Alpha  occ. eigenvalues --   -6.20662  -6.20624  -6.19395  -6.18918  -1.12076
 Alpha  occ. eigenvalues --   -1.02874  -0.95127  -0.94719  -0.85008  -0.73588
 Alpha  occ. eigenvalues --   -0.63151  -0.62407  -0.62049  -0.56538  -0.56365
 Alpha  occ. eigenvalues --   -0.53417  -0.50482  -0.50302  -0.48211  -0.47820
 Alpha  occ. eigenvalues --   -0.46175  -0.36113  -0.35100
 Alpha virt. eigenvalues --    0.03296   0.04677   0.04729   0.05588   0.06830
 Alpha virt. eigenvalues --    0.06919   0.07132   0.07663   0.08889   0.09316
 Alpha virt. eigenvalues --    0.10067   0.12442   0.13832   0.14327   0.14599

  Beta  occ. eigenvalues --  -93.57087 -93.55207 -11.29790 -11.24606 -11.23876
  Beta  occ. eigenvalues --  -11.23866  -8.86596  -8.84782  -6.20789  -6.20488
  Beta  occ. eigenvalues --   -6.19774  -6.18958  -6.18426  -6.17252  -1.11612
  Beta  occ. eigenvalues --   -0.99859  -0.95097  -0.94648  -0.80691  -0.71695
  Beta  occ. eigenvalues --   -0.62720  -0.62162  -0.61805  -0.56459  -0.55969
  Beta  occ. eigenvalues --   -0.53369  -0.50122  -0.49724  -0.47101  -0.45078
  Beta  occ. eigenvalues --   -0.38200  -0.34507
  Beta virt. eigenvalues --    0.01727   0.03302   0.04704   0.04753   0.05606
  Beta virt. eigenvalues --    0.06883   0.06961   0.07191   0.07845   0.09004
  Beta virt. eigenvalues --    0.09354   0.10222   0.12524   0.13882   0.14745

 Mulliken charges and spin densities:
               1          2
     1  S   -0.121220   0.881543
     2  S    0.118508   0.177026
     3  C   -2.335552  -0.045752
     4  C    0.962230  -0.016496
     5  H   -0.062604  -0.003319
     6  H   -0.062604  -0.003318
     7  H    0.008275  -0.001609
     8  C    0.855774   0.011397
     9  H   -0.052325   0.002740
    10  H   -0.001217  -0.002223
    11  H   -0.055752  -0.005951
    12  C    0.855781   0.011397
    13  H   -0.052325   0.002739
    14  H   -0.055754  -0.005952
    15  H   -0.001216  -0.002223
 Sum of Mulliken charges =  -0.00000   1.00000

 Dipole moment (field-independent basis, Debye):
    X=             -2.6646    Y=              0.7449    Z=              0.0000  Tot=              2.7667
                          Isotropic Fermi Contact Couplings
        Atom                 a.u.       MegaHertz       Gauss      10(-4) cm-1
     1  S(33)              0.18801      64.57557      23.04217      21.54009
     2  S(33)              0.11089      38.08813      13.59079      12.70483
     3  C(13)             -0.01002     -11.26875      -4.02097      -3.75885
     4  C(13)             -0.00010      -0.11040      -0.03939      -0.03682
     5  H(1)              -0.00013      -0.60294      -0.21514      -0.20112
     6  H(1)              -0.00013      -0.60289      -0.21512      -0.20110
     7  H(1)              -0.00061      -2.71956      -0.97041      -0.90715
     8  C(13)              0.00251       2.82020       1.00632       0.94072

 Normal termination of Gaussian 16 at Tue Apr  8 22:59:35 2025.
