 Gaussian 16, Revision C.01,

 ----------------------------------------------------------------------
 #t hf aug-cc-pvdz symm=none int=(grid=ultrafine) guess=(read,tcheck) s
 table=(opt,rrhf)
 ----------------------------------------------------------------------
 -----
 title
 -----
 Symbolic Z-matrix:
 Charge =  0 Multiplicity = 1

 SCF Done:  E(RHF) =  -380.456298145     A.U. after   12 cycles
 Normal termination of Gaussian 16 at Wed Apr  9 00:30:12 2025.
 Gaussian 16:  ES64L-G16RevC.01  3-Jul-2019

 ----------------------------------------------------------------------
 #t hf aug-cc-pvdz iop(5/13=1,5/36=2,99/5=2) pseudo=read geom=check gue
 ss=(read,tcheck) scf=(maxcycle=1)
 ----------------------------------------------------------------------
 -----
 title
 -----
 Structure from the checkpoint file:  "BDE49_nonexpt_372_mol1.chk"
 Charge =  0 Multiplicity = 1

                         Standard orientation:
 ---------------------------------------------------------------------
 Center     Atomic      Atomic             Coordinates (Angstroms)
 Number     Number       Type             X           Y           Z
 ---------------------------------------------------------------------
      1          9           0       -2.719612    0.092885    0.590747
      2          9           0       -1.327722   -1.287883   -0.514432
      3          5           0       -1.552458   -0.070265   -0.026137
      4          6           0       -0.539780    1.103459   -0.197235
      5          6           0        0.898689    0.707393   -0.572942
      6          1           0       -0.962794    1.755218   -0.976868
      7          6           0        1.628931   -0.059548    0.536517
      8          1           0        1.470936    1.608830   -0.819652
      9          1           0        0.883442    0.095098   -1.481462
     10          6           0        3.067064   -0.430113    0.164881
     11          1           0        1.070203   -0.972350    0.773770
     12          1           0        1.631955    0.547042    1.450616
     13          1           0        3.093236   -1.064582   -0.726300
     14          1           0        3.560199   -0.974648    0.974401
     15          1           0        3.663622    0.462795   -0.046618
     16          1           0       -0.551919    1.721750    0.708643
 ---------------------------------------------------------------------

 SCF Done:  E(RHF) =  -380.597158743     A.U. after    2 cycles

 The electronic state is 1-A.
 Alpha  occ. eigenvalues --  -26.13201 -26.13100 -11.23936 -11.23449 -11.22977
 Alpha  occ. eigenvalues --  -11.22681  -7.72958  -1.68469  -1.66104  -1.07253
 Alpha  occ. eigenvalues --   -0.99134  -0.88783  -0.86107  -0.81417  -0.80281
 Alpha  occ. eigenvalues --   -0.76268  -0.76173  -0.71521  -0.70878  -0.64380
 Alpha  occ. eigenvalues --   -0.59743  -0.58864  -0.57242  -0.52624  -0.50264
 Alpha  occ. eigenvalues --   -0.48271  -0.47325  -0.46806
 Alpha virt. eigenvalues --    0.03248   0.04096   0.04524   0.04735   0.06233
 Alpha virt. eigenvalues --    0.06539   0.06662   0.07021   0.07907   0.08896
 Alpha virt. eigenvalues --    0.09248   0.09716   0.12228   0.13144   0.13590

 Mulliken charges:
               1
     1  F   -0.499565
     2  F   -0.477497
     3  B    1.011232
     4  C    0.402431
     5  C    0.151020
     6  H   -0.051601
     7  C    0.105159
     8  H   -0.114634
     9  H   -0.169337
    10  C    0.416017
    11  H   -0.183919
    12  H   -0.152077
    13  H   -0.066785
    14  H   -0.061967
    15  H   -0.073644
    16  H   -0.234832
 Sum of Mulliken charges =  -0.00000

 Dipole moment (field-independent basis, Debye):
    X=              1.5256    Y=              1.4552    Z=             -0.2363  Tot=              2.1216

 Test job not archived.
 1\1\GINC-SE338\SP\RHF\Aug-CC-pVDZ\C4H9B1F2\OHZDE\09-Apr-2025\0\\#t hf
 aug-cc-pvdz iop(5/13=1,5/36=2,99/5=2) pseudo=read geom=check guess=(re
 ad,tcheck) scf=(maxcycle=1)\\title\\0,1\F,0,-2.719612,0.092885,0.59074
 7\F,0,-1.327722,-1.287883,-0.514432\B,0,-1.552458,-0.070265,-0.026137\
 C,0,-0.53978,1.103459,-0.197235\C,0,0.898689,0.707393,-0.572942\H,0,-0
 .962794,1.755218,-0.976868\C,0,1.628931,-0.059548,0.536517\H,0,1.47093
 6,1.60883,-0.819652\H,0,0.883442,0.095098,-1.481462\C,0,3.067064,-0.43
 0113,0.164881\H,0,1.070203,-0.97235,0.77377\H,0,1.631955,0.547042,1.45

 Normal termination of Gaussian 16 at Wed Apr  9 00:30:16 2025.
