 Gaussian 16, Revision C.01,

 ----------------------------------------------------------------------
 #t hf aug-cc-pvdz symm=none int=(grid=ultrafine) guess=(read,tcheck) s
 table=opt
 ----------------------------------------------------------------------
 -----
 title
 -----
 Symbolic Z-matrix:
 Charge =  0 Multiplicity = 2

 SCF Done:  E(UHF) =  -1254.55313062     A.U. after   23 cycles
 Normal termination of Gaussian 16 at Tue Apr  8 22:58:35 2025.
 Gaussian 16:  ES64L-G16RevC.01  3-Jul-2019

 ----------------------------------------------------------------------
 #t hf aug-cc-pvdz iop(5/13=1,5/36=2,99/5=2) pseudo=read geom=check gue
 ss=(read,tcheck) scf=(maxcycle=1)
 ----------------------------------------------------------------------
 -----
 title
 -----
 Structure from the checkpoint file:  "BDE49_expt_1976_mol2.chk"
 Charge =  0 Multiplicity = 2

                         Standard orientation:
 ---------------------------------------------------------------------
 Center     Atomic      Atomic             Coordinates (Angstroms)
 Number     Number       Type             X           Y           Z
 ---------------------------------------------------------------------
      1         16           0        0.000000    0.781671    0.000000
      2         16           0        1.709416   -0.109200    0.000000
      3         17           0       -1.608862   -0.632914   -0.000000
 ---------------------------------------------------------------------

 SCF Done:  E(UHF) =  -1254.61457647     A.U. after    2 cycles

 The electronic state is 2-A".
 Alpha  occ. eigenvalues -- -103.68534 -93.66135 -93.60495 -10.71677  -8.95278
 Alpha  occ. eigenvalues --   -8.90293  -8.37309  -8.37070  -8.37045  -6.29171
 Alpha  occ. eigenvalues --   -6.29162  -6.28827  -6.25203  -6.24004  -6.23532
 Alpha  occ. eigenvalues --   -1.17644  -1.07924  -0.85253  -0.58827  -0.56990
 Alpha  occ. eigenvalues --   -0.55319  -0.49311  -0.47208  -0.41512  -0.38598
 Alpha virt. eigenvalues --    0.01248   0.06199   0.09680   0.10206   0.11121
 Alpha virt. eigenvalues --    0.13093   0.13937   0.14355   0.14389   0.15746
 Alpha virt. eigenvalues --    0.16073   0.18578   0.24518   0.27905   0.28792

  Beta  occ. eigenvalues -- -103.68564 -93.65820 -93.59696 -10.71708  -8.94927
  Beta  occ. eigenvalues --   -8.89406  -8.37499  -8.37071  -8.37015  -6.28960
  Beta  occ. eigenvalues --   -6.28713  -6.27789  -6.23567  -6.22966  -6.21785
  Beta  occ. eigenvalues --   -1.17113  -1.05007  -0.78839  -0.57769  -0.54443
  Beta  occ. eigenvalues --   -0.52134  -0.46708  -0.42264  -0.39744
  Beta virt. eigenvalues --   -0.01435   0.01793   0.06562   0.09714   0.10282
  Beta virt. eigenvalues --    0.11799   0.13114   0.14508   0.15161   0.15162
  Beta virt. eigenvalues --    0.15957   0.16140   0.18949   0.24833   0.28505

 Mulliken charges and spin densities:
               1          2
     1  S    0.251020   0.195605
     2  S    0.035398   0.843660
     3  Cl  -0.286418  -0.039265
 Sum of Mulliken charges =   0.00000   1.00000

 Dipole moment (field-independent basis, Debye):
    X=              1.2250    Y=              0.7012    Z=              0.0000  Tot=              1.4114
                          Isotropic Fermi Contact Couplings
        Atom                 a.u.       MegaHertz       Gauss      10(-4) cm-1
     1  S(33)              0.11846      40.68872      14.51875      13.57230
     2  S(33)              0.20609      70.78783      25.25886      23.61228
     3  Cl(35)            -0.00336      -1.47151      -0.52507      -0.49084
 --------------------------------------------------------
       Center         ----  Spin Dipole Couplings  ----
                      3XX-RR        3YY-RR        3ZZ-RR
 --------------------------------------------------------
     1   Atom       -0.776339     -0.865214      1.641553

 Normal termination of Gaussian 16 at Tue Apr  8 22:58:36 2025.
