 Gaussian 16, Revision C.01,

 ----------------------------------------------------------------------
 #t hf aug-cc-pvdz symm=none int=(grid=ultrafine) guess=(read,tcheck) s
 table=opt
 ----------------------------------------------------------------------
 -----
 title
 -----
 Symbolic Z-matrix:
 Charge =  0 Multiplicity = 2

 SCF Done:  E(UHF) =  -461.626940801     A.U. after   19 cycles
 Normal termination of Gaussian 16 at Tue Apr  8 23:58:46 2025.
 Gaussian 16:  ES64L-G16RevC.01  3-Jul-2019

 ----------------------------------------------------------------------
 #t hf aug-cc-pvdz iop(5/13=1,5/36=2,99/5=2) pseudo=read geom=check gue
 ss=(read,tcheck) scf=(maxcycle=1)
 ----------------------------------------------------------------------
 -----
 title
 -----
 Structure from the checkpoint file:  "BDE49_nonexpt_2090_mol2.chk"
 Charge =  0 Multiplicity = 2

                         Standard orientation:
 ---------------------------------------------------------------------
 Center     Atomic      Atomic             Coordinates (Angstroms)
 Number     Number       Type             X           Y           Z
 ---------------------------------------------------------------------
      1          7           0        0.328461   -0.535034   -0.000003
      2          6           0       -1.162156    1.436108    0.000009
      3          6           0       -0.837885   -0.045591   -0.000009
      4          6           0       -2.038640   -0.969030    0.000003
      5         14           0        1.967509    0.035096   -0.000004
      6          1           0       -0.253935    2.038406    0.000013
      7          1           0       -1.763864    1.690108    0.878832
      8          1           0       -1.763869    1.690126   -0.878805
      9          1           0       -1.714786   -2.008132    0.000006
     10          1           0       -2.663460   -0.780871   -0.879555
     11          1           0       -2.663452   -0.780864    0.879565
     12          1           0        2.605550   -0.561910   -1.207893
     13          1           0        2.605549   -0.561889    1.207897
 ---------------------------------------------------------------------

 SCF Done:  E(UHF) =  -461.705856873     A.U. after    2 cycles

 The electronic state is 2-A.
 Alpha  occ. eigenvalues --  -69.07475 -15.60277 -11.31574 -11.24714 -11.24008
 Alpha  occ. eigenvalues --   -6.82515  -3.93803  -3.93020  -3.92957  -1.18454
 Alpha  occ. eigenvalues --   -1.00550  -0.95708  -0.77194  -0.67407  -0.62100
 Alpha  occ. eigenvalues --   -0.61361  -0.59731  -0.55560  -0.54113  -0.52847
 Alpha  occ. eigenvalues --   -0.49475  -0.41680  -0.41524  -0.29780
 Alpha virt. eigenvalues --    0.03126   0.04206   0.04673   0.04971   0.06741
 Alpha virt. eigenvalues --    0.07116   0.07685   0.07748   0.08087   0.09272
 Alpha virt. eigenvalues --    0.10321   0.12417   0.13427   0.13861   0.14706

  Beta  occ. eigenvalues --  -69.07001 -15.59524 -11.31790 -11.24652 -11.23954
  Beta  occ. eigenvalues --   -6.81794  -3.92787  -3.92664  -3.91891  -1.17427
  Beta  occ. eigenvalues --   -0.99867  -0.95561  -0.76085  -0.66379  -0.61542
  Beta  occ. eigenvalues --   -0.61450  -0.57980  -0.55604  -0.53074  -0.52340
  Beta  occ. eigenvalues --   -0.48070  -0.40536  -0.36375
  Beta virt. eigenvalues --    0.02929   0.03917   0.04697   0.05021   0.05556
  Beta virt. eigenvalues --    0.06886   0.07198   0.07800   0.08110   0.08816
  Beta virt. eigenvalues --    0.10120   0.10646   0.12705   0.13451   0.14170

 Mulliken charges and spin densities:
               1          2
     1  N   -0.603487   0.190450
     2  C    0.470186  -0.012380
     3  C   -0.384859  -0.089999
     4  C    0.432969   0.036464
     5  Si   0.218152   0.823889
     6  H   -0.140987  -0.035041
     7  H    0.042089  -0.005601
     8  H    0.042092  -0.005601
     9  H   -0.159608  -0.000089
    10  H    0.037146  -0.002201
    11  H    0.037143  -0.002201
    12  H    0.004584   0.051155
    13  H    0.004581   0.051154
 Sum of Mulliken charges =  -0.00000   1.00000

 Dipole moment (field-independent basis, Debye):
    X=             -2.4059    Y=              1.3687    Z=              0.0000  Tot=              2.7679
                          Isotropic Fermi Contact Couplings
        Atom                 a.u.       MegaHertz       Gauss      10(-4) cm-1
     1  N(14)              0.06092      19.68375       7.02365       6.56579
     2  C(13)              0.00467       5.25457       1.87496       1.75274
     3  C(13)             -0.02273     -25.54871      -9.11642      -8.52213
     4  C(13)              0.01172      13.17016       4.69944       4.39309
     5  Si(29)             0.47660    -423.56964    -151.14018    -141.28762
     6  H(1)              -0.00090      -4.01281      -1.43187      -1.33853
     7  H(1)              -0.00161      -7.18420      -2.56350      -2.39639
     8  H(1)              -0.00161      -7.18421      -2.56350      -2.39639

 Normal termination of Gaussian 16 at Tue Apr  8 23:58:50 2025.
