 Gaussian 16, Revision C.01,

 ----------------------------------------------------------------------
 #t hf aug-cc-pvdz symm=none int=(grid=ultrafine) guess=(read,tcheck) s
 table=(opt,rrhf)
 ----------------------------------------------------------------------
 -----
 title
 -----
 Symbolic Z-matrix:
 Charge =  0 Multiplicity = 1

 SCF Done:  E(RHF) =  -759.200284632     A.U. after   13 cycles
 Normal termination of Gaussian 16 at Tue Apr  8 23:39:02 2025.
 Gaussian 16:  ES64L-G16RevC.01  3-Jul-2019

 ----------------------------------------------------------------------
 #t hf aug-cc-pvdz iop(5/13=1,5/36=2,99/5=2) pseudo=read geom=check gue
 ss=(read,tcheck) scf=(maxcycle=1)
 ----------------------------------------------------------------------
 -----
 title
 -----
 Structure from the checkpoint file:  "BDE49_nonexpt_1598_mol1.chk"
 Charge =  0 Multiplicity = 1

                         Standard orientation:
 ---------------------------------------------------------------------
 Center     Atomic      Atomic             Coordinates (Angstroms)
 Number     Number       Type             X           Y           Z
 ---------------------------------------------------------------------
      1          6           0       -1.575280   -0.020807    0.256462
      2          8           0       -0.364486   -0.344787   -0.512343
      3         15           0        1.072332    0.095906   -0.007923
      4          8           0        1.336945    1.498185    0.302251
      5          8           0        1.278635   -0.884944    1.254919
      6          6           0       -2.062313    1.362995   -0.146555
      7          1           0       -2.318897    1.380176   -1.208914
      8          1           0       -1.288024    2.108417    0.038915
      9          6           0       -2.567528   -1.134942   -0.028164
     10          1           0       -1.303046   -0.032552    1.316194
     11          1           0       -3.494277   -0.962089    0.524933
     12          1           0       -2.159289   -2.101758    0.272152
     13          1           0       -2.802769   -1.170989   -1.094880
     14          1           0       -2.952554    1.629091    0.430176
     15          1           0        1.871405   -0.485192    1.902393
     16          8           0        1.986456   -0.481646   -1.176435
     17          1           0        1.692798   -1.341635   -1.499714
 ---------------------------------------------------------------------

 SCF Done:  E(RHF) =  -759.411843337     A.U. after    2 cycles

 The electronic state is 1-A.
 Alpha  occ. eigenvalues --  -81.44400 -20.61639 -20.61630 -20.60549 -20.52534
 Alpha  occ. eigenvalues --  -11.32108 -11.24162 -11.23329  -7.92320  -5.07037
 Alpha  occ. eigenvalues --   -5.06926  -5.06896  -1.39645  -1.35053  -1.34544
 Alpha  occ. eigenvalues --   -1.26197  -1.06472  -0.95019  -0.86117  -0.81675
 Alpha  occ. eigenvalues --   -0.78658  -0.73344  -0.67575  -0.66505  -0.65141
 Alpha  occ. eigenvalues --   -0.62641  -0.60855  -0.58391  -0.58078  -0.55869
 Alpha  occ. eigenvalues --   -0.55581  -0.54713  -0.53375  -0.51333  -0.49280
 Alpha  occ. eigenvalues --   -0.49053  -0.47476
 Alpha virt. eigenvalues --    0.02929   0.04236   0.04400   0.05006   0.05788
 Alpha virt. eigenvalues --    0.06813   0.07300   0.07563   0.08375   0.10662
 Alpha virt. eigenvalues --    0.12012   0.12329   0.13097   0.14244   0.14468

 Mulliken charges:
               1
     1  C   -0.265623
     2  O   -1.076950
     3  P    2.525282
     4  O   -0.858731
     5  O   -0.689601
     6  C    0.458587
     7  H   -0.005230
     8  H   -0.102915
     9  C    0.541246
    10  H   -0.145332
    11  H    0.001896
    12  H   -0.077592
    13  H    0.004549
    14  H    0.008866
    15  H    0.154875
    16  O   -0.633469
    17  H    0.160142
 Sum of Mulliken charges =  -0.00000

 Dipole moment (field-independent basis, Debye):
    X=             -2.3306    Y=             -3.1301    Z=              0.8544  Tot=              3.9949

 Test job not archived.
 1\1\GINC-SE166\SP\RHF\Aug-CC-pVDZ\C3H9O4P1\OHZDE\08-Apr-2025\0\\#t hf
 aug-cc-pvdz iop(5/13=1,5/36=2,99/5=2) pseudo=read geom=check guess=(re
 ad,tcheck) scf=(maxcycle=1)\\title\\0,1\C,0,1.57528,-0.020807,-0.25646
 2\O,0,0.364486,-0.344787,0.512343\P,0,-1.072332,0.095906,0.007923\O,0,
 -1.336945,1.498185,-0.302251\O,0,-1.278635,-0.884944,-1.254919\C,0,2.0
 62313,1.362995,0.146555\H,0,2.318897,1.380176,1.208914\H,0,1.288024,2.
 108417,-0.038915\C,0,2.567528,-1.134942,0.028164\H,0,1.303046,-0.03255
 2,-1.316194\H,0,3.494277,-0.962089,-0.524933\H,0,2.159289,-2.101758,-0

 Normal termination of Gaussian 16 at Tue Apr  8 23:39:10 2025.
