 Gaussian 16, Revision C.01,

 ----------------------------------------------------------------------
 #t hf aug-cc-pvdz symm=none int=(grid=ultrafine) guess=(read,tcheck) s
 table=(opt,rrhf)
 ----------------------------------------------------------------------
 -----
 title
 -----
 Symbolic Z-matrix:
 Charge =  0 Multiplicity = 1

 SCF Done:  E(RHF) =  -1201.06790853     A.U. after   17 cycles
 Normal termination of Gaussian 16 at Wed Apr  9 00:20:10 2025.
 Gaussian 16:  ES64L-G16RevC.01  3-Jul-2019

 ----------------------------------------------------------------------
 #t hf aug-cc-pvdz iop(5/13=1,5/36=2,99/5=2) pseudo=read geom=check gue
 ss=(read,tcheck) scf=(maxcycle=1)
 ----------------------------------------------------------------------
 -----
 title
 -----
 Structure from the checkpoint file:  "BDE49_nonexpt_2601_mol1.chk"
 Charge =  0 Multiplicity = 1

                         Standard orientation:
 ---------------------------------------------------------------------
 Center     Atomic      Atomic             Coordinates (Angstroms)
 Number     Number       Type             X           Y           Z
 ---------------------------------------------------------------------
      1         17           0        2.909573   -0.805403   -0.843235
      2         16           0        2.035076   -0.092244    0.940847
      3          6           0        0.456772    0.492589    0.380704
      4          6           0       -0.622330   -0.402008    0.306977
      5          6           0       -1.878271    0.069852   -0.074020
      6          6           0       -2.046318    1.431865   -0.368389
      7          6           0        0.291196    1.845964    0.082826
      8          1           0        1.137421    2.517667    0.140290
      9          6           0       -0.972955    2.305891   -0.287915
     10          1           0       -1.119331    3.354590   -0.519029
     11          1           0       -3.032727    1.773814   -0.657238
     12          1           0       -0.454635   -1.442005    0.546758
     13          8           0       -2.993520   -0.698836   -0.182356
     14          6           0       -2.887753   -2.092447    0.088221
     15          1           0       -2.580507   -2.276448    1.123295
     16          1           0       -2.183628   -2.579481   -0.594639
     17          1           0       -3.884455   -2.499930   -0.069568
 ---------------------------------------------------------------------

 SCF Done:  E(RHF) =  -1201.21155310     A.U. after    2 cycles

 The electronic state is 1-A.
 Alpha  occ. eigenvalues -- -103.66879 -93.59778 -20.61290 -11.32913 -11.30744
 Alpha  occ. eigenvalues --  -11.29500 -11.26597 -11.26498 -11.26285 -11.26169
 Alpha  occ. eigenvalues --  -10.69995  -8.89039  -8.35721  -8.35385  -8.35358
 Alpha  occ. eigenvalues --   -6.23149  -6.22908  -6.22512  -1.38364  -1.17188
 Alpha  occ. eigenvalues --   -1.14540  -1.05302  -1.03273  -0.96400  -0.92319
 Alpha  occ. eigenvalues --   -0.83884  -0.81525  -0.72975  -0.69321  -0.68998
 Alpha  occ. eigenvalues --   -0.67824  -0.63513  -0.60501  -0.59301  -0.55859
 Alpha  occ. eigenvalues --   -0.54796  -0.54172  -0.52850  -0.51090  -0.50255
 Alpha  occ. eigenvalues --   -0.48337  -0.44749  -0.37266  -0.36194  -0.33656
 Alpha virt. eigenvalues --    0.03026   0.03193   0.03728   0.04632   0.05516
 Alpha virt. eigenvalues --    0.05798   0.06159   0.08005   0.08881   0.09110
 Alpha virt. eigenvalues --    0.10172   0.10628   0.11840   0.12342   0.12986

 Mulliken charges:
               1
     1  Cl  -0.308446
     2  S    0.164077
     3  C    0.700996
     4  C    0.122740
     5  C    0.645190
     6  C    0.420649
     7  C    0.058480
     8  H   -0.469528
     9  C    0.656437
    10  H   -0.419995
    11  H   -0.547574
    12  H   -0.665648
    13  O   -0.701058
    14  C    0.804060
    15  H   -0.078666
    16  H   -0.071927
    17  H   -0.309786
 Sum of Mulliken charges =  -0.00000

 Dipole moment (field-independent basis, Debye):
    X=             -2.6207    Y=              0.0784    Z=              0.6610  Tot=              2.7039

 Test job not archived.
 1\1\GINC-SE109\SP\RHF\Aug-CC-pVDZ\C7H7Cl1O1S1\OHZDE\09-Apr-2025\0\\#t
 hf aug-cc-pvdz iop(5/13=1,5/36=2,99/5=2) pseudo=read geom=check guess=
 (read,tcheck) scf=(maxcycle=1)\\title\\0,1\Cl,0,2.909573,-0.805403,-0.
 843235\S,0,2.035076,-0.092244,0.940847\C,0,0.456772,0.492589,0.380704\
 C,0,-0.62233,-0.402008,0.306977\C,0,-1.878271,0.069852,-0.07402\C,0,-2
 .046318,1.431865,-0.368389\C,0,0.291196,1.845964,0.082826\H,0,1.137421
 ,2.517667,0.14029\C,0,-0.972955,2.305891,-0.287915\H,0,-1.119331,3.354
 59,-0.519029\H,0,-3.032727,1.773814,-0.657238\H,0,-0.454635,-1.442005,

 Normal termination of Gaussian 16 at Wed Apr  9 00:20:20 2025.
