 Gaussian 16, Revision C.01,

 ----------------------------------------------------------------------
 #t hf aug-cc-pvdz symm=none int=(grid=ultrafine) guess=(read,tcheck) s
 table=(opt,rrhf)
 ----------------------------------------------------------------------
 -----
 title
 -----
 Symbolic Z-matrix:
 Charge =  0 Multiplicity = 1

 SCF Done:  E(RHF) =  -1988.60080671     A.U. after   13 cycles

 1\1\GINC-SE252\Stability\RHF\Aug-CC-pVDZ\C2Cl4O1\OHZDE\08-Apr-2025\0\\
 #t hf aug-cc-pvdz symm=none int=(grid=ultrafine) guess=(read,tcheck) s
 table=(opt,rrhf)\\title\\0,1\C,0,-0.467071,-0.059855,-0.000001\C,0,0.7
 96895,0.863308,-0.000003\O,0,0.758398,2.039438,0.000029\Cl,0,2.332901,
 -0.039149,0.000013\Cl,0,-1.928145,0.952154,-0.000548\Cl,0,-0.438734,-1
 .078516,-1.470957\Cl,0,-0.439323,-1.077796,1.471479\\Version=ES64L-G16
 RevC.01\HF=-1988.6008067\RMSD=9.746e-09\Dipole=-0.1073244,-0.5097592,-
 0.0000095\Quadrupole=0.602923,-2.3253345,1.7224115,-1.5675339,-0.00025

 Normal termination of Gaussian 16 at Tue Apr  8 22:31:25 2025.
 Gaussian 16:  ES64L-G16RevC.01  3-Jul-2019

 ----------------------------------------------------------------------
 #t hf aug-cc-pvdz iop(5/13=1,5/36=2,99/5=2) pseudo=read geom=check gue
 ss=(read,tcheck) scf=(maxcycle=1)
 ----------------------------------------------------------------------
 -----
 title
 -----
 Structure from the checkpoint file:  "BDE49_expt_1076_mol1.chk"
 Charge =  0 Multiplicity = 1

                         Standard orientation:
 ---------------------------------------------------------------------
 Center     Atomic      Atomic             Coordinates (Angstroms)
 Number     Number       Type             X           Y           Z
 ---------------------------------------------------------------------
      1          6           0       -0.467071   -0.059855   -0.000001
      2          6           0        0.796895    0.863308   -0.000003
      3          8           0        0.758398    2.039438    0.000029
      4         17           0        2.332901   -0.039149    0.000013
      5         17           0       -1.928145    0.952154   -0.000548
      6         17           0       -0.438734   -1.078516   -1.470957
      7         17           0       -0.439323   -1.077796    1.471479
 ---------------------------------------------------------------------

 SCF Done:  E(RHF) =  -1988.72101116     A.U. after    2 cycles

 The electronic state is 1-A.
 Alpha  occ. eigenvalues -- -103.71395-103.71394-103.70792-103.70450 -20.64789
 Alpha  occ. eigenvalues --  -11.48571 -11.46379 -10.74682 -10.74662 -10.74081
 Alpha  occ. eigenvalues --  -10.73772  -8.40394  -8.40389  -8.40043  -8.40042
 Alpha  occ. eigenvalues --   -8.40037  -8.40035  -8.39805  -8.39487  -8.39449
 Alpha  occ. eigenvalues --   -8.39448  -8.39162  -8.39154  -1.45802  -1.28980
 Alpha  occ. eigenvalues --   -1.20175  -1.18238  -1.17485  -0.97023  -0.80144
 Alpha  occ. eigenvalues --   -0.73907  -0.72305  -0.68649  -0.64865  -0.62267
 Alpha  occ. eigenvalues --   -0.55208  -0.54059  -0.53078  -0.51922  -0.50596
 Alpha  occ. eigenvalues --   -0.49572  -0.48866  -0.48228  -0.48201
 Alpha virt. eigenvalues --    0.05289   0.05334   0.06624   0.07560   0.08527
 Alpha virt. eigenvalues --    0.08939   0.09798   0.11544   0.11620   0.13044
 Alpha virt. eigenvalues --    0.14285   0.15062   0.16115   0.17012   0.17020

 Mulliken charges:
               1
     1  C   -0.592856
     2  C    0.438460
     3  O   -0.237077
     4  Cl   0.020427
     5  Cl   0.110399
     6  Cl   0.130306
     7  Cl   0.130341
 Sum of Mulliken charges =  -0.00000

 Dipole moment (field-independent basis, Debye):
    X=             -0.2729    Y=             -1.4483    Z=             -0.0000  Tot=              1.4738

 Test job not archived.
 1\1\GINC-SE252\SP\RHF\Aug-CC-pVDZ\C2Cl4O1\OHZDE\08-Apr-2025\0\\#t hf a
 ug-cc-pvdz iop(5/13=1,5/36=2,99/5=2) pseudo=read geom=check guess=(rea
 d,tcheck) scf=(maxcycle=1)\\title\\0,1\C,0,-0.467071,-0.059855,-0.0000
 01\C,0,0.796895,0.863308,-0.000003\O,0,0.758398,2.039438,0.000029\Cl,0
 ,2.332901,-0.039149,0.000013\Cl,0,-1.928145,0.952154,-0.000548\Cl,0,-0
 .438734,-1.078516,-1.470957\Cl,0,-0.439323,-1.077796,1.471479\\Version
 =ES64L-G16RevC.01\State=1-A\HF=-1988.7210112\RMSD=4.598e-03\Dipole=-0.
 1073675,-0.5697974,-0.0000125\Quadrupole=0.7311341,-2.5681957,1.837061

 Normal termination of Gaussian 16 at Tue Apr  8 22:31:28 2025.
