 Gaussian 16, Revision C.01,

 ----------------------------------------------------------------------
 #t hf aug-cc-pvdz symm=none int=(grid=ultrafine) guess=(read,tcheck) s
 table=(opt,rrhf)
 ----------------------------------------------------------------------
 -----
 title
 -----
 Symbolic Z-matrix:
 Charge =  0 Multiplicity = 1

 SCF Done:  E(RHF) =  -962.594663172     A.U. after   16 cycles
 Normal termination of Gaussian 16 at Tue Apr  8 23:31:20 2025.
 Gaussian 16:  ES64L-G16RevC.01  3-Jul-2019

 ----------------------------------------------------------------------
 #t hf aug-cc-pvdz iop(5/13=1,5/36=2,99/5=2) pseudo=read geom=check gue
 ss=(read,tcheck) scf=(maxcycle=1)
 ----------------------------------------------------------------------
 -----
 title
 -----
 Structure from the checkpoint file:  "BDE49_nonexpt_1369_mol1.chk"
 Charge =  0 Multiplicity = 1

                         Standard orientation:
 ---------------------------------------------------------------------
 Center     Atomic      Atomic             Coordinates (Angstroms)
 Number     Number       Type             X           Y           Z
 ---------------------------------------------------------------------
      1          6           0       -0.692621    0.110574    0.336074
      2          6           0        0.803818    0.028401    0.162173
      3          6           0        1.631973   -0.137964    1.276687
      4          1           0        1.196972   -0.158924    2.269989
      5          6           0        3.007628   -0.265828    1.117256
      6          1           0        3.640866   -0.388269    1.988395
      7          6           0        3.571140   -0.227287   -0.157681
      8          1           0        4.643847   -0.322814   -0.280283
      9          6           0        2.753080   -0.058422   -1.271373
     10          1           0        3.186365   -0.020504   -2.264134
     11          6           0        1.374140    0.066355   -1.116224
     12          1           0        0.742496    0.217999   -1.983406
     13          7           0       -1.210278    1.276704   -0.413367
     14         15           0       -1.438667   -1.454191   -0.409762
     15          9           0       -0.835906    2.391756    0.365081
     16          9           0       -2.607558    1.240098   -0.207114
     17          9           0       -2.824889   -1.574148    0.441894
     18          1           0       -0.649942   -2.266645    0.444811
     19          1           0       -0.988418    0.200761    1.384404
 ---------------------------------------------------------------------

 SCF Done:  E(RHF) =  -962.818899627     A.U. after    2 cycles

 The electronic state is 1-A.
 Alpha  occ. eigenvalues --  -81.34752 -26.16537 -26.16385 -26.12499 -15.84639
 Alpha  occ. eigenvalues --  -11.32256 -11.28378 -11.26984 -11.26857 -11.26694
 Alpha  occ. eigenvalues --  -11.26612 -11.26528  -7.84205  -4.98341  -4.98014
 Alpha  occ. eigenvalues --   -4.97713  -1.71337  -1.65591  -1.64696  -1.19936
 Alpha  occ. eigenvalues --   -1.15565  -1.04950  -1.03368  -0.95470  -0.86032
 Alpha  occ. eigenvalues --   -0.85643  -0.83973  -0.80962  -0.80611  -0.78199
 Alpha  occ. eigenvalues --   -0.74919  -0.74079  -0.73315  -0.71658  -0.69937
 Alpha  occ. eigenvalues --   -0.69358  -0.68147  -0.66001  -0.63423  -0.61331
 Alpha  occ. eigenvalues --   -0.60332  -0.54307  -0.52444  -0.52225  -0.51003
 Alpha  occ. eigenvalues --   -0.49791  -0.40215  -0.36232  -0.35419
 Alpha virt. eigenvalues --    0.02665   0.03530   0.04286   0.05187   0.05445
 Alpha virt. eigenvalues --    0.06492   0.07292   0.07715   0.08133   0.08996
 Alpha virt. eigenvalues --    0.09613   0.10115   0.11450   0.12563   0.12947

 Mulliken charges:
               1
     1  C    0.596024
     2  C    0.994862
     3  C    0.488808
     4  H   -0.557829
     5  C    0.312161
     6  H   -0.445178
     7  C    0.650559
     8  H   -0.438643
     9  C    0.380801
    10  H   -0.441053
    11  C    0.010495
    12  H   -0.602332
    13  N   -0.129532
    14  P    0.852107
    15  F   -0.368115
    16  F   -0.364094
    17  F   -0.679285
    18  H    0.109118
    19  H   -0.368873
 Sum of Mulliken charges =   0.00000

 Dipole moment (field-independent basis, Debye):
    X=              4.3133    Y=             -2.0903    Z=              0.2473  Tot=              4.7995

 Test job not archived.
 1\1\GINC-SE092\SP\RHF\Aug-CC-pVDZ\C7H7F3N1P1\OHZDE\08-Apr-2025\0\\#t h
 f aug-cc-pvdz iop(5/13=1,5/36=2,99/5=2) pseudo=read geom=check guess=(
 read,tcheck) scf=(maxcycle=1)\\title\\0,1\C,0,-0.692621,0.110574,0.336
 074\C,0,0.803818,0.028401,0.162173\C,0,1.631973,-0.137964,1.276687\H,0
 ,1.196972,-0.158924,2.269989\C,0,3.007628,-0.265828,1.117256\H,0,3.640
 866,-0.388269,1.988395\C,0,3.57114,-0.227287,-0.157681\H,0,4.643847,-0
 .322814,-0.280283\C,0,2.75308,-0.058422,-1.271373\H,0,3.186365,-0.0205
 04,-2.264134\C,0,1.37414,0.066355,-1.116224\H,0,0.742496,0.217999,-1.9

 Normal termination of Gaussian 16 at Tue Apr  8 23:31:34 2025.
