 Gaussian 16, Revision C.01,

 ----------------------------------------------------------------------
 #t hf aug-cc-pvdz symm=none int=(grid=ultrafine) guess=(read,tcheck) s
 table=(opt,rrhf)
 ----------------------------------------------------------------------
 -----
 title
 -----
 Symbolic Z-matrix:
 Charge =  0 Multiplicity = 1

 SCF Done:  E(RHF) =  -702.593270981     A.U. after   15 cycles
 Normal termination of Gaussian 16 at Tue Apr  8 23:16:50 2025.
 Gaussian 16:  ES64L-G16RevC.01  3-Jul-2019

 ----------------------------------------------------------------------
 #t hf aug-cc-pvdz iop(5/13=1,5/36=2,99/5=2) pseudo=read geom=check gue
 ss=(read,tcheck) scf=(maxcycle=1)
 ----------------------------------------------------------------------
 -----
 title
 -----
 Structure from the checkpoint file:  "BDE49_nonexpt_1069_mol1.chk"
 Charge =  0 Multiplicity = 1

                         Standard orientation:
 ---------------------------------------------------------------------
 Center     Atomic      Atomic             Coordinates (Angstroms)
 Number     Number       Type             X           Y           Z
 ---------------------------------------------------------------------
      1         17           0        1.740618   -0.457054   -0.000007
      2          8           0        0.748341    0.974771    0.000003
      3          6           0       -0.589187    0.748981    0.000005
      4          7           0       -1.127064   -0.392064    0.000000
      5          1           0       -1.111528    1.703931    0.000012
      6          8           0       -2.529787   -0.284351    0.000006
      7          1           0       -2.802842   -1.206819    0.000002
 ---------------------------------------------------------------------

 SCF Done:  E(RHF) =  -702.687939032     A.U. after    2 cycles

 The electronic state is 1-A.
 Alpha  occ. eigenvalues -- -103.73515 -20.69040 -20.62791 -15.69729 -11.37259
 Alpha  occ. eigenvalues --  -10.76136  -8.41903  -8.41448  -8.41433  -1.43002
 Alpha  occ. eigenvalues --   -1.38788  -1.16509  -1.11883  -0.83981  -0.76809
 Alpha  occ. eigenvalues --   -0.70517  -0.68584  -0.67449  -0.61182  -0.59895
 Alpha  occ. eigenvalues --   -0.50300  -0.49264  -0.46351  -0.40724
 Alpha virt. eigenvalues --    0.03267   0.04081   0.04675   0.08355   0.08931
 Alpha virt. eigenvalues --    0.11935   0.13703   0.14308   0.14525   0.16818
 Alpha virt. eigenvalues --    0.17183   0.17618   0.18447   0.21076   0.21766

 Mulliken charges:
               1
     1  Cl   0.331449
     2  O   -0.613522
     3  C    0.793214
     4  N   -0.078471
     5  H   -0.146546
     6  O   -0.474180
     7  H    0.188055
 Sum of Mulliken charges =  -0.00000

 Dipole moment (field-independent basis, Debye):
    X=             -0.5718    Y=             -0.3193    Z=              0.0000  Tot=              0.6549

 Test job not archived.
 1\1\GINC-SE073\SP\RHF\Aug-CC-pVDZ\C1H2Cl1N1O2\OHZDE\08-Apr-2025\0\\#t
 hf aug-cc-pvdz iop(5/13=1,5/36=2,99/5=2) pseudo=read geom=check guess=
 (read,tcheck) scf=(maxcycle=1)\\title\\0,1\Cl,0,1.740618,-0.457054,-0.
 000007\O,0,0.748341,0.974771,0.000003\C,0,-0.589187,0.748981,0.000005\
 N,0,-1.127064,-0.392064,0.\H,0,-1.111528,1.703931,0.000012\O,0,-2.5297
 87,-0.28435,0.000006\H,0,-2.802842,-1.206818,0.000002\\Version=ES64L-G
 16RevC.01\State=1-A\HF=-702.687939\RMSD=2.590e-03\Dipole=-0.2249761,-0
 .1256275,0.0000002\Quadrupole=-0.1538838,2.0995007,-1.9456169,0.354887

 Normal termination of Gaussian 16 at Tue Apr  8 23:16:52 2025.
