 Gaussian 16, Revision C.01,

 ----------------------------------------------------------------------
 #t hf aug-cc-pvdz symm=none int=(grid=ultrafine) guess=(read,tcheck) s
 table=(opt,rrhf)
 ----------------------------------------------------------------------
 -----
 title
 -----
 Symbolic Z-matrix:
 Charge =  0 Multiplicity = 1

 SCF Done:  E(RHF) =  -728.692970637     A.U. after   15 cycles

 1\1\GINC-SE118\Stability\RHF\Aug-CC-pVDZ\C7H7Cl1\OHZDE\08-Apr-2025\0\\
 #t hf aug-cc-pvdz symm=none int=(grid=ultrafine) guess=(read,tcheck) s
 table=(opt,rrhf)\\title\\0,1\C,0,-0.021557,0.000003,0.445629\C,0,0.657
 738,-1.204991,0.241653\C,0,1.991024,-1.205924,-0.157203\C,0,2.660366,-
 0.000004,-0.357192\C,0,1.991028,1.205921,-0.157208\C,0,0.657742,1.2049
 94,0.241648\H,0,0.137366,2.144925,0.392912\H,0,3.699409,-0.000006,-0.6
 66422\H,0,2.508044,2.146395,-0.310255\H,0,0.137358,-2.144919,0.392921\
 H,0,2.508036,-2.146401,-0.310246\C,0,-1.452931,0.000007,0.882066\Cl,0,

 Normal termination of Gaussian 16 at Tue Apr  8 22:30:20 2025.
 Gaussian 16:  ES64L-G16RevC.01  3-Jul-2019

 ----------------------------------------------------------------------
 #t hf aug-cc-pvdz iop(5/13=1,5/36=2,99/5=2) pseudo=read geom=check gue
 ss=(read,tcheck) scf=(maxcycle=1)
 ----------------------------------------------------------------------
 -----
 title
 -----
 Structure from the checkpoint file:  "BDE49_expt_1040_mol1.chk"
 Charge =  0 Multiplicity = 1

                         Standard orientation:
 ---------------------------------------------------------------------
 Center     Atomic      Atomic             Coordinates (Angstroms)
 Number     Number       Type             X           Y           Z
 ---------------------------------------------------------------------
      1          6           0       -0.021557    0.000003    0.445629
      2          6           0        0.657738   -1.204991    0.241653
      3          6           0        1.991024   -1.205924   -0.157203
      4          6           0        2.660366   -0.000004   -0.357192
      5          6           0        1.991028    1.205921   -0.157208
      6          6           0        0.657742    1.204994    0.241648
      7          1           0        0.137366    2.144925    0.392912
      8          1           0        3.699409   -0.000006   -0.666422
      9          1           0        2.508044    2.146395   -0.310255
     10          1           0        0.137358   -2.144919    0.392921
     11          1           0        2.508036   -2.146401   -0.310246
     12          6           0       -1.452931    0.000007    0.882066
     13         17           0       -2.616087   -0.000003   -0.543622
     14          1           0       -1.708596    0.889513    1.453145
     15          1           0       -1.708597   -0.889491    1.453158
 ---------------------------------------------------------------------

 SCF Done:  E(RHF) =  -728.790210366     A.U. after    2 cycles

 The electronic state is 1-A.
 Alpha  occ. eigenvalues -- -103.64528 -11.31392 -11.26456 -11.25592 -11.25588
 Alpha  occ. eigenvalues --  -11.25517 -11.25399 -11.25356 -10.67768  -8.33480
 Alpha  occ. eigenvalues --   -8.33196  -8.33190  -1.17056  -1.13871  -1.03863
 Alpha  occ. eigenvalues --   -1.02101  -0.92513  -0.84224  -0.81247  -0.71311
 Alpha  occ. eigenvalues --   -0.66616  -0.65410  -0.60419  -0.60258  -0.59148
 Alpha  occ. eigenvalues --   -0.56750  -0.51684  -0.50646  -0.50376  -0.44598
 Alpha  occ. eigenvalues --   -0.44432  -0.35019  -0.34484
 Alpha virt. eigenvalues --    0.03260   0.03920   0.03937   0.05435   0.05658
 Alpha virt. eigenvalues --    0.07323   0.07994   0.08279   0.09038   0.10008
 Alpha virt. eigenvalues --    0.11219   0.12149   0.12948   0.14094   0.14278

 Mulliken charges:
               1
     1  C    0.946385
     2  C    0.159459
     3  C    0.446270
     4  C    0.415903
     5  C    0.446270
     6  C    0.159464
     7  H   -0.534359
     8  H   -0.430937
     9  H   -0.434574
    10  H   -0.534358
    11  H   -0.434573
    12  C    0.231167
    13  Cl  -0.163680
    14  H   -0.136221
    15  H   -0.136217
 Sum of Mulliken charges =  -0.00000

 Dipole moment (field-independent basis, Debye):
    X=              1.9907    Y=              0.0000    Z=              1.5784  Tot=              2.5405

 Test job not archived.
 1\1\GINC-SE118\SP\RHF\Aug-CC-pVDZ\C7H7Cl1\OHZDE\08-Apr-2025\0\\#t hf a
 ug-cc-pvdz iop(5/13=1,5/36=2,99/5=2) pseudo=read geom=check guess=(rea
 d,tcheck) scf=(maxcycle=1)\\title\\0,1\C,0,-0.021557,0.000003,0.445629
 \C,0,0.657738,-1.204991,0.241653\C,0,1.991024,-1.205924,-0.157203\C,0,
 2.660366,-0.000004,-0.357192\C,0,1.991028,1.205921,-0.157208\C,0,0.657
 742,1.204994,0.241648\H,0,0.137366,2.144925,0.392912\H,0,3.699409,-0.0
 00006,-0.666422\H,0,2.508044,2.146395,-0.310255\H,0,0.137358,-2.144919
 ,0.392921\H,0,2.508036,-2.146401,-0.310246\C,0,-1.452931,0.000007,0.88

 Normal termination of Gaussian 16 at Tue Apr  8 22:30:26 2025.
