 Gaussian 16, Revision C.01,

 ----------------------------------------------------------------------
 #t hf aug-cc-pvdz symm=none int=(grid=ultrafine) guess=(read,tcheck) s
 table=(opt,rrhf)
 ----------------------------------------------------------------------
 -----
 title
 -----
 Symbolic Z-matrix:
 Charge =  0 Multiplicity = 1

 SCF Done:  E(RHF) =  -1530.76500850     A.U. after   13 cycles
 Normal termination of Gaussian 16 at Tue Apr  8 23:42:51 2025.
 Gaussian 16:  ES64L-G16RevC.01  3-Jul-2019

 ----------------------------------------------------------------------
 #t hf aug-cc-pvdz iop(5/13=1,5/36=2,99/5=2) pseudo=read geom=check gue
 ss=(read,tcheck) scf=(maxcycle=1)
 ----------------------------------------------------------------------
 -----
 title
 -----
 Structure from the checkpoint file:  "BDE49_nonexpt_1703_mol1.chk"
 Charge =  0 Multiplicity = 1

                         Standard orientation:
 ---------------------------------------------------------------------
 Center     Atomic      Atomic             Coordinates (Angstroms)
 Number     Number       Type             X           Y           Z
 ---------------------------------------------------------------------
      1         15           0       -1.499755   -0.125280   -0.055449
      2         16           0        0.000000    1.396710   -0.000021
      3         15           0        1.499761   -0.125274    0.055462
      4          8           0       -1.250391   -1.016011   -1.207941
      5          8           0       -2.879286    0.657576   -0.066214
      6          8           0        1.250500   -1.015870    1.208079
      7          8           0        1.531139   -0.763588   -1.382725
      8          1           0        0.624036   -1.049726   -1.634874
      9          1           0       -3.247684    0.729999   -0.955831
     10          8           0        2.879295    0.657581    0.066015
     11          1           0        3.247772    0.730108    0.955590
     12          8           0       -1.531261   -0.763425    1.382809
     13          1           0       -0.624181   -1.049536    1.635075
 ---------------------------------------------------------------------

 SCF Done:  E(RHF) =  -1531.06271415     A.U. after    2 cycles

 The electronic state is 1-A.
 Alpha  occ. eigenvalues --  -93.57563 -81.46849 -81.46847 -20.65100 -20.65099
 Alpha  occ. eigenvalues --  -20.62870 -20.62869 -20.56502 -20.56501  -8.87615
 Alpha  occ. eigenvalues --   -7.94978  -7.94966  -6.21650  -6.21547  -6.21175
 Alpha  occ. eigenvalues --   -5.09620  -5.09614  -5.09547  -5.09539  -5.09227
 Alpha  occ. eigenvalues --   -5.09170  -1.41348  -1.41067  -1.37445  -1.37230
 Alpha  occ. eigenvalues --   -1.29965  -1.29805  -1.01200  -0.87939  -0.87104
 Alpha  occ. eigenvalues --   -0.76077  -0.76037  -0.73294  -0.70920  -0.69916
 Alpha  occ. eigenvalues --   -0.68793  -0.66957  -0.64189  -0.62794  -0.61940
 Alpha  occ. eigenvalues --   -0.61297  -0.60267  -0.55421  -0.55309  -0.52654
 Alpha  occ. eigenvalues --   -0.52500  -0.49503  -0.47092  -0.41588
 Alpha virt. eigenvalues --    0.02863   0.03515   0.06081   0.07052   0.07358
 Alpha virt. eigenvalues --    0.08466   0.09776   0.10010   0.10803   0.11154
 Alpha virt. eigenvalues --    0.12332   0.13289   0.13924   0.14878   0.16166

 Mulliken charges:
               1
     1  P    2.243109
     2  S   -0.599296
     3  P    2.243112
     4  O   -0.991679
     5  O   -0.631085
     6  O   -0.991654
     7  O   -0.739947
     8  H    0.263648
     9  H    0.155594
    10  O   -0.631094
    11  H    0.155597
    12  O   -0.739939
    13  H    0.263632
 Sum of Mulliken charges =  -0.00000

 Dipole moment (field-independent basis, Debye):
    X=             -0.0003    Y=              3.0019    Z=             -0.0001  Tot=              3.0019

 Test job not archived.
 1\1\GINC-SE252\SP\RHF\Aug-CC-pVDZ\H4O6P2S1\OHZDE\08-Apr-2025\0\\#t hf
 aug-cc-pvdz iop(5/13=1,5/36=2,99/5=2) pseudo=read geom=check guess=(re
 ad,tcheck) scf=(maxcycle=1)\\title\\0,1\P,0,-1.499755,-0.12528,-0.0554
 49\S,0,0.,1.39671,-0.000021\P,0,1.499761,-0.125274,0.055462\O,0,-1.250
 391,-1.016011,-1.207941\O,0,-2.879286,0.657576,-0.066214\O,0,1.2505,-1
 .01587,1.208079\O,0,1.531139,-0.763588,-1.382725\H,0,0.624036,-1.04972
 6,-1.634874\H,0,-3.247684,0.729999,-0.955831\O,0,2.879295,0.657581,0.0
 66015\H,0,3.247772,0.730108,0.95559\O,0,-1.531261,-0.763425,1.382809\H

 Normal termination of Gaussian 16 at Tue Apr  8 23:42:57 2025.
