 Gaussian 16, Revision C.01,

 ----------------------------------------------------------------------
 #t hf aug-cc-pvdz symm=none int=(grid=ultrafine) guess=(read,tcheck) s
 table=(opt,rrhf)
 ----------------------------------------------------------------------
 -----
 title
 -----
 Symbolic Z-matrix:
 Charge =  0 Multiplicity = 1

 SCF Done:  E(RHF) =  -999.465937061     A.U. after   11 cycles
 Normal termination of Gaussian 16 at Tue Apr  8 23:39:06 2025.
 Gaussian 16:  ES64L-G16RevC.01  3-Jul-2019

 ----------------------------------------------------------------------
 #t hf aug-cc-pvdz iop(5/13=1,5/36=2,99/5=2) pseudo=read geom=check gue
 ss=(read,tcheck) scf=(maxcycle=1)
 ----------------------------------------------------------------------
 -----
 title
 -----
 Structure from the checkpoint file:  "BDE49_nonexpt_163_mol1.chk"
 Charge =  0 Multiplicity = 1

                         Standard orientation:
 ---------------------------------------------------------------------
 Center     Atomic      Atomic             Coordinates (Angstroms)
 Number     Number       Type             X           Y           Z
 ---------------------------------------------------------------------
      1         17           0        1.534906   -0.544479   -0.000012
      2         17           0       -1.534906   -0.544479    0.000000
      3          7           0        0.000000    1.739858    0.000009
      4          5           0        0.000000    0.354920    0.000025
      5          1           0        0.851432    2.279334   -0.000003
      6          1           0       -0.851431    2.279334    0.000004
 ---------------------------------------------------------------------

 SCF Done:  E(RHF) =  -999.527339732     A.U. after    2 cycles

 The electronic state is 1-A.
 Alpha  occ. eigenvalues -- -103.66097-103.66096 -15.64961 -10.69587 -10.69552
 Alpha  occ. eigenvalues --   -8.35270  -8.35264  -8.35037  -8.35035  -8.35024
 Alpha  occ. eigenvalues --   -8.35022  -7.73200  -1.19124  -1.13808  -1.13717
 Alpha  occ. eigenvalues --   -0.73821  -0.71657  -0.62564  -0.55688  -0.53897
 Alpha  occ. eigenvalues --   -0.49069  -0.47613  -0.46333  -0.44320
 Alpha virt. eigenvalues --    0.03152   0.04991   0.05410   0.05736   0.07827
 Alpha virt. eigenvalues --    0.08693   0.13582   0.13795   0.15691   0.15779
 Alpha virt. eigenvalues --    0.16099   0.17014   0.18153   0.18672   0.19490

 Mulliken charges:
               1
     1  Cl  -0.330426
     2  Cl  -0.330426
     3  N   -0.031023
     4  B    0.623700
     5  H    0.034089
     6  H    0.034087
 Sum of Mulliken charges =  -0.00000

 Dipole moment (field-independent basis, Debye):
    X=              0.0000    Y=              3.0115    Z=              0.0000  Tot=              3.0115

 Test job not archived.
 1\1\GINC-SE334\SP\RHF\Aug-CC-pVDZ\B1Cl2H2N1\OHZDE\08-Apr-2025\0\\#t hf
  aug-cc-pvdz iop(5/13=1,5/36=2,99/5=2) pseudo=read geom=check guess=(r
 ead,tcheck) scf=(maxcycle=1)\\title\\0,1\Cl,0,1.534906,-0.544479,-0.00
 0012\Cl,0,-1.534906,-0.544479,0.\N,0,0.,1.739858,0.000009\B,0,0.,0.354
 92,0.000025\H,0,0.851432,2.279334,-0.000003\H,0,-0.851431,2.279334,0.0
 00004\\Version=ES64L-G16RevC.01\State=1-A\HF=-999.5273397\RMSD=2.268e-
 03\Dipole=0.0000003,1.1848208,0.0000142\Quadrupole=-1.7932305,3.344247
 6,-1.5510171,0.0000016,0.0000005,-0.0000148\PG=C01 [X(B1Cl2H2N1)]\\@

 Normal termination of Gaussian 16 at Tue Apr  8 23:39:08 2025.
