 Gaussian 16, Revision C.01,

 ----------------------------------------------------------------------
 #t hf aug-cc-pvdz symm=none int=(grid=ultrafine) guess=(read,tcheck) s
 table=(opt,rrhf)
 ----------------------------------------------------------------------
 -----
 title
 -----
 Symbolic Z-matrix:
 Charge =  0 Multiplicity = 1

 SCF Done:  E(RHF) =  -986.196027312     A.U. after   15 cycles
 Normal termination of Gaussian 16 at Tue Apr  8 23:30:39 2025.
 Gaussian 16:  ES64L-G16RevC.01  3-Jul-2019

 ----------------------------------------------------------------------
 #t hf aug-cc-pvdz iop(5/13=1,5/36=2,99/5=2) pseudo=read geom=check gue
 ss=(read,tcheck) scf=(maxcycle=1)
 ----------------------------------------------------------------------
 -----
 title
 -----
 Structure from the checkpoint file:  "BDE49_nonexpt_1407_mol1.chk"
 Charge =  0 Multiplicity = 1

                         Standard orientation:
 ---------------------------------------------------------------------
 Center     Atomic      Atomic             Coordinates (Angstroms)
 Number     Number       Type             X           Y           Z
 ---------------------------------------------------------------------
      1         15           0        1.083645   -1.340148    0.275384
      2         15           0       -1.083647   -1.340146   -0.275383
      3          6           0        1.608964    0.471743    0.083322
      4          6           0        0.622206    1.564499    0.459494
      5          6           0       -0.622201    1.564495   -0.459489
      6          6           0       -1.608958    0.471744   -0.083304
      7          1           0        1.149550    2.517658    0.386065
      8          1           0        0.311314    1.425947    1.501575
      9          8           0       -2.730097    0.706556    0.289998
     10          8           0        2.730091    0.706552   -0.290017
     11          1           0       -0.311309    1.425932   -1.501568
     12          1           0       -1.149543    2.517655   -0.386071
     13          1           0        1.590117   -1.711262   -0.989380
     14          1           0       -1.590119   -1.711268    0.989378
 ---------------------------------------------------------------------

 SCF Done:  E(RHF) =  -986.325564493     A.U. after    2 cycles

 The electronic state is 1-A.
 Alpha  occ. eigenvalues --  -81.28975 -81.28975 -20.59552 -20.59552 -11.37529
 Alpha  occ. eigenvalues --  -11.37528 -11.28352 -11.28304  -7.79429  -7.79419
 Alpha  occ. eigenvalues --   -4.93357  -4.93333  -4.93331  -4.93278  -4.93048
 Alpha  occ. eigenvalues --   -4.92985  -1.38672  -1.38542  -1.10148  -0.96079
 Alpha  occ. eigenvalues --   -0.89918  -0.82235  -0.76666  -0.73288  -0.68637
 Alpha  occ. eigenvalues --   -0.67261  -0.66098  -0.62393  -0.61591  -0.58088
 Alpha  occ. eigenvalues --   -0.55887  -0.55703  -0.52850  -0.49681  -0.47057
 Alpha  occ. eigenvalues --   -0.42429  -0.38275  -0.35218
 Alpha virt. eigenvalues --    0.03080   0.04542   0.04560   0.05080   0.05676
 Alpha virt. eigenvalues --    0.06760   0.07184   0.07865   0.08102   0.09797
 Alpha virt. eigenvalues --    0.10532   0.10836   0.10880   0.11532   0.11942

 Mulliken charges:
               1
     1  P   -0.043922
     2  P   -0.043921
     3  C    0.205962
     4  C    0.178324
     5  C    0.178339
     6  C    0.205950
     7  H   -0.090501
     8  H   -0.000527
     9  O   -0.511216
    10  O   -0.511219
    11  H   -0.000527
    12  H   -0.090503
    13  H    0.261882
    14  H    0.261880
 Sum of Mulliken charges =  -0.00000

 Dipole moment (field-independent basis, Debye):
    X=              0.0000    Y=              0.0093    Z=              0.0000  Tot=              0.0093

 Test job not archived.
 1\1\GINC-SE361\SP\RHF\Aug-CC-pVDZ\C4H6O2P2\OHZDE\08-Apr-2025\0\\#t hf
 aug-cc-pvdz iop(5/13=1,5/36=2,99/5=2) pseudo=read geom=check guess=(re
 ad,tcheck) scf=(maxcycle=1)\\title\\0,1\P,0,-1.083645,-1.340148,-0.275
 384\P,0,1.083647,-1.340146,0.275383\C,0,-1.608964,0.471743,-0.083322\C
 ,0,-0.622206,1.564499,-0.459494\C,0,0.622201,1.564495,0.459489\C,0,1.6
 08958,0.471744,0.083304\H,0,-1.149549,2.517658,-0.386065\H,0,-0.311314
 ,1.425947,-1.501575\O,0,2.730097,0.706556,-0.289998\O,0,-2.730091,0.70
 6553,0.290017\H,0,0.311309,1.425932,1.501568\H,0,1.149544,2.517655,0.3

 Normal termination of Gaussian 16 at Tue Apr  8 23:30:45 2025.
