 Gaussian 16, Revision C.01,

 ----------------------------------------------------------------------
 #t hf aug-cc-pvdz symm=none int=(grid=ultrafine) guess=(read,tcheck) s
 table=(opt,rrhf)
 ----------------------------------------------------------------------
 -----
 title
 -----
 Symbolic Z-matrix:
 Charge =  0 Multiplicity = 1

 SCF Done:  E(RHF) =  -306.958243141     A.U. after   14 cycles

 1\1\GINC-SE159\Stability\RHF\Aug-CC-pVDZ\C4H10O2\OHZDE\08-Apr-2025\0\\
 #t hf aug-cc-pvdz symm=none int=(grid=ultrafine) guess=(read,tcheck) s
 table=(opt,rrhf)\\title\\0,1\C,0,-0.391021,0.00055,0.037007\O,0,0.7277
 27,-0.058659,-0.886945\O,0,1.972902,0.102425,-0.151235\H,0,2.350809,-0
 .779914,-0.261539\C,0,-0.316753,-1.161821,1.03084\H,0,-0.273576,-2.115
 918,0.49846\H,0,-1.196411,-1.171025,1.67953\H,0,0.56855,-1.070698,1.66
 2295\C,0,-0.407631,1.35679,0.745744\H,0,0.49718,1.485894,1.340685\H,0,
 -1.273913,1.433386,1.408541\H,0,-0.456798,2.164937,0.012559\C,0,-1.581

 Normal termination of Gaussian 16 at Tue Apr  8 22:42:07 2025.
 Gaussian 16:  ES64L-G16RevC.01  3-Jul-2019

 ----------------------------------------------------------------------
 #t hf aug-cc-pvdz iop(5/13=1,5/36=2,99/5=2) pseudo=read geom=check gue
 ss=(read,tcheck) scf=(maxcycle=1)
 ----------------------------------------------------------------------
 -----
 title
 -----
 Structure from the checkpoint file:  "BDE49_expt_1466_mol1.chk"
 Charge =  0 Multiplicity = 1

                         Standard orientation:
 ---------------------------------------------------------------------
 Center     Atomic      Atomic             Coordinates (Angstroms)
 Number     Number       Type             X           Y           Z
 ---------------------------------------------------------------------
      1          6           0       -0.391021    0.000550    0.037007
      2          8           0        0.727727   -0.058659   -0.886945
      3          8           0        1.972902    0.102425   -0.151235
      4          1           0        2.350809   -0.779914   -0.261539
      5          6           0       -0.316753   -1.161821    1.030840
      6          1           0       -0.273576   -2.115918    0.498460
      7          1           0       -1.196411   -1.171025    1.679530
      8          1           0        0.568550   -1.070698    1.662295
      9          6           0       -0.407631    1.356790    0.745744
     10          1           0        0.497180    1.485894    1.340685
     11          1           0       -1.273913    1.433386    1.408541
     12          1           0       -0.456798    2.164937    0.012559
     13          6           0       -1.581807   -0.151182   -0.912847
     14          1           0       -1.538979   -1.108376   -1.437161
     15          1           0       -1.582650    0.650392   -1.654164
     16          1           0       -2.515977   -0.104831   -0.348223
 ---------------------------------------------------------------------

 SCF Done:  E(RHF) =  -307.056316531     A.U. after    2 cycles

 The electronic state is 1-A.
 Alpha  occ. eigenvalues --  -20.62992 -20.62949 -11.30273 -11.22944 -11.22861
 Alpha  occ. eigenvalues --  -11.22238  -1.41318  -1.20501  -1.04675  -0.94090
 Alpha  occ. eigenvalues --   -0.93838  -0.77213  -0.72231  -0.66385  -0.65412
 Alpha  occ. eigenvalues --   -0.61587  -0.58405  -0.55830  -0.55021  -0.53832
 Alpha  occ. eigenvalues --   -0.52205  -0.51541  -0.49562  -0.47058  -0.45021
 Alpha virt. eigenvalues --    0.03423   0.04416   0.04859   0.05054   0.06723
 Alpha virt. eigenvalues --    0.06818   0.06970   0.07743   0.07925   0.09616
 Alpha virt. eigenvalues --    0.12185   0.14112   0.14357   0.14977   0.15769

 Mulliken charges:
               1
     1  C   -2.175591
     2  O   -0.454177
     3  O   -0.284186
     4  H    0.210454
     5  C    0.901656
     6  H    0.018610
     7  H    0.029219
     8  H   -0.022656
     9  C    0.878691
    10  H   -0.007078
    11  H    0.050975
    12  H    0.016029
    13  C    0.805152
    14  H   -0.021996
    15  H   -0.014547
    16  H    0.069446
 Sum of Mulliken charges =  -0.00000

 Dipole moment (field-independent basis, Debye):
    X=             -1.0109    Y=             -1.4026    Z=              1.0771  Tot=              2.0369

 Test job not archived.
 1\1\GINC-SE159\SP\RHF\Aug-CC-pVDZ\C4H10O2\OHZDE\08-Apr-2025\0\\#t hf a
 ug-cc-pvdz iop(5/13=1,5/36=2,99/5=2) pseudo=read geom=check guess=(rea
 d,tcheck) scf=(maxcycle=1)\\title\\0,1\C,0,-0.391021,0.00055,0.037007\
 O,0,0.727727,-0.058659,-0.886945\O,0,1.972902,0.102425,-0.151235\H,0,2
 .350809,-0.779914,-0.261539\C,0,-0.316753,-1.161821,1.03084\H,0,-0.273
 576,-2.115918,0.49846\H,0,-1.196411,-1.171025,1.67953\H,0,0.56855,-1.0
 70698,1.662295\C,0,-0.407631,1.35679,0.745744\H,0,0.49718,1.485894,1.3
 40685\H,0,-1.273913,1.433386,1.408541\H,0,-0.456798,2.164937,0.012559\

 Normal termination of Gaussian 16 at Tue Apr  8 22:42:12 2025.
