 Gaussian 16, Revision C.01,

 ----------------------------------------------------------------------
 #t hf aug-cc-pvdz symm=none int=(grid=ultrafine) guess=(read,tcheck) s
 table=(opt,rrhf)
 ----------------------------------------------------------------------
 -----
 title
 -----
 Symbolic Z-matrix:
 Charge =  0 Multiplicity = 1

 SCF Done:  E(RHF) =  -192.774650490     A.U. after   14 cycles
 Normal termination of Gaussian 16 at Tue Apr  8 23:00:41 2025.
 Gaussian 16:  ES64L-G16RevC.01  3-Jul-2019

 ----------------------------------------------------------------------
 #t hf aug-cc-pvdz iop(5/13=1,5/36=2,99/5=2) pseudo=read geom=check gue
 ss=(read,tcheck) scf=(maxcycle=1)
 ----------------------------------------------------------------------
 -----
 title
 -----
 Structure from the checkpoint file:  "BDE49_expt_28_mol1.chk"
 Charge =  0 Multiplicity = 1

                         Standard orientation:
 ---------------------------------------------------------------------
 Center     Atomic      Atomic             Coordinates (Angstroms)
 Number     Number       Type             X           Y           Z
 ---------------------------------------------------------------------
      1          6           0       -0.066060   -0.229444   -0.000002
      2          6           0       -1.466119   -0.478307   -0.000004
      3          6           0       -2.413124    0.466707    0.000005
      4          6           0        1.129144   -0.060998   -0.000001
      5          6           0        2.568612    0.159156    0.000001
      6          1           0        2.880396    0.725023   -0.883307
      7          1           0        3.113469   -0.789337   -0.000250
      8          1           0        2.880458    0.724590    0.883564
      9          1           0       -1.762565   -1.525171   -0.000015
     10          1           0       -2.163155    1.521102    0.000016
     11          1           0       -3.463322    0.201111    0.000003
 ---------------------------------------------------------------------

 SCF Done:  E(RHF) =  -192.837307336     A.U. after    2 cycles

 The electronic state is 1-A.
 Alpha  occ. eigenvalues --  -11.26619 -11.25994 -11.24906 -11.24271 -11.23386
 Alpha  occ. eigenvalues --   -1.07961  -1.03236  -0.95015  -0.82657  -0.68729
 Alpha  occ. eigenvalues --   -0.63659  -0.61621  -0.59134  -0.59004  -0.53540
 Alpha  occ. eigenvalues --   -0.45335  -0.37822  -0.33219
 Alpha virt. eigenvalues --    0.03421   0.03965   0.04881   0.06105   0.06279
 Alpha virt. eigenvalues --    0.06701   0.09022   0.09910   0.12348   0.12754
 Alpha virt. eigenvalues --    0.13095   0.14489   0.15023   0.15043   0.15908

 Mulliken charges:
               1
     1  C   -0.451132
     2  C    0.721750
     3  C    0.623413
     4  C   -0.680874
     5  C    0.254139
     6  H    0.146089
     7  H    0.122884
     8  H    0.146097
     9  H   -0.332927
    10  H   -0.265746
    11  H   -0.283694
 Sum of Mulliken charges =  -0.00000

 Dipole moment (field-independent basis, Debye):
    X=              0.5086    Y=              0.1431    Z=              0.0000  Tot=              0.5283

 Test job not archived.
 1\1\GINC-SE403\SP\RHF\Aug-CC-pVDZ\C5H6\OHZDE\08-Apr-2025\0\\#t hf aug-
 cc-pvdz iop(5/13=1,5/36=2,99/5=2) pseudo=read geom=check guess=(read,t
 check) scf=(maxcycle=1)\\title\\0,1\C,0,-0.06606,-0.229444,-0.000002\C
 ,0,-1.466119,-0.478307,-0.000004\C,0,-2.413124,0.466707,0.000005\C,0,1
 .129144,-0.060998,-0.000001\C,0,2.568612,0.159156,0.000001\H,0,2.88039
 6,0.725023,-0.883307\H,0,3.113469,-0.789337,-0.00025\H,0,2.880458,0.72
 459,0.883564\H,0,-1.762565,-1.525171,-0.000015\H,0,-2.163155,1.521102,
 0.000016\H,0,-3.463322,0.201111,0.000003\\Version=ES64L-G16RevC.01\Sta

 Normal termination of Gaussian 16 at Tue Apr  8 23:00:44 2025.
