 Gaussian 16, Revision C.01,

 ----------------------------------------------------------------------
 #t hf aug-cc-pvdz symm=none int=(grid=ultrafine) guess=(read,tcheck) s
 table=(opt,rrhf)
 ----------------------------------------------------------------------
 -----
 title
 -----
 Symbolic Z-matrix:
 Charge =  0 Multiplicity = 1

 SCF Done:  E(RHF) =  -1290.66269549     A.U. after   17 cycles
 Normal termination of Gaussian 16 at Wed Apr  9 00:20:07 2025.
 Gaussian 16:  ES64L-G16RevC.01  3-Jul-2019

 ----------------------------------------------------------------------
 #t hf aug-cc-pvdz iop(5/13=1,5/36=2,99/5=2) pseudo=read geom=check gue
 ss=(read,tcheck) scf=(maxcycle=1)
 ----------------------------------------------------------------------
 -----
 title
 -----
 Structure from the checkpoint file:  "BDE49_nonexpt_2603_mol1.chk"
 Charge =  0 Multiplicity = 1

                         Standard orientation:
 ---------------------------------------------------------------------
 Center     Atomic      Atomic             Coordinates (Angstroms)
 Number     Number       Type             X           Y           Z
 ---------------------------------------------------------------------
      1         17           0        3.151561    0.099617    0.000810
      2         16           0        1.334976   -1.007827   -0.000593
      3          6           0        0.143207    0.304712   -0.000282
      4          6           0       -1.227381   -0.022439   -0.000080
      5          6           0       -2.237253    0.940938    0.000043
      6          6           0       -1.891781    2.278486    0.000036
      7          6           0        0.463313    1.671156   -0.000234
      8          1           0        1.499635    1.973416   -0.000360
      9          6           0       -0.537240    2.631455   -0.000083
     10          1           0       -0.254116    3.677775   -0.000075
     11          1           0       -2.660083    3.041006    0.000151
     12          7           0       -1.599012   -1.414489    0.000075
     13          8           0       -0.647663   -2.223692    0.000067
     14          8           0       -2.769853   -1.750152   -0.000206
     15          1           0       -3.265567    0.605878    0.000184
 ---------------------------------------------------------------------

 SCF Done:  E(RHF) =  -1290.82864350     A.U. after    2 cycles

 The electronic state is 1-A.
 Alpha  occ. eigenvalues -- -103.67104 -93.63023 -20.64590 -20.64184 -15.94300
 Alpha  occ. eigenvalues --  -11.34584 -11.33976 -11.30300 -11.29917 -11.28589
 Alpha  occ. eigenvalues --  -11.28509 -10.70285  -8.92053  -8.36000  -8.35707
 Alpha  occ. eigenvalues --   -8.35660  -6.26101  -6.25864  -6.25342  -1.57095
 Alpha  occ. eigenvalues --   -1.38678  -1.21641  -1.16057  -1.11072  -1.07622
 Alpha  occ. eigenvalues --   -0.99675  -0.93982  -0.86309  -0.85861  -0.79211
 Alpha  occ. eigenvalues --   -0.76064  -0.75102  -0.71420  -0.69029  -0.66102
 Alpha  occ. eigenvalues --   -0.62764  -0.57716  -0.57019  -0.56967  -0.54521
 Alpha  occ. eigenvalues --   -0.53831  -0.51820  -0.50127  -0.49272  -0.45551
 Alpha  occ. eigenvalues --   -0.43115  -0.39754  -0.34689
 Alpha virt. eigenvalues --    0.00765   0.02395   0.03643   0.04857   0.05765
 Alpha virt. eigenvalues --    0.07020   0.07127   0.08405   0.09892   0.10025
 Alpha virt. eigenvalues --    0.11089   0.12045   0.12261   0.12688   0.12756

 Mulliken charges:
               1
     1  Cl  -0.424953
     2  S    0.477010
     3  C   -0.046449
     4  C    0.841284
     5  C    0.625786
     6  C    0.430573
     7  C    0.291534
     8  H   -0.455429
     9  C    0.721678
    10  H   -0.450826
    11  H   -0.416577
    12  N   -0.009812
    13  O   -0.562595
    14  O   -0.535003
    15  H   -0.486221
 Sum of Mulliken charges =  -0.00000

 Dipole moment (field-independent basis, Debye):
    X=             -1.6990    Y=              5.0387    Z=             -0.0005  Tot=              5.3174

 Test job not archived.
 1\1\GINC-SE105\SP\RHF\Aug-CC-pVDZ\C6H4Cl1N1O2S1\OHZDE\09-Apr-2025\0\\#
 t hf aug-cc-pvdz iop(5/13=1,5/36=2,99/5=2) pseudo=read geom=check gues
 s=(read,tcheck) scf=(maxcycle=1)\\title\\0,1\Cl,0,3.151561,0.099617,0.
 00081\S,0,1.334976,-1.007827,-0.000593\C,0,0.143207,0.304712,-0.000282
 \C,0,-1.227381,-0.022439,-0.00008\C,0,-2.237253,0.940938,0.000043\C,0,
 -1.891781,2.278486,0.000036\C,0,0.463313,1.671156,-0.000234\H,0,1.4996
 35,1.973416,-0.00036\C,0,-0.53724,2.631455,-0.000083\H,0,-0.254116,3.6
 77775,-0.000075\H,0,-2.660083,3.041006,0.000151\N,0,-1.599012,-1.41448

 Normal termination of Gaussian 16 at Wed Apr  9 00:20:17 2025.
