 Gaussian 16, Revision C.01,

 ----------------------------------------------------------------------
 #t hf aug-cc-pvdz symm=none int=(grid=ultrafine) guess=(read,tcheck) s
 table=(opt,rrhf)
 ----------------------------------------------------------------------
 -----
 title
 -----
 Symbolic Z-matrix:
 Charge =  0 Multiplicity = 1

 SCF Done:  E(RHF) =  -572.887180690     A.U. after   14 cycles
 Normal termination of Gaussian 16 at Wed Apr  9 00:06:42 2025.
 Gaussian 16:  ES64L-G16RevC.01  3-Jul-2019

 ----------------------------------------------------------------------
 #t hf aug-cc-pvdz iop(5/13=1,5/36=2,99/5=2) pseudo=read geom=check gue
 ss=(read,tcheck) scf=(maxcycle=1)
 ----------------------------------------------------------------------
 -----
 title
 -----
 Structure from the checkpoint file:  "BDE49_nonexpt_2282_mol1.chk"
 Charge =  0 Multiplicity = 1

                         Standard orientation:
 ---------------------------------------------------------------------
 Center     Atomic      Atomic             Coordinates (Angstroms)
 Number     Number       Type             X           Y           Z
 ---------------------------------------------------------------------
      1          6           0        2.534727   -0.812066    0.343404
      2          6           0        1.919453    0.396972   -0.384388
      3          1           0        1.975387   -1.725823    0.130690
      4          1           0        2.535385   -0.668542    1.427656
      5          1           0        3.570168   -0.973910    0.032280
      6         14           0        0.149383    0.773398    0.080713
      7          1           0        2.504369    1.303383   -0.182297
      8          1           0        1.959009    0.250115   -1.469501
      9          8           0       -0.706071   -0.654950   -0.371563
     10          7           0       -2.082807   -0.784867   -0.174645
     11          8           0       -2.590215    0.163154    0.314077
     12          1           0       -0.394349    1.921073   -0.674859
     13          1           0       -0.016470    0.985143    1.534355
 ---------------------------------------------------------------------

 SCF Done:  E(RHF) =  -573.005806347     A.U. after    2 cycles

 The electronic state is 1-A.
 Alpha  occ. eigenvalues --  -69.10437 -20.66944 -20.62494 -15.85838 -11.23953
 Alpha  occ. eigenvalues --  -11.23610  -6.85290  -3.96195  -3.96029  -3.96016
 Alpha  occ. eigenvalues --   -1.54575  -1.33417  -1.02645  -0.94041  -0.85657
 Alpha  occ. eigenvalues --   -0.77476  -0.74616  -0.69254  -0.66289  -0.61630
 Alpha  occ. eigenvalues --   -0.59285  -0.55828  -0.54755  -0.52552  -0.50757
 Alpha  occ. eigenvalues --   -0.47551  -0.46981  -0.44452
 Alpha virt. eigenvalues --    0.03223   0.04678   0.04816   0.05400   0.06679
 Alpha virt. eigenvalues --    0.07200   0.07614   0.07995   0.08532   0.09670
 Alpha virt. eigenvalues --    0.10319   0.12819   0.13413   0.14868   0.15023

 Mulliken charges:
               1
     1  C    0.239292
     2  C    0.083227
     3  H   -0.097480
     4  H   -0.103761
     5  H   -0.083589
     6  Si   1.026252
     7  H   -0.211455
     8  H   -0.143880
     9  O   -0.718829
    10  N    0.273661
    11  O   -0.292539
    12  H   -0.009651
    13  H    0.038751
 Sum of Mulliken charges =  -0.00000

 Dipole moment (field-independent basis, Debye):
    X=              2.2609    Y=              0.6913    Z=             -0.0771  Tot=              2.3654

 Test job not archived.
 1\1\GINC-SE331\SP\RHF\Aug-CC-pVDZ\C2H7N1O2Si1\OHZDE\09-Apr-2025\0\\#t
 hf aug-cc-pvdz iop(5/13=1,5/36=2,99/5=2) pseudo=read geom=check guess=
 (read,tcheck) scf=(maxcycle=1)\\title\\0,1\C,0,2.534727,-0.812066,0.34
 3404\C,0,1.919453,0.396972,-0.384388\H,0,1.975387,-1.725823,0.13069\H,
 0,2.535385,-0.668542,1.427656\H,0,3.570168,-0.97391,0.03228\Si,0,0.149
 383,0.773398,0.080713\H,0,2.504369,1.303383,-0.182297\H,0,1.959009,0.2
 50115,-1.469501\O,0,-0.706071,-0.65495,-0.371563\N,0,-2.082807,-0.7848
 67,-0.174645\O,0,-2.590215,0.163154,0.314077\H,0,-0.394349,1.921073,-0

 Normal termination of Gaussian 16 at Wed Apr  9 00:06:45 2025.
