 Gaussian 16, Revision C.01,

 ----------------------------------------------------------------------
 #t hf aug-cc-pvdz symm=none int=(grid=ultrafine) guess=(read,tcheck) s
 table=(opt,rrhf)
 ----------------------------------------------------------------------
 -----
 title
 -----
 Symbolic Z-matrix:
 Charge =  0 Multiplicity = 1

 SCF Done:  E(RHF) =  -392.095135277     A.U. after   13 cycles
 Normal termination of Gaussian 16 at Wed Apr  9 00:30:46 2025.
 Gaussian 16:  ES64L-G16RevC.01  3-Jul-2019

 ----------------------------------------------------------------------
 #t hf aug-cc-pvdz iop(5/13=1,5/36=2,99/5=2) pseudo=read geom=check gue
 ss=(read,tcheck) scf=(maxcycle=1)
 ----------------------------------------------------------------------
 -----
 title
 -----
 Structure from the checkpoint file:  "BDE49_nonexpt_389_mol1.chk"
 Charge =  0 Multiplicity = 1

                         Standard orientation:
 ---------------------------------------------------------------------
 Center     Atomic      Atomic             Coordinates (Angstroms)
 Number     Number       Type             X           Y           Z
 ---------------------------------------------------------------------
      1          9           0       -1.596647   -1.002804    0.000099
      2          9           0       -1.289988    1.239612   -0.000024
      3          5           0       -0.771698    0.016227   -0.000091
      4          6           0        0.812814   -0.195166   -0.000068
      5          8           0        1.307425   -1.310429    0.000008
      6          7           0        1.547857    0.955211    0.000008
      7          1           0        1.111594    1.862309    0.000005
      8          1           0        2.555324    0.893239    0.000070
 ---------------------------------------------------------------------

 SCF Done:  E(RHF) =  -392.239596571     A.U. after    2 cycles

 The electronic state is 1-A.
 Alpha  occ. eigenvalues --  -26.16826 -26.15940 -20.56274 -15.67140 -11.37434
 Alpha  occ. eigenvalues --   -7.77125  -1.71782  -1.69508  -1.36315  -1.19561
 Alpha  occ. eigenvalues --   -0.91345  -0.86736  -0.84615  -0.80096  -0.79328
 Alpha  occ. eigenvalues --   -0.74471  -0.74424  -0.73602  -0.68448  -0.61843
 Alpha  occ. eigenvalues --   -0.59287  -0.45828  -0.43439
 Alpha virt. eigenvalues --    0.02801   0.04539   0.04597   0.05693   0.06905
 Alpha virt. eigenvalues --    0.07145   0.07745   0.12574   0.12905   0.14494
 Alpha virt. eigenvalues --    0.17349   0.17610   0.18718   0.19439   0.22151

 Mulliken charges:
               1
     1  F   -0.387701
     2  F   -0.438243
     3  B    0.951160
     4  C    0.513899
     5  O   -0.513115
     6  N   -0.110217
     7  H    0.003087
     8  H   -0.018869
 Sum of Mulliken charges =  -0.00000

 Dipole moment (field-independent basis, Debye):
    X=              0.8212    Y=              4.0314    Z=             -0.0005  Tot=              4.1142

 Test job not archived.
 1\1\GINC-SE253\SP\RHF\Aug-CC-pVDZ\C1H2B1F2N1O1\OHZDE\09-Apr-2025\0\\#t
  hf aug-cc-pvdz iop(5/13=1,5/36=2,99/5=2) pseudo=read geom=check guess
 =(read,tcheck) scf=(maxcycle=1)\\title\\0,1\F,0,-1.596647,-1.002804,0.
 000099\F,0,-1.289988,1.239612,-0.000024\B,0,-0.771698,0.016227,-0.0000
 91\C,0,0.812814,-0.195166,-0.000068\O,0,1.307425,-1.310429,0.000008\N,
 0,1.547857,0.955211,0.000008\H,0,1.111594,1.862309,0.000005\H,0,2.5553
 24,0.893239,0.00007\\Version=ES64L-G16RevC.01\State=1-A\HF=-392.239596
 6\RMSD=5.201e-03\Dipole=0.3230806,1.5860913,-0.0002114\Quadrupole=0.40

 Normal termination of Gaussian 16 at Wed Apr  9 00:30:48 2025.
