 Gaussian 16, Revision C.01,

 ----------------------------------------------------------------------
 #t hf aug-cc-pvdz symm=none int=(grid=ultrafine) guess=(read,tcheck) s
 table=(opt,rrhf)
 ----------------------------------------------------------------------
 -----
 title
 -----
 Symbolic Z-matrix:
 Charge =  0 Multiplicity = 1

 SCF Done:  E(RHF) =  -543.271702504     A.U. after   13 cycles
 Normal termination of Gaussian 16 at Wed Apr  9 00:45:42 2025.
 Gaussian 16:  ES64L-G16RevC.01  3-Jul-2019

 ----------------------------------------------------------------------
 #t hf aug-cc-pvdz iop(5/13=1,5/36=2,99/5=2) pseudo=read geom=check gue
 ss=(read,tcheck) scf=(maxcycle=1)
 ----------------------------------------------------------------------
 -----
 title
 -----
 Structure from the checkpoint file:  "BDE49_nonexpt_837_mol1.chk"
 Charge =  0 Multiplicity = 1

                         Standard orientation:
 ---------------------------------------------------------------------
 Center     Atomic      Atomic             Coordinates (Angstroms)
 Number     Number       Type             X           Y           Z
 ---------------------------------------------------------------------
      1          6           0       -1.794708    0.072847   -0.513990
      2          5           0        1.338400    0.166191    0.016953
      3          8           0        1.272263    1.534201    0.017050
      4          8           0        2.564415   -0.421890    0.023790
      5          6           0       -2.740337    0.555078    0.298342
      6          1           0       -3.544726    1.193120   -0.059395
      7          1           0       -2.757939    0.321080    1.359612
      8          1           0        3.280419    0.226999    0.035311
      9          1           0        0.369644    1.867523    0.009796
     10         14           0       -0.344211   -0.986816    0.038438
     11          1           0       -1.852762    0.344315   -1.569290
     12          1           0       -0.220064   -2.170388   -0.848783
     13          1           0       -0.630764   -1.464212    1.417021
 ---------------------------------------------------------------------

 SCF Done:  E(RHF) =  -543.380166424     A.U. after    2 cycles

 The electronic state is 1-A.
 Alpha  occ. eigenvalues --  -69.04953 -20.58977 -20.58355 -11.25730 -11.23775
 Alpha  occ. eigenvalues --   -7.66158  -6.80425  -3.91225  -3.91194  -3.91128
 Alpha  occ. eigenvalues --   -1.34919  -1.31179  -1.03421  -0.80103  -0.78622
 Alpha  occ. eigenvalues --   -0.75420  -0.69219  -0.63780  -0.61912  -0.59375
 Alpha  occ. eigenvalues --   -0.58747  -0.56708  -0.52516  -0.47327  -0.45768
 Alpha  occ. eigenvalues --   -0.42921  -0.37732
 Alpha virt. eigenvalues --    0.03142   0.04254   0.04684   0.05072   0.06198
 Alpha virt. eigenvalues --    0.06828   0.07225   0.07401   0.08333   0.08758
 Alpha virt. eigenvalues --    0.09450   0.09914   0.10629   0.11217   0.12737

 Mulliken charges:
               1
     1  C    0.296660
     2  B    0.970973
     3  O   -0.499522
     4  O   -0.465142
     5  C    0.441112
     6  H   -0.253160
     7  H   -0.327023
     8  H    0.183717
     9  H    0.214755
    10  Si  -0.293165
    11  H   -0.413651
    12  H    0.094498
    13  H    0.049949
 Sum of Mulliken charges =  -0.00000

 Dipole moment (field-independent basis, Debye):
    X=             -1.0253    Y=              1.5676    Z=             -0.1161  Tot=              1.8767

 Test job not archived.
 1\1\GINC-SE054\SP\RHF\Aug-CC-pVDZ\C2H7B1O2Si1\OHZDE\09-Apr-2025\0\\#t
 hf aug-cc-pvdz iop(5/13=1,5/36=2,99/5=2) pseudo=read geom=check guess=
 (read,tcheck) scf=(maxcycle=1)\\title\\0,1\C,0,-1.794708,0.072847,-0.5
 1399\B,0,1.3384,0.166191,0.016953\O,0,1.272263,1.534201,0.01705\O,0,2.
 564415,-0.42189,0.02379\C,0,-2.740337,0.555078,0.298342\H,0,-3.544726,
 1.19312,-0.059395\H,0,-2.757939,0.32108,1.359612\H,0,3.280419,0.227,0.
 035311\H,0,0.369644,1.867523,0.009796\Si,0,-0.344211,-0.986816,0.03843
 8\H,0,-1.852762,0.344315,-1.56929\H,0,-0.220064,-2.170388,-0.848783\H,

 Normal termination of Gaussian 16 at Wed Apr  9 00:45:46 2025.
