 Gaussian 16, Revision C.01,

 ----------------------------------------------------------------------
 #t hf aug-cc-pvdz symm=none int=(grid=ultrafine) guess=(read,tcheck) s
 table=(opt,rrhf)
 ----------------------------------------------------------------------
 -----
 title
 -----
 Symbolic Z-matrix:
 Charge =  0 Multiplicity = 1

 SCF Done:  E(RHF) =  -2076.02617482     A.U. after   18 cycles
 Normal termination of Gaussian 16 at Tue Apr  8 23:38:49 2025.
 Gaussian 16:  ES64L-G16RevC.01  3-Jul-2019

 ----------------------------------------------------------------------
 #t hf aug-cc-pvdz iop(5/13=1,5/36=2,99/5=2) pseudo=read geom=check gue
 ss=(read,tcheck) scf=(maxcycle=1)
 ----------------------------------------------------------------------
 -----
 title
 -----
 Structure from the checkpoint file:  "BDE49_nonexpt_1194_mol1.chk"
 Charge =  0 Multiplicity = 1

                         Standard orientation:
 ---------------------------------------------------------------------
 Center     Atomic      Atomic             Coordinates (Angstroms)
 Number     Number       Type             X           Y           Z
 ---------------------------------------------------------------------
      1          6           0       -3.770247    0.180939    0.867517
      2          6           0       -3.826489    1.475291    1.367842
      3          6           0       -2.947968    2.451376    0.900959
      4          6           0       -2.011597    2.111419   -0.070703
      5          6           0       -1.923633    0.818464   -0.572238
      6          6           0       -2.808206   -0.152381   -0.093349
      7          1           0       -4.459670   -0.580690    1.208116
      8          1           0       -4.560964    1.734498    2.121046
      9          6           0       -2.839216   -1.539579   -0.630174
     10          8           0       -3.841715   -2.200971   -0.747772
     11         16           0       -1.364122   -2.406246   -1.202214
     12          8           0        0.009913   -1.488011   -0.758853
     13          6           0        0.433778   -1.547460    0.557911
     14          8           0       -0.214249   -2.035752    1.438834
     15          6           0        1.770736   -0.912198    0.719634
     16          6           0        2.289146   -0.822996    2.015919
     17          6           0        2.502416   -0.425846   -0.369009
     18          6           0        3.747469    0.144724   -0.138936
     19          6           0        3.536221   -0.246696    2.222028
     20          6           0        4.274740    0.241683    1.145896
     21          1           0        1.704420   -1.209318    2.840470
     22          1           0        3.942111   -0.174628    3.223976
     23         17           0       -0.920338    3.341468   -0.681260
     24         17           0        4.675006    0.754182   -1.496972
     25          1           0       -1.190630    0.580763   -1.329284
     26          1           0        2.108710   -0.495544   -1.372374
     27          1           0       -2.989381    3.464640    1.279093
     28          1           0        5.247516    0.691600    1.296869
 ---------------------------------------------------------------------

 SCF Done:  E(RHF) =  -2076.30875321     A.U. after    2 cycles

 The electronic state is 1-A.
 Alpha  occ. eigenvalues -- -103.68036-103.67966 -93.62581 -20.66063 -20.59776
 Alpha  occ. eigenvalues --  -20.59043 -11.42684 -11.40389 -11.33240 -11.33157
 Alpha  occ. eigenvalues --  -11.29154 -11.28988 -11.28826 -11.28756 -11.28673
 Alpha  occ. eigenvalues --  -11.28554 -11.28046 -11.28036 -11.27701 -11.27696
 Alpha  occ. eigenvalues --  -10.71295 -10.71229  -8.91670  -8.37033  -8.36967
 Alpha  occ. eigenvalues --   -8.36727  -8.36708  -8.36659  -8.36640  -6.25899
 Alpha  occ. eigenvalues --   -6.25501  -6.25136  -1.44047  -1.39591  -1.35310
 Alpha  occ. eigenvalues --   -1.21747  -1.21668  -1.15845  -1.15706  -1.07473
 Alpha  occ. eigenvalues --   -1.06350  -1.02811  -1.02782  -1.01028  -0.91782
 Alpha  occ. eigenvalues --   -0.89395  -0.86168  -0.85109  -0.81578  -0.77572
 Alpha  occ. eigenvalues --   -0.75984  -0.73702  -0.71970  -0.70807  -0.69492
 Alpha  occ. eigenvalues --   -0.68597  -0.67604  -0.67141  -0.65289  -0.64074
 Alpha  occ. eigenvalues --   -0.62126  -0.61760  -0.61639  -0.60421  -0.57449
 Alpha  occ. eigenvalues --   -0.56541  -0.56387  -0.56053  -0.55511  -0.54265
 Alpha  occ. eigenvalues --   -0.53680  -0.53145  -0.50107  -0.49354  -0.49205
 Alpha  occ. eigenvalues --   -0.48390  -0.47959  -0.44197  -0.40146  -0.38012
 Alpha  occ. eigenvalues --   -0.37847  -0.36232  -0.36135
 Alpha virt. eigenvalues --    0.02791   0.03206   0.04117   0.04466   0.04534
 Alpha virt. eigenvalues --    0.04667   0.04812   0.05850   0.06274   0.06923
 Alpha virt. eigenvalues --    0.07421   0.08263   0.08509   0.08534   0.08960

 Mulliken charges:
               1
     1  C    0.261464
     2  C    0.592307
     3  C    0.738140
     4  C   -0.765211
     5  C    1.101915
     6  C    1.310130
     7  H   -0.597951
     8  H   -0.422154
     9  C   -0.534941
    10  O   -0.516562
    11  S    0.704078
    12  O   -0.672970
    13  C   -0.378957
    14  O   -0.443681
    15  C    1.374687
    16  C    0.177147
    17  C    1.124393
    18  C   -0.661240
    19  C    0.691595
    20  C    0.813224
    21  H   -0.623030
    22  H   -0.429816
    23  Cl  -0.368402
    24  Cl  -0.373320
    25  H   -0.605422
    26  H   -0.609807
    27  H   -0.445347
    28  H   -0.440268
 Sum of Mulliken charges =   0.00000

 Dipole moment (field-independent basis, Debye):
    X=              1.6753    Y=              2.4629    Z=              2.6219  Tot=              3.9683

 Test job not archived.
 1\1\GINC-SE094\SP\RHF\Aug-CC-pVDZ\C14H8Cl2O3S1\OHZDE\08-Apr-2025\0\\#t
  hf aug-cc-pvdz iop(5/13=1,5/36=2,99/5=2) pseudo=read geom=check guess
 =(read,tcheck) scf=(maxcycle=1)\\title\\0,1\C,0,-3.770247,0.180939,0.8
 67517\C,0,-3.826489,1.475291,1.367842\C,0,-2.947968,2.451376,0.900959\
 C,0,-2.011597,2.111419,-0.070703\C,0,-1.923633,0.818464,-0.572238\C,0,
 -2.808206,-0.152381,-0.093349\H,0,-4.45967,-0.58069,1.208116\H,0,-4.56
 0964,1.734498,2.121046\C,0,-2.839216,-1.539579,-0.630174\O,0,-3.841715
 ,-2.200971,-0.747772\S,0,-1.364122,-2.406246,-1.202214\O,0,0.009913,-1

 Normal termination of Gaussian 16 at Tue Apr  8 23:39:38 2025.
