 Gaussian 16, Revision C.01,

 ----------------------------------------------------------------------
 #t hf aug-cc-pvdz symm=none int=(grid=ultrafine) guess=(read,tcheck) s
 table=opt
 ----------------------------------------------------------------------
 -----
 title
 -----
 Symbolic Z-matrix:
 Charge =  0 Multiplicity = 2

 SCF Done:  E(UHF) =  -428.659454990     A.U. after   17 cycles
 Normal termination of Gaussian 16 at Wed Apr  9 00:44:54 2025.
 Gaussian 16:  ES64L-G16RevC.01  3-Jul-2019

 ----------------------------------------------------------------------
 #t hf aug-cc-pvdz iop(5/13=1,5/36=2,99/5=2) pseudo=read geom=check gue
 ss=(read,tcheck) scf=(maxcycle=1)
 ----------------------------------------------------------------------
 -----
 title
 -----
 Structure from the checkpoint file:  "BDE49_nonexpt_825_mol3.chk"
 Charge =  0 Multiplicity = 2

                         Standard orientation:
 ---------------------------------------------------------------------
 Center     Atomic      Atomic             Coordinates (Angstroms)
 Number     Number       Type             X           Y           Z
 ---------------------------------------------------------------------
      1          6           0       -1.397492    0.174038    0.000000
      2          5           0       -0.117513    0.882219   -0.000046
      3         14           0        1.576680   -0.194978   -0.000005
      4          8           0       -2.380757   -0.426315    0.000038
      5          1           0       -0.146535    2.069343   -0.000020
      6          1           0        1.317789   -1.655289    0.000011
      7          1           0        2.386882    0.135435    1.199413
      8          1           0        2.386916    0.135402   -1.199409
 ---------------------------------------------------------------------

 SCF Done:  E(UHF) =  -428.725298751     A.U. after    2 cycles

 The electronic state is 2-A.
 Alpha  occ. eigenvalues --  -69.06039 -20.68775 -11.40127  -7.62401  -6.81427
 Alpha  occ. eigenvalues --   -3.92212  -3.92201  -3.92144  -1.48819  -0.91650
 Alpha  occ. eigenvalues --   -0.78331  -0.71880  -0.70386  -0.66736  -0.57078
 Alpha  occ. eigenvalues --   -0.48647  -0.48020  -0.43965  -0.35159
 Alpha virt. eigenvalues --    0.03503   0.04211   0.05151   0.05673   0.06992
 Alpha virt. eigenvalues --    0.07337   0.07602   0.08743   0.09202   0.09281
 Alpha virt. eigenvalues --    0.11588   0.12535   0.12915   0.14021   0.14661

  Beta  occ. eigenvalues --  -69.06084 -20.67344 -11.39908  -7.61666  -6.81498
  Beta  occ. eigenvalues --   -3.92276  -3.92250  -3.92248  -1.45953  -0.86282
  Beta  occ. eigenvalues --   -0.75994  -0.70026  -0.65154  -0.61650  -0.56322
  Beta  occ. eigenvalues --   -0.47958  -0.47854  -0.42907
  Beta virt. eigenvalues --    0.01740   0.03596   0.04255   0.05203   0.06623
  Beta virt. eigenvalues --    0.07017   0.07403   0.07617   0.08857   0.09603
  Beta virt. eigenvalues --    0.09797   0.11689   0.12689   0.14208   0.14694

 Mulliken charges and spin densities:
               1          2
     1  C    0.230861   0.320688
     2  B   -0.182207   0.515441
     3  Si  -0.216680  -0.092149
     4  O   -0.218830   0.267282
     5  H    0.289809  -0.039610
     6  H    0.054037   0.000329
     7  H    0.021503   0.014010
     8  H    0.021507   0.014010
 Sum of Mulliken charges =  -0.00000   1.00000

 Dipole moment (field-independent basis, Debye):
    X=              0.2258    Y=              0.6695    Z=             -0.0000  Tot=              0.7065
                          Isotropic Fermi Contact Couplings
        Atom                 a.u.       MegaHertz       Gauss      10(-4) cm-1
     1  C(13)             -0.02857     -32.12311     -11.46232     -10.71511
     2  B(11)              0.05341      76.60289      27.33382      25.55198
     3  Si(29)            -0.05296      47.06865      16.79526      15.70041
     4  O(17)              0.11911     -72.20363     -25.76405     -24.08454
     5  H(1)              -0.01312     -58.65112     -20.92818     -19.56391
     6  H(1)               0.00014       0.62821       0.22416       0.20955
     7  H(1)               0.00433      19.36193       6.90882       6.45844
     8  H(1)               0.00433      19.36207       6.90887       6.45849

 1\1\GINC-SE363\SP\UHF\Aug-CC-pVDZ\C1H4B1O1Si1(2)\OHZDE\09-Apr-2025\0\\
 #t hf aug-cc-pvdz iop(5/13=1,5/36=2,99/5=2) pseudo=read geom=check gue
 ss=(read,tcheck) scf=(maxcycle=1)\\title\\0,2\C,0,1.397492,0.174038,0.
 \B,0,0.117513,0.882219,0.000046\Si,0,-1.57668,-0.194978,0.000005\O,0,2
 .380757,-0.426315,-0.000038\H,0,0.146535,2.069343,0.00002\H,0,-1.31778
 9,-1.655289,-0.000011\H,0,-2.386882,0.135435,-1.199413\H,0,-2.386916,0
 .135402,1.199409\\Version=ES64L-G16RevC.01\State=2-A\HF=-428.7252988\S
 2=0.76578\S2-1=0.\S2A=0.750168\RMSD=5.621e-03\Dipole=-0.0888257,0.2633

 Normal termination of Gaussian 16 at Wed Apr  9 00:44:57 2025.
