 Gaussian 16, Revision C.01,

 ----------------------------------------------------------------------
 #t hf aug-cc-pvdz symm=none int=(grid=ultrafine) guess=(read,tcheck) s
 table=(opt,rrhf)
 ----------------------------------------------------------------------
 -----
 title
 -----
 Symbolic Z-matrix:
 Charge =  0 Multiplicity = 1

 SCF Done:  E(RHF) =  -984.470600251     A.U. after   12 cycles
 Normal termination of Gaussian 16 at Tue Apr  8 23:44:37 2025.
 Gaussian 16:  ES64L-G16RevC.01  3-Jul-2019

 ----------------------------------------------------------------------
 #t hf aug-cc-pvdz iop(5/13=1,5/36=2,99/5=2) pseudo=read geom=check gue
 ss=(read,tcheck) scf=(maxcycle=1)
 ----------------------------------------------------------------------
 -----
 title
 -----
 Structure from the checkpoint file:  "BDE49_nonexpt_1731_mol1.chk"
 Charge =  0 Multiplicity = 1

                         Standard orientation:
 ---------------------------------------------------------------------
 Center     Atomic      Atomic             Coordinates (Angstroms)
 Number     Number       Type             X           Y           Z
 ---------------------------------------------------------------------
      1         14           0        2.793374   -0.704893    0.314699
      2          6           0        1.084674   -1.096557   -0.341006
      3         17           0        3.338666    1.251134   -0.194136
      4          6           0       -0.060510   -0.239171    0.227677
      5          1           0        0.906115   -2.158794   -0.121055
      6          1           0        1.113312   -1.016570   -1.434431
      7          6           0       -1.437111   -0.622655   -0.330847
      8          1           0        0.133092    0.817540    0.012576
      9          1           0       -0.078717   -0.328692    1.320738
     10          6           0       -2.581721    0.228036    0.230497
     11          1           0       -1.631656   -1.681522   -0.116785
     12          1           0       -1.418649   -0.531559   -1.424370
     13          6           0       -3.958494   -0.150278   -0.327816
     14          1           0       -2.384524    1.286594    0.017556
     15          1           0       -2.598810    0.137007    1.324373
     16          6           0       -5.096359    0.703987    0.238139
     17          1           0       -4.155519   -1.208097   -0.115311
     18          1           0       -3.941684   -0.058426   -1.420561
     19          1           0       -5.161322    0.605768    1.326294
     20          1           0       -6.062925    0.409608   -0.179656
     21          1           0       -4.945639    1.764010    0.011229
     22          1           0        3.813774   -1.595565   -0.275680
     23          1           0        2.845713   -0.782256    1.789741
 ---------------------------------------------------------------------

 SCF Done:  E(RHF) =  -984.587616512     A.U. after    2 cycles

 The electronic state is 1-A.
 Alpha  occ. eigenvalues -- -103.64342 -69.10551 -11.24069 -11.23405 -11.23142
 Alpha  occ. eigenvalues --  -11.22952 -11.22825 -11.22349 -10.67777  -8.33468
 Alpha  occ. eigenvalues --   -8.33252  -8.33247  -6.85446  -3.96299  -3.96148
 Alpha  occ. eigenvalues --   -3.96137  -1.12669  -1.08134  -1.03571  -0.96398
 Alpha  occ. eigenvalues --   -0.87855  -0.80913  -0.79177  -0.69236  -0.66104
 Alpha  occ. eigenvalues --   -0.62315  -0.59426  -0.57818  -0.57014  -0.54706
 Alpha  occ. eigenvalues --   -0.52498  -0.51555  -0.51491  -0.50503  -0.48644
 Alpha  occ. eigenvalues --   -0.47887  -0.46909  -0.46672  -0.46490  -0.44822
 Alpha  occ. eigenvalues --   -0.42227
 Alpha virt. eigenvalues --    0.03316   0.03814   0.04307   0.04566   0.05236
 Alpha virt. eigenvalues --    0.05680   0.05812   0.06655   0.07140   0.07826
 Alpha virt. eigenvalues --    0.08016   0.08654   0.09251   0.09843   0.10569

 Mulliken charges:
               1
     1  Si   0.670828
     2  C    0.203335
     3  Cl  -0.558675
     4  C    0.314807
     5  H   -0.172488
     6  H   -0.146304
     7  C    0.118226
     8  H   -0.182436
     9  H   -0.217674
    10  C    0.124438
    11  H   -0.186694
    12  H   -0.186782
    13  C    0.414622
    14  H   -0.181984
    15  H   -0.173730
    16  C    0.601980
    17  H   -0.152792
    18  H   -0.153617
    19  H   -0.092860
    20  H   -0.064627
    21  H   -0.088893
    22  H    0.031974
    23  H    0.079346
 Sum of Mulliken charges =  -0.00000

 Dipole moment (field-independent basis, Debye):
    X=             -1.5370    Y=             -1.8352    Z=              0.1180  Tot=              2.3967

 Test job not archived.
 1\1\GINC-SE334\SP\RHF\Aug-CC-pVDZ\C6H15Cl1Si1\OHZDE\08-Apr-2025\0\\#t
 hf aug-cc-pvdz iop(5/13=1,5/36=2,99/5=2) pseudo=read geom=check guess=
 (read,tcheck) scf=(maxcycle=1)\\title\\0,1\Si,0,2.793374,-0.704893,0.3
 14699\C,0,1.084674,-1.096557,-0.341006\Cl,0,3.338666,1.251134,-0.19413
 6\C,0,-0.06051,-0.239171,0.227677\H,0,0.906115,-2.158794,-0.121055\H,0
 ,1.113312,-1.01657,-1.434431\C,0,-1.437111,-0.622655,-0.330847\H,0,0.1
 33092,0.81754,0.012576\H,0,-0.078717,-0.328692,1.320738\C,0,-2.581721,
 0.228036,0.230497\H,0,-1.631656,-1.681522,-0.116785\H,0,-1.418649,-0.5

 Normal termination of Gaussian 16 at Tue Apr  8 23:44:49 2025.
