 Gaussian 16, Revision C.01,

 ----------------------------------------------------------------------
 #t hf aug-cc-pvdz symm=none int=(grid=ultrafine) guess=(read,tcheck) s
 table=(opt,rrhf)
 ----------------------------------------------------------------------
 -----
 title
 -----
 Symbolic Z-matrix:
 Charge =  0 Multiplicity = 1

 SCF Done:  E(RHF) =  -762.702104503     A.U. after   15 cycles
 Normal termination of Gaussian 16 at Tue Apr  8 23:17:56 2025.
 Gaussian 16:  ES64L-G16RevC.01  3-Jul-2019

 ----------------------------------------------------------------------
 #t hf aug-cc-pvdz iop(5/13=1,5/36=2,99/5=2) pseudo=read geom=check gue
 ss=(read,tcheck) scf=(maxcycle=1)
 ----------------------------------------------------------------------
 -----
 title
 -----
 Structure from the checkpoint file:  "BDE49_nonexpt_1076_mol1.chk"
 Charge =  0 Multiplicity = 1

                         Standard orientation:
 ---------------------------------------------------------------------
 Center     Atomic      Atomic             Coordinates (Angstroms)
 Number     Number       Type             X           Y           Z
 ---------------------------------------------------------------------
      1         17           0        1.688279   -0.581485   -0.245562
      2          8           0        0.529537   -0.062447    0.947566
      3          6           0       -0.536384    0.719314    0.380928
      4          8           0       -1.288749    0.006501   -0.531219
      5          8           0       -0.117262    1.878153   -0.209061
      6          6           0       -1.882281   -1.193946   -0.029879
      7          1           0       -1.120878   -1.921747    0.258253
      8          1           0       -2.488199   -1.592877   -0.841072
      9          1           0       -2.525393   -0.978071    0.831174
     10          1           0        0.038809    1.686752   -1.143032
     11          1           0       -1.081300    0.961331    1.304653
 ---------------------------------------------------------------------

 SCF Done:  E(RHF) =  -762.819875375     A.U. after    2 cycles

 The electronic state is 1-A.
 Alpha  occ. eigenvalues -- -103.71472 -20.65787 -20.60739 -20.60567 -11.42815
 Alpha  occ. eigenvalues --  -11.30399 -10.74161  -8.39921  -8.39518  -8.39492
 Alpha  occ. eigenvalues --   -1.44215  -1.34717  -1.33720  -1.11635  -0.97780
 Alpha  occ. eigenvalues --   -0.88850  -0.76891  -0.73899  -0.72984  -0.66683
 Alpha  occ. eigenvalues --   -0.63723  -0.60374  -0.58374  -0.57230  -0.53760
 Alpha  occ. eigenvalues --   -0.52668  -0.48826  -0.47862  -0.46255
 Alpha virt. eigenvalues --    0.03435   0.04634   0.04985   0.05651   0.06255
 Alpha virt. eigenvalues --    0.06919   0.10186   0.10974   0.12393   0.14259
 Alpha virt. eigenvalues --    0.14408   0.15855   0.16239   0.16951   0.17533

 Mulliken charges:
               1
     1  Cl   0.225579
     2  O   -0.699909
     3  C    1.317712
     4  O   -0.658339
     5  O   -0.457680
     6  C    0.651084
     7  H   -0.035599
     8  H   -0.238787
     9  H   -0.042967
    10  H    0.168207
    11  H   -0.229302
 Sum of Mulliken charges =  -0.00000

 Dipole moment (field-independent basis, Debye):
    X=             -1.7095    Y=             -1.3398    Z=             -0.5475  Tot=              2.2399

 Test job not archived.
 1\1\GINC-SE173\SP\RHF\Aug-CC-pVDZ\C2H5Cl1O3\OHZDE\08-Apr-2025\0\\#t hf
  aug-cc-pvdz iop(5/13=1,5/36=2,99/5=2) pseudo=read geom=check guess=(r
 ead,tcheck) scf=(maxcycle=1)\\title\\0,1\Cl,0,1.688279,-0.581485,-0.24
 5562\O,0,0.529537,-0.062447,0.947566\C,0,-0.536384,0.719314,0.380928\O
 ,0,-1.288749,0.006501,-0.531219\O,0,-0.117262,1.878153,-0.209061\C,0,-
 1.882281,-1.193947,-0.029879\H,0,-1.120877,-1.921747,0.258253\H,0,-2.4
 88199,-1.592878,-0.841072\H,0,-2.525393,-0.978072,0.831174\H,0,0.03880
 9,1.686752,-1.143032\H,0,-1.0813,0.961331,1.304653\\Version=ES64L-G16R

 Normal termination of Gaussian 16 at Tue Apr  8 23:18:00 2025.
