 Gaussian 16, Revision C.01,

 ----------------------------------------------------------------------
 #t hf aug-cc-pvdz symm=none int=(grid=ultrafine) guess=(read,tcheck) s
 table=opt
 ----------------------------------------------------------------------
 -----
 title
 -----
 Symbolic Z-matrix:
 Charge =  0 Multiplicity = 2

 SCF Done:  E(UHF) =  -195.723246023     A.U. after   16 cycles
 Normal termination of Gaussian 16 at Tue Apr  8 22:37:56 2025.
 Gaussian 16:  ES64L-G16RevC.01  3-Jul-2019

 ----------------------------------------------------------------------
 #t hf aug-cc-pvdz iop(5/13=1,5/36=2,99/5=2) pseudo=read geom=check gue
 ss=(read,tcheck) scf=(maxcycle=1)
 ----------------------------------------------------------------------
 -----
 title
 -----
 Structure from the checkpoint file:  "BDE49_expt_1235_mol2.chk"
 Charge =  0 Multiplicity = 2

                         Standard orientation:
 ---------------------------------------------------------------------
 Center     Atomic      Atomic             Coordinates (Angstroms)
 Number     Number       Type             X           Y           Z
 ---------------------------------------------------------------------
      1          6           0        0.000002   -0.001246    0.054363
      2          6           0       -0.000095    1.318053   -0.764114
      3          1           0        0.884311    1.919980   -0.538047
      4          1           0       -0.884576    1.919864   -0.538026
      5          6           0       -1.261156   -0.813238   -0.303753
      6          1           0       -2.169627   -0.254822   -0.058172
      7          1           0       -1.287917   -1.757948    0.246346
      8          1           0       -1.287294   -1.042186   -1.373665
      9          1           0       -0.000094    1.103426   -1.838706
     10          6           0        1.261257   -0.813073   -0.303778
     11          1           0        1.287402   -1.042023   -1.373690
     12          1           0        1.288154   -1.757777    0.246324
     13          1           0        2.169660   -0.254536   -0.058221
     14          6           0       -0.000007    0.325482    1.518831
     15          1           0       -0.928641    0.535065    2.038277
     16          1           0        0.928617    0.535084    2.038289
 ---------------------------------------------------------------------

 SCF Done:  E(UHF) =  -195.785850993     A.U. after    2 cycles

 The electronic state is 2-A.
 Alpha  occ. eigenvalues --  -11.24450 -11.23350 -11.22227 -11.22096 -11.22088
 Alpha  occ. eigenvalues --   -1.09654  -0.92650  -0.92624  -0.92588  -0.73375
 Alpha  occ. eigenvalues --   -0.62148  -0.61818  -0.60188  -0.56743  -0.54520
 Alpha  occ. eigenvalues --   -0.52191  -0.51376  -0.47847  -0.47568  -0.45901
 Alpha  occ. eigenvalues --   -0.35012
 Alpha virt. eigenvalues --    0.03550   0.04740   0.04778   0.04986   0.06743
 Alpha virt. eigenvalues --    0.07017   0.07049   0.07172   0.07703   0.09277
 Alpha virt. eigenvalues --    0.09471   0.12641   0.13752   0.14103   0.14619

  Beta  occ. eigenvalues --  -11.24757 -11.22029 -11.22024 -11.22009 -11.20894
  Beta  occ. eigenvalues --   -1.08410  -0.92514  -0.92084  -0.86182  -0.72129
  Beta  occ. eigenvalues --   -0.61448  -0.61436  -0.59328  -0.56209  -0.53706
  Beta  occ. eigenvalues --   -0.51809  -0.51299  -0.46689  -0.46180  -0.45769
  Beta virt. eigenvalues --    0.03607   0.04658   0.04791   0.04810   0.06761
  Beta virt. eigenvalues --    0.07046   0.07065   0.07185   0.07569   0.09281
  Beta virt. eigenvalues --    0.09474   0.10685   0.12695   0.13883   0.14659

 Mulliken charges and spin densities:
               1          2
     1  C   -2.800169  -0.261722
     2  C    0.934231   0.041440
     3  H   -0.058014  -0.011966
     4  H   -0.058019  -0.011964
     5  C    1.016712   0.028526
     6  H   -0.069259  -0.005857
     7  H   -0.032796  -0.003423
     8  H   -0.040729  -0.000178
     9  H   -0.042188   0.010340
    10  C    1.016726   0.028521
    11  H   -0.040725  -0.000179
    12  H   -0.032797  -0.003422
    13  H   -0.069262  -0.005856
    14  C    0.934682   1.416293
    15  H   -0.329197  -0.110277
    16  H   -0.329197  -0.110274
 Sum of Mulliken charges =  -0.00000   1.00000

 Dipole moment (field-independent basis, Debye):
    X=              0.0000    Y=              0.0873    Z=             -0.1648  Tot=              0.1865
                          Isotropic Fermi Contact Couplings
        Atom                 a.u.       MegaHertz       Gauss      10(-4) cm-1
     1  C(13)             -0.05628     -63.27368     -22.57762     -21.10583
     2  C(13)              0.05523      62.08887      22.15485      20.71062
     3  H(1)              -0.00092      -4.10418      -1.46447      -1.36901
     4  H(1)              -0.00092      -4.10412      -1.46445      -1.36899
     5  C(13)              0.01557      17.50423       6.24594       5.83878
     6  H(1)              -0.00065      -2.92386      -1.04330      -0.97529
     7  H(1)              -0.00063      -2.82756      -1.00894      -0.94317
     8  H(1)               0.00002       0.10982       0.03919       0.03663

 Normal termination of Gaussian 16 at Tue Apr  8 22:38:01 2025.
