 Gaussian 16, Revision C.01,

 ----------------------------------------------------------------------
 #t hf aug-cc-pvdz symm=none int=(grid=ultrafine) guess=(read,tcheck) s
 table=(opt,rrhf)
 ----------------------------------------------------------------------
 -----
 title
 -----
 Symbolic Z-matrix:
 Charge =  0 Multiplicity = 1

 SCF Done:  E(RHF) =  -912.639496216     A.U. after   16 cycles
 Normal termination of Gaussian 16 at Tue Apr  8 22:35:12 2025.
 Gaussian 16:  ES64L-G16RevC.01  3-Jul-2019

 ----------------------------------------------------------------------
 #t hf aug-cc-pvdz iop(5/13=1,5/36=2,99/5=2) pseudo=read geom=check gue
 ss=(read,tcheck) scf=(maxcycle=1)
 ----------------------------------------------------------------------
 -----
 title
 -----
 Structure from the checkpoint file:  "BDE49_expt_1119_mol1.chk"
 Charge =  0 Multiplicity = 1

                         Standard orientation:
 ---------------------------------------------------------------------
 Center     Atomic      Atomic             Coordinates (Angstroms)
 Number     Number       Type             X           Y           Z
 ---------------------------------------------------------------------
      1          6           0       -0.221685    1.159000    0.030199
      2          6           0        1.162053    1.227608    0.040943
      3          6           0        1.897103    0.048752    0.009938
      4          6           0        1.238730   -1.173547   -0.038003
      5          6           0       -0.151298   -1.220170   -0.039404
      6          6           0       -0.923621   -0.049211   -0.006272
      7          9           0       -0.889491    2.335653    0.049403
      8          9           0        1.946918   -2.301697   -0.083887
      9          9           0       -0.711392   -2.421555   -0.101989
     10          9           0        1.784837    2.405910    0.081604
     11          9           0        3.225287    0.092309    0.016248
     12          6           0       -2.434848   -0.150069    0.055504
     13          8           0       -2.991320   -1.131989    0.450342
     14          8           0       -3.138238    0.917886   -0.372020
     15          1           0       -2.567576    1.663068   -0.596409
 ---------------------------------------------------------------------

 SCF Done:  E(RHF) =  -912.944439410     A.U. after    2 cycles

 The electronic state is 1-A.
 Alpha  occ. eigenvalues --  -26.21405 -26.20422 -26.19847 -26.19263 -26.18708
 Alpha  occ. eigenvalues --  -20.64736 -20.58805 -11.44067 -11.42411 -11.42335
 Alpha  occ. eigenvalues --  -11.41874 -11.41026 -11.40631 -11.33776  -1.75413
 Alpha  occ. eigenvalues --   -1.74859  -1.73737  -1.73456  -1.72615  -1.44911
 Alpha  occ. eigenvalues --   -1.36049  -1.24666  -1.12418  -1.11307  -0.99542
 Alpha  occ. eigenvalues --   -0.97859  -0.90554  -0.90008  -0.89706  -0.87622
 Alpha  occ. eigenvalues --   -0.84046  -0.83737  -0.83370  -0.82377  -0.82118
 Alpha  occ. eigenvalues --   -0.81067  -0.80418  -0.80021  -0.79086  -0.78315
 Alpha  occ. eigenvalues --   -0.77492  -0.71477  -0.69626  -0.68863  -0.67110
 Alpha  occ. eigenvalues --   -0.65307  -0.61965  -0.57791  -0.52453  -0.50475
 Alpha  occ. eigenvalues --   -0.42207  -0.41108
 Alpha virt. eigenvalues --    0.03000   0.03251   0.05059   0.06720   0.07282
 Alpha virt. eigenvalues --    0.07553   0.08286   0.08989   0.09680   0.10586
 Alpha virt. eigenvalues --    0.11191   0.11296   0.11954   0.13479   0.13761

 Mulliken charges:
               1
     1  C    0.289430
     2  C    0.128243
     3  C    0.452328
     4  C    0.287906
     5  C    0.243838
     6  C    0.307807
     7  F   -0.357730
     8  F   -0.225420
     9  F   -0.254986
    10  F   -0.208399
    11  F   -0.244302
    12  C    0.236817
    13  O   -0.383438
    14  O   -0.447868
    15  H    0.175774
 Sum of Mulliken charges =  -0.00000

 Dipole moment (field-independent basis, Debye):
    X=              2.1563    Y=              2.5636    Z=             -0.9694  Tot=              3.4873

 Test job not archived.
 1\1\GINC-SE073\SP\RHF\Aug-CC-pVDZ\C7H1F5O2\OHZDE\08-Apr-2025\0\\#t hf
 aug-cc-pvdz iop(5/13=1,5/36=2,99/5=2) pseudo=read geom=check guess=(re
 ad,tcheck) scf=(maxcycle=1)\\title\\0,1\C,0,-0.221685,1.159,0.030199\C
 ,0,1.162053,1.227608,0.040943\C,0,1.897103,0.048752,0.009938\C,0,1.238
 73,-1.173547,-0.038003\C,0,-0.151298,-1.22017,-0.039404\C,0,-0.923621,
 -0.049211,-0.006272\F,0,-0.889491,2.335653,0.049403\F,0,1.946918,-2.30
 1697,-0.083887\F,0,-0.711392,-2.421555,-0.101989\F,0,1.784837,2.40591,
 0.081604\F,0,3.225287,0.09231,0.016248\C,0,-2.434848,-0.150069,0.05550

 Normal termination of Gaussian 16 at Tue Apr  8 22:35:22 2025.
