 Gaussian 16, Revision C.01,

 ----------------------------------------------------------------------
 #t hf aug-cc-pvdz symm=none int=(grid=ultrafine) guess=(read,tcheck) s
 table=(opt,rrhf)
 ----------------------------------------------------------------------
 -----
 title
 -----
 Symbolic Z-matrix:
 Charge =  0 Multiplicity = 1

 SCF Done:  E(RHF) =  -781.896011808     A.U. after   15 cycles
 Normal termination of Gaussian 16 at Tue Apr  8 23:16:22 2025.
 Gaussian 16:  ES64L-G16RevC.01  3-Jul-2019

 ----------------------------------------------------------------------
 #t hf aug-cc-pvdz iop(5/13=1,5/36=2,99/5=2) pseudo=read geom=check gue
 ss=(read,tcheck) scf=(maxcycle=1)
 ----------------------------------------------------------------------
 -----
 title
 -----
 Structure from the checkpoint file:  "BDE49_nonexpt_1054_mol1.chk"
 Charge =  0 Multiplicity = 1

                         Standard orientation:
 ---------------------------------------------------------------------
 Center     Atomic      Atomic             Coordinates (Angstroms)
 Number     Number       Type             X           Y           Z
 ---------------------------------------------------------------------
      1         17           0       -2.018919   -0.310656   -0.484844
      2          8           0       -1.020294   -0.036682    0.926079
      3          6           0        0.234857    0.570323    0.609418
      4          8           0        0.103764    1.840380    0.080430
      5          7           0        1.031353   -0.278022   -0.237356
      6          6           0        1.138856   -1.657054    0.241741
      7          1           0        0.150937   -2.081192    0.403621
      8          1           0        1.713270   -1.732207    1.180964
      9          1           0        1.650189   -2.252267   -0.517060
     10          6           0        2.351418    0.281571   -0.538996
     11          1           0        2.259344    1.307386   -0.888638
     12          1           0        2.815787   -0.314533   -1.326930
     13          1           0        3.022199    0.273809    0.337298
     14          1           0        0.625450    0.693373    1.635365
     15          1           0       -0.153561    1.734310   -0.845821
 ---------------------------------------------------------------------

 SCF Done:  E(RHF) =  -782.016753593     A.U. after    2 cycles

 The electronic state is 1-A.
 Alpha  occ. eigenvalues -- -103.71115 -20.65558 -20.59932 -15.63519 -11.39767
 Alpha  occ. eigenvalues --  -11.26883 -11.26534 -10.73799  -8.39556  -8.39161
 Alpha  occ. eigenvalues --   -8.39136  -1.41015  -1.33532  -1.20428  -1.11194
 Alpha  occ. eigenvalues --   -0.96071  -0.93554  -0.84064  -0.73902  -0.71266
 Alpha  occ. eigenvalues --   -0.70525  -0.64566  -0.62591  -0.59012  -0.58291
 Alpha  occ. eigenvalues --   -0.56183  -0.55576  -0.53822  -0.52115  -0.51644
 Alpha  occ. eigenvalues --   -0.47706  -0.46028  -0.37830
 Alpha virt. eigenvalues --    0.03331   0.04176   0.04652   0.04992   0.05865
 Alpha virt. eigenvalues --    0.07063   0.07532   0.07716   0.08346   0.11541
 Alpha virt. eigenvalues --    0.11728   0.13736   0.14369   0.14776   0.15292

 Mulliken charges:
               1
     1  Cl   0.193832
     2  O   -0.690276
     3  C    1.339455
     4  O   -0.503025
     5  N   -0.848913
     6  C    0.656217
     7  H   -0.160799
     8  H   -0.020109
     9  H   -0.151112
    10  C    0.715620
    11  H   -0.190384
    12  H   -0.167243
    13  H   -0.022735
    14  H   -0.286135
    15  H    0.135608
 Sum of Mulliken charges =  -0.00000

 Dipole moment (field-independent basis, Debye):
    X=              2.2013    Y=             -0.8860    Z=             -1.0569  Tot=              2.5977

 Test job not archived.
 1\1\GINC-SE458\SP\RHF\Aug-CC-pVDZ\C3H8Cl1N1O2\OHZDE\08-Apr-2025\0\\#t
 hf aug-cc-pvdz iop(5/13=1,5/36=2,99/5=2) pseudo=read geom=check guess=
 (read,tcheck) scf=(maxcycle=1)\\title\\0,1\Cl,0,-2.018919,-0.310656,-0
 .484844\O,0,-1.020294,-0.036682,0.926079\C,0,0.234857,0.570323,0.60941
 8\O,0,0.103764,1.84038,0.08043\N,0,1.031353,-0.278022,-0.237356\C,0,1.
 138856,-1.657054,0.241741\H,0,0.150937,-2.081192,0.403621\H,0,1.71327,
 -1.732207,1.180964\H,0,1.650189,-2.252267,-0.51706\C,0,2.351418,0.2815
 71,-0.538996\H,0,2.259344,1.307386,-0.888638\H,0,2.815787,-0.314533,-1

 Normal termination of Gaussian 16 at Tue Apr  8 23:16:27 2025.
