 Gaussian 16, Revision C.01,

 ----------------------------------------------------------------------
 #t hf aug-cc-pvdz symm=none int=(grid=ultrafine) guess=(read,tcheck) s
 table=(opt,rrhf)
 ----------------------------------------------------------------------
 -----
 title
 -----
 Symbolic Z-matrix:
 Charge =  0 Multiplicity = 1

 SCF Done:  E(RHF) =  -585.123158300     A.U. after   15 cycles
 Normal termination of Gaussian 16 at Wed Apr  9 00:47:22 2025.
 Gaussian 16:  ES64L-G16RevC.01  3-Jul-2019

 ----------------------------------------------------------------------
 #t hf aug-cc-pvdz iop(5/13=1,5/36=2,99/5=2) pseudo=read geom=check gue
 ss=(read,tcheck) scf=(maxcycle=1)
 ----------------------------------------------------------------------
 -----
 title
 -----
 Structure from the checkpoint file:  "BDE49_nonexpt_848_mol1.chk"
 Charge =  0 Multiplicity = 1

                         Standard orientation:
 ---------------------------------------------------------------------
 Center     Atomic      Atomic             Coordinates (Angstroms)
 Number     Number       Type             X           Y           Z
 ---------------------------------------------------------------------
      1         14           0       -2.531659   -0.343637   -0.410555
      2          5           0       -0.879742    0.817298   -0.271869
      3          6           0        0.582747    0.363638   -0.108637
      4          6           0        1.622098    1.320993   -0.064585
      5          6           0        0.951351   -0.996111   -0.000720
      6          6           0        2.279696   -1.378703    0.141726
      7          6           0        3.280427   -0.407073    0.180524
      8          6           0        2.952150    0.945326    0.077317
      9          1           0        4.317760   -0.704234    0.291765
     10          1           0        3.733197    1.696809    0.108165
     11          1           0        1.366364    2.372042   -0.145041
     12          1           0        0.178572   -1.756005   -0.028722
     13          1           0        2.540139   -2.428105    0.222696
     14          6           0       -3.895678    0.235675    0.767010
     15          1           0       -3.584495    0.134176    1.810371
     16          1           0       -4.805915   -0.353640    0.629268
     17          1           0       -4.141132    1.286272    0.590272
     18          1           0       -1.073148    1.998979   -0.341806
     19          1           0       -2.290315   -1.794800   -0.175553
     20          1           0       -3.035834   -0.229528   -1.810114
 ---------------------------------------------------------------------

 SCF Done:  E(RHF) =  -585.232338068     A.U. after    2 cycles

 The electronic state is 1-A.
 Alpha  occ. eigenvalues --  -69.03710 -11.26373 -11.25826 -11.25805 -11.24955
 Alpha  occ. eigenvalues --  -11.24947 -11.22842 -11.21267  -7.60481  -6.79138
 Alpha  occ. eigenvalues --   -3.89909  -3.89901  -3.89847  -1.14651  -1.01772
 Alpha  occ. eigenvalues --   -1.01459  -0.93252  -0.83683  -0.83214  -0.73224
 Alpha  occ. eigenvalues --   -0.68460  -0.65178  -0.63695  -0.61020  -0.59860
 Alpha  occ. eigenvalues --   -0.56145  -0.55574  -0.54048  -0.51106  -0.50220
 Alpha  occ. eigenvalues --   -0.47671  -0.45181  -0.44178  -0.39098  -0.35132
 Alpha  occ. eigenvalues --   -0.34726
 Alpha virt. eigenvalues --    0.03017   0.03473   0.03951   0.04206   0.05233
 Alpha virt. eigenvalues --    0.05415   0.05694   0.06682   0.07041   0.07155
 Alpha virt. eigenvalues --    0.07576   0.08145   0.08804   0.09618   0.10157

 Mulliken charges:
               1
     1  Si  -0.070951
     2  B   -0.391279
     3  C   -0.186106
     4  C    0.542420
     5  C    0.814589
     6  C    0.463732
     7  C    0.757803
     8  C    0.500729
     9  H   -0.439071
    10  H   -0.440292
    11  H   -0.610242
    12  H   -0.596978
    13  H   -0.459725
    14  C    0.252546
    15  H   -0.184981
    16  H   -0.275275
    17  H   -0.177389
    18  H    0.307471
    19  H    0.057116
    20  H    0.135881
 Sum of Mulliken charges =   0.00000

 Dipole moment (field-independent basis, Debye):
    X=              1.4866    Y=              0.0930    Z=              0.6447  Tot=              1.6231

 Test job not archived.
 1\1\GINC-SE159\SP\RHF\Aug-CC-pVDZ\C7H11B1Si1\OHZDE\09-Apr-2025\0\\#t h
 f aug-cc-pvdz iop(5/13=1,5/36=2,99/5=2) pseudo=read geom=check guess=(
 read,tcheck) scf=(maxcycle=1)\\title\\0,1\Si,0,-2.531659,-0.343637,-0.
 410555\B,0,-0.879742,0.817298,-0.271869\C,0,0.582747,0.363638,-0.10863
 7\C,0,1.622098,1.320993,-0.064585\C,0,0.951351,-0.996111,-0.00072\C,0,
 2.279696,-1.378703,0.141726\C,0,3.280427,-0.407073,0.180524\C,0,2.9521
 5,0.945326,0.077317\H,0,4.31776,-0.704234,0.291765\H,0,3.733197,1.6968
 09,0.108165\H,0,1.366364,2.372042,-0.145041\H,0,0.178572,-1.756005,-0.

 Normal termination of Gaussian 16 at Wed Apr  9 00:47:33 2025.
