 Gaussian 16, Revision C.01,

 ----------------------------------------------------------------------
 #t hf aug-cc-pvdz symm=none int=(grid=ultrafine) guess=(read,tcheck) s
 table=(opt,rrhf)
 ----------------------------------------------------------------------
 -----
 title
 -----
 Symbolic Z-matrix:
 Charge =  0 Multiplicity = 1

 SCF Done:  E(RHF) =  -720.156280850     A.U. after   12 cycles
 Normal termination of Gaussian 16 at Tue Apr  8 23:38:32 2025.
 Gaussian 16:  ES64L-G16RevC.01  3-Jul-2019

 ----------------------------------------------------------------------
 #t hf aug-cc-pvdz iop(5/13=1,5/36=2,99/5=2) pseudo=read geom=check gue
 ss=(read,tcheck) scf=(maxcycle=1)
 ----------------------------------------------------------------------
 -----
 title
 -----
 Structure from the checkpoint file:  "BDE49_nonexpt_1592_mol1.chk"
 Charge =  0 Multiplicity = 1

                         Standard orientation:
 ---------------------------------------------------------------------
 Center     Atomic      Atomic             Coordinates (Angstroms)
 Number     Number       Type             X           Y           Z
 ---------------------------------------------------------------------
      1          6           0        1.718060    0.408814    0.201034
      2          8           0        0.653105   -0.446961   -0.296499
      3         15           0       -0.877097   -0.125410   -0.091154
      4          8           0       -1.784605   -1.127469   -0.640900
      5          8           0       -1.073422    0.135295    1.487431
      6          6           0        3.036117   -0.273647   -0.097488
      7          1           0        1.572656    0.554319    1.274497
      8          1           0        1.641966    1.376727   -0.299138
      9          1           0        3.090527   -1.244782    0.398498
     10          1           0        3.862887    0.346205    0.260031
     11          1           0        3.156157   -0.426648   -1.171703
     12          8           0       -0.963843    1.364254   -0.665701
     13          1           0       -1.867965    1.696649   -0.700815
     14          1           0       -1.474708   -0.633270    1.910012
 ---------------------------------------------------------------------

 SCF Done:  E(RHF) =  -720.356824595     A.U. after    2 cycles

 The electronic state is 1-A.
 Alpha  occ. eigenvalues --  -81.44572 -20.62110 -20.61860 -20.60580 -20.52617
 Alpha  occ. eigenvalues --  -11.31532 -11.24207  -7.92496  -5.07198  -5.07130
 Alpha  occ. eigenvalues --   -5.07053  -1.39907  -1.35218  -1.34940  -1.26298
 Alpha  occ. eigenvalues --   -1.03770  -0.87736  -0.84979  -0.77599  -0.73524
 Alpha  occ. eigenvalues --   -0.68510  -0.67880  -0.65593  -0.62294  -0.60869
 Alpha  occ. eigenvalues --   -0.58459  -0.57214  -0.55653  -0.54882  -0.51845
 Alpha  occ. eigenvalues --   -0.49664  -0.49345  -0.48801
 Alpha virt. eigenvalues --    0.02963   0.04140   0.04563   0.05212   0.06027
 Alpha virt. eigenvalues --    0.06983   0.07900   0.09723   0.11353   0.11706
 Alpha virt. eigenvalues --    0.12864   0.13672   0.14139   0.16087   0.16182

 Mulliken charges:
               1
     1  C    0.651444
     2  O   -0.960487
     3  P    2.434106
     4  O   -0.831269
     5  O   -0.736080
     6  C    0.223624
     7  H   -0.155187
     8  H   -0.167728
     9  H   -0.054739
    10  H   -0.018597
    11  H   -0.050582
    12  O   -0.677992
    13  H    0.161285
    14  H    0.182203
 Sum of Mulliken charges =  -0.00000

 Dipole moment (field-independent basis, Debye):
    X=              1.7007    Y=              2.4820    Z=              2.3788  Tot=              3.8355

 Test job not archived.
 1\1\GINC-SE173\SP\RHF\Aug-CC-pVDZ\C2H7O4P1\OHZDE\08-Apr-2025\0\\#t hf
 aug-cc-pvdz iop(5/13=1,5/36=2,99/5=2) pseudo=read geom=check guess=(re
 ad,tcheck) scf=(maxcycle=1)\\title\\0,1\C,0,1.71806,0.408814,0.201034\
 O,0,0.653105,-0.446961,-0.296499\P,0,-0.877097,-0.12541,-0.091154\O,0,
 -1.784605,-1.127469,-0.6409\O,0,-1.073422,0.135295,1.487431\C,0,3.0361
 17,-0.273647,-0.097488\H,0,1.572656,0.554319,1.274497\H,0,1.641966,1.3
 76727,-0.299138\H,0,3.090527,-1.244782,0.398498\H,0,3.862887,0.346205,
 0.260031\H,0,3.156157,-0.426648,-1.171703\O,0,-0.963843,1.364254,-0.66

 Normal termination of Gaussian 16 at Tue Apr  8 23:38:37 2025.
