 Gaussian 16, Revision C.01,

 ----------------------------------------------------------------------
 #t hf aug-cc-pvdz symm=none int=(grid=ultrafine) guess=(read,tcheck) s
 table=opt
 ----------------------------------------------------------------------
 -----
 title
 -----
 Symbolic Z-matrix:
 Charge =  0 Multiplicity = 2

 SCF Done:  E(UHF) =  -446.796652818     A.U. after   15 cycles
 Normal termination of Gaussian 16 at Tue Apr  8 23:43:44 2025.
 Gaussian 16:  ES64L-G16RevC.01  3-Jul-2019

 ----------------------------------------------------------------------
 #t hf aug-cc-pvdz iop(5/13=1,5/36=2,99/5=2) pseudo=read geom=check gue
 ss=(read,tcheck) scf=(maxcycle=1)
 ----------------------------------------------------------------------
 -----
 title
 -----
 Structure from the checkpoint file:  "BDE49_nonexpt_1744_mol2.chk"
 Charge =  0 Multiplicity = 2

                         Standard orientation:
 ---------------------------------------------------------------------
 Center     Atomic      Atomic             Coordinates (Angstroms)
 Number     Number       Type             X           Y           Z
 ---------------------------------------------------------------------
      1         14           0       -1.364549   -0.659540    0.081344
      2          6           0        0.458334   -0.627067   -0.439743
      3          6           0        1.355316    0.320767    0.385510
      4          1           0        0.510447   -0.355414   -1.501420
      5          1           0        0.846662   -1.650542   -0.372846
      6          6           0       -2.215080    1.014156   -0.133936
      7          1           0       -1.737315    1.780798    0.486730
      8          1           0       -3.266160    0.955280    0.159775
      9          1           0       -2.174110    1.347667   -1.174317
     10          6           0        2.822955    0.292769   -0.057761
     11          1           0        1.291992    0.051828    1.445839
     12          1           0        0.976490    1.346065    0.309125
     13          1           0        3.244446   -0.712130    0.041891
     14          1           0        3.433435    0.972613    0.543948
     15          1           0        2.923514    0.591524   -1.105708
     16          1           0       -1.474859   -1.097877    1.503747
 ---------------------------------------------------------------------

 SCF Done:  E(UHF) =  -446.870106905     A.U. after    2 cycles

 The electronic state is 2-A.
 Alpha  occ. eigenvalues --  -69.05616 -11.23653 -11.22415 -11.21993 -11.21808
 Alpha  occ. eigenvalues --   -6.80942  -3.92279  -3.91399  -3.91393  -1.04669
 Alpha  occ. eigenvalues --   -0.94331  -0.91623  -0.80547  -0.65620  -0.63183
 Alpha  occ. eigenvalues --   -0.57766  -0.56360  -0.56049  -0.53906  -0.53054
 Alpha  occ. eigenvalues --   -0.48459  -0.47745  -0.45022  -0.42283  -0.30272
 Alpha virt. eigenvalues --    0.03345   0.04411   0.04583   0.04723   0.06205
 Alpha virt. eigenvalues --    0.06408   0.06775   0.07261   0.07913   0.08821
 Alpha virt. eigenvalues --    0.09186   0.09582   0.10380   0.11246   0.13676

  Beta  occ. eigenvalues --  -69.05070 -11.23559 -11.22392 -11.21941 -11.21757
  Beta  occ. eigenvalues --   -6.80123  -3.91027  -3.91021  -3.90167  -1.04388
  Beta  occ. eigenvalues --   -0.93751  -0.91382  -0.80303  -0.63229  -0.62327
  Beta  occ. eigenvalues --   -0.57389  -0.55962  -0.55105  -0.53809  -0.52451
  Beta  occ. eigenvalues --   -0.48081  -0.47667  -0.44210  -0.41485
  Beta virt. eigenvalues --    0.03091   0.04141   0.04546   0.04754   0.05996
  Beta virt. eigenvalues --    0.06265   0.06831   0.06877   0.07685   0.08600
  Beta virt. eigenvalues --    0.09060   0.09301   0.09995   0.10744   0.11350

 Mulliken charges and spin densities:
               1          2
     1  Si   0.621246   0.996148
     2  C    0.091050  -0.000932
     3  C    0.008098  -0.003172
     4  H   -0.134806  -0.004897
     5  H   -0.187712  -0.003050
     6  C    0.244020  -0.002171
     7  H   -0.215520   0.013335
     8  H   -0.254985  -0.014432
     9  H   -0.165729  -0.005094
    10  C    0.405870   0.004347
    11  H   -0.140618  -0.006296
    12  H   -0.149287  -0.002116
    13  H   -0.069683  -0.000282
    14  H   -0.072009   0.001138
    15  H   -0.062194   0.000161
    16  H    0.082258   0.027314
 Sum of Mulliken charges =   0.00000   1.00000

 Dipole moment (field-independent basis, Debye):
    X=              0.4551    Y=              0.6528    Z=             -0.2547  Tot=              0.8356
                          Isotropic Fermi Contact Couplings
        Atom                 a.u.       MegaHertz       Gauss      10(-4) cm-1
     1  Si(29)             0.50763    -451.14371    -160.97929    -150.48534
     2  C(13)              0.01427      16.04636       5.72574       5.35249
     3  C(13)              0.02191      24.63212       8.78935       8.21639
     4  H(1)               0.00008       0.37544       0.13397       0.12523
     5  H(1)               0.00040       1.78931       0.63847       0.59685
     6  C(13)              0.01291      14.51745       5.18019       4.84250
     7  H(1)               0.00968      43.25727      15.43527      14.42907
     8  H(1)               0.00034       1.51942       0.54217       0.50682

 Normal termination of Gaussian 16 at Tue Apr  8 23:43:49 2025.
