 Gaussian 16, Revision C.01,

 ----------------------------------------------------------------------
 #t hf aug-cc-pvdz symm=none int=(grid=ultrafine) guess=(read,tcheck) s
 table=(opt,rrhf)
 ----------------------------------------------------------------------
 -----
 title
 -----
 Symbolic Z-matrix:
 Charge =  0 Multiplicity = 1

 SCF Done:  E(RHF) =  -772.397627926     A.U. after   12 cycles
 Normal termination of Gaussian 16 at Tue Apr  8 22:49:41 2025.
 Gaussian 16:  ES64L-G16RevC.01  3-Jul-2019

 ----------------------------------------------------------------------
 #t hf aug-cc-pvdz iop(5/13=1,5/36=2,99/5=2) pseudo=read geom=check gue
 ss=(read,tcheck) scf=(maxcycle=1)
 ----------------------------------------------------------------------
 -----
 title
 -----
 Structure from the checkpoint file:  "BDE49_expt_1663_mol1.chk"
 Charge =  0 Multiplicity = 1

                         Standard orientation:
 ---------------------------------------------------------------------
 Center     Atomic      Atomic             Coordinates (Angstroms)
 Number     Number       Type             X           Y           Z
 ---------------------------------------------------------------------
      1          6           0       -3.493385    0.694189    0.344913
      2          6           0       -2.122164    1.069005   -0.195412
      3          1           0       -4.264086    1.381706    0.001256
      4          1           0       -3.506874    0.652797    1.433843
      5         17           0       -4.038960   -0.955889   -0.214161
      6          6           0       -0.964981    0.220502    0.340533
      7          1           0       -1.958300    2.121470    0.073849
      8          1           0       -2.144993    1.028734   -1.289398
      9          6           0        0.399315    0.654452   -0.207250
     10          1           0       -1.141170   -0.830489    0.089948
     11          1           0       -0.952766    0.279146    1.436585
     12          6           0        1.564978   -0.186853    0.324960
     13          1           0        0.573114    1.710061    0.039106
     14          1           0        0.382877    0.596607   -1.303051
     15          6           0        2.930653    0.240731   -0.224032
     16          1           0        1.390035   -1.241890    0.079005
     17          1           0        1.581696   -0.129435    1.420954
     18          6           0        4.097421   -0.599778    0.307328
     19          1           0        3.105989    1.296395    0.021199
     20          1           0        2.914738    0.182876   -1.320155
     21          6           0        5.457723   -0.166309   -0.246553
     22          1           0        3.922606   -1.654301    0.062073
     23          1           0        4.113861   -0.541832    1.402435
     24          1           0        5.484301   -0.246980   -1.337765
     25          1           0        6.266938   -0.784659    0.151388
     26          1           0        5.676985    0.874284    0.012536
 ---------------------------------------------------------------------

 SCF Done:  E(RHF) =  -772.514270827     A.U. after    2 cycles

 The electronic state is 1-A.
 Alpha  occ. eigenvalues -- -103.64160 -11.30400 -11.24662 -11.23213 -11.22998
 Alpha  occ. eigenvalues --  -11.22725 -11.22697 -11.22565 -11.22203 -10.67434
 Alpha  occ. eigenvalues --   -8.33148  -8.32876  -8.32866  -1.15475  -1.08346
 Alpha  occ. eigenvalues --   -1.05318  -1.00659  -0.94688  -0.87927  -0.81830
 Alpha  occ. eigenvalues --   -0.79404  -0.78751  -0.66536  -0.64369  -0.63222
 Alpha  occ. eigenvalues --   -0.60423  -0.58820  -0.58774  -0.55987  -0.54733
 Alpha  occ. eigenvalues --   -0.52048  -0.51807  -0.50925  -0.48676  -0.48115
 Alpha  occ. eigenvalues --   -0.47065  -0.46413  -0.46303  -0.45100  -0.43882
 Alpha  occ. eigenvalues --   -0.43283
 Alpha virt. eigenvalues --    0.03329   0.03564   0.04209   0.04642   0.05008
 Alpha virt. eigenvalues --    0.05450   0.06038   0.06653   0.07061   0.07608
 Alpha virt. eigenvalues --    0.08135   0.08540   0.09407   0.10350   0.10524

 Mulliken charges:
               1
     1  C    0.475203
     2  C    0.356878
     3  H    0.002397
     4  H   -0.028418
     5  Cl  -0.163338
     6  C    0.267624
     7  H   -0.105858
     8  H   -0.174916
     9  C    0.089235
    10  H   -0.181699
    11  H   -0.182348
    12  C    0.118546
    13  H   -0.205212
    14  H   -0.189304
    15  C    0.171806
    16  H   -0.195073
    17  H   -0.194063
    18  C    0.464553
    19  H   -0.189331
    20  H   -0.192111
    21  C    0.629366
    22  H   -0.162343
    23  H   -0.164112
    24  H   -0.090306
    25  H   -0.066382
    26  H   -0.090792
 Sum of Mulliken charges =  -0.00000

 Dipole moment (field-independent basis, Debye):
    X=              1.1594    Y=              2.0972    Z=              0.6548  Tot=              2.4842

 Test job not archived.
 1\1\GINC-SE072\SP\RHF\Aug-CC-pVDZ\C8H17Cl1\OHZDE\08-Apr-2025\0\\#t hf
 aug-cc-pvdz iop(5/13=1,5/36=2,99/5=2) pseudo=read geom=check guess=(re
 ad,tcheck) scf=(maxcycle=1)\\title\\0,1\C,0,-3.493385,0.694189,0.34491
 3\C,0,-2.122164,1.069005,-0.195412\H,0,-4.264086,1.381706,0.001256\H,0
 ,-3.506874,0.652797,1.433843\Cl,0,-4.03896,-0.955889,-0.214161\C,0,-0.
 964981,0.220502,0.340533\H,0,-1.9583,2.12147,0.073849\H,0,-2.144993,1.
 028734,-1.289398\C,0,0.399315,0.654452,-0.20725\H,0,-1.14117,-0.830489
 ,0.089948\H,0,-0.952766,0.279146,1.436585\C,0,1.564978,-0.186853,0.324

 Normal termination of Gaussian 16 at Tue Apr  8 22:49:56 2025.
