 Gaussian 16, Revision C.01,

 ----------------------------------------------------------------------
 #t hf aug-cc-pvdz symm=none int=(grid=ultrafine) guess=(read,tcheck) s
 table=(opt,rrhf)
 ----------------------------------------------------------------------
 -----
 title
 -----
 Symbolic Z-matrix:
 Charge =  0 Multiplicity = 1

 SCF Done:  E(RHF) =  -1003.46940202     A.U. after   12 cycles
 Normal termination of Gaussian 16 at Wed Apr  9 00:43:23 2025.
 Gaussian 16:  ES64L-G16RevC.01  3-Jul-2019

 ----------------------------------------------------------------------
 #t hf aug-cc-pvdz iop(5/13=1,5/36=2,99/5=2) pseudo=read geom=check gue
 ss=(read,tcheck) scf=(maxcycle=1)
 ----------------------------------------------------------------------
 -----
 title
 -----
 Structure from the checkpoint file:  "BDE49_nonexpt_778_mol1.chk"
 Charge =  0 Multiplicity = 1

                         Standard orientation:
 ---------------------------------------------------------------------
 Center     Atomic      Atomic             Coordinates (Angstroms)
 Number     Number       Type             X           Y           Z
 ---------------------------------------------------------------------
      1         14           0       -0.394471   -0.433134    0.000008
      2          5           0        1.544052    0.182561   -0.000014
      3          8           0        1.901765    1.498413   -0.000032
      4          6           0       -0.882356   -1.376873    1.544088
      5          1           0       -0.683449   -0.794346    2.446670
      6          1           0       -0.300764   -2.302639    1.604393
      7          6           0       -0.882379   -1.376911   -1.544041
      8         17           0       -1.510530    1.387463   -0.000006
      9          1           0       -0.300784   -2.302677   -1.604333
     10          1           0       -0.683488   -0.794405   -2.446640
     11          1           0       -1.943982   -1.637978   -1.531441
     12          1           0       -1.943961   -1.637936    1.531512
     13          1           0        1.141921    2.091611   -0.000034
     14          8           0        2.520445   -0.767535   -0.000009
     15          1           0        3.406582   -0.381740   -0.000020
 ---------------------------------------------------------------------

 SCF Done:  E(RHF) =  -1003.59863663     A.U. after    2 cycles

 The electronic state is 1-A.
 Alpha  occ. eigenvalues -- -103.63941 -69.09020 -20.59124 -20.59069 -11.22512
 Alpha  occ. eigenvalues --  -11.22509 -10.67324  -8.33006  -8.32822  -8.32811
 Alpha  occ. eigenvalues --   -7.66581  -6.84024  -3.94862  -3.94691  -3.94642
 Alpha  occ. eigenvalues --   -1.35319  -1.31661  -1.12012  -0.96064  -0.93381
 Alpha  occ. eigenvalues --   -0.79201  -0.75982  -0.67149  -0.61938  -0.59875
 Alpha  occ. eigenvalues --   -0.59470  -0.57978  -0.57974  -0.56189  -0.55794
 Alpha  occ. eigenvalues --   -0.52953  -0.49620  -0.48655  -0.47830  -0.43481
 Alpha  occ. eigenvalues --   -0.40829
 Alpha virt. eigenvalues --    0.02892   0.04251   0.04638   0.05464   0.06353
 Alpha virt. eigenvalues --    0.06694   0.06791   0.07310   0.07488   0.09162
 Alpha virt. eigenvalues --    0.09682   0.09930   0.10318   0.11145   0.11738

 Mulliken charges:
               1
     1  Si   1.079803
     2  B    0.939654
     3  O   -0.502545
     4  C    0.399405
     5  H   -0.319686
     6  H   -0.160434
     7  C    0.399404
     8  Cl  -0.735290
     9  H   -0.160431
    10  H   -0.319686
    11  H   -0.249059
    12  H   -0.249056
    13  H    0.213451
    14  O   -0.513968
    15  H    0.178437
 Sum of Mulliken charges =  -0.00000

 Dipole moment (field-independent basis, Debye):
    X=              0.7192    Y=             -1.2356    Z=              0.0000  Tot=              1.4297

 Test job not archived.
 1\1\GINC-SE073\SP\RHF\Aug-CC-pVDZ\C2H8B1Cl1O2Si1\OHZDE\09-Apr-2025\0\\
 #t hf aug-cc-pvdz iop(5/13=1,5/36=2,99/5=2) pseudo=read geom=check gue
 ss=(read,tcheck) scf=(maxcycle=1)\\title\\0,1\Si,0,-0.394471,-0.433134
 ,0.000008\B,0,1.544052,0.182561,-0.000014\O,0,1.901765,1.498413,-0.000
 032\C,0,-0.882356,-1.376873,1.544088\H,0,-0.683449,-0.794346,2.44667\H
 ,0,-0.300764,-2.302639,1.604393\C,0,-0.882379,-1.376911,-1.544041\Cl,0
 ,-1.51053,1.387463,-0.000006\H,0,-0.300784,-2.302677,-1.604333\H,0,-0.
 683488,-0.794405,-2.44664\H,0,-1.943982,-1.637978,-1.531441\H,0,-1.943

 Normal termination of Gaussian 16 at Wed Apr  9 00:43:29 2025.
