 Gaussian 16, Revision C.01,

 ----------------------------------------------------------------------
 #t hf aug-cc-pvdz symm=none int=(grid=ultrafine) guess=(read,tcheck) s
 table=(opt,rrhf)
 ----------------------------------------------------------------------
 -----
 title
 -----
 Symbolic Z-matrix:
 Charge =  0 Multiplicity = 1

 SCF Done:  E(RHF) =  -796.757204086     A.U. after   15 cycles
 Normal termination of Gaussian 16 at Tue Apr  8 23:27:05 2025.
 Gaussian 16:  ES64L-G16RevC.01  3-Jul-2019

 ----------------------------------------------------------------------
 #t hf aug-cc-pvdz iop(5/13=1,5/36=2,99/5=2) pseudo=read geom=check gue
 ss=(read,tcheck) scf=(maxcycle=1)
 ----------------------------------------------------------------------
 -----
 title
 -----
 Structure from the checkpoint file:  "BDE49_nonexpt_1322_mol1.chk"
 Charge =  0 Multiplicity = 1

                         Standard orientation:
 ---------------------------------------------------------------------
 Center     Atomic      Atomic             Coordinates (Angstroms)
 Number     Number       Type             X           Y           Z
 ---------------------------------------------------------------------
      1          6           0        2.392166   -1.229546    0.039068
      2          6           0        1.002253   -1.196780    0.024576
      3          6           0        3.119961   -0.039019    0.018412
      4          6           0        2.458282    1.185982   -0.017609
      5          6           0        1.065885    1.225236   -0.033645
      6          6           0        0.334547    0.033669   -0.013957
      7          1           0        0.534325    2.168599   -0.063614
      8          1           0        4.203801   -0.068715    0.030331
      9          1           0        3.024087    2.110368   -0.034292
     10          1           0        2.909423   -2.181787    0.066762
     11          1           0        0.435731   -2.120079    0.041231
     12         15           0       -1.456757    0.135447   -0.016109
     13          8           0       -2.001026    1.499339    0.027658
     14          8           0       -1.984047   -0.803613    1.192397
     15          1           0       -2.210121   -0.272849    1.965583
     16          8           0       -1.828012   -0.783210   -1.275067
     17          1           0       -2.779768   -0.844618   -1.425343
 ---------------------------------------------------------------------

 SCF Done:  E(RHF) =  -796.961061799     A.U. after    2 cycles

 The electronic state is 1-A.
 Alpha  occ. eigenvalues --  -81.41563 -20.61516 -20.61250 -20.52283 -11.26769
 Alpha  occ. eigenvalues --  -11.26524 -11.26487 -11.26068 -11.25845 -11.25708
 Alpha  occ. eigenvalues --   -7.89921  -5.04593  -5.04463  -5.04266  -1.37845
 Alpha  occ. eigenvalues --   -1.34328  -1.25751  -1.15945  -1.03238  -1.02670
 Alpha  occ. eigenvalues --   -0.87446  -0.84548  -0.81673  -0.76207  -0.72772
 Alpha  occ. eigenvalues --   -0.68474  -0.66465  -0.64789  -0.64181  -0.62082
 Alpha  occ. eigenvalues --   -0.60806  -0.58815  -0.57962  -0.55689  -0.52245
 Alpha  occ. eigenvalues --   -0.51313  -0.51079  -0.48608  -0.47143  -0.36242
 Alpha  occ. eigenvalues --   -0.35453
 Alpha virt. eigenvalues --    0.02932   0.03725   0.04205   0.05208   0.05520
 Alpha virt. eigenvalues --    0.06636   0.07657   0.07928   0.09170   0.09677
 Alpha virt. eigenvalues --    0.10414   0.11008   0.13122   0.13277   0.13756

 Mulliken charges:
               1
     1  C    0.568294
     2  C    0.231136
     3  C    0.730253
     4  C    0.547869
     5  C    0.243259
     6  C    0.057517
     7  H   -0.603203
     8  H   -0.435189
     9  H   -0.439504
    10  H   -0.440926
    11  H   -0.582234
    12  P    2.129531
    13  O   -0.903181
    14  O   -0.688218
    15  H    0.138220
    16  O   -0.712651
    17  H    0.159027
 Sum of Mulliken charges =  -0.00000

 Dipole moment (field-independent basis, Debye):
    X=              1.6124    Y=             -2.0040    Z=              0.8518  Tot=              2.7096

 Test job not archived.
 1\1\GINC-SE460\SP\RHF\Aug-CC-pVDZ\C6H7O3P1\OHZDE\08-Apr-2025\0\\#t hf
 aug-cc-pvdz iop(5/13=1,5/36=2,99/5=2) pseudo=read geom=check guess=(re
 ad,tcheck) scf=(maxcycle=1)\\title\\0,1\C,0,2.392166,-1.229546,0.03906
 8\C,0,1.002253,-1.19678,0.024576\C,0,3.119961,-0.039019,0.018412\C,0,2
 .458282,1.185982,-0.017609\C,0,1.065885,1.225236,-0.033645\C,0,0.33454
 7,0.033669,-0.013957\H,0,0.534325,2.168599,-0.063614\H,0,4.203801,-0.0
 68715,0.030331\H,0,3.024087,2.110368,-0.034292\H,0,2.909423,-2.181787,
 0.066762\H,0,0.435731,-2.120079,0.041231\P,0,-1.456757,0.135447,-0.016

 Normal termination of Gaussian 16 at Tue Apr  8 23:27:14 2025.
