 Gaussian 16, Revision C.01,

 ----------------------------------------------------------------------
 #t hf aug-cc-pvdz symm=none int=(grid=ultrafine) guess=(read,tcheck) s
 table=(opt,rrhf)
 ----------------------------------------------------------------------
 -----
 title
 -----
 Symbolic Z-matrix:
 Charge =  0 Multiplicity = 1

 SCF Done:  E(RHF) =  -623.011646753     A.U. after   16 cycles
 Normal termination of Gaussian 16 at Tue Apr  8 23:27:04 2025.
 Gaussian 16:  ES64L-G16RevC.01  3-Jul-2019

 ----------------------------------------------------------------------
 #t hf aug-cc-pvdz iop(5/13=1,5/36=2,99/5=2) pseudo=read geom=check gue
 ss=(read,tcheck) scf=(maxcycle=1)
 ----------------------------------------------------------------------
 -----
 title
 -----
 Structure from the checkpoint file:  "BDE49_nonexpt_1335_mol1.chk"
 Charge =  0 Multiplicity = 1

                         Standard orientation:
 ---------------------------------------------------------------------
 Center     Atomic      Atomic             Coordinates (Angstroms)
 Number     Number       Type             X           Y           Z
 ---------------------------------------------------------------------
      1          6           0        1.753092   -0.189771    0.267197
      2         15           0        0.242411   -1.089955   -0.326179
      3          6           0       -1.163333    0.136993    0.023801
      4          7           0       -0.863788    1.434051   -0.216159
      5          8           0        1.966405    0.989178    0.086572
      6          1           0        2.521504   -0.835525    0.743267
      7          8           0       -2.246618   -0.302473    0.338559
      8          1           0        0.105420    1.725113   -0.281790
      9          1           0       -1.582457    2.120937   -0.035226
     10          1           0        0.069027   -1.876528    0.832520
 ---------------------------------------------------------------------

 SCF Done:  E(RHF) =  -623.120480148     A.U. after    2 cycles

 The electronic state is 1-A.
 Alpha  occ. eigenvalues --  -81.29559 -20.61228 -20.55952 -15.66079 -11.39134
 Alpha  occ. eigenvalues --  -11.38288  -7.80114  -4.94086  -4.94052  -4.93720
 Alpha  occ. eigenvalues --   -1.39516  -1.36838  -1.19392  -0.92845  -0.84460
 Alpha  occ. eigenvalues --   -0.79071  -0.71940  -0.70407  -0.68368  -0.64613
 Alpha  occ. eigenvalues --   -0.60946  -0.58114  -0.56892  -0.48230  -0.43451
 Alpha  occ. eigenvalues --   -0.42695  -0.38322
 Alpha virt. eigenvalues --    0.02980   0.04072   0.05372   0.05913   0.07005
 Alpha virt. eigenvalues --    0.07744   0.09440   0.10027   0.10843   0.11996
 Alpha virt. eigenvalues --    0.13490   0.13649   0.14384   0.14740   0.15284

 Mulliken charges:
               1
     1  C    0.303843
     2  P    0.347629
     3  C    0.297381
     4  N   -0.086721
     5  O   -0.454212
     6  H   -0.190996
     7  O   -0.488650
     8  H    0.094026
     9  H   -0.019826
    10  H    0.197527
 Sum of Mulliken charges =  -0.00000

 Dipole moment (field-independent basis, Debye):
    X=              2.5261    Y=             -0.2014    Z=              0.2938  Tot=              2.5511

 Test job not archived.
 1\1\GINC-SE227\SP\RHF\Aug-CC-pVDZ\C2H4N1O2P1\OHZDE\08-Apr-2025\0\\#t h
 f aug-cc-pvdz iop(5/13=1,5/36=2,99/5=2) pseudo=read geom=check guess=(
 read,tcheck) scf=(maxcycle=1)\\title\\0,1\C,0,1.753092,-0.189771,0.267
 197\P,0,0.242411,-1.089955,-0.326179\C,0,-1.163333,0.136992,0.023801\N
 ,0,-0.863788,1.434051,-0.216159\O,0,1.966405,0.989178,0.086572\H,0,2.5
 21504,-0.835525,0.743267\O,0,-2.246618,-0.302474,0.338559\H,0,0.105419
 ,1.725113,-0.28179\H,0,-1.582458,2.120936,-0.035226\H,0,0.069027,-1.87
 6528,0.83252\\Version=ES64L-G16RevC.01\State=1-A\HF=-623.1204801\RMSD=

 Normal termination of Gaussian 16 at Tue Apr  8 23:27:07 2025.
