 Gaussian 16, Revision C.01,

 ----------------------------------------------------------------------
 #t hf aug-cc-pvdz symm=none int=(grid=ultrafine) guess=(read,tcheck) s
 table=(opt,rrhf)
 ----------------------------------------------------------------------
 -----
 title
 -----
 Symbolic Z-matrix:
 Charge =  0 Multiplicity = 1

 SCF Done:  E(RHF) =  -607.848398164     A.U. after   15 cycles
 Normal termination of Gaussian 16 at Tue Apr  8 23:29:13 2025.
 Gaussian 16:  ES64L-G16RevC.01  3-Jul-2019

 ----------------------------------------------------------------------
 #t hf aug-cc-pvdz iop(5/13=1,5/36=2,99/5=2) pseudo=read geom=check gue
 ss=(read,tcheck) scf=(maxcycle=1)
 ----------------------------------------------------------------------
 -----
 title
 -----
 Structure from the checkpoint file:  "BDE49_nonexpt_1395_mol1.chk"
 Charge =  0 Multiplicity = 1

                         Standard orientation:
 ---------------------------------------------------------------------
 Center     Atomic      Atomic             Coordinates (Angstroms)
 Number     Number       Type             X           Y           Z
 ---------------------------------------------------------------------
      1          6           0       -0.076217   -0.680994    1.386461
      2          6           0       -0.076217    0.657380    1.273999
      3         15           0        0.211106   -1.800135   -0.000000
      4          6           0       -0.076217   -0.680994   -1.386461
      5          6           0       -0.076217    0.657380   -1.273999
      6          6           0       -0.017311    1.408427    0.000000
      7          1           0       -0.128901   -1.139407    2.370275
      8          1           0       -0.138803    1.290064    2.154648
      9          8           0        0.039813    2.630483    0.000000
     10          1           0       -1.016614   -2.510353   -0.000000
     11          1           0       -0.138803    1.290064   -2.154648
     12          1           0       -0.128901   -1.139407   -2.370275
 ---------------------------------------------------------------------

 SCF Done:  E(RHF) =  -607.949984078     A.U. after    2 cycles

 The electronic state is 1-A'.
 Alpha  occ. eigenvalues --  -81.28676 -20.56206 -11.35059 -11.28505 -11.28502
 Alpha  occ. eigenvalues --  -11.26951 -11.26950  -7.79157  -4.93239  -4.93191
 Alpha  occ. eigenvalues --   -4.92818  -1.34936  -1.11238  -1.04989  -0.92623
 Alpha  occ. eigenvalues --   -0.84006  -0.80680  -0.69580  -0.66812  -0.66803
 Alpha  occ. eigenvalues --   -0.62161  -0.60755  -0.57196  -0.53918  -0.50652
 Alpha  occ. eigenvalues --   -0.44825  -0.43702  -0.40240  -0.34317
 Alpha virt. eigenvalues --    0.02887   0.03614   0.04805   0.04854   0.05853
 Alpha virt. eigenvalues --    0.06456   0.07733   0.08636   0.09512   0.10161
 Alpha virt. eigenvalues --    0.11119   0.12734   0.13064   0.13544   0.14480

 Mulliken charges:
               1
     1  C    0.278384
     2  C    0.625741
     3  P    0.619719
     4  C    0.278384
     5  C    0.625741
     6  C   -0.320379
     7  H   -0.453106
     8  H   -0.431070
     9  O   -0.532320
    10  H    0.193084
    11  H   -0.431070
    12  H   -0.453106
 Sum of Mulliken charges =  -0.00000

 Dipole moment (field-independent basis, Debye):
    X=             -0.8203    Y=             -4.1664    Z=             -0.0000  Tot=              4.2464

 Test job not archived.
 1\1\GINC-SE070\SP\RHF\Aug-CC-pVDZ\C5H5O1P1\OHZDE\08-Apr-2025\0\\#t hf
 aug-cc-pvdz iop(5/13=1,5/36=2,99/5=2) pseudo=read geom=check guess=(re
 ad,tcheck) scf=(maxcycle=1)\\title\\0,1\C,0,-0.076217,-0.680994,1.3864
 61\C,0,-0.076217,0.65738,1.273999\P,0,0.211106,-1.800135,0.\C,0,-0.076
 217,-0.680994,-1.386461\C,0,-0.076217,0.65738,-1.273999\C,0,-0.017311,
 1.408427,0.\H,0,-0.128901,-1.139407,2.370275\H,0,-0.138803,1.290064,2.
 154648\O,0,0.039813,2.630483,0.\H,0,-1.016614,-2.510353,0.\H,0,-0.1388
 03,1.290064,-2.154648\H,0,-0.128901,-1.139407,-2.370275\\Version=ES64L

 Normal termination of Gaussian 16 at Tue Apr  8 23:29:17 2025.
