 Gaussian 16, Revision C.01,

 ----------------------------------------------------------------------
 #t hf aug-cc-pvdz symm=none int=(grid=ultrafine) guess=(read,tcheck) s
 table=opt
 ----------------------------------------------------------------------
 -----
 title
 -----
 Symbolic Z-matrix:
 Charge =  0 Multiplicity = 2

 SCF Done:  E(UHF) =  -1259.78125089     A.U. after   15 cycles
 Normal termination of Gaussian 16 at Tue Apr  8 22:57:35 2025.
 Gaussian 16:  ES64L-G16RevC.01  3-Jul-2019

 ----------------------------------------------------------------------
 #t hf aug-cc-pvdz iop(5/13=1,5/36=2,99/5=2) pseudo=read geom=check gue
 ss=(read,tcheck) scf=(maxcycle=1)
 ----------------------------------------------------------------------
 -----
 title
 -----
 Structure from the checkpoint file:  "BDE49_expt_1949_mol2.chk"
 Charge =  0 Multiplicity = 2

                         Standard orientation:
 ---------------------------------------------------------------------
 Center     Atomic      Atomic             Coordinates (Angstroms)
 Number     Number       Type             X           Y           Z
 ---------------------------------------------------------------------
      1         15           0        0.000000   -0.000000    0.898605
      2         17           0        0.000000    1.621502   -0.396443
      3         17           0       -0.000000   -1.621502   -0.396443
 ---------------------------------------------------------------------

 SCF Done:  E(UHF) =  -1259.83872183     A.U. after    2 cycles

 The electronic state is 2-B1.
 Alpha  occ. eigenvalues -- -103.68525-103.68525 -81.38172 -10.71893 -10.71889
 Alpha  occ. eigenvalues --   -8.37533  -8.37532  -8.37437  -8.37436  -8.37262
 Alpha  occ. eigenvalues --   -8.37261  -7.87856  -5.02236  -5.01187  -5.00846
 Alpha  occ. eigenvalues --   -1.18502  -1.15526  -0.78800  -0.59050  -0.56164
 Alpha  occ. eigenvalues --   -0.55005  -0.50954  -0.48095  -0.45111  -0.36688
 Alpha virt. eigenvalues --    0.04855   0.05514   0.07870   0.09694   0.11248
 Alpha virt. eigenvalues --    0.12261   0.13398   0.14326   0.15801   0.15942
 Alpha virt. eigenvalues --    0.16476   0.19229   0.26386   0.26965   0.27257

  Beta  occ. eigenvalues -- -103.68442-103.68442 -81.37438 -10.71805 -10.71802
  Beta  occ. eigenvalues --   -8.37543  -8.37541  -8.37226  -8.37225  -8.37043
  Beta  occ. eigenvalues --   -8.37043  -7.86970  -5.00714  -5.00568  -4.98807
  Beta  occ. eigenvalues --   -1.17508  -1.14909  -0.72788  -0.58327  -0.54516
  Beta  occ. eigenvalues --   -0.51692  -0.48749  -0.48085  -0.42791
  Beta virt. eigenvalues --    0.01510   0.05899   0.06062   0.08132   0.11446
  Beta virt. eigenvalues --    0.12008   0.12647   0.13619   0.14951   0.15870
  Beta virt. eigenvalues --    0.16349   0.17484   0.19284   0.26501   0.28664

 Mulliken charges and spin densities:
               1          2
     1  P    0.788879   0.989711
     2  Cl  -0.394440   0.005145
     3  Cl  -0.394440   0.005145
 Sum of Mulliken charges =   0.00000   1.00000

 Dipole moment (field-independent basis, Debye):
    X=              0.0000    Y=              0.0000    Z=              1.3219  Tot=              1.3219
                          Isotropic Fermi Contact Couplings
        Atom                 a.u.       MegaHertz       Gauss      10(-4) cm-1
     1  P(31)              0.30884     559.34697     199.58891     186.57807
     2  Cl(35)             0.04409      19.33352       6.89868       6.44897
     3  Cl(35)             0.04409      19.33352       6.89868       6.44897
 --------------------------------------------------------
       Center         ----  Spin Dipole Couplings  ----
                      3XX-RR        3YY-RR        3ZZ-RR
 --------------------------------------------------------
     1   Atom        3.447833     -1.554888     -1.892945

 Normal termination of Gaussian 16 at Tue Apr  8 22:57:36 2025.
