 Gaussian 16, Revision C.01,

 ----------------------------------------------------------------------
 #t hf aug-cc-pvdz symm=none int=(grid=ultrafine) guess=(read,tcheck) s
 table=(opt,rrhf)
 ----------------------------------------------------------------------
 -----
 title
 -----
 Symbolic Z-matrix:
 Charge =  0 Multiplicity = 1

 SCF Done:  E(RHF) =  -536.566026419     A.U. after   12 cycles
 Normal termination of Gaussian 16 at Wed Apr  9 00:18:33 2025.
 Gaussian 16:  ES64L-G16RevC.01  3-Jul-2019

 ----------------------------------------------------------------------
 #t hf aug-cc-pvdz iop(5/13=1,5/36=2,99/5=2) pseudo=read geom=check gue
 ss=(read,tcheck) scf=(maxcycle=1)
 ----------------------------------------------------------------------
 -----
 title
 -----
 Structure from the checkpoint file:  "BDE49_nonexpt_2615_mol1.chk"
 Charge =  0 Multiplicity = 1

                         Standard orientation:
 ---------------------------------------------------------------------
 Center     Atomic      Atomic             Coordinates (Angstroms)
 Number     Number       Type             X           Y           Z
 ---------------------------------------------------------------------
      1          9           0       -1.262785    0.603547    0.000004
      2          1           0        1.403151    1.040836    0.898913
      3          1           0        2.194880   -0.277391   -0.000001
      4          1           0        1.403151    1.040839   -0.898913
      5          6           0        1.355554    0.425951   -0.000001
      6         16           0       -0.110590   -0.611995   -0.000002
 ---------------------------------------------------------------------

 SCF Done:  E(RHF) =  -536.639235198     A.U. after    2 cycles

 The electronic state is 1-A.
 Alpha  occ. eigenvalues --  -93.61805 -26.12228 -11.28690  -8.90685  -6.24879
 Alpha  occ. eigenvalues --   -6.24471  -6.24061  -1.63260  -1.05104  -0.88420
 Alpha  occ. eigenvalues --   -0.72744  -0.72652  -0.68452  -0.61262  -0.59308
 Alpha  occ. eigenvalues --   -0.49386  -0.37509
 Alpha virt. eigenvalues --    0.03312   0.05260   0.05833   0.07380   0.07729
 Alpha virt. eigenvalues --    0.12145   0.13757   0.14675   0.15185   0.16304
 Alpha virt. eigenvalues --    0.17511   0.23209   0.24500   0.25213   0.25787

 Mulliken charges:
               1
     1  F   -0.609339
     2  H   -0.034211
     3  H   -0.034185
     4  H   -0.034210
     5  C   -0.011224
     6  S    0.723168
 Sum of Mulliken charges =  -0.00000

 Dipole moment (field-independent basis, Debye):
    X=              2.9885    Y=             -0.3129    Z=             -0.0000  Tot=              3.0048

 Test job not archived.
 1\1\GINC-SE073\SP\RHF\Aug-CC-pVDZ\C1H3F1S1\OHZDE\09-Apr-2025\0\\#t hf
 aug-cc-pvdz iop(5/13=1,5/36=2,99/5=2) pseudo=read geom=check guess=(re
 ad,tcheck) scf=(maxcycle=1)\\title\\0,1\F,0,-1.262785,0.603547,0.00000
 4\H,0,1.403151,1.040836,0.898913\H,0,2.19488,-0.277391,-0.000001\H,0,1
 .403151,1.040839,-0.898913\C,0,1.355554,0.425951,-0.000001\S,0,-0.1105
 9,-0.611995,-0.000002\\Version=ES64L-G16RevC.01\State=1-A\HF=-536.6392
 352\RMSD=4.423e-03\Dipole=1.175759,-0.1231036,-0.000002\Quadrupole=0.6
 991631,0.049107,-0.74827,0.9476468,0.0000027,0.0000004\PG=C01 [X(C1H3F

 Normal termination of Gaussian 16 at Wed Apr  9 00:18:34 2025.
