 Gaussian 16, Revision C.01,

 ----------------------------------------------------------------------
 #t hf aug-cc-pvdz symm=none int=(grid=ultrafine) guess=(read,tcheck) s
 table=(opt,rrhf)
 ----------------------------------------------------------------------
 -----
 title
 -----
 Symbolic Z-matrix:
 Charge =  0 Multiplicity = 1

 SCF Done:  E(RHF) =  -558.119424745     A.U. after   12 cycles
 Normal termination of Gaussian 16 at Tue Apr  8 23:49:54 2025.
 Gaussian 16:  ES64L-G16RevC.01  3-Jul-2019

 ----------------------------------------------------------------------
 #t hf aug-cc-pvdz iop(5/13=1,5/36=2,99/5=2) pseudo=read geom=check gue
 ss=(read,tcheck) scf=(maxcycle=1)
 ----------------------------------------------------------------------
 -----
 title
 -----
 Structure from the checkpoint file:  "BDE49_nonexpt_1884_mol1.chk"
 Charge =  0 Multiplicity = 1

                         Standard orientation:
 ---------------------------------------------------------------------
 Center     Atomic      Atomic             Coordinates (Angstroms)
 Number     Number       Type             X           Y           Z
 ---------------------------------------------------------------------
      1         14           0       -0.890183   -1.028557    0.186253
      2          6           0        0.918679   -0.828966   -0.323730
      3          8           0       -1.838084    0.193416   -0.373320
      4          1           0       -0.950112   -1.111699    1.667329
      5          1           0       -1.418981   -2.265080   -0.428112
      6          6           0       -1.772937    1.555566    0.041765
      7          1           0       -2.514747    2.114026   -0.531480
      8          1           0       -0.780086    1.976052   -0.140780
      9          1           0       -2.006541    1.653470    1.108411
     10          8           0        1.417139    0.366174    0.271578
     11          6           0        2.781436    0.607693   -0.017712
     12          1           0        3.060700    1.535984    0.482393
     13          1           0        2.949406    0.716652   -1.098634
     14          1           0        3.418847   -0.206524    0.355220
     15          1           0        1.010496   -0.788539   -1.421246
     16          1           0        1.498065   -1.707026    0.011348
 ---------------------------------------------------------------------

 SCF Done:  E(RHF) =  -558.242199206     A.U. after    2 cycles

 The electronic state is 1-A.
 Alpha  occ. eigenvalues --  -69.08241 -20.57789 -20.55593 -11.28649 -11.28399
 Alpha  occ. eigenvalues --  -11.27259  -6.83108  -3.94023  -3.93904  -3.93861
 Alpha  occ. eigenvalues --   -1.33385  -1.29882  -0.96954  -0.92490  -0.87243
 Alpha  occ. eigenvalues --   -0.71569  -0.67346  -0.65846  -0.64630  -0.62810
 Alpha  occ. eigenvalues --   -0.62369  -0.58526  -0.55511  -0.50871  -0.49597
 Alpha  occ. eigenvalues --   -0.48710  -0.45480  -0.44392  -0.42341
 Alpha virt. eigenvalues --    0.03274   0.04512   0.04665   0.05060   0.06105
 Alpha virt. eigenvalues --    0.06555   0.06813   0.07126   0.08624   0.09161
 Alpha virt. eigenvalues --    0.09302   0.09992   0.11335   0.13053   0.14171

 Mulliken charges:
               1
     1  Si   0.923697
     2  C    0.510814
     3  O   -0.997341
     4  H    0.033448
     5  H    0.008458
     6  C    0.840723
     7  H   -0.225537
     8  H   -0.148641
     9  H   -0.131737
    10  O   -0.551868
    11  C    0.678303
    12  H   -0.281752
    13  H   -0.082324
    14  H   -0.101752
    15  H   -0.215717
    16  H   -0.258775
 Sum of Mulliken charges =  -0.00000

 Dipole moment (field-independent basis, Debye):
    X=              1.8859    Y=              0.2871    Z=             -0.2069  Tot=              1.9189

 Test job not archived.
 1\1\GINC-SE074\SP\RHF\Aug-CC-pVDZ\C3H10O2Si1\OHZDE\08-Apr-2025\0\\#t h
 f aug-cc-pvdz iop(5/13=1,5/36=2,99/5=2) pseudo=read geom=check guess=(
 read,tcheck) scf=(maxcycle=1)\\title\\0,1\Si,0,-0.890183,-1.028557,0.1
 86253\C,0,0.918679,-0.828966,-0.32373\O,0,-1.838084,0.193416,-0.37332\
 H,0,-0.950112,-1.111699,1.667329\H,0,-1.418981,-2.26508,-0.428112\C,0,
 -1.772937,1.555566,0.041765\H,0,-2.514748,2.114025,-0.53148\H,0,-0.780
 087,1.976052,-0.14078\H,0,-2.006541,1.65347,1.108411\O,0,1.417139,0.36
 6174,0.271578\C,0,2.781436,0.607693,-0.017712\H,0,3.0607,1.535984,0.48

 Normal termination of Gaussian 16 at Tue Apr  8 23:50:00 2025.
