 Gaussian 16, Revision C.01,

 ----------------------------------------------------------------------
 #t hf aug-cc-pvdz symm=none int=(grid=ultrafine) guess=(read,tcheck) s
 table=(opt,rrhf)
 ----------------------------------------------------------------------
 -----
 title
 -----
 Symbolic Z-matrix:
 Charge =  0 Multiplicity = 1

 SCF Done:  E(RHF) =  -452.514429345     A.U. after   12 cycles
 Normal termination of Gaussian 16 at Tue Apr  8 23:36:04 2025.
 Gaussian 16:  ES64L-G16RevC.01  3-Jul-2019

 ----------------------------------------------------------------------
 #t hf aug-cc-pvdz iop(5/13=1,5/36=2,99/5=2) pseudo=read geom=check gue
 ss=(read,tcheck) scf=(maxcycle=1)
 ----------------------------------------------------------------------
 -----
 title
 -----
 Structure from the checkpoint file:  "BDE49_nonexpt_1546_mol1.chk"
 Charge =  0 Multiplicity = 1

                         Standard orientation:
 ---------------------------------------------------------------------
 Center     Atomic      Atomic             Coordinates (Angstroms)
 Number     Number       Type             X           Y           Z
 ---------------------------------------------------------------------
      1         15           0       -1.131539   -0.011572    0.005086
      2          7           0        0.480393    0.553709   -0.064780
      3          7           0        1.558990   -0.373942   -0.040090
      4          1           0       -1.066928   -1.059828    0.976477
      5          1           0       -1.081067   -0.917096   -1.082795
      6          1           0        1.901349   -0.511311    0.909063
      7          1           0        2.316214   -0.005182   -0.606805
      8          1           0        0.627837    1.408619    0.461848
 ---------------------------------------------------------------------

 SCF Done:  E(RHF) =  -452.575570963     A.U. after    2 cycles

 The electronic state is 1-A.
 Alpha  occ. eigenvalues --  -81.27094 -15.65025 -15.64563  -7.77148  -4.91278
 Alpha  occ. eigenvalues --   -4.90983  -4.90783  -1.22717  -1.00202  -0.77756
 Alpha  occ. eigenvalues --   -0.68523  -0.66707  -0.58019  -0.51865  -0.41897
 Alpha  occ. eigenvalues --   -0.39166  -0.35205
 Alpha virt. eigenvalues --    0.03300   0.04727   0.05062   0.05297   0.08930
 Alpha virt. eigenvalues --    0.09434   0.11355   0.11915   0.15730   0.17196
 Alpha virt. eigenvalues --    0.18708   0.18953   0.19684   0.20724   0.21079

 Mulliken charges:
               1
     1  P    0.459221
     2  N   -0.475395
     3  N   -0.138384
     4  H   -0.005466
     5  H    0.021835
     6  H    0.048246
     7  H    0.077362
     8  H    0.012582
 Sum of Mulliken charges =   0.00000

 Dipole moment (field-independent basis, Debye):
    X=              1.8569    Y=              0.6208    Z=              1.1732  Tot=              2.2825

 Test job not archived.
 1\1\GINC-SE403\SP\RHF\Aug-CC-pVDZ\H5N2P1\OHZDE\08-Apr-2025\0\\#t hf au
 g-cc-pvdz iop(5/13=1,5/36=2,99/5=2) pseudo=read geom=check guess=(read
 ,tcheck) scf=(maxcycle=1)\\title\\0,1\P,0,-1.131539,-0.011572,0.005086
 \N,0,0.480393,0.553709,-0.06478\N,0,1.55899,-0.373942,-0.04009\H,0,-1.
 066928,-1.059828,0.976477\H,0,-1.081067,-0.917096,-1.082795\H,0,1.9013
 49,-0.511311,0.909063\H,0,2.316214,-0.005182,-0.606805\H,0,0.627837,1.
 408619,0.461848\\Version=ES64L-G16RevC.01\State=1-A\HF=-452.575571\RMS
 D=7.821e-03\Dipole=0.7305413,0.244222,0.4615671\Quadrupole=1.0495691,-

 Normal termination of Gaussian 16 at Tue Apr  8 23:36:06 2025.
