 Gaussian 16, Revision C.01,

 ----------------------------------------------------------------------
 #t hf aug-cc-pvdz symm=none int=(grid=ultrafine) guess=(read,tcheck) s
 table=(opt,rrhf)
 ----------------------------------------------------------------------
 -----
 title
 -----
 Symbolic Z-matrix:
 Charge =  0 Multiplicity = 1

 SCF Done:  E(RHF) =  -631.952592255     A.U. after   13 cycles
 Normal termination of Gaussian 16 at Wed Apr  9 00:05:58 2025.
 Gaussian 16:  ES64L-G16RevC.01  3-Jul-2019

 ----------------------------------------------------------------------
 #t hf aug-cc-pvdz iop(5/13=1,5/36=2,99/5=2) pseudo=read geom=check gue
 ss=(read,tcheck) scf=(maxcycle=1)
 ----------------------------------------------------------------------
 -----
 title
 -----
 Structure from the checkpoint file:  "BDE49_nonexpt_2265_mol1.chk"
 Charge =  0 Multiplicity = 1

                         Standard orientation:
 ---------------------------------------------------------------------
 Center     Atomic      Atomic             Coordinates (Angstroms)
 Number     Number       Type             X           Y           Z
 ---------------------------------------------------------------------
      1          8           0        1.162386   -0.932500    0.088484
      2         14           0       -0.031005    0.167528   -0.071050
      3          6           0        2.555618   -0.650497    0.194120
      4          8           0       -0.247002    1.121149    1.259131
      5          6           0       -1.560908   -0.807374   -0.441807
      6          1           0        2.866029    0.084314   -0.554125
      7          1           0        3.099850   -1.581618    0.028971
      8          1           0        2.801009   -0.269331    1.190889
      9          6           0       -2.749163   -0.554428    0.112393
     10          1           0       -1.486933   -1.626175   -1.155765
     11          1           0       -2.884631    0.250311    0.830046
     12          1           0       -3.638537   -1.131683   -0.125891
     13          1           0       -0.485316    0.689570    2.082837
     14          8           0        0.408704    1.210989   -1.259952
     15          1           0        0.096615    2.115929   -1.191789
 ---------------------------------------------------------------------

 SCF Done:  E(RHF) =  -632.115313666     A.U. after    2 cycles

 The electronic state is 1-A.
 Alpha  occ. eigenvalues --  -69.12682 -20.57196 -20.56475 -20.55856 -11.28683
 Alpha  occ. eigenvalues --  -11.25386 -11.22834  -6.86846  -3.97896  -3.97862
 Alpha  occ. eigenvalues --   -3.97690  -1.32380  -1.29624  -1.28898  -1.03044
 Alpha  occ. eigenvalues --   -0.93036  -0.79639  -0.75875  -0.72412  -0.67507
 Alpha  occ. eigenvalues --   -0.65350  -0.63276  -0.62714  -0.58467  -0.57968
 Alpha  occ. eigenvalues --   -0.56558  -0.54720  -0.53168  -0.48886  -0.47059
 Alpha  occ. eigenvalues --   -0.45862  -0.38719
 Alpha virt. eigenvalues --    0.03110   0.04467   0.04763   0.05359   0.06059
 Alpha virt. eigenvalues --    0.06349   0.07238   0.07481   0.08352   0.08929
 Alpha virt. eigenvalues --    0.09658   0.10275   0.12756   0.14582   0.15474

 Mulliken charges:
               1
     1  O   -1.010507
     2  Si   2.424967
     3  C    0.833401
     4  O   -0.776698
     5  C    0.222586
     6  H   -0.150741
     7  H   -0.245296
     8  H   -0.138828
     9  C    0.572310
    10  H   -0.447239
    11  H   -0.375014
    12  H   -0.268185
    13  H    0.094159
    14  O   -0.859681
    15  H    0.124767
 Sum of Mulliken charges =  -0.00000

 Dipole moment (field-independent basis, Debye):
    X=             -0.5648    Y=              0.2794    Z=              1.3273  Tot=              1.4692

 Test job not archived.
 1\1\GINC-SE080\SP\RHF\Aug-CC-pVDZ\C3H8O3Si1\OHZDE\09-Apr-2025\0\\#t hf
  aug-cc-pvdz iop(5/13=1,5/36=2,99/5=2) pseudo=read geom=check guess=(r
 ead,tcheck) scf=(maxcycle=1)\\title\\0,1\O,0,1.162386,-0.9325,0.088484
 \Si,0,-0.031005,0.167528,-0.07105\C,0,2.555618,-0.650497,0.19412\O,0,-
 0.247002,1.121149,1.259131\C,0,-1.560908,-0.807374,-0.441807\H,0,2.866
 029,0.084314,-0.554125\H,0,3.09985,-1.581618,0.028971\H,0,2.801009,-0.
 269331,1.190889\C,0,-2.749163,-0.554428,0.112393\H,0,-1.486933,-1.6261
 75,-1.155765\H,0,-2.884631,0.250311,0.830046\H,0,-3.638537,-1.131683,-

 Normal termination of Gaussian 16 at Wed Apr  9 00:06:04 2025.
