 Gaussian 16, Revision C.01,

 ----------------------------------------------------------------------
 #t hf aug-cc-pvdz symm=none int=(grid=ultrafine) guess=(read,tcheck) s
 table=opt
 ----------------------------------------------------------------------
 -----
 title
 -----
 Symbolic Z-matrix:
 Charge =  0 Multiplicity = 2

 SCF Done:  E(UHF) =  -664.871370525     A.U. after   21 cycles
 Normal termination of Gaussian 16 at Tue Apr  8 22:59:10 2025.
 Gaussian 16:  ES64L-G16RevC.01  3-Jul-2019

 ----------------------------------------------------------------------
 #t hf aug-cc-pvdz iop(5/13=1,5/36=2,99/5=2) pseudo=read geom=check gue
 ss=(read,tcheck) scf=(maxcycle=1)
 ----------------------------------------------------------------------
 -----
 title
 -----
 Structure from the checkpoint file:  "BDE49_expt_1982_mol2.chk"
 Charge =  0 Multiplicity = 2

                         Standard orientation:
 ---------------------------------------------------------------------
 Center     Atomic      Atomic             Coordinates (Angstroms)
 Number     Number       Type             X           Y           Z
 ---------------------------------------------------------------------
      1         16           0        0.927321    0.103094   -0.262255
      2          8           0        2.084630   -0.798567   -0.294176
      3          8           0        0.998990    1.415446    0.391422
      4          6           0       -0.435690   -0.845553    0.587758
      5          6           0       -1.745380   -0.070636    0.623628
      6          1           0       -0.018362   -1.036748    1.579380
      7          1           0       -0.495482   -1.783307    0.032918
      8          6           0       -2.377917    0.145075   -0.753660
      9          1           0       -1.575672    0.888366    1.119516
     10          1           0       -2.434321   -0.635144    1.262599
     11          1           0       -1.729660    0.742411   -1.400788
     12          1           0       -3.329274    0.673816   -0.664917
     13          1           0       -2.569404   -0.807248   -1.256953
 ---------------------------------------------------------------------

 SCF Done:  E(UHF) =  -665.018477036     A.U. after    2 cycles

 The electronic state is 2-A.
 Alpha  occ. eigenvalues --  -93.75472 -20.59880 -20.59814 -11.31244 -11.26895
 Alpha  occ. eigenvalues --  -11.25123  -9.02923  -6.37640  -6.37211  -6.36822
 Alpha  occ. eigenvalues --   -1.43123  -1.33555  -1.10400  -0.99175  -0.88846
 Alpha  occ. eigenvalues --   -0.82426  -0.71013  -0.69756  -0.68398  -0.64791
 Alpha  occ. eigenvalues --   -0.63369  -0.60381  -0.57772  -0.54210  -0.53137
 Alpha  occ. eigenvalues --   -0.52570  -0.51823  -0.51163  -0.41456
 Alpha virt. eigenvalues --    0.02796   0.04021   0.04344   0.05410   0.06833
 Alpha virt. eigenvalues --    0.07084   0.07232   0.09582   0.10550   0.13087
 Alpha virt. eigenvalues --    0.13726   0.13997   0.14339   0.14789   0.15136

  Beta  occ. eigenvalues --  -93.75111 -20.58383 -20.58359 -11.30735 -11.26937
  Beta  occ. eigenvalues --  -11.25112  -9.02472  -6.37173  -6.36881  -6.35850
  Beta  occ. eigenvalues --   -1.39917  -1.29377  -1.09495  -0.97809  -0.86533
  Beta  occ. eigenvalues --   -0.79200  -0.68647  -0.67180  -0.65751  -0.62609
  Beta  occ. eigenvalues --   -0.60163  -0.58889  -0.53780  -0.52626  -0.51728
  Beta  occ. eigenvalues --   -0.51013  -0.48223  -0.45637
  Beta virt. eigenvalues --   -0.00416   0.02983   0.04061   0.04383   0.05772
  Beta virt. eigenvalues --    0.06846   0.07119   0.07264   0.09725   0.10700
  Beta virt. eigenvalues --    0.13200   0.13810   0.14117   0.14394   0.14865

 Mulliken charges and spin densities:
               1          2
     1  S    1.900710   0.276560
     2  O   -0.912947   0.277947
     3  O   -0.940801   0.271621
     4  C   -0.157901   0.229498
     5  C    0.166276  -0.043912
     6  H   -0.016691   0.002502
     7  H   -0.036829  -0.019375
     8  C    0.340592   0.009612
     9  H   -0.084195   0.001023
    10  H   -0.040698   0.002082
    11  H   -0.085623  -0.009356
    12  H   -0.064816   0.000323
    13  H   -0.067075   0.001475
 Sum of Mulliken charges =  -0.00000   1.00000

 Dipole moment (field-independent basis, Debye):
    X=             -4.6631    Y=             -1.7720    Z=              0.0578  Tot=              4.9887
                          Isotropic Fermi Contact Couplings
        Atom                 a.u.       MegaHertz       Gauss      10(-4) cm-1
     1  S(33)              0.44150     151.64478      54.11063      50.58325
     2  O(17)              0.11130     -67.47103     -24.07534     -22.50591
     3  O(17)              0.10913     -66.15670     -23.60636     -22.06750
     4  C(13)              0.07339      82.50059      29.43826      27.51923
     5  C(13)             -0.00862      -9.68645      -3.45637      -3.23105
     6  H(1)               0.00257      11.50328       4.10465       3.83708
     7  H(1)              -0.00394     -17.59217      -6.27732      -5.86812
     8  C(13)              0.00074       0.82984       0.29611       0.27680

 Normal termination of Gaussian 16 at Tue Apr  8 22:59:14 2025.
