 Gaussian 16, Revision C.01,

 ----------------------------------------------------------------------
 #t hf aug-cc-pvdz symm=none int=(grid=ultrafine) guess=(read,tcheck) s
 table=(opt,rrhf)
 ----------------------------------------------------------------------
 -----
 title
 -----
 Symbolic Z-matrix:
 Charge =  0 Multiplicity = 1

 SCF Done:  E(RHF) =  -724.190281829     A.U. after   14 cycles
 Normal termination of Gaussian 16 at Wed Apr  9 00:20:10 2025.
 Gaussian 16:  ES64L-G16RevC.01  3-Jul-2019

 ----------------------------------------------------------------------
 #t hf aug-cc-pvdz iop(5/13=1,5/36=2,99/5=2) pseudo=read geom=check gue
 ss=(read,tcheck) scf=(maxcycle=1)
 ----------------------------------------------------------------------
 -----
 title
 -----
 Structure from the checkpoint file:  "BDE49_nonexpt_2645_mol1.chk"
 Charge =  0 Multiplicity = 1

                         Standard orientation:
 ---------------------------------------------------------------------
 Center     Atomic      Atomic             Coordinates (Angstroms)
 Number     Number       Type             X           Y           Z
 ---------------------------------------------------------------------
      1          9           0        2.279918    0.513202    0.000003
      2         16           0        1.207407   -0.739184   -0.000004
      3          6           0       -0.296684    0.235012   -0.000003
      4          8           0       -0.365592    1.425794    0.000000
      5          8           0       -1.303494   -0.649179    0.000000
      6          6           0       -2.637260   -0.086408    0.000005
      7          1           0       -3.306948   -0.942119    0.000005
      8          1           0       -2.787235    0.522853   -0.891520
      9          1           0       -2.787230    0.522850    0.891533
 ---------------------------------------------------------------------

 SCF Done:  E(RHF) =  -724.324589218     A.U. after    2 cycles

 The electronic state is 1-A.
 Alpha  occ. eigenvalues --  -93.65169 -26.14749 -20.65288 -20.59641 -11.44781
 Alpha  occ. eigenvalues --  -11.32453  -8.94063  -6.28255  -6.27880  -6.27432
 Alpha  occ. eigenvalues --   -1.66147  -1.45586  -1.36710  -1.05705  -0.97453
 Alpha  occ. eigenvalues --   -0.82324  -0.77821  -0.75366  -0.73740  -0.71899
 Alpha  occ. eigenvalues --   -0.71496  -0.65536  -0.59773  -0.59673  -0.56719
 Alpha  occ. eigenvalues --   -0.51416  -0.47778  -0.41382
 Alpha virt. eigenvalues --    0.03016   0.04922   0.05660   0.06209   0.06439
 Alpha virt. eigenvalues --    0.09044   0.11397   0.12997   0.13099   0.13572
 Alpha virt. eigenvalues --    0.13709   0.14752   0.15314   0.16708   0.17018

 Mulliken charges:
               1
     1  F   -0.601254
     2  S    0.883384
     3  C    0.078977
     4  O   -0.351477
     5  O   -0.443165
     6  C    0.755776
     7  H   -0.215316
     8  H   -0.053463
     9  H   -0.053463
 Sum of Mulliken charges =  -0.00000

 Dipole moment (field-independent basis, Debye):
    X=             -3.2383    Y=             -2.5573    Z=             -0.0000  Tot=              4.1263

 Test job not archived.
 1\1\GINC-SE049\SP\RHF\Aug-CC-pVDZ\C2H3F1O2S1\OHZDE\09-Apr-2025\0\\#t h
 f aug-cc-pvdz iop(5/13=1,5/36=2,99/5=2) pseudo=read geom=check guess=(
 read,tcheck) scf=(maxcycle=1)\\title\\0,1\F,0,2.279918,0.513202,0.0000
 03\S,0,1.207407,-0.739184,-0.000004\C,0,-0.296684,0.235012,-0.000003\O
 ,0,-0.365592,1.425794,0.\O,0,-1.303494,-0.649179,0.\C,0,-2.63726,-0.08
 6408,0.000005\H,0,-3.306948,-0.942118,0.000005\H,0,-2.787235,0.522853,
 -0.89152\H,0,-2.78723,0.52285,0.891533\\Version=ES64L-G16RevC.01\State
 =1-A\HF=-724.3245892\RMSD=3.648e-03\Dipole=-1.2740336,-1.0061019,-0.00

 Normal termination of Gaussian 16 at Wed Apr  9 00:20:13 2025.
