 Gaussian 16, Revision C.01,

 ----------------------------------------------------------------------
 #t hf aug-cc-pvdz symm=none int=(grid=ultrafine) guess=(read,tcheck) s
 table=(opt,rrhf)
 ----------------------------------------------------------------------
 -----
 title
 -----
 Symbolic Z-matrix:
 Charge =  0 Multiplicity = 1

 SCF Done:  E(RHF) =  -724.050155022     A.U. after   16 cycles
 Normal termination of Gaussian 16 at Tue Apr  8 23:19:56 2025.
 Gaussian 16:  ES64L-G16RevC.01  3-Jul-2019

 ----------------------------------------------------------------------
 #t hf aug-cc-pvdz iop(5/13=1,5/36=2,99/5=2) pseudo=read geom=check gue
 ss=(read,tcheck) scf=(maxcycle=1)
 ----------------------------------------------------------------------
 -----
 title
 -----
 Structure from the checkpoint file:  "BDE49_nonexpt_1150_mol1.chk"
 Charge =  0 Multiplicity = 1

                         Standard orientation:
 ---------------------------------------------------------------------
 Center     Atomic      Atomic             Coordinates (Angstroms)
 Number     Number       Type             X           Y           Z
 ---------------------------------------------------------------------
      1          9           0       -2.340673    0.188614   -0.000005
      2          8           0       -1.213376   -0.801128   -0.000001
      3          6           0       -0.021721   -0.193367    0.000010
      4         16           0        1.232772   -1.248002   -0.000005
      5          8           0       -0.059420    1.111061    0.000008
      6          6           0        1.199376    1.823204    0.000002
      7          1           0        0.919398    2.872971    0.000002
      8          1           0        1.769371    1.569518   -0.893358
      9          1           0        1.769376    1.569520    0.893360
 ---------------------------------------------------------------------

 SCF Done:  E(RHF) =  -724.178956393     A.U. after    2 cycles

 The electronic state is 1-A.
 Alpha  occ. eigenvalues --  -93.52675 -26.19626 -20.76539 -20.67884 -11.48011
 Alpha  occ. eigenvalues --  -11.33549  -8.82651  -6.16887  -6.16326  -6.16251
 Alpha  occ. eigenvalues --   -1.68281  -1.47965  -1.39223  -1.04771  -1.01180
 Alpha  occ. eigenvalues --   -0.85650  -0.80986  -0.79928  -0.76324  -0.72538
 Alpha  occ. eigenvalues --   -0.70111  -0.66097  -0.64998  -0.60368  -0.55330
 Alpha  occ. eigenvalues --   -0.54754  -0.38965  -0.37509
 Alpha virt. eigenvalues --    0.02968   0.03500   0.05507   0.05596   0.07616
 Alpha virt. eigenvalues --    0.07938   0.08949   0.11382   0.12267   0.13138
 Alpha virt. eigenvalues --    0.13374   0.15073   0.16149   0.17142   0.17538

 Mulliken charges:
               1
     1  F   -0.321463
     2  O   -0.076605
     3  C    0.354303
     4  S    0.022578
     5  O   -0.472422
     6  C    0.778655
     7  H   -0.206244
     8  H   -0.039401
     9  H   -0.039401
 Sum of Mulliken charges =  -0.00000

 Dipole moment (field-independent basis, Debye):
    X=              2.3399    Y=              2.7736    Z=              0.0000  Tot=              3.6288

 Test job not archived.
 1\1\GINC-SE109\SP\RHF\Aug-CC-pVDZ\C2H3F1O2S1\OHZDE\08-Apr-2025\0\\#t h
 f aug-cc-pvdz iop(5/13=1,5/36=2,99/5=2) pseudo=read geom=check guess=(
 read,tcheck) scf=(maxcycle=1)\\title\\0,1\F,0,-2.340673,0.188614,-0.00
 0005\O,0,-1.213376,-0.801128,-0.000001\C,0,-0.021721,-0.193367,0.00001
 \S,0,1.232772,-1.248002,-0.000005\O,0,-0.05942,1.111061,0.000008\C,0,1
 .199376,1.823204,0.000002\H,0,0.919398,2.872971,0.000002\H,0,1.769371,
 1.569518,-0.893358\H,0,1.769376,1.56952,0.89336\\Version=ES64L-G16RevC
 .01\State=1-A\HF=-724.1789564\RMSD=4.221e-03\Dipole=0.9205957,1.091221

 Normal termination of Gaussian 16 at Tue Apr  8 23:19:59 2025.
