 Gaussian 16, Revision C.01,

 ----------------------------------------------------------------------
 #t hf aug-cc-pvdz symm=none int=(grid=ultrafine) guess=(read,tcheck) s
 table=(opt,rrhf)
 ----------------------------------------------------------------------
 -----
 title
 -----
 Symbolic Z-matrix:
 Charge =  0 Multiplicity = 1

 SCF Done:  E(RHF) =  -611.893595523     A.U. after   15 cycles
 Normal termination of Gaussian 16 at Tue Apr  8 23:58:54 2025.
 Gaussian 16:  ES64L-G16RevC.01  3-Jul-2019

 ----------------------------------------------------------------------
 #t hf aug-cc-pvdz iop(5/13=1,5/36=2,99/5=2) pseudo=read geom=check gue
 ss=(read,tcheck) scf=(maxcycle=1)
 ----------------------------------------------------------------------
 -----
 title
 -----
 Structure from the checkpoint file:  "BDE49_nonexpt_2099_mol1.chk"
 Charge =  0 Multiplicity = 1

                         Standard orientation:
 ---------------------------------------------------------------------
 Center     Atomic      Atomic             Coordinates (Angstroms)
 Number     Number       Type             X           Y           Z
 ---------------------------------------------------------------------
      1         14           0       -0.623906    1.105896   -0.003136
      2          7           0       -1.681297   -0.445379   -0.017644
      3          8           0       -1.200859   -1.501662   -0.423084
      4          8           0       -2.835710   -0.310924    0.376464
      5          6           0        1.118468    0.667788   -0.497163
      6          6           0        1.881857   -0.222241    0.504139
      7          1           0        1.654483    1.614822   -0.650492
      8          1           0        1.074757    0.181490   -1.478507
      9          6           0        3.311071   -0.532172    0.048957
     10          1           0        1.331644   -1.157685    0.639201
     11          1           0        1.910759    0.268282    1.483781
     12          1           0        3.312003   -1.056746   -0.910968
     13          1           0        3.826507   -1.165873    0.775478
     14          1           0        3.896967    0.384390   -0.070870
     15          1           0       -0.761478    1.600755    1.378540
     16          1           0       -1.317703    1.986121   -0.961398
 ---------------------------------------------------------------------

 SCF Done:  E(RHF) =  -612.019493111     A.U. after    2 cycles

 The electronic state is 1-A.
 Alpha  occ. eigenvalues --  -69.12563 -20.61574 -20.61522 -15.87913 -11.25335
 Alpha  occ. eigenvalues --  -11.25112 -11.23686  -6.87660  -3.98526  -3.98344
 Alpha  occ. eigenvalues --   -3.98334  -1.52850  -1.35205  -1.06792  -0.95529
 Alpha  occ. eigenvalues --   -0.92524  -0.82640  -0.78843  -0.72679  -0.70452
 Alpha  occ. eigenvalues --   -0.67353  -0.64776  -0.59454  -0.56988  -0.56236
 Alpha  occ. eigenvalues --   -0.52237  -0.51402  -0.49673  -0.49583  -0.47524
 Alpha  occ. eigenvalues --   -0.46620  -0.45637
 Alpha virt. eigenvalues --    0.02653   0.03827   0.04130   0.04821   0.06061
 Alpha virt. eigenvalues --    0.06230   0.06399   0.07295   0.07480   0.08824
 Alpha virt. eigenvalues --    0.09194   0.09831   0.10316   0.11894   0.13419

 Mulliken charges:
               1
     1  Si   0.747822
     2  N    0.335521
     3  O   -0.514700
     4  O   -0.591672
     5  C    0.197557
     6  C    0.030099
     7  H   -0.191836
     8  H   -0.102034
     9  C    0.414742
    10  H   -0.145384
    11  H   -0.142197
    12  H   -0.055029
    13  H   -0.063804
    14  H   -0.068038
    15  H    0.114215
    16  H    0.034740
 Sum of Mulliken charges =   0.00000

 Dipole moment (field-independent basis, Debye):
    X=              3.8548    Y=              3.3159    Z=             -0.1517  Tot=              5.0871

 Test job not archived.
 1\1\GINC-SE334\SP\RHF\Aug-CC-pVDZ\C3H9N1O2Si1\OHZDE\08-Apr-2025\0\\#t
 hf aug-cc-pvdz iop(5/13=1,5/36=2,99/5=2) pseudo=read geom=check guess=
 (read,tcheck) scf=(maxcycle=1)\\title\\0,1\Si,0,-0.623906,1.105896,-0.
 003136\N,0,-1.681297,-0.445379,-0.017644\O,0,-1.200859,-1.501662,-0.42
 3084\O,0,-2.83571,-0.310924,0.376464\C,0,1.118468,0.667788,-0.497163\C
 ,0,1.881857,-0.222241,0.504139\H,0,1.654483,1.614822,-0.650492\H,0,1.0
 74757,0.18149,-1.478507\C,0,3.311071,-0.532172,0.048957\H,0,1.331644,-
 1.157685,0.639201\H,0,1.910759,0.268282,1.483781\H,0,3.312003,-1.05674

 Normal termination of Gaussian 16 at Tue Apr  8 23:58:59 2025.
