 Gaussian 16, Revision C.01,

 ----------------------------------------------------------------------
 #t hf aug-cc-pvdz symm=none int=(grid=ultrafine) guess=(read,tcheck) s
 table=(opt,rrhf)
 ----------------------------------------------------------------------
 -----
 title
 -----
 Symbolic Z-matrix:
 Charge =  0 Multiplicity = 1

 SCF Done:  E(RHF) =  -353.999520606     A.U. after   14 cycles
 Normal termination of Gaussian 16 at Wed Apr  9 00:37:22 2025.
 Gaussian 16:  ES64L-G16RevC.01  3-Jul-2019

 ----------------------------------------------------------------------
 #t hf aug-cc-pvdz iop(5/13=1,5/36=2,99/5=2) pseudo=read geom=check gue
 ss=(read,tcheck) scf=(maxcycle=1)
 ----------------------------------------------------------------------
 -----
 title
 -----
 Structure from the checkpoint file:  "BDE49_nonexpt_607_mol1.chk"
 Charge =  0 Multiplicity = 1

                         Standard orientation:
 ---------------------------------------------------------------------
 Center     Atomic      Atomic             Coordinates (Angstroms)
 Number     Number       Type             X           Y           Z
 ---------------------------------------------------------------------
      1          7           0        0.470894   -0.061251    0.406071
      2          5           0       -0.773385   -0.765869    0.041447
      3          9           0        0.445039    1.270704   -0.056533
      4          9           0        1.596554   -0.614504   -0.184003
      5          8           0       -1.910187   -0.073148   -0.101199
      6          1           0       -1.782886    0.884257   -0.086228
      7          1           0       -0.739294   -1.946775    0.010917
 ---------------------------------------------------------------------

 SCF Done:  E(RHF) =  -354.122711548     A.U. after    2 cycles

 The electronic state is 1-A.
 Alpha  occ. eigenvalues --  -26.18193 -26.17988 -20.62566 -15.81675  -7.69745
 Alpha  occ. eigenvalues --   -1.72598  -1.67234  -1.37298  -1.12660  -0.85687
 Alpha  occ. eigenvalues --   -0.82405  -0.81621  -0.81173  -0.75989  -0.71809
 Alpha  occ. eigenvalues --   -0.70355  -0.64332  -0.60041  -0.56333  -0.48819
 Alpha virt. eigenvalues --    0.03761   0.04548   0.04625   0.05977   0.08839
 Alpha virt. eigenvalues --    0.10282   0.10865   0.14816   0.17057   0.17262
 Alpha virt. eigenvalues --    0.20551   0.21314   0.22074   0.22977   0.23642

 Mulliken charges:
               1
     1  N    0.360751
     2  B    0.413986
     3  F   -0.401533
     4  F   -0.354605
     5  O   -0.401459
     6  H    0.251133
     7  H    0.131726
 Sum of Mulliken charges =  -0.00000

 Dipole moment (field-independent basis, Debye):
    X=             -1.3369    Y=             -0.0118    Z=              0.0904  Tot=              1.3400

 Test job not archived.
 1\1\GINC-SE016\SP\RHF\Aug-CC-pVDZ\B1F2H2N1O1\OHZDE\09-Apr-2025\0\\#t h
 f aug-cc-pvdz iop(5/13=1,5/36=2,99/5=2) pseudo=read geom=check guess=(
 read,tcheck) scf=(maxcycle=1)\\title\\0,1\N,0,0.470894,-0.061251,0.406
 071\B,0,-0.773385,-0.765869,0.041447\F,0,0.445039,1.270704,-0.056533\F
 ,0,1.596554,-0.614504,-0.184003\O,0,-1.910187,-0.073148,-0.101199\H,0,
 -1.782886,0.884257,-0.086228\H,0,-0.739294,-1.946775,0.010917\\Version
 =ES64L-G16RevC.01\State=1-A\HF=-354.1227115\RMSD=4.619e-03\Dipole=-0.5
 259666,-0.0046596,0.0355712\Quadrupole=-2.4773891,1.5010689,0.9763202,

 Normal termination of Gaussian 16 at Wed Apr  9 00:37:24 2025.
