 Gaussian 16, Revision C.01,

 ----------------------------------------------------------------------
 #t hf aug-cc-pvdz symm=none int=(grid=ultrafine) guess=(read,tcheck) s
 table=(opt,rrhf)
 ----------------------------------------------------------------------
 -----
 title
 -----
 Symbolic Z-matrix:
 Charge =  0 Multiplicity = 1

 SCF Done:  E(RHF) =  -1515.80529341     A.U. after   11 cycles

 1\1\GINC-SE249\Stability\RHF\Aug-CC-pVDZ\C1Cl3F1\OHZDE\08-Apr-2025\0\\
 #t hf aug-cc-pvdz symm=none int=(grid=ultrafine) guess=(read,tcheck) s
 table=(opt,rrhf)\\title\\0,1\C,0,-0.000006,-0.000018,0.252624\Cl,0,1.4
 37293,-0.893438,-0.310628\F,0,0.000007,0.000005,1.591811\Cl,0,-1.49241
 5,-0.79797,-0.310644\Cl,0,0.05512,1.691411,-0.310614\\Version=ES64L-G1
 6RevC.01\HF=-1515.8052934\RMSD=8.862e-09\Dipole=-0.0000147,-0.0000143,
 -0.1898164\Quadrupole=0.6603495,0.660086,-1.3204355,0.0000254,0.000014
 3,-0.0000015\PG=Unknown\\@

 Normal termination of Gaussian 16 at Tue Apr  8 22:42:39 2025.
 Gaussian 16:  ES64L-G16RevC.01  3-Jul-2019

 ----------------------------------------------------------------------
 #t hf aug-cc-pvdz iop(5/13=1,5/36=2,99/5=2) pseudo=read geom=check gue
 ss=(read,tcheck) scf=(maxcycle=1)
 ----------------------------------------------------------------------
 -----
 title
 -----
 Structure from the checkpoint file:  "BDE49_expt_1503_mol1.chk"
 Charge =  0 Multiplicity = 1

                         Standard orientation:
 ---------------------------------------------------------------------
 Center     Atomic      Atomic             Coordinates (Angstroms)
 Number     Number       Type             X           Y           Z
 ---------------------------------------------------------------------
      1          6           0       -0.000006   -0.000018    0.252624
      2         17           0        1.434883   -0.897303   -0.310628
      3          9           0        0.000007    0.000005    1.591811
      4         17           0       -1.494557   -0.793950   -0.310644
      5         17           0        0.059672    1.691257   -0.310614
 ---------------------------------------------------------------------

 SCF Done:  E(RHF) =  -1515.91072320     A.U. after    2 cycles

 The electronic state is 1-A.
 Alpha  occ. eigenvalues -- -103.70716-103.70716-103.70714 -26.19433 -11.54271
 Alpha  occ. eigenvalues --  -10.74065 -10.74065 -10.74036  -8.39778  -8.39777
 Alpha  occ. eigenvalues --   -8.39767  -8.39419  -8.39418  -8.39418  -8.39417
 Alpha  occ. eigenvalues --   -8.39416  -8.39415  -1.74478  -1.27339  -1.18024
 Alpha  occ. eigenvalues --   -1.18024  -0.95332  -0.82197  -0.82197  -0.77100
 Alpha  occ. eigenvalues --   -0.62976  -0.62976  -0.54060  -0.52660  -0.52659
 Alpha  occ. eigenvalues --   -0.49409  -0.49409  -0.48063
 Alpha virt. eigenvalues --    0.05408   0.08105   0.08105   0.08228   0.11052
 Alpha virt. eigenvalues --    0.12329   0.12330   0.14256   0.14644   0.14644
 Alpha virt. eigenvalues --    0.18539   0.18589   0.18589   0.20275   0.20275

 Mulliken charges:
               1
     1  C   -0.195093
     2  Cl   0.139153
     3  F   -0.222371
     4  Cl   0.139159
     5  Cl   0.139152
 Sum of Mulliken charges =  -0.00000

 Dipole moment (field-independent basis, Debye):
    X=             -0.0000    Y=             -0.0000    Z=             -0.7206  Tot=              0.7206

 Test job not archived.
 1\1\GINC-SE249\SP\RHF\Aug-CC-pVDZ\C1Cl3F1\OHZDE\08-Apr-2025\0\\#t hf a
 ug-cc-pvdz iop(5/13=1,5/36=2,99/5=2) pseudo=read geom=check guess=(rea
 d,tcheck) scf=(maxcycle=1)\\title\\0,1\C,0,-0.000006,-0.000018,0.25262
 4\Cl,0,1.437293,-0.893438,-0.310628\F,0,0.000007,0.000005,1.591811\Cl,
 0,-1.492415,-0.79797,-0.310644\Cl,0,0.05512,1.691411,-0.310614\\Versio
 n=ES64L-G16RevC.01\State=1-A\HF=-1515.9107232\RMSD=3.823e-03\Dipole=-0
 .0000156,-0.0000156,-0.2835066\Quadrupole=0.7860998,0.7858356,-1.57193
 54,0.0000251,0.0000115,-0.0000061\PG=C01 [X(C1Cl3F1)]\\@

 Normal termination of Gaussian 16 at Tue Apr  8 22:42:41 2025.
