 Gaussian 16, Revision C.01,

 ----------------------------------------------------------------------
 #t hf aug-cc-pvdz symm=none int=(grid=ultrafine) guess=(read,tcheck) s
 table=(opt,rrhf)
 ----------------------------------------------------------------------
 -----
 title
 -----
 Symbolic Z-matrix:
 Charge =  0 Multiplicity = 1

 SCF Done:  E(RHF) =  -474.909418037     A.U. after   14 cycles
 Normal termination of Gaussian 16 at Wed Apr  9 00:30:52 2025.
 Gaussian 16:  ES64L-G16RevC.01  3-Jul-2019

 ----------------------------------------------------------------------
 #t hf aug-cc-pvdz iop(5/13=1,5/36=2,99/5=2) pseudo=read geom=check gue
 ss=(read,tcheck) scf=(maxcycle=1)
 ----------------------------------------------------------------------
 -----
 title
 -----
 Structure from the checkpoint file:  "BDE49_nonexpt_38_mol1.chk"
 Charge =  0 Multiplicity = 1

                         Standard orientation:
 ---------------------------------------------------------------------
 Center     Atomic      Atomic             Coordinates (Angstroms)
 Number     Number       Type             X           Y           Z
 ---------------------------------------------------------------------
      1          5           0       -0.690203   -0.950117   -0.443412
      2          5           0        0.690283   -0.950294    0.443035
      3          6           0       -1.948281   -0.093908   -0.055964
      4          8           0       -2.835562   -0.400874    0.663660
      5          9           0       -1.928313    1.130884   -0.676648
      6          6           0        1.948345   -0.093888    0.055975
      7          8           0        2.835874   -0.400709   -0.663406
      8          9           0        1.927986    1.130918    0.676620
      9          1           0        0.807784   -1.657205    1.394829
     10          1           0       -0.808118   -1.657523   -1.394786
 ---------------------------------------------------------------------

 SCF Done:  E(RHF) =  -475.069063592     A.U. after    2 cycles

 The electronic state is 1-A.
 Alpha  occ. eigenvalues --  -26.16833 -26.16833 -20.62377 -20.62376 -11.44585
 Alpha  occ. eigenvalues --  -11.44584  -7.68229  -7.68138  -1.70709  -1.70687
 Alpha  occ. eigenvalues --   -1.42378  -1.42305  -0.95388  -0.94071  -0.85118
 Alpha  occ. eigenvalues --   -0.82778  -0.78291  -0.78110  -0.77171  -0.76411
 Alpha  occ. eigenvalues --   -0.72627  -0.68771  -0.63219  -0.62482  -0.60508
 Alpha  occ. eigenvalues --   -0.58147  -0.52883  -0.51743  -0.49964
 Alpha virt. eigenvalues --    0.00954   0.01924   0.03311   0.03644   0.05579
 Alpha virt. eigenvalues --    0.05779   0.06568   0.07282   0.07348   0.08285
 Alpha virt. eigenvalues --    0.10348   0.11630   0.12527   0.13156   0.13180

 Mulliken charges:
               1
     1  B    0.061874
     2  B    0.062005
     3  C    0.571860
     4  O   -0.414701
     5  F   -0.414156
     6  C    0.571849
     7  O   -0.414720
     8  F   -0.414149
     9  H    0.195061
    10  H    0.195079
 Sum of Mulliken charges =  -0.00000

 Dipole moment (field-independent basis, Debye):
    X=              0.0002    Y=             -2.7701    Z=             -0.0010  Tot=              2.7701

 Test job not archived.
 1\1\GINC-SE329\SP\RHF\Aug-CC-pVDZ\C2H2B2F2O2\OHZDE\09-Apr-2025\0\\#t h
 f aug-cc-pvdz iop(5/13=1,5/36=2,99/5=2) pseudo=read geom=check guess=(
 read,tcheck) scf=(maxcycle=1)\\title\\0,1\B,0,0.690203,-0.950117,0.443
 412\B,0,-0.690283,-0.950294,-0.443035\C,0,1.948281,-0.093908,0.055964\
 O,0,2.835562,-0.400874,-0.66366\F,0,1.928313,1.130884,0.676648\C,0,-1.
 948345,-0.093888,-0.055975\O,0,-2.835874,-0.400709,0.663406\F,0,-1.927
 986,1.130918,-0.67662\H,0,-0.807784,-1.657205,-1.394829\H,0,0.808118,-
 1.657523,1.394786\\Version=ES64L-G16RevC.01\State=1-A\HF=-475.0690636\

 Normal termination of Gaussian 16 at Wed Apr  9 00:30:55 2025.
