 Gaussian 16, Revision C.01,

 ----------------------------------------------------------------------
 #t hf aug-cc-pvdz symm=none int=(grid=ultrafine) guess=(read,tcheck) s
 table=opt
 ----------------------------------------------------------------------
 -----
 title
 -----
 Symbolic Z-matrix:
 Charge =  0 Multiplicity = 2

 SCF Done:  E(UHF) =  -904.154266629     A.U. after   21 cycles
 Normal termination of Gaussian 16 at Tue Apr  8 23:43:24 2025.
 Gaussian 16:  ES64L-G16RevC.01  3-Jul-2019

 ----------------------------------------------------------------------
 #t hf aug-cc-pvdz iop(5/13=1,5/36=2,99/5=2) pseudo=read geom=check gue
 ss=(read,tcheck) scf=(maxcycle=1)
 ----------------------------------------------------------------------
 -----
 title
 -----
 Structure from the checkpoint file:  "BDE49_nonexpt_173_mol2.chk"
 Charge =  0 Multiplicity = 2

                         Standard orientation:
 ---------------------------------------------------------------------
 Center     Atomic      Atomic             Coordinates (Angstroms)
 Number     Number       Type             X           Y           Z
 ---------------------------------------------------------------------
      1         17           0       -2.316556   -0.084075    0.092049
      2          5           0       -0.730921   -0.800787    0.024473
      3         15           0        0.880954   -0.052648   -0.515999
      4          6           0        2.198920   -1.014718    0.365974
      5          6           0        1.015012    1.656241    0.209895
      6          1           0        2.078538   -2.072054    0.125817
      7          1           0        2.156142   -0.889179    1.449326
      8          1           0        3.177676   -0.689994    0.006662
      9          1           0        0.172692    2.254537   -0.141099
     10          1           0        1.936585    2.123469   -0.144546
     11          1           0        1.016518    1.647016    1.301416
 ---------------------------------------------------------------------

 SCF Done:  E(UHF) =  -904.227205445     A.U. after    2 cycles

 The electronic state is 2-A.
 Alpha  occ. eigenvalues -- -103.67012 -81.25085 -11.24944 -11.24793 -10.70463
 Alpha  occ. eigenvalues --   -8.36174  -8.35970  -8.35898  -7.75673  -7.69045
 Alpha  occ. eigenvalues --   -4.89763  -4.89653  -4.89345  -1.16467  -0.98946
 Alpha  occ. eigenvalues --   -0.94563  -0.75923  -0.64312  -0.59730  -0.59590
 Alpha  occ. eigenvalues --   -0.57588  -0.56884  -0.52401  -0.50530  -0.49474
 Alpha  occ. eigenvalues --   -0.46821  -0.34660  -0.31169
 Alpha virt. eigenvalues --    0.02832   0.04653   0.04927   0.05082   0.06182
 Alpha virt. eigenvalues --    0.06796   0.06856   0.07563   0.07640   0.09148
 Alpha virt. eigenvalues --    0.09381   0.12454   0.13601   0.14692   0.14926

  Beta  occ. eigenvalues -- -103.66947 -81.25072 -11.24868 -11.24789 -10.70389
  Beta  occ. eigenvalues --   -8.36118  -8.35905  -8.35699  -7.75651  -7.67112
  Beta  occ. eigenvalues --   -4.89700  -4.89615  -4.89377  -1.15716  -0.98743
  Beta  occ. eigenvalues --   -0.94424  -0.73782  -0.62389  -0.59615  -0.59329
  Beta  occ. eigenvalues --   -0.57118  -0.56831  -0.50454  -0.49835  -0.47558
  Beta  occ. eigenvalues --   -0.45918  -0.32750
  Beta virt. eigenvalues --    0.02845   0.04341   0.04870   0.05318   0.06676
  Beta virt. eigenvalues --    0.06842   0.06981   0.07417   0.07586   0.08758
  Beta virt. eigenvalues --    0.09685   0.10237   0.12683   0.14626   0.15309

 Mulliken charges and spin densities:
               1          2
     1  Cl  -0.300303   0.000223
     2  B    0.283647   1.039708
     3  P    0.547528  -0.034539
     4  C    0.203915  -0.006931
     5  C    0.180930   0.017255
     6  H   -0.167155  -0.008855
     7  H   -0.148076  -0.000908
     8  H   -0.140398  -0.005372
     9  H   -0.182444  -0.001402
    10  H   -0.131483   0.004426
    11  H   -0.146161  -0.003605
 Sum of Mulliken charges =  -0.00000   1.00000

 Dipole moment (field-independent basis, Debye):
    X=              2.0057    Y=              0.6703    Z=              1.0157  Tot=              2.3460
                          Isotropic Fermi Contact Couplings
        Atom                 a.u.       MegaHertz       Gauss      10(-4) cm-1
     1  Cl(35)             0.05543      24.30277       8.67183       8.10653
     2  B(11)              0.29586     424.37618     151.42797     141.55666
     3  P(31)              0.01654      29.95072      10.68716       9.99049
     4  C(13)              0.00381       4.28837       1.53020       1.43045
     5  C(13)              0.01337      15.02907       5.36275       5.01316
     6  H(1)              -0.00002      -0.09827      -0.03506      -0.03278
     7  H(1)              -0.00009      -0.41166      -0.14689      -0.13731
     8  H(1)              -0.00063      -2.82507      -1.00805      -0.94234

 1\1\GINC-SE340\SP\UHF\Aug-CC-pVDZ\C2H6B1Cl1P1(2)\OHZDE\08-Apr-2025\0\\
 #t hf aug-cc-pvdz iop(5/13=1,5/36=2,99/5=2) pseudo=read geom=check gue
 ss=(read,tcheck) scf=(maxcycle=1)\\title\\0,2\Cl,0,-2.316556,-0.084075
 ,0.092049\B,0,-0.730921,-0.800787,0.024473\P,0,0.880954,-0.052648,-0.5
 15999\C,0,2.19892,-1.014718,0.365974\C,0,1.015012,1.656241,0.209895\H,
 0,2.078538,-2.072054,0.125817\H,0,2.156142,-0.889179,1.449326\H,0,3.17
 7676,-0.689994,0.006662\H,0,0.172692,2.254537,-0.141099\H,0,1.936585,2
 .123469,-0.144546\H,0,1.016518,1.647016,1.301416\\Version=ES64L-G16Rev

 Normal termination of Gaussian 16 at Tue Apr  8 23:43:28 2025.
