 Gaussian 16, Revision C.01,

 ----------------------------------------------------------------------
 #t hf aug-cc-pvdz symm=none int=(grid=ultrafine) guess=(read,tcheck) s
 table=(opt,rrhf)
 ----------------------------------------------------------------------
 -----
 title
 -----
 Symbolic Z-matrix:
 Charge =  0 Multiplicity = 1

 SCF Done:  E(RHF) =  -535.482962042     A.U. after   16 cycles
 Normal termination of Gaussian 16 at Tue Apr  8 23:04:18 2025.
 Gaussian 16:  ES64L-G16RevC.01  3-Jul-2019

 ----------------------------------------------------------------------
 #t hf aug-cc-pvdz iop(5/13=1,5/36=2,99/5=2) pseudo=read geom=check gue
 ss=(read,tcheck) scf=(maxcycle=1)
 ----------------------------------------------------------------------
 -----
 title
 -----
 Structure from the checkpoint file:  "BDE49_expt_266_mol1.chk"
 Charge =  0 Multiplicity = 1

                         Standard orientation:
 ---------------------------------------------------------------------
 Center     Atomic      Atomic             Coordinates (Angstroms)
 Number     Number       Type             X           Y           Z
 ---------------------------------------------------------------------
      1          6           0        1.062814   -0.569097   -0.468574
      2          6           0        1.593592    0.504664   -1.187256
      3          6           0        1.659122   -0.931574    0.743807
      4          6           0        2.705065    1.197384   -0.711052
      5          6           0        3.296083    0.826550    0.494150
      6          6           0        2.768493   -0.239488    1.221186
      7          1           0        1.135401    0.798218   -2.125750
      8          1           0        3.109094    2.025281   -1.283105
      9          1           0        4.162405    1.363030    0.864394
     10          1           0        3.222609   -0.533938    2.160808
     11          1           0        1.244977   -1.754964    1.315451
     12          6           0       -0.156239   -1.318861   -0.977350
     13          6           0       -1.397423   -0.919041   -0.195983
     14          1           0       -0.312452   -1.109810   -2.036064
     15          1           0       -0.023904   -2.393731   -0.841848
     16          8           0       -1.760017   -1.441569    0.828623
     17          8           0       -2.026142    0.119368   -0.784560
     18          6           0       -3.188022    0.656543   -0.099479
     19          6           0       -2.785313    1.692214    0.936747
     20          1           0       -3.735779   -0.168726    0.356735
     21          1           0       -3.787768    1.097285   -0.895991
     22          1           0       -2.202452    1.231625    1.735944
     23          1           0       -3.679704    2.139852    1.379561
     24          1           0       -2.192174    2.487723    0.480188
 ---------------------------------------------------------------------

 SCF Done:  E(RHF) =  -535.646796534     A.U. after    2 cycles

 The electronic state is 1-A.
 Alpha  occ. eigenvalues --  -20.61352 -20.55832 -11.39334 -11.29879 -11.26059
 Alpha  occ. eigenvalues --  -11.25876 -11.24858 -11.24788 -11.24717 -11.24625
 Alpha  occ. eigenvalues --  -11.24504 -11.23104  -1.41522  -1.32247  -1.15163
 Alpha  occ. eigenvalues --   -1.06701  -1.02769  -1.01274  -0.96474  -0.88117
 Alpha  occ. eigenvalues --   -0.83404  -0.81407  -0.77151  -0.71639  -0.70152
 Alpha  occ. eigenvalues --   -0.68875  -0.66540  -0.64632  -0.63809  -0.61061
 Alpha  occ. eigenvalues --   -0.59417  -0.58731  -0.57093  -0.56323  -0.54148
 Alpha  occ. eigenvalues --   -0.53287  -0.50771  -0.49972  -0.49758  -0.49588
 Alpha  occ. eigenvalues --   -0.47192  -0.46030  -0.34313  -0.33725
 Alpha virt. eigenvalues --    0.03288   0.03810   0.04242   0.04399   0.05446
 Alpha virt. eigenvalues --    0.05559   0.06045   0.06421   0.07289   0.07733
 Alpha virt. eigenvalues --    0.08011   0.09037   0.09841   0.10336   0.10746

 Mulliken charges:
               1
     1  C    0.250316
     2  C    0.584747
     3  C    0.376166
     4  C    0.249563
     5  C    0.681117
     6  C    0.244395
     7  H   -0.573928
     8  H   -0.454253
     9  H   -0.442980
    10  H   -0.453690
    11  H   -0.622769
    12  C    0.591114
    13  C    0.441302
    14  H   -0.167960
    15  H   -0.002662
    16  O   -0.530388
    17  O   -0.590130
    18  C    0.721386
    19  C    0.234763
    20  H   -0.059173
    21  H   -0.288220
    22  H   -0.068020
    23  H   -0.060145
    24  H   -0.060551
 Sum of Mulliken charges =   0.00000

 Dipole moment (field-independent basis, Debye):
    X=              0.1933    Y=              1.4662    Z=             -1.2996  Tot=              1.9687

 Test job not archived.
 1\1\GINC-SE173\SP\RHF\Aug-CC-pVDZ\C10H12O2\OHZDE\08-Apr-2025\0\\#t hf
 aug-cc-pvdz iop(5/13=1,5/36=2,99/5=2) pseudo=read geom=check guess=(re
 ad,tcheck) scf=(maxcycle=1)\\title\\0,1\C,0,1.062814,-0.569097,-0.4685
 74\C,0,1.593592,0.504664,-1.187256\C,0,1.659122,-0.931574,0.743807\C,0
 ,2.705065,1.197384,-0.711052\C,0,3.296083,0.82655,0.49415\C,0,2.768493
 ,-0.239488,1.221186\H,0,1.135401,0.798218,-2.12575\H,0,3.109094,2.0252
 81,-1.283105\H,0,4.162405,1.36303,0.864394\H,0,3.222609,-0.533938,2.16
 0808\H,0,1.244977,-1.754964,1.315451\C,0,-0.156239,-1.318861,-0.97735\

 Normal termination of Gaussian 16 at Tue Apr  8 23:04:36 2025.
