 Gaussian 16, Revision C.01,

 ----------------------------------------------------------------------
 #t hf aug-cc-pvdz symm=none int=(grid=ultrafine) guess=(read,tcheck) s
 table=(opt,rrhf)
 ----------------------------------------------------------------------
 -----
 title
 -----
 Symbolic Z-matrix:
 Charge =  0 Multiplicity = 1

 SCF Done:  E(RHF) =  -725.792289943     A.U. after   13 cycles
 Normal termination of Gaussian 16 at Tue Apr  8 22:41:32 2025.
 Gaussian 16:  ES64L-G16RevC.01  3-Jul-2019

 ----------------------------------------------------------------------
 #t hf aug-cc-pvdz iop(5/13=1,5/36=2,99/5=2) pseudo=read geom=check gue
 ss=(read,tcheck) scf=(maxcycle=1)
 ----------------------------------------------------------------------
 -----
 title
 -----
 Structure from the checkpoint file:  "BDE49_expt_1449_mol1.chk"
 Charge =  0 Multiplicity = 1

                         Standard orientation:
 ---------------------------------------------------------------------
 Center     Atomic      Atomic             Coordinates (Angstroms)
 Number     Number       Type             X           Y           Z
 ---------------------------------------------------------------------
      1          8           0       -0.468219   -0.329548    0.000000
      2          6           0        0.616563    0.427300    0.000000
      3          6           0       -1.737618    0.400685    0.000000
      4          8           0        0.694610    1.612036    0.000000
      5         17           0        2.051043   -0.638278    0.000000
      6          6           0       -2.842074   -0.632224    0.000000
      7          1           0       -1.761316    1.038784   -0.885247
      8          1           0       -1.761316    1.038785    0.885246
      9          1           0       -2.782764   -1.266450   -0.886447
     10          1           0       -3.811930   -0.128414    0.000000
     11          1           0       -2.782764   -1.266449    0.886448
 ---------------------------------------------------------------------

 SCF Done:  E(RHF) =  -725.898688134     A.U. after    2 cycles

 The electronic state is 1-A.
 Alpha  occ. eigenvalues -- -103.68220 -20.65066 -20.60013 -11.46939 -11.32573
 Alpha  occ. eigenvalues --  -11.25283 -10.71520  -8.37241  -8.36925  -8.36911
 Alpha  occ. eigenvalues --   -1.46301  -1.37249  -1.17565  -1.05749  -0.90065
 Alpha  occ. eigenvalues --   -0.82035  -0.73801  -0.72437  -0.71514  -0.62992
 Alpha  occ. eigenvalues --   -0.60531  -0.57693  -0.54988  -0.54567  -0.50808
 Alpha  occ. eigenvalues --   -0.50390  -0.48663  -0.47955
 Alpha virt. eigenvalues --    0.03079   0.04786   0.04795   0.05600   0.07452
 Alpha virt. eigenvalues --    0.08023   0.10506   0.11439   0.12177   0.13068
 Alpha virt. eigenvalues --    0.13949   0.14297   0.15041   0.15725   0.16177

 Mulliken charges:
               1
     1  O   -0.365213
     2  C    0.195958
     3  C    0.669918
     4  O   -0.297503
     5  Cl  -0.084691
     6  C    0.234823
     7  H   -0.141670
     8  H   -0.141671
     9  H   -0.033813
    10  H   -0.002327
    11  H   -0.033812
 Sum of Mulliken charges =  -0.00000

 Dipole moment (field-independent basis, Debye):
    X=             -3.2538    Y=             -0.8798    Z=              0.0000  Tot=              3.3707

 Test job not archived.
 1\1\GINC-SE453\SP\RHF\Aug-CC-pVDZ\C3H5Cl1O2\OHZDE\08-Apr-2025\0\\#t hf
  aug-cc-pvdz iop(5/13=1,5/36=2,99/5=2) pseudo=read geom=check guess=(r
 ead,tcheck) scf=(maxcycle=1)\\title\\0,1\O,0,-0.468219,-0.329548,0.\C,
 0,0.616563,0.4273,0.\C,0,-1.737618,0.400685,0.\O,0,0.69461,1.612036,0.
 \Cl,0,2.051043,-0.638278,0.\C,0,-2.842074,-0.632224,0.\H,0,-1.761316,1
 .038784,-0.885247\H,0,-1.761316,1.038785,0.885246\H,0,-2.782764,-1.266
 45,-0.886447\H,0,-3.81193,-0.128413,0.\H,0,-2.782764,-1.266449,0.88644
 8\\Version=ES64L-G16RevC.01\State=1-A\HF=-725.8986881\RMSD=3.165e-03\D

 Normal termination of Gaussian 16 at Tue Apr  8 22:41:35 2025.
