 Gaussian 16, Revision C.01,

 ----------------------------------------------------------------------
 #t hf aug-cc-pvdz symm=none int=(grid=ultrafine) guess=(read,tcheck) s
 table=(opt,rrhf)
 ----------------------------------------------------------------------
 -----
 title
 -----
 Symbolic Z-matrix:
 Charge =  0 Multiplicity = 1

 SCF Done:  E(RHF) =  -1083.74954700     A.U. after   15 cycles
 Normal termination of Gaussian 16 at Wed Apr  9 00:21:13 2025.
 Gaussian 16:  ES64L-G16RevC.01  3-Jul-2019

 ----------------------------------------------------------------------
 #t hf aug-cc-pvdz iop(5/13=1,5/36=2,99/5=2) pseudo=read geom=check gue
 ss=(read,tcheck) scf=(maxcycle=1)
 ----------------------------------------------------------------------
 -----
 title
 -----
 Structure from the checkpoint file:  "BDE49_nonexpt_2671_mol1.chk"
 Charge =  0 Multiplicity = 1

                         Standard orientation:
 ---------------------------------------------------------------------
 Center     Atomic      Atomic             Coordinates (Angstroms)
 Number     Number       Type             X           Y           Z
 ---------------------------------------------------------------------
      1          9           0       -2.088166    0.718413    0.212966
      2         16           0       -1.283367   -0.650717   -0.285858
      3         16           0        0.724435   -0.080475    0.157996
      4          8           0        1.419729   -1.298482   -0.196069
      5          6           0        1.081436    1.200899   -1.045255
      6          8           0        0.803602    0.511504    1.467410
      7          1           0        1.045971    0.762446   -2.039991
      8          1           0        2.078507    1.575031   -0.807769
      9          1           0        0.336667    1.986299   -0.922340
 ---------------------------------------------------------------------

 SCF Done:  E(RHF) =  -1083.94167809     A.U. after    2 cycles

 The electronic state is 1-A.
 Alpha  occ. eigenvalues --  -93.82607 -93.66714 -26.16501 -20.59776 -20.59658
 Alpha  occ. eigenvalues --  -11.31537  -9.09213  -8.95596  -6.43825  -6.43617
 Alpha  occ. eigenvalues --   -6.43478  -6.29708  -6.29356  -6.28897  -1.67498
 Alpha  occ. eigenvalues --   -1.45663  -1.34563  -1.07561  -1.01338  -0.85358
 Alpha  occ. eigenvalues --   -0.77420  -0.76804  -0.74708  -0.70930  -0.69711
 Alpha  occ. eigenvalues --   -0.66160  -0.63739  -0.62138  -0.55605  -0.53821
 Alpha  occ. eigenvalues --   -0.53086  -0.46372  -0.43231
 Alpha virt. eigenvalues --    0.02730   0.03638   0.05218   0.05601   0.06690
 Alpha virt. eigenvalues --    0.08466   0.10512   0.11578   0.12462   0.12776
 Alpha virt. eigenvalues --    0.13829   0.14879   0.15654   0.15827   0.16448

 Mulliken charges:
               1
     1  F   -0.606732
     2  S    0.669428
     3  S    2.066155
     4  O   -1.037440
     5  C   -0.111779
     6  O   -1.046432
     7  H    0.012595
     8  H    0.037320
     9  H    0.016885
 Sum of Mulliken charges =  -0.00000

 Dipole moment (field-independent basis, Debye):
    X=             -0.0714    Y=              1.5977    Z=             -3.7927  Tot=              4.1161

 Test job not archived.
 1\1\GINC-SE143\SP\RHF\Aug-CC-pVDZ\C1H3F1O2S2\OHZDE\09-Apr-2025\0\\#t h
 f aug-cc-pvdz iop(5/13=1,5/36=2,99/5=2) pseudo=read geom=check guess=(
 read,tcheck) scf=(maxcycle=1)\\title\\0,1\F,0,-2.088166,0.718413,0.212
 966\S,0,-1.283367,-0.650717,-0.285858\S,0,0.724435,-0.080475,0.157996\
 O,0,1.419729,-1.298482,-0.196069\C,0,1.081436,1.200899,-1.045255\O,0,0
 .803602,0.511504,1.46741\H,0,1.045971,0.762446,-2.039991\H,0,2.078507,
 1.575031,-0.807769\H,0,0.336667,1.986299,-0.92234\\Version=ES64L-G16Re
 vC.01\State=1-A\HF=-1083.9416781\RMSD=5.506e-03\Dipole=-0.0280841,0.62

 Normal termination of Gaussian 16 at Wed Apr  9 00:21:16 2025.
