 Gaussian 16, Revision C.01,

 ----------------------------------------------------------------------
 #t hf aug-cc-pvdz symm=none int=(grid=ultrafine) guess=(read,tcheck) s
 table=(opt,rrhf)
 ----------------------------------------------------------------------
 -----
 title
 -----
 Symbolic Z-matrix:
 Charge =  0 Multiplicity = 1

 SCF Done:  E(RHF) =  -896.644920295     A.U. after   12 cycles
 Normal termination of Gaussian 16 at Tue Apr  8 22:58:35 2025.
 Gaussian 16:  ES64L-G16RevC.01  3-Jul-2019

 ----------------------------------------------------------------------
 #t hf aug-cc-pvdz iop(5/13=1,5/36=2,99/5=2) pseudo=read geom=check gue
 ss=(read,tcheck) scf=(maxcycle=1)
 ----------------------------------------------------------------------
 -----
 title
 -----
 Structure from the checkpoint file:  "BDE49_expt_1974_mol1.chk"
 Charge =  0 Multiplicity = 1

                         Standard orientation:
 ---------------------------------------------------------------------
 Center     Atomic      Atomic             Coordinates (Angstroms)
 Number     Number       Type             X           Y           Z
 ---------------------------------------------------------------------
      1         16           0        0.000000    0.867163    0.000000
      2          6           0       -1.726850    0.317937    0.000000
      3         17           0        0.975537   -0.971937    0.000000
      4          1           0       -2.306892    1.245879    0.000000
      5          1           0       -1.958067   -0.252590    0.898655
      6          1           0       -1.958067   -0.252590   -0.898655
 ---------------------------------------------------------------------

 SCF Done:  E(RHF) =  -896.699868770     A.U. after    2 cycles

 The electronic state is 1-A'.
 Alpha  occ. eigenvalues -- -103.67527 -93.59519 -11.28874 -10.70691  -8.88877
 Alpha  occ. eigenvalues --   -8.36420  -8.36079  -8.36050  -6.22955  -6.22670
 Alpha  occ. eigenvalues --   -6.22270  -1.16536  -1.02691  -0.84727  -0.62155
 Alpha  occ. eigenvalues --   -0.61777  -0.55962  -0.50726  -0.50640  -0.45027
 Alpha  occ. eigenvalues --   -0.36477
 Alpha virt. eigenvalues --    0.03334   0.04776   0.05894   0.06108   0.07622
 Alpha virt. eigenvalues --    0.12161   0.13298   0.14221   0.14380   0.14760
 Alpha virt. eigenvalues --    0.15673   0.17622   0.18389   0.18541   0.23055

 Mulliken charges:
               1
     1  S    0.364203
     2  C    0.040069
     3  Cl  -0.317421
     4  H   -0.043895
     5  H   -0.021478
     6  H   -0.021478
 Sum of Mulliken charges =   0.00000

 Dipole moment (field-independent basis, Debye):
    X=             -2.4850    Y=              0.6675    Z=              0.0000  Tot=              2.5731

 Test job not archived.
 1\1\GINC-SE127\SP\RHF\Aug-CC-pVDZ\C1H3Cl1S1\OHZDE\08-Apr-2025\0\\#t hf
  aug-cc-pvdz iop(5/13=1,5/36=2,99/5=2) pseudo=read geom=check guess=(r
 ead,tcheck) scf=(maxcycle=1)\\title\\0,1\S,0,0.,0.867163,0.\C,0,-1.726
 85,0.317937,0.\Cl,0,0.975537,-0.971937,0.\H,0,-2.306892,1.245879,0.\H,
 0,-1.958067,-0.25259,0.898655\H,0,-1.958067,-0.25259,-0.898655\\Versio
 n=ES64L-G16RevC.01\State=1-A'\HF=-896.6998688\RMSD=4.039e-03\Dipole=-0
 .9776802,0.2626329,0.\Quadrupole=1.8459148,-0.1779813,-1.6679334,-0.79
 6893,0.,0.\PG=CS [SG(C1H1Cl1S1),X(H2)]\\@

 Normal termination of Gaussian 16 at Tue Apr  8 22:58:37 2025.
