 Gaussian 16, Revision C.01,

 ----------------------------------------------------------------------
 #t hf aug-cc-pvdz symm=none int=(grid=ultrafine) guess=(read,tcheck) s
 table=opt
 ----------------------------------------------------------------------
 -----
 title
 -----
 Symbolic Z-matrix:
 Charge =  0 Multiplicity = 2

 SCF Done:  E(UHF) =  -1056.26948046     A.U. after   16 cycles

 1\1\GINC-SE092\Stability\UHF\Aug-CC-pVDZ\C1Cl2F1\OHZDE\08-Apr-2025\0\\
 #t hf aug-cc-pvdz symm=none int=(grid=ultrafine) guess=(read,tcheck) s
 table=opt\\title\\0,2\C,0,0.159667,0.442142,0.\Cl,0,0.159667,-0.460836
 ,1.481572\Cl,0,0.159667,-0.460836,-1.481572\F,0,-0.709632,1.446173,0.\
 \Version=ES64L-G16RevC.01\HF=-1056.2694805\S2=0.761789\S2-1=0.\S2A=0.7
 50115\RMSD=6.225e-09\Dipole=0.1454103,-0.133698,0.\Quadrupole=-0.47668
 46,-0.4871395,0.9638241,0.604333,0.,0.\PG=Unknown\\@
 The archive entry for this job was punched.

 Normal termination of Gaussian 16 at Tue Apr  8 22:27:17 2025.
 Gaussian 16:  ES64L-G16RevC.01  3-Jul-2019

 ----------------------------------------------------------------------
 #t hf aug-cc-pvdz iop(5/13=1,5/36=2,99/5=2) pseudo=read geom=check gue
 ss=(read,tcheck) scf=(maxcycle=1)
 ----------------------------------------------------------------------
 -----
 title
 -----
 Structure from the checkpoint file:  "BDE49_expt_1005_mol2.chk"
 Charge =  0 Multiplicity = 2

                         Standard orientation:
 ---------------------------------------------------------------------
 Center     Atomic      Atomic             Coordinates (Angstroms)
 Number     Number       Type             X           Y           Z
 ---------------------------------------------------------------------
      1          6           0        0.159667    0.442142    0.000000
      2         17           0        0.159667   -0.460836    1.481572
      3         17           0        0.159667   -0.460836   -1.481572
      4          9           0       -0.709632    1.446173   -0.000000
 ---------------------------------------------------------------------

 SCF Done:  E(UHF) =  -1056.35822963     A.U. after    2 cycles

 The electronic state is 2-A'.
 Alpha  occ. eigenvalues -- -103.70823-103.70822 -26.19080 -11.47982 -10.74157
 Alpha  occ. eigenvalues --  -10.74147  -8.39925  -8.39921  -8.39566  -8.39563
 Alpha  occ. eigenvalues --   -8.39510  -8.39509  -1.74161  -1.25739  -1.18700
 Alpha  occ. eigenvalues --   -0.96134  -0.83111  -0.81596  -0.76709  -0.61857
 Alpha  occ. eigenvalues --   -0.60331  -0.53422  -0.51638  -0.49330  -0.42153
 Alpha virt. eigenvalues --    0.06596   0.07847   0.09032   0.10933   0.11111
 Alpha virt. eigenvalues --    0.13148   0.14600   0.15590   0.15665   0.18146
 Alpha virt. eigenvalues --    0.19413   0.23180   0.25860   0.27216   0.29252

  Beta  occ. eigenvalues -- -103.70745-103.70744 -26.18645 -11.44976 -10.74070
  Beta  occ. eigenvalues --  -10.74060  -8.39862  -8.39855  -8.39466  -8.39465
  Beta  occ. eigenvalues --   -8.39292  -8.39291  -1.72813  -1.23708  -1.17963
  Beta  occ. eigenvalues --   -0.92834  -0.80932  -0.78009  -0.72721  -0.60316
  Beta  occ. eigenvalues --   -0.54310  -0.53264  -0.50185  -0.49121
  Beta virt. eigenvalues --    0.04620   0.07963   0.08005   0.10063   0.11649
  Beta virt. eigenvalues --    0.11995   0.13373   0.14738   0.15641   0.16576
  Beta virt. eigenvalues --    0.18184   0.20718   0.26347   0.26531   0.28364

 Mulliken charges and spin densities:
               1          2
     1  C    0.196551   0.958501
     2  Cl   0.025571   0.012443
     3  Cl   0.025571   0.012443
     4  F   -0.247692   0.016614
 Sum of Mulliken charges =  -0.00000   1.00000

 Dipole moment (field-independent basis, Debye):
    X=              0.5093    Y=             -0.5202    Z=             -0.0000  Tot=              0.7280
                          Isotropic Fermi Contact Couplings
        Atom                 a.u.       MegaHertz       Gauss      10(-4) cm-1
     1  C(13)              0.52873     594.39851     212.09617     198.27000
     2  Cl(35)             0.06234      27.33591       9.75413       9.11828
     3  Cl(35)             0.06234      27.33591       9.75413       9.11828
     4  F(19)              0.06599     277.65401      99.07386      92.61541
 --------------------------------------------------------
       Center         ----  Spin Dipole Couplings  ----
                      3XX-RR        3YY-RR        3ZZ-RR
 --------------------------------------------------------

 Normal termination of Gaussian 16 at Tue Apr  8 22:27:19 2025.
