 Gaussian 16, Revision C.01,

 ----------------------------------------------------------------------
 #t hf aug-cc-pvdz symm=none int=(grid=ultrafine) guess=(read,tcheck) s
 table=(opt,rrhf)
 ----------------------------------------------------------------------
 -----
 title
 -----
 Symbolic Z-matrix:
 Charge =  0 Multiplicity = 1

 SCF Done:  E(RHF) =  -1145.21934511     A.U. after   15 cycles

 1\1\GINC-SE365\Stability\RHF\Aug-CC-pVDZ\C9H16S2\OHZDE\09-Apr-2025\0\\
 #t hf aug-cc-pvdz symm=none int=(grid=ultrafine) guess=(read,tcheck) s
 table=(opt,rrhf)\\title\\0,1\S,0,-0.345691,-1.638636,0.262806\S,0,0.77
 2887,-0.415023,-0.992179\C,0,2.146188,0.349746,0.053094\C,0,3.039892,-
 0.75977,0.615164\H,0,3.872561,-0.318699,1.174687\H,0,3.451456,-1.37879
 9,-0.184746\H,0,2.482583,-1.405879,1.296949\C,0,2.913697,1.197632,-0.9
 73509\H,0,3.775824,1.663515,-0.485781\H,0,2.287927,1.993541,-1.385059\
 H,0,3.28549,0.587657,-1.800847\C,0,1.591075,1.225541,1.174604\H,0,0.95

 Normal termination of Gaussian 16 at Wed Apr  9 00:27:59 2025.
 Gaussian 16:  ES64L-G16RevC.01  3-Jul-2019

 ----------------------------------------------------------------------
 #t hf aug-cc-pvdz iop(5/13=1,5/36=2,99/5=2) pseudo=read geom=check gue
 ss=(read,tcheck) scf=(maxcycle=1)
 ----------------------------------------------------------------------
 -----
 title
 -----
 Structure from the checkpoint file:  "BDE49_nonexpt_2747_mol1.chk"
 Charge =  0 Multiplicity = 1

                         Standard orientation:
 ---------------------------------------------------------------------
 Center     Atomic      Atomic             Coordinates (Angstroms)
 Number     Number       Type             X           Y           Z
 ---------------------------------------------------------------------
      1         16           0       -0.345691   -1.638636    0.262806
      2         16           0        0.772887   -0.415023   -0.992179
      3          6           0        2.146188    0.349746    0.053094
      4          6           0        3.039892   -0.759770    0.615164
      5          1           0        3.872561   -0.318699    1.174687
      6          1           0        3.451456   -1.378799   -0.184746
      7          1           0        2.482583   -1.405879    1.296949
      8          6           0        2.913697    1.197632   -0.973509
      9          1           0        3.775824    1.663515   -0.485781
     10          1           0        2.287927    1.993541   -1.385059
     11          1           0        3.285490    0.587657   -1.800847
     12          6           0        1.591075    1.225541    1.174604
     13          1           0        0.951861    2.018595    0.783536
     14          1           0        2.419850    1.685215    1.724989
     15          1           0        1.008164    0.632843    1.881608
     16          6           0       -1.983166   -0.764819    0.537761
     17          6           0       -1.891205    0.542134    1.264374
     18          6           0       -2.299502    1.563856    0.511948
     19          6           0       -2.762986    1.127292   -0.855191
     20          6           0       -2.772316   -0.419488   -0.753744
     21          1           0       -2.076668    1.486555   -1.629837
     22          1           0       -3.752169    1.527180   -1.101295
     23          1           0       -3.799119   -0.778037   -0.643204
     24          1           0       -2.351672   -0.905068   -1.633687
     25          1           0       -2.483103   -1.541146    1.128063
     26          1           0       -1.503896    0.616269    2.272762
     27          1           0       -2.294295    2.602056    0.824822
 ---------------------------------------------------------------------

 SCF Done:  E(RHF) =  -1145.36295400     A.U. after    2 cycles

 The electronic state is 1-A.
 Alpha  occ. eigenvalues --  -93.54335 -93.53914 -11.28420 -11.27907 -11.24321
 Alpha  occ. eigenvalues --  -11.23851 -11.23712 -11.23640 -11.23457 -11.22714
 Alpha  occ. eigenvalues --  -11.22685  -8.83850  -8.83454  -6.17999  -6.17729
 Alpha  occ. eigenvalues --   -6.17605  -6.17443  -6.17328  -6.17052  -1.13492
 Alpha  occ. eigenvalues --   -1.10126  -1.01266  -0.96840  -0.94377  -0.93914
 Alpha  occ. eigenvalues --   -0.93447  -0.84131  -0.77852  -0.73940  -0.71235
 Alpha  occ. eigenvalues --   -0.68620  -0.63321  -0.61585  -0.61117  -0.60719
 Alpha  occ. eigenvalues --   -0.56195  -0.55370  -0.54783  -0.53084  -0.52267
 Alpha  occ. eigenvalues --   -0.51329  -0.50737  -0.49541  -0.48963  -0.48533
 Alpha  occ. eigenvalues --   -0.47743  -0.44420  -0.42061  -0.36034  -0.34789
 Alpha  occ. eigenvalues --   -0.32437
 Alpha virt. eigenvalues --    0.03285   0.03983   0.04285   0.04483   0.05568
 Alpha virt. eigenvalues --    0.05672   0.06083   0.06495   0.06526   0.07624
 Alpha virt. eigenvalues --    0.07755   0.08024   0.08260   0.09451   0.10120

 Mulliken charges:
               1
     1  S    0.011750
     2  S    0.087790
     3  C   -2.563516
     4  C    0.884237
     5  H   -0.012091
     6  H   -0.051761
     7  H   -0.044534
     8  C    1.111649
     9  H   -0.002542
    10  H   -0.045352
    11  H   -0.058055
    12  C    0.919707
    13  H   -0.085731
    14  H   -0.037896
    15  H   -0.095426
    16  C   -0.190663
    17  C    0.807636
    18  C    0.114634
    19  C    0.185971
    20  C    0.330471
    21  H   -0.035815
    22  H   -0.042106
    23  H   -0.089643
    24  H   -0.159319
    25  H   -0.084018
    26  H   -0.462461
    27  H   -0.392917
 Sum of Mulliken charges =  -0.00000

 Dipole moment (field-independent basis, Debye):
    X=             -0.2228    Y=              1.9137    Z=              0.9107  Tot=              2.1310

 Test job not archived.
 1\1\GINC-SE365\SP\RHF\Aug-CC-pVDZ\C9H16S2\OHZDE\09-Apr-2025\0\\#t hf a
 ug-cc-pvdz iop(5/13=1,5/36=2,99/5=2) pseudo=read geom=check guess=(rea
 d,tcheck) scf=(maxcycle=1)\\title\\0,1\S,0,-0.345691,-1.638636,0.26280
 6\S,0,0.772887,-0.415023,-0.992179\C,0,2.146188,0.349746,0.053094\C,0,
 3.039892,-0.75977,0.615164\H,0,3.872561,-0.318699,1.174687\H,0,3.45145
 6,-1.378799,-0.184746\H,0,2.482583,-1.405879,1.296949\C,0,2.913697,1.1
 97632,-0.973509\H,0,3.775824,1.663515,-0.485781\H,0,2.287927,1.993541,
 -1.385059\H,0,3.28549,0.587657,-1.800847\C,0,1.591075,1.225541,1.17460

 Normal termination of Gaussian 16 at Wed Apr  9 00:28:19 2025.
