 Gaussian 16, Revision C.01,

 ----------------------------------------------------------------------
 #t hf aug-cc-pvdz symm=none int=(grid=ultrafine) guess=(read,tcheck) s
 table=(opt,rrhf)
 ----------------------------------------------------------------------
 -----
 title
 -----
 Symbolic Z-matrix:
 Charge =  0 Multiplicity = 1

 SCF Done:  E(RHF) =  -1030.51954549     A.U. after   16 cycles
 Normal termination of Gaussian 16 at Wed Apr  9 00:52:33 2025.
 Gaussian 16:  ES64L-G16RevC.01  3-Jul-2019

 ----------------------------------------------------------------------
 #t hf aug-cc-pvdz iop(5/13=1,5/36=2,99/5=2) pseudo=read geom=check gue
 ss=(read,tcheck) scf=(maxcycle=1)
 ----------------------------------------------------------------------
 -----
 title
 -----
 Structure from the checkpoint file:  "BDE49_nonexpt_960_mol1.chk"
 Charge =  0 Multiplicity = 1

                         Standard orientation:
 ---------------------------------------------------------------------
 Center     Atomic      Atomic             Coordinates (Angstroms)
 Number     Number       Type             X           Y           Z
 ---------------------------------------------------------------------
      1          9           0       -1.424537    1.090948    1.567243
      2          9           0       -1.424463   -1.090820    1.567346
      3         16           0       -1.125723   -0.000036   -0.755239
      4          8           0       -1.516042    1.266044   -1.307187
      5          8           0       -1.516028   -1.266155   -1.307107
      6          7           0       -1.977637    0.000013    0.891833
      7          6           0        1.255632    1.221417   -0.203491
      8          6           0        2.611381    1.211636    0.105867
      9          6           0        3.284421    0.000022    0.261144
     10          6           0        2.611394   -1.211609    0.105947
     11          6           0        1.255645   -1.221426   -0.203410
     12          6           0        0.597928   -0.000013   -0.353684
     13          1           0        0.714407    2.148012   -0.338553
     14          1           0        3.141977    2.148814    0.222615
     15          1           0        4.341351    0.000035    0.501405
     16          1           0        3.142000   -2.148774    0.222757
     17          1           0        0.714430   -2.148036   -0.338410
 ---------------------------------------------------------------------

 SCF Done:  E(RHF) =  -1030.79494822     A.U. after    2 cycles

 The electronic state is 1-A.
 Alpha  occ. eigenvalues --  -93.84029 -26.18994 -26.18987 -20.60373 -20.60373
 Alpha  occ. eigenvalues --  -15.86991 -11.31524 -11.29936 -11.29928 -11.29389
 Alpha  occ. eigenvalues --  -11.28334 -11.28329  -9.10453  -6.45086  -6.44900
 Alpha  occ. eigenvalues --   -6.44793  -1.74094  -1.68190  -1.46906  -1.35581
 Alpha  occ. eigenvalues --   -1.19518  -1.14287  -1.07434  -1.05788  -0.94014
 Alpha  occ. eigenvalues --   -0.87745  -0.86777  -0.83276  -0.82795  -0.81327
 Alpha  occ. eigenvalues --   -0.76827  -0.76781  -0.72408  -0.72138  -0.70352
 Alpha  occ. eigenvalues --   -0.70035  -0.67025  -0.66415  -0.63961  -0.59076
 Alpha  occ. eigenvalues --   -0.57755  -0.56316  -0.55491  -0.54505  -0.53992
 Alpha  occ. eigenvalues --   -0.53644  -0.48019  -0.39610  -0.38165
 Alpha virt. eigenvalues --    0.02352   0.03403   0.04066   0.04434   0.06047
 Alpha virt. eigenvalues --    0.06451   0.07735   0.08728   0.09713   0.10623
 Alpha virt. eigenvalues --    0.11409   0.11754   0.12772   0.13068   0.13319

 Mulliken charges:
               1
     1  F   -0.338291
     2  F   -0.338289
     3  S    2.878159
     4  O   -1.004523
     5  O   -1.004520
     6  N   -0.050427
     7  C   -0.134797
     8  C    0.739800
     9  C    0.449363
    10  C    0.739795
    11  C   -0.134811
    12  C    0.513880
    13  H   -0.520385
    14  H   -0.422745
    15  H   -0.429078
    16  H   -0.422745
    17  H   -0.520387
 Sum of Mulliken charges =  -0.00000

 Dipole moment (field-independent basis, Debye):
    X=              5.6525    Y=              0.0000    Z=              0.9593  Tot=              5.7333

 Test job not archived.
 1\1\GINC-SE150\SP\RHF\Aug-CC-pVDZ\C6H5F2N1O2S1\OHZDE\09-Apr-2025\0\\#t
  hf aug-cc-pvdz iop(5/13=1,5/36=2,99/5=2) pseudo=read geom=check guess
 =(read,tcheck) scf=(maxcycle=1)\\title\\0,1\F,0,-1.424537,1.090948,1.5
 67243\F,0,-1.424463,-1.09082,1.567346\S,0,-1.125723,-0.000036,-0.75523
 9\O,0,-1.516042,1.266044,-1.307187\O,0,-1.516028,-1.266155,-1.307107\N
 ,0,-1.977637,0.000013,0.891833\C,0,1.255632,1.221417,-0.203491\C,0,2.6
 11381,1.211636,0.105867\C,0,3.284421,0.000022,0.261144\C,0,2.611394,-1
 .211609,0.105947\C,0,1.255645,-1.221426,-0.20341\C,0,0.597928,-0.00001

 Normal termination of Gaussian 16 at Wed Apr  9 00:52:45 2025.
