 Gaussian 16, Revision C.01,

 ----------------------------------------------------------------------
 #t hf aug-cc-pvdz symm=none int=(grid=ultrafine) guess=(read,tcheck) s
 table=(opt,rrhf)
 ----------------------------------------------------------------------
 -----
 title
 -----
 Symbolic Z-matrix:
 Charge =  0 Multiplicity = 1

 SCF Done:  E(RHF) =  -664.026269297     A.U. after   13 cycles
 Normal termination of Gaussian 16 at Wed Apr  9 00:00:48 2025.
 Gaussian 16:  ES64L-G16RevC.01  3-Jul-2019

 ----------------------------------------------------------------------
 #t hf aug-cc-pvdz iop(5/13=1,5/36=2,99/5=2) pseudo=read geom=check gue
 ss=(read,tcheck) scf=(maxcycle=1)
 ----------------------------------------------------------------------
 -----
 title
 -----
 Structure from the checkpoint file:  "BDE49_nonexpt_2149_mol1.chk"
 Charge =  0 Multiplicity = 1

                         Standard orientation:
 ---------------------------------------------------------------------
 Center     Atomic      Atomic             Coordinates (Angstroms)
 Number     Number       Type             X           Y           Z
 ---------------------------------------------------------------------
      1          6           0        2.018036   -0.600557    0.254058
      2          7           0        0.704386   -0.939968    0.381594
      3         14           0       -0.699118    0.064882   -0.030365
      4          7           0       -1.801810   -0.957890   -0.809795
      5          8           0        2.436795    0.452438   -0.202462
      6          8           0       -1.511562    0.555331    1.306301
      7          1           0       -2.791203   -0.803211   -0.688393
      8          1           0       -1.588980   -1.381093   -1.700140
      9          1           0        0.541005   -1.858712    0.771996
     10          1           0       -1.285508    1.421611    1.652138
     11          8           0       -0.067678    1.322386   -0.844781
     12          1           0        0.908916    1.340836   -0.813590
     13          1           0        2.716725   -1.380672    0.603688
 ---------------------------------------------------------------------

 SCF Done:  E(RHF) =  -664.197638006     A.U. after    2 cycles

 The electronic state is 1-A.
 Alpha  occ. eigenvalues --  -69.14125 -20.57354 -20.56281 -20.55603 -15.64791
 Alpha  occ. eigenvalues --  -15.60798 -11.38584  -6.88251  -3.99283  -3.99253
 Alpha  occ. eigenvalues --   -3.99205  -1.36742  -1.31554  -1.28718  -1.18036
 Alpha  occ. eigenvalues --   -1.11090  -0.84639  -0.76978  -0.75420  -0.72126
 Alpha  occ. eigenvalues --   -0.67601  -0.65584  -0.63035  -0.61986  -0.58785
 Alpha  occ. eigenvalues --   -0.58477  -0.55802  -0.53790  -0.52092  -0.46318
 Alpha  occ. eigenvalues --   -0.43781  -0.42171
 Alpha virt. eigenvalues --    0.02742   0.03820   0.04606   0.05450   0.06351
 Alpha virt. eigenvalues --    0.07614   0.08206   0.08523   0.10182   0.11312
 Alpha virt. eigenvalues --    0.12150   0.12768   0.15403   0.15967   0.16475

 Mulliken charges:
               1
     1  C    0.671648
     2  N   -0.490023
     3  Si   2.270573
     4  N   -0.351898
     5  O   -0.478562
     6  O   -0.789036
     7  H   -0.011397
     8  H   -0.046978
     9  H   -0.111202
    10  H    0.120192
    11  O   -0.818235
    12  H    0.256915
    13  H   -0.221998
 Sum of Mulliken charges =  -0.00000

 Dipole moment (field-independent basis, Debye):
    X=             -0.8449    Y=             -3.1071    Z=              0.9398  Tot=              3.3543

 Test job not archived.
 1\1\GINC-SE106\SP\RHF\Aug-CC-pVDZ\C1H6N2O3Si1\OHZDE\09-Apr-2025\0\\#t
 hf aug-cc-pvdz iop(5/13=1,5/36=2,99/5=2) pseudo=read geom=check guess=
 (read,tcheck) scf=(maxcycle=1)\\title\\0,1\C,0,2.018036,-0.600557,0.25
 4058\N,0,0.704386,-0.939968,0.381594\Si,0,-0.699118,0.064882,-0.030365
 \N,0,-1.80181,-0.95789,-0.809795\O,0,2.436795,0.452438,-0.202462\O,0,-
 1.511562,0.555331,1.306301\H,0,-2.791203,-0.803211,-0.688393\H,0,-1.58
 898,-1.381093,-1.70014\H,0,0.541005,-1.858712,0.771996\H,0,-1.285508,1
 .421611,1.652138\O,0,-0.067678,1.322386,-0.844781\H,0,0.908916,1.34083

 Normal termination of Gaussian 16 at Wed Apr  9 00:00:52 2025.
