 Gaussian 16, Revision C.01,

 ----------------------------------------------------------------------
 #t hf aug-cc-pvdz symm=none int=(grid=ultrafine) guess=(read,tcheck) s
 table=(opt,rrhf)
 ----------------------------------------------------------------------
 -----
 title
 -----
 Symbolic Z-matrix:
 Charge =  0 Multiplicity = 1

 SCF Done:  E(RHF) =  -464.881879484     A.U. after   13 cycles
 Normal termination of Gaussian 16 at Tue Apr  8 23:18:48 2025.
 Gaussian 16:  ES64L-G16RevC.01  3-Jul-2019

 ----------------------------------------------------------------------
 #t hf aug-cc-pvdz iop(5/13=1,5/36=2,99/5=2) pseudo=read geom=check gue
 ss=(read,tcheck) scf=(maxcycle=1)
 ----------------------------------------------------------------------
 -----
 title
 -----
 Structure from the checkpoint file:  "BDE49_nonexpt_1113_mol1.chk"
 Charge =  0 Multiplicity = 1

                         Standard orientation:
 ---------------------------------------------------------------------
 Center     Atomic      Atomic             Coordinates (Angstroms)
 Number     Number       Type             X           Y           Z
 ---------------------------------------------------------------------
      1          9           0       -1.506917   -0.348368    0.000056
      2          8           0       -0.513775    0.713300   -0.000036
      3         14           0        0.969456   -0.121830   -0.000013
      4          1           0        1.102463   -0.946836   -1.214393
      5          1           0        1.895094    1.028047   -0.000111
      6          1           0        1.102518   -0.946674    1.214470
 ---------------------------------------------------------------------

 SCF Done:  E(RHF) =  -464.972315377     A.U. after    2 cycles

 The electronic state is 1-A.
 Alpha  occ. eigenvalues --  -69.12562 -26.16987 -20.68681  -6.87444  -3.98366
 Alpha  occ. eigenvalues --   -3.98195  -3.98140  -1.66862  -1.28397  -0.80628
 Alpha  occ. eigenvalues --   -0.77114  -0.74023  -0.68581  -0.59364  -0.58952
 Alpha  occ. eigenvalues --   -0.51383  -0.49774
 Alpha virt. eigenvalues --    0.03665   0.05046   0.05931   0.05965   0.08000
 Alpha virt. eigenvalues --    0.08771   0.09861   0.13796   0.15600   0.17784
 Alpha virt. eigenvalues --    0.18280   0.20543   0.22347   0.23746   0.26877

 Mulliken charges:
               1
     1  F   -0.320815
     2  O   -0.395567
     3  Si   0.951271
     4  H   -0.091186
     5  H   -0.052516
     6  H   -0.091186
 Sum of Mulliken charges =  -0.00000

 Dipole moment (field-independent basis, Debye):
    X=              2.6519    Y=             -0.3452    Z=             -0.0000  Tot=              2.6743

 Test job not archived.
 1\1\GINC-SE163\SP\RHF\Aug-CC-pVDZ\F1H3O1Si1\OHZDE\08-Apr-2025\0\\#t hf
  aug-cc-pvdz iop(5/13=1,5/36=2,99/5=2) pseudo=read geom=check guess=(r
 ead,tcheck) scf=(maxcycle=1)\\title\\0,1\F,0,-1.506917,-0.348368,0.000
 056\O,0,-0.513775,0.7133,-0.000036\Si,0,0.969456,-0.12183,-0.000013\H,
 0,1.102463,-0.946836,-1.214393\H,0,1.895094,1.028047,-0.000111\H,0,1.1
 02518,-0.946674,1.21447\\Version=ES64L-G16RevC.01\State=1-A\HF=-464.97
 23154\RMSD=5.475e-03\Dipole=1.0433468,-0.1358064,-0.0000126\Quadrupole
 =-0.2384477,0.0129836,0.225464,-0.0498818,0.0000153,0.0000142\PG=C01 [

 Normal termination of Gaussian 16 at Tue Apr  8 23:18:50 2025.
