 Gaussian 16, Revision C.01,

 ----------------------------------------------------------------------
 #t hf aug-cc-pvdz symm=none int=(grid=ultrafine) guess=(read,tcheck) s
 table=(opt,rrhf)
 ----------------------------------------------------------------------
 -----
 title
 -----
 Symbolic Z-matrix:
 Charge =  0 Multiplicity = 1

 SCF Done:  E(RHF) =  -596.363596386     A.U. after   11 cycles
 Normal termination of Gaussian 16 at Wed Apr  9 00:21:35 2025.
 Gaussian 16:  ES64L-G16RevC.01  3-Jul-2019

 ----------------------------------------------------------------------
 #t hf aug-cc-pvdz iop(5/13=1,5/36=2,99/5=2) pseudo=read geom=check gue
 ss=(read,tcheck) scf=(maxcycle=1)
 ----------------------------------------------------------------------
 -----
 title
 -----
 Structure from the checkpoint file:  "BDE49_nonexpt_2684_mol1.chk"
 Charge =  0 Multiplicity = 1

                         Standard orientation:
 ---------------------------------------------------------------------
 Center     Atomic      Atomic             Coordinates (Angstroms)
 Number     Number       Type             X           Y           Z
 ---------------------------------------------------------------------
      1          9           0        0.000000    1.250278   -0.496448
      2         16           0        0.000000   -0.000000    0.558504
      3          9           0       -0.000000   -1.250278   -0.496448
 ---------------------------------------------------------------------

 SCF Done:  E(RHF) =  -596.464091036     A.U. after    2 cycles

 The electronic state is 1-A1.
 Alpha  occ. eigenvalues --  -93.72261 -26.17340 -26.17336  -9.00178  -6.34320
 Alpha  occ. eigenvalues --   -6.34013  -6.33327  -1.70188  -1.67812  -1.01335
 Alpha  occ. eigenvalues --   -0.81453  -0.79381  -0.79348  -0.76360  -0.73209
 Alpha  occ. eigenvalues --   -0.63304  -0.42090
 Alpha virt. eigenvalues --    0.04253   0.05869   0.09875   0.10693   0.14013
 Alpha virt. eigenvalues --    0.15286   0.23740   0.26229   0.26772   0.27262
 Alpha virt. eigenvalues --    0.28002   0.34397   0.42112   0.42908   0.43647

 Mulliken charges:
               1
     1  F   -0.544148
     2  S    1.088297
     3  F   -0.544148
 Sum of Mulliken charges =  -0.00000

 Dipole moment (field-independent basis, Debye):
    X=              0.0000    Y=             -0.0000    Z=              2.0344  Tot=              2.0344

 Test job not archived.
 1\1\GINC-SE363\SP\RHF\Aug-CC-pVDZ\F2S1\OHZDE\09-Apr-2025\0\\#t hf aug-
 cc-pvdz iop(5/13=1,5/36=2,99/5=2) pseudo=read geom=check guess=(read,t
 check) scf=(maxcycle=1)\\title\\0,1\F,0,0.,1.250278,-0.496448\S,0,0.,0
 .,0.558504\F,0,0.,-1.250278,-0.496448\\Version=ES64L-G16RevC.01\State=
 1-A1\HF=-596.464091\RMSD=5.244e-03\Dipole=0.,0.,0.8003867\Quadrupole=-
 0.2730008,-0.952439,1.2254399,0.,0.,0.\PG=C02V [C2(S1),SGV(F2)]\\@

 Normal termination of Gaussian 16 at Wed Apr  9 00:21:36 2025.
