 Gaussian 16, Revision C.01,

 ----------------------------------------------------------------------
 #t hf aug-cc-pvdz symm=none int=(grid=ultrafine) guess=(read,tcheck) s
 table=(opt,rrhf)
 ----------------------------------------------------------------------
 -----
 title
 -----
 Symbolic Z-matrix:
 Charge =  0 Multiplicity = 1

 SCF Done:  E(RHF) =  -1199.65496890     A.U. after   16 cycles
 Normal termination of Gaussian 16 at Tue Apr  8 23:24:09 2025.
 Gaussian 16:  ES64L-G16RevC.01  3-Jul-2019

 ----------------------------------------------------------------------
 #t hf aug-cc-pvdz iop(5/13=1,5/36=2,99/5=2) pseudo=read geom=check gue
 ss=(read,tcheck) scf=(maxcycle=1)
 ----------------------------------------------------------------------
 -----
 title
 -----
 Structure from the checkpoint file:  "BDE49_nonexpt_1239_mol1.chk"
 Charge =  0 Multiplicity = 1

                         Standard orientation:
 ---------------------------------------------------------------------
 Center     Atomic      Atomic             Coordinates (Angstroms)
 Number     Number       Type             X           Y           Z
 ---------------------------------------------------------------------
      1         17           0        3.932200    0.459108    0.129998
      2          7           0       -0.097830   -1.014645   -0.042431
      3         15           0        2.493424   -1.066091   -0.178602
      4          6           0        0.888527   -0.144763   -0.068946
      5          6           0        0.706881    1.258969   -0.086842
      6          1           0        1.562421    1.920487   -0.111551
      7          6           0       -0.577270    1.742679   -0.061702
      8          1           0       -0.765670    2.811548   -0.071400
      9          6           0       -3.025953    1.265778    0.014067
     10          1           0       -3.246823    2.328017    0.006389
     11          6           0       -4.040254    0.340580    0.055434
     12          1           0       -5.073345    0.667566    0.080507
     13          6           0       -3.746611   -1.044464    0.065546
     14          1           0       -4.559815   -1.760625    0.097766
     15          6           0       -2.446141   -1.484872    0.034148
     16          1           0       -2.196882   -2.538869    0.039874
     17          6           0       -1.378560   -0.553468   -0.008028
     18          6           0       -1.672250    0.845328   -0.018236
     19          1           0        2.465948   -1.493664    1.171856
 ---------------------------------------------------------------------

 SCF Done:  E(RHF) =  -1199.80668094     A.U. after    2 cycles

 The electronic state is 1-A.
 Alpha  occ. eigenvalues -- -103.65584 -81.32052 -15.64591 -11.31238 -11.29870
 Alpha  occ. eigenvalues --  -11.28282 -11.26956 -11.26446 -11.26405 -11.26311
 Alpha  occ. eigenvalues --  -11.25979 -11.25497 -10.68898  -8.34599  -8.34339
 Alpha  occ. eigenvalues --   -8.34312  -7.81935  -4.95845  -4.95725  -4.95423
 Alpha  occ. eigenvalues --   -1.25234  -1.14855  -1.13448  -1.09622  -1.03077
 Alpha  occ. eigenvalues --   -1.01587  -0.89321  -0.87864  -0.83610  -0.78967
 Alpha  occ. eigenvalues --   -0.73095  -0.72161  -0.68341  -0.64622  -0.62696
 Alpha  occ. eigenvalues --   -0.61400  -0.59012  -0.58521  -0.56279  -0.54725
 Alpha  occ. eigenvalues --   -0.52906  -0.51042  -0.49479  -0.48080  -0.46591
 Alpha  occ. eigenvalues --   -0.42769  -0.42157  -0.37971  -0.33515  -0.32081
 Alpha virt. eigenvalues --    0.02876   0.03435   0.04134   0.04813   0.05163
 Alpha virt. eigenvalues --    0.05509   0.06871   0.07364   0.07487   0.08538
 Alpha virt. eigenvalues --    0.08860   0.09602   0.10181   0.10598   0.12064

 Mulliken charges:
               1
     1  Cl  -0.502094
     2  N   -0.347975
     3  P    0.312229
     4  C    0.213474
     5  C    0.382103
     6  H   -0.506793
     7  C    0.112291
     8  H   -0.590920
     9  C    0.684059
    10  H   -0.575673
    11  C    0.488455
    12  H   -0.459373
    13  C    0.343190
    14  H   -0.436541
    15  C    1.258809
    16  H   -0.582826
    17  C   -0.588887
    18  C    0.566637
    19  H    0.229836
 Sum of Mulliken charges =  -0.00000

 Dipole moment (field-independent basis, Debye):
    X=             -3.1770    Y=              1.1255    Z=              0.3734  Tot=              3.3910

 Test job not archived.
 1\1\GINC-SE453\SP\RHF\Aug-CC-pVDZ\C9H7Cl1N1P1\OHZDE\08-Apr-2025\0\\#t
 hf aug-cc-pvdz iop(5/13=1,5/36=2,99/5=2) pseudo=read geom=check guess=
 (read,tcheck) scf=(maxcycle=1)\\title\\0,1\Cl,0,3.9322,0.459108,0.1299
 98\N,0,-0.09783,-1.014645,-0.042431\P,0,2.493424,-1.066091,-0.178602\C
 ,0,0.888527,-0.144763,-0.068946\C,0,0.706881,1.258969,-0.086842\H,0,1.
 562421,1.920487,-0.111551\C,0,-0.57727,1.742679,-0.061702\H,0,-0.76567
 ,2.811548,-0.0714\C,0,-3.025953,1.265778,0.014067\H,0,-3.246823,2.3280
 17,0.006389\C,0,-4.040254,0.34058,0.055434\H,0,-5.073345,0.667566,0.08

 Normal termination of Gaussian 16 at Tue Apr  8 23:24:22 2025.
