 Gaussian 16, Revision C.01,

 ----------------------------------------------------------------------
 #t hf aug-cc-pvdz symm=none int=(grid=ultrafine) guess=(read,tcheck) s
 table=(opt,rrhf)
 ----------------------------------------------------------------------
 -----
 title
 -----
 Symbolic Z-matrix:
 Charge =  0 Multiplicity = 1

 SCF Done:  E(RHF) =  -784.647749897     A.U. after   15 cycles
 Normal termination of Gaussian 16 at Wed Apr  9 00:03:28 2025.
 Gaussian 16:  ES64L-G16RevC.01  3-Jul-2019

 ----------------------------------------------------------------------
 #t hf aug-cc-pvdz iop(5/13=1,5/36=2,99/5=2) pseudo=read geom=check gue
 ss=(read,tcheck) scf=(maxcycle=1)
 ----------------------------------------------------------------------
 -----
 title
 -----
 Structure from the checkpoint file:  "BDE49_nonexpt_2179_mol1.chk"
 Charge =  0 Multiplicity = 1

                         Standard orientation:
 ---------------------------------------------------------------------
 Center     Atomic      Atomic             Coordinates (Angstroms)
 Number     Number       Type             X           Y           Z
 ---------------------------------------------------------------------
      1          8           0        0.434180   -0.746741   -0.371308
      2         14           0        1.872223   -0.005747    0.010449
      3          6           0       -0.868079   -0.351786   -0.203435
      4          8           0        2.083106    1.410113   -0.789658
      5          6           0       -1.828794   -1.346249   -0.010586
      6          6           0       -1.250910    0.991371   -0.247466
      7          6           0       -2.593783    1.328485   -0.088458
      8          6           0       -3.556658    0.341670    0.108124
      9          6           0       -3.166466   -0.996551    0.143092
     10          1           0       -3.906708   -1.774736    0.292614
     11          1           0       -1.509563   -2.381202    0.014874
     12          1           0       -2.884999    2.372465   -0.123300
     13          1           0       -4.599275    0.610921    0.229123
     14          1           0       -0.503677    1.756503   -0.421073
     15          6           0        1.969965    0.384595    1.814172
     16          1           0        1.794626   -0.511160    2.415070
     17          1           0        1.223921    1.133210    2.092611
     18          1           0        2.956865    0.780466    2.066260
     19          1           0        2.275915    1.369821   -1.729893
     20          8           0        2.988478   -1.090962   -0.506184
     21          1           0        2.664008   -1.964314   -0.738021
 ---------------------------------------------------------------------

 SCF Done:  E(RHF) =  -784.851863066     A.U. after    2 cycles

 The electronic state is 1-A.
 Alpha  occ. eigenvalues --  -69.13612 -20.58326 -20.57367 -20.57205 -11.31689
 Alpha  occ. eigenvalues --  -11.25068 -11.25053 -11.24100 -11.24064 -11.23945
 Alpha  occ. eigenvalues --  -11.21683  -6.87729  -3.98768  -3.98743  -3.98544
 Alpha  occ. eigenvalues --   -1.34874  -1.31231  -1.29717  -1.13844  -1.01475
 Alpha  occ. eigenvalues --   -1.00250  -0.94637  -0.84647  -0.83362  -0.76951
 Alpha  occ. eigenvalues --   -0.73706  -0.72409  -0.68405  -0.66271  -0.62890
 Alpha  occ. eigenvalues --   -0.61964  -0.59720  -0.59362  -0.57915  -0.56525
 Alpha  occ. eigenvalues --   -0.56165  -0.55436  -0.53590  -0.53534  -0.52082
 Alpha  occ. eigenvalues --   -0.49833  -0.48491  -0.47000  -0.34512  -0.32413
 Alpha virt. eigenvalues --    0.02931   0.03901   0.04064   0.05157   0.05371
 Alpha virt. eigenvalues --    0.05632   0.06697   0.06807   0.07467   0.07740
 Alpha virt. eigenvalues --    0.08160   0.09833   0.10407   0.10937   0.11605

 Mulliken charges:
               1
     1  O   -1.201382
     2  Si   2.464450
     3  C    0.401260
     4  O   -0.839581
     5  C    0.239031
     6  C    0.479299
     7  C    0.543643
     8  C    0.574401
     9  C    0.709380
    10  H   -0.430602
    11  H   -0.566062
    12  H   -0.455348
    13  H   -0.456818
    14  H   -0.618525
    15  C    0.328018
    16  H   -0.213565
    17  H   -0.174106
    18  H   -0.240447
    19  H    0.136453
    20  O   -0.837025
    21  H    0.157529
 Sum of Mulliken charges =  -0.00000

 Dipole moment (field-independent basis, Debye):
    X=             -0.8116    Y=             -0.6643    Z=             -0.2397  Tot=              1.0759

 Test job not archived.
 1\1\GINC-SE424\SP\RHF\Aug-CC-pVDZ\C7H10O3Si1\OHZDE\09-Apr-2025\0\\#t h
 f aug-cc-pvdz iop(5/13=1,5/36=2,99/5=2) pseudo=read geom=check guess=(
 read,tcheck) scf=(maxcycle=1)\\title\\0,1\O,0,0.43418,-0.746741,-0.371
 308\Si,0,1.872223,-0.005747,0.010449\C,0,-0.868079,-0.351786,-0.203435
 \O,0,2.083106,1.410113,-0.789658\C,0,-1.828794,-1.346249,-0.010586\C,0
 ,-1.25091,0.991371,-0.247466\C,0,-2.593783,1.328485,-0.088458\C,0,-3.5
 56658,0.34167,0.108124\C,0,-3.166466,-0.996551,0.143092\H,0,-3.906708,
 -1.774736,0.292614\H,0,-1.509563,-2.381202,0.014874\H,0,-2.884999,2.37

 Normal termination of Gaussian 16 at Wed Apr  9 00:03:42 2025.
