 Gaussian 16, Revision C.01,

 ----------------------------------------------------------------------
 #t hf aug-cc-pvdz symm=none int=(grid=ultrafine) guess=(read,tcheck) s
 table=(opt,rrhf)
 ----------------------------------------------------------------------
 -----
 title
 -----
 Symbolic Z-matrix:
 Charge =  0 Multiplicity = 1

 SCF Done:  E(RHF) =  -799.877424456     A.U. after   14 cycles
 Normal termination of Gaussian 16 at Tue Apr  8 22:40:16 2025.
 Gaussian 16:  ES64L-G16RevC.01  3-Jul-2019

 ----------------------------------------------------------------------
 #t hf aug-cc-pvdz iop(5/13=1,5/36=2,99/5=2) pseudo=read geom=check gue
 ss=(read,tcheck) scf=(maxcycle=1)
 ----------------------------------------------------------------------
 -----
 title
 -----
 Structure from the checkpoint file:  "BDE49_expt_1341_mol1.chk"
 Charge =  0 Multiplicity = 1

                         Standard orientation:
 ---------------------------------------------------------------------
 Center     Atomic      Atomic             Coordinates (Angstroms)
 Number     Number       Type             X           Y           Z
 ---------------------------------------------------------------------
      1          6           0       -0.000000    1.363624   -0.000000
      2          6           0        1.211231    0.687896   -0.000000
      3          6           0       -1.220414    0.690320    0.000000
      4          6           0       -1.197344   -0.704956    0.000000
      5          6           0        0.009993   -1.393014    0.000000
      6          6           0        1.217196   -0.701702   -0.000000
      7          8           0       -2.408356    1.337861    0.000000
      8          1           0       -2.241329    2.288674   -0.000000
      9          9           0       -0.026180    2.714304   -0.000000
     10          9           0        2.361453    1.366833   -0.000000
     11          9           0        2.375043   -1.369962   -0.000000
     12          9           0        0.012512   -2.728561    0.000000
     13          9           0       -2.346805   -1.387567    0.000000
 ---------------------------------------------------------------------

 SCF Done:  E(RHF) =  -800.148037150     A.U. after    2 cycles

 The electronic state is 1-A'.
 Alpha  occ. eigenvalues --  -26.18913 -26.18360 -26.17974 -26.17832 -26.17397
 Alpha  occ. eigenvalues --  -20.65178 -11.39712 -11.39443 -11.38897 -11.38878
 Alpha  occ. eigenvalues --  -11.38595 -11.37502  -1.72983  -1.72476  -1.72060
 Alpha  occ. eigenvalues --   -1.71414  -1.71000  -1.41849  -1.21975  -1.09411
 Alpha  occ. eigenvalues --   -1.08378  -0.96483  -0.95506  -0.88656  -0.87756
 Alpha  occ. eigenvalues --   -0.86381  -0.82383  -0.81772  -0.81662  -0.81094
 Alpha  occ. eigenvalues --   -0.80256  -0.79386  -0.78315  -0.78291  -0.77682
 Alpha  occ. eigenvalues --   -0.76497  -0.75849  -0.71005  -0.66598  -0.65141
 Alpha  occ. eigenvalues --   -0.64653  -0.61652  -0.54201  -0.39694  -0.37735
 Alpha virt. eigenvalues --    0.02895   0.06170   0.07097   0.08607   0.09040
 Alpha virt. eigenvalues --    0.09117   0.09663   0.09907   0.10502   0.11135
 Alpha virt. eigenvalues --    0.12574   0.12909   0.14100   0.14455   0.15324

 Mulliken charges:
               1
     1  C    0.470265
     2  C    0.130889
     3  C   -0.063916
     4  C    0.510702
     5  C    0.157346
     6  C    0.473825
     7  O   -0.585781
     8  H    0.155002
     9  F   -0.302430
    10  F   -0.212996
    11  F   -0.255683
    12  F   -0.233237
    13  F   -0.243985
 Sum of Mulliken charges =  -0.00000

 Dipole moment (field-independent basis, Debye):
    X=             -0.8127    Y=              2.1460    Z=             -0.0000  Tot=              2.2947

 Test job not archived.
 1\1\GINC-SE361\SP\RHF\Aug-CC-pVDZ\C6H1F5O1\OHZDE\08-Apr-2025\0\\#t hf
 aug-cc-pvdz iop(5/13=1,5/36=2,99/5=2) pseudo=read geom=check guess=(re
 ad,tcheck) scf=(maxcycle=1)\\title\\0,1\C,0,0.,1.363624,0.\C,0,-1.2112
 31,0.687896,0.\C,0,1.220414,0.69032,0.\C,0,1.197344,-0.704956,0.\C,0,-
 0.009993,-1.393014,0.\C,0,-1.217196,-0.701702,0.\O,0,2.408356,1.337861
 ,0.\H,0,2.241329,2.288674,0.\F,0,0.02618,2.714304,0.\F,0,-2.361453,1.3
 66833,0.\F,0,-2.375043,-1.369962,0.\F,0,-0.012512,-2.728561,0.\F,0,2.3
 46805,-1.387567,0.\\Version=ES64L-G16RevC.01\State=1-A'\HF=-800.148037

 Normal termination of Gaussian 16 at Tue Apr  8 22:40:23 2025.
