 Gaussian 16, Revision C.01,

 ----------------------------------------------------------------------
 #t hf aug-cc-pvdz symm=none int=(grid=ultrafine) guess=(read,tcheck) s
 table=(opt,rrhf)
 ----------------------------------------------------------------------
 -----
 title
 -----
 Symbolic Z-matrix:
 Charge =  0 Multiplicity = 1

 SCF Done:  E(RHF) =  -732.732409606     A.U. after   13 cycles

 1\1\GINC-SE252\Stability\RHF\Aug-CC-pVDZ\C4H6Si2\OHZDE\09-Apr-2025\0\\
 #t hf aug-cc-pvdz symm=none int=(grid=ultrafine) guess=(read,tcheck) s
 table=(opt,rrhf)\\title\\0,1\Si,0,0.811404,0.857731,-0.00004\Si,0,-0.8
 11405,-0.857733,-0.000039\C,0,-2.477614,-0.101391,-0.000002\H,0,-0.665
 384,-1.704416,1.205715\H,0,-0.665415,-1.70439,-1.205815\C,0,2.477613,0
 .101389,-0.000007\H,0,0.665385,1.704411,1.205717\H,0,0.665411,1.70439,
 -1.205813\C,0,3.557828,-0.440871,0.000085\C,0,-3.557828,0.440872,0.000
 093\H,0,-4.512752,0.910268,0.00014\H,0,4.512777,-0.91022,0.000151\\Ver

 Normal termination of Gaussian 16 at Wed Apr  9 00:07:35 2025.
 Gaussian 16:  ES64L-G16RevC.01  3-Jul-2019

 ----------------------------------------------------------------------
 #t hf aug-cc-pvdz iop(5/13=1,5/36=2,99/5=2) pseudo=read geom=check gue
 ss=(read,tcheck) scf=(maxcycle=1)
 ----------------------------------------------------------------------
 -----
 title
 -----
 Structure from the checkpoint file:  "BDE49_nonexpt_2304_mol1.chk"
 Charge =  0 Multiplicity = 1

                         Standard orientation:
 ---------------------------------------------------------------------
 Center     Atomic      Atomic             Coordinates (Angstroms)
 Number     Number       Type             X           Y           Z
 ---------------------------------------------------------------------
      1         14           0       -0.811404    0.857731    0.000040
      2         14           0        0.811405   -0.857733    0.000039
      3          6           0        2.477614   -0.101391    0.000002
      4          1           0        0.665384   -1.704416   -1.205715
      5          1           0        0.665415   -1.704390    1.205815
      6          6           0       -2.477613    0.101389    0.000007
      7          1           0       -0.665385    1.704411   -1.205717
      8          1           0       -0.665411    1.704390    1.205813
      9          6           0       -3.557828   -0.440871   -0.000085
     10          6           0        3.557828    0.440872   -0.000093
     11          1           0        4.512752    0.910268   -0.000140
     12          1           0       -4.512777   -0.910220   -0.000151
 ---------------------------------------------------------------------

 SCF Done:  E(RHF) =  -732.825508074     A.U. after    2 cycles

 The electronic state is 1-A.
 Alpha  occ. eigenvalues --  -69.08259 -69.08259 -11.25923 -11.25923 -11.23755
 Alpha  occ. eigenvalues --  -11.23755  -6.83515  -6.83501  -3.94357  -3.94351
 Alpha  occ. eigenvalues --   -3.94272  -3.94260  -3.94250  -3.94192  -1.02616
 Alpha  occ. eigenvalues --   -1.02442  -0.78842  -0.76121  -0.71986  -0.68941
 Alpha  occ. eigenvalues --   -0.55893  -0.54875  -0.51407  -0.48887  -0.45495
 Alpha  occ. eigenvalues --   -0.41822  -0.40935  -0.40715  -0.37323
 Alpha virt. eigenvalues --    0.03142   0.03573   0.04600   0.05304   0.06019
 Alpha virt. eigenvalues --    0.06860   0.06992   0.07107   0.07592   0.09326
 Alpha virt. eigenvalues --    0.09376   0.09771   0.10353   0.10928   0.11374

 Mulliken charges:
               1
     1  Si  -0.000934
     2  Si  -0.000937
     3  C   -1.121840
     4  H    0.037217
     5  H    0.037217
     6  C   -1.121829
     7  H    0.037216
     8  H    0.037217
     9  C    1.468198
    10  C    1.468217
    11  H   -0.419874
    12  H   -0.419868
 Sum of Mulliken charges =   0.00000

 Dipole moment (field-independent basis, Debye):
    X=             -0.0000    Y=              0.0001    Z=             -0.0001  Tot=              0.0001

 Test job not archived.
 1\1\GINC-SE252\SP\RHF\Aug-CC-pVDZ\C4H6Si2\OHZDE\09-Apr-2025\0\\#t hf a
 ug-cc-pvdz iop(5/13=1,5/36=2,99/5=2) pseudo=read geom=check guess=(rea
 d,tcheck) scf=(maxcycle=1)\\title\\0,1\Si,0,0.811404,0.857731,-0.00004
 \Si,0,-0.811405,-0.857733,-0.000039\C,0,-2.477614,-0.101391,-0.000002\
 H,0,-0.665384,-1.704416,1.205715\H,0,-0.665415,-1.70439,-1.205815\C,0,
 2.477613,0.101389,-0.000007\H,0,0.665385,1.704411,1.205717\H,0,0.66541
 1,1.70439,-1.205813\C,0,3.557828,-0.440871,0.000085\C,0,-3.557828,0.44
 0872,0.000093\H,0,-4.512752,0.910268,0.00014\H,0,4.512777,-0.91022,0.0

 Normal termination of Gaussian 16 at Wed Apr  9 00:07:40 2025.
