 Gaussian 16, Revision C.01,

 ----------------------------------------------------------------------
 #t hf aug-cc-pvdz symm=none int=(grid=ultrafine) guess=(read,tcheck) s
 table=(opt,rrhf)
 ----------------------------------------------------------------------
 -----
 title
 -----
 Symbolic Z-matrix:
 Charge =  0 Multiplicity = 1

 SCF Done:  E(RHF) =  -1103.16476374     A.U. after   15 cycles
 Normal termination of Gaussian 16 at Wed Apr  9 00:18:30 2025.
 Gaussian 16:  ES64L-G16RevC.01  3-Jul-2019

 ----------------------------------------------------------------------
 #t hf aug-cc-pvdz iop(5/13=1,5/36=2,99/5=2) pseudo=read geom=check gue
 ss=(read,tcheck) scf=(maxcycle=1)
 ----------------------------------------------------------------------
 -----
 title
 -----
 Structure from the checkpoint file:  "BDE49_nonexpt_2596_mol1.chk"
 Charge =  0 Multiplicity = 1

                         Standard orientation:
 ---------------------------------------------------------------------
 Center     Atomic      Atomic             Coordinates (Angstroms)
 Number     Number       Type             X           Y           Z
 ---------------------------------------------------------------------
      1         17           0       -2.631553    0.637593    0.000002
      2         16           0       -1.378898   -1.005780   -0.000003
      3          6           0        0.252584   -0.307684   -0.000001
      4          6           0        0.565000    1.048627   -0.000004
      5          6           0        1.300206   -1.236610    0.000003
      6          6           0        2.603909   -0.755675    0.000004
      7          6           0        1.911268    1.409638   -0.000002
      8          7           0        2.925297    0.542313    0.000001
      9          1           0       -0.205335    1.806905   -0.000007
     10          1           0        2.181053    2.462103   -0.000004
     11          1           0        1.114455   -2.304854    0.000006
     12          1           0        3.433719   -1.456721    0.000007
 ---------------------------------------------------------------------

 SCF Done:  E(RHF) =  -1103.27558374     A.U. after    2 cycles

 The electronic state is 1-A.
 Alpha  occ. eigenvalues -- -103.69805 -93.62012 -15.64076 -11.32475 -11.30233
 Alpha  occ. eigenvalues --  -11.30204 -11.27084 -11.26668 -10.72952  -8.91394
 Alpha  occ. eigenvalues --   -8.38688  -8.38344  -8.38299  -6.25519  -6.25256
 Alpha  occ. eigenvalues --   -6.24792  -1.24670  -1.19171  -1.11102  -1.04575
 Alpha  occ. eigenvalues --   -0.96156  -0.87662  -0.83453  -0.71548  -0.69195
 Alpha  occ. eigenvalues --   -0.66878  -0.61940  -0.58902  -0.57264  -0.54662
 Alpha  occ. eigenvalues --   -0.53387  -0.53188  -0.47706  -0.44648  -0.42624
 Alpha  occ. eigenvalues --   -0.36760  -0.34958
 Alpha virt. eigenvalues --    0.03118   0.03602   0.04362   0.05093   0.06959
 Alpha virt. eigenvalues --    0.07038   0.08018   0.09176   0.10305   0.10710
 Alpha virt. eigenvalues --    0.11336   0.11866   0.12217   0.13513   0.13794

 Mulliken charges:
               1
     1  Cl  -0.317166
     2  S    0.331991
     3  C   -0.409076
     4  C    0.978236
     5  C    0.688005
     6  C    0.377475
     7  C    0.305952
     8  N   -0.412995
     9  H   -0.438172
    10  H   -0.319669
    11  H   -0.464405
    12  H   -0.320175
 Sum of Mulliken charges =  -0.00000

 Dipole moment (field-independent basis, Debye):
    X=             -0.2703    Y=             -0.8012    Z=             -0.0000  Tot=              0.8456

 Test job not archived.
 1\1\GINC-SE222\SP\RHF\Aug-CC-pVDZ\C5H4Cl1N1S1\OHZDE\09-Apr-2025\0\\#t
 hf aug-cc-pvdz iop(5/13=1,5/36=2,99/5=2) pseudo=read geom=check guess=
 (read,tcheck) scf=(maxcycle=1)\\title\\0,1\Cl,0,-2.631553,0.637593,0.0
 00002\S,0,-1.378898,-1.00578,-0.000003\C,0,0.252584,-0.307684,-0.00000
 1\C,0,0.565,1.048627,-0.000004\C,0,1.300206,-1.23661,0.000003\C,0,2.60
 3909,-0.755675,0.000004\C,0,1.911268,1.409638,-0.000002\N,0,2.925297,0
 .542313,0.000001\H,0,-0.205335,1.806905,-0.000007\H,0,2.181053,2.46210
 3,-0.000004\H,0,1.114455,-2.304854,0.000006\H,0,3.433719,-1.456721,0.0

 Normal termination of Gaussian 16 at Wed Apr  9 00:18:36 2025.
