 Gaussian 16, Revision C.01,

 ----------------------------------------------------------------------
 #t hf aug-cc-pvdz symm=none int=(grid=ultrafine) guess=(read,tcheck) s
 table=(opt,rrhf)
 ----------------------------------------------------------------------
 -----
 title
 -----
 Symbolic Z-matrix:
 Charge =  0 Multiplicity = 1

 SCF Done:  E(RHF) =  -1020.05701080     A.U. after   14 cycles
 Normal termination of Gaussian 16 at Tue Apr  8 23:54:18 2025.
 Gaussian 16:  ES64L-G16RevC.01  3-Jul-2019

 ----------------------------------------------------------------------
 #t hf aug-cc-pvdz iop(5/13=1,5/36=2,99/5=2) pseudo=read geom=check gue
 ss=(read,tcheck) scf=(maxcycle=1)
 ----------------------------------------------------------------------
 -----
 title
 -----
 Structure from the checkpoint file:  "BDE49_nonexpt_197_mol1.chk"
 Charge =  0 Multiplicity = 1

                         Standard orientation:
 ---------------------------------------------------------------------
 Center     Atomic      Atomic             Coordinates (Angstroms)
 Number     Number       Type             X           Y           Z
 ---------------------------------------------------------------------
      1         17           0        0.867417   -1.517322   -0.000258
      2         17           0        0.867215    1.517422   -0.000244
      3          5           0       -0.023721   -0.000009    0.000973
      4          6           0       -1.527237   -0.000110    0.000501
      5          6           0       -2.734638   -0.000177    0.000134
      6          1           0       -3.798882    0.000047   -0.000138
 ---------------------------------------------------------------------

 SCF Done:  E(RHF) =  -1020.12402759     A.U. after    2 cycles

 The electronic state is 1-A.
 Alpha  occ. eigenvalues -- -103.67662-103.67661 -11.28783 -11.25680 -10.71161
 Alpha  occ. eigenvalues --  -10.71130  -8.36839  -8.36834  -8.36611  -8.36610
 Alpha  occ. eigenvalues --   -8.36575  -8.36573  -7.75545  -1.18996  -1.15257
 Alpha  occ. eigenvalues --   -1.05031  -0.80601  -0.72706  -0.63818  -0.59988
 Alpha  occ. eigenvalues --   -0.53912  -0.49627  -0.48628  -0.47865  -0.43531
 Alpha  occ. eigenvalues --   -0.42857
 Alpha virt. eigenvalues --    0.03015   0.03699   0.05299   0.05435   0.05737
 Alpha virt. eigenvalues --    0.06746   0.09162   0.12196   0.12797   0.13401
 Alpha virt. eigenvalues --    0.15200   0.15224   0.15291   0.17151   0.17241

 Mulliken charges:
               1
     1  Cl  -0.291755
     2  Cl  -0.291753
     3  B    0.416545
     4  C   -0.584819
     5  C    1.155855
     6  H   -0.404074
 Sum of Mulliken charges =  -0.00000

 Dipole moment (field-independent basis, Debye):
    X=             -2.1534    Y=              0.0002    Z=              0.0018  Tot=              2.1534

 Test job not archived.
 1\1\GINC-SE247\SP\RHF\Aug-CC-pVDZ\C2H1B1Cl2\OHZDE\08-Apr-2025\0\\#t hf
  aug-cc-pvdz iop(5/13=1,5/36=2,99/5=2) pseudo=read geom=check guess=(r
 ead,tcheck) scf=(maxcycle=1)\\title\\0,1\Cl,0,0.867416,1.517322,0.0002
 58\Cl,0,0.867215,-1.517422,0.000244\B,0,-0.023721,0.000009,-0.000973\C
 ,0,-1.527237,0.000109,-0.000501\C,0,-2.734638,0.000176,-0.000134\H,0,-
 3.798882,-0.000049,0.000138\\Version=ES64L-G16RevC.01\State=1-A\HF=-10
 20.1240276\RMSD=7.796e-03\Dipole=-0.8472178,-0.0000875,-0.0007235\Quad
 rupole=4.8200842,-3.3270045,-1.4930797,0.0005439,-0.0008659,-0.0000085

 Normal termination of Gaussian 16 at Tue Apr  8 23:54:20 2025.
