 Gaussian 16, Revision C.01,

 ----------------------------------------------------------------------
 #t hf aug-cc-pvdz symm=none int=(grid=ultrafine) guess=(read,tcheck) s
 table=opt
 ----------------------------------------------------------------------
 -----
 title
 -----
 Symbolic Z-matrix:
 Charge =  0 Multiplicity = 2

 SCF Done:  E(UHF) =  -153.482314808     A.U. after   15 cycles
 Normal termination of Gaussian 16 at Tue Apr  8 22:30:19 2025.
 Gaussian 16:  ES64L-G16RevC.01  3-Jul-2019

 ----------------------------------------------------------------------
 #t hf aug-cc-pvdz iop(5/13=1,5/36=2,99/5=2) pseudo=read geom=check gue
 ss=(read,tcheck) scf=(maxcycle=1)
 ----------------------------------------------------------------------
 -----
 title
 -----
 Structure from the checkpoint file:  "BDE49_expt_1062_mol2.chk"
 Charge =  0 Multiplicity = 2

                         Standard orientation:
 ---------------------------------------------------------------------
 Center     Atomic      Atomic             Coordinates (Angstroms)
 Number     Number       Type             X           Y           Z
 ---------------------------------------------------------------------
      1          6           0       -0.091765    0.507344   -0.101038
      2          8           0       -1.168194   -0.341333    0.022154
      3          1           0       -1.978603    0.175330   -0.009242
      4          6           0        1.227784   -0.163370    0.011228
      5          1           0        1.290836   -1.010534   -0.679558
      6          1           0        1.414089   -0.559700    1.022966
      7          1           0        2.033673    0.534856   -0.226401
      8          1           0       -0.230555    1.526867    0.253865
 ---------------------------------------------------------------------

 SCF Done:  E(UHF) =  -153.533299259     A.U. after    2 cycles

 The electronic state is 2-A.
 Alpha  occ. eigenvalues --  -20.59386 -11.28826 -11.22811  -1.35371  -1.01455
 Alpha  occ. eigenvalues --   -0.83565  -0.73494  -0.63670  -0.60868  -0.54889
 Alpha  occ. eigenvalues --   -0.54593  -0.51403  -0.32918
 Alpha virt. eigenvalues --    0.03417   0.04770   0.05320   0.06259   0.07591
 Alpha virt. eigenvalues --    0.11676   0.12296   0.13581   0.15154   0.16355
 Alpha virt. eigenvalues --    0.16495   0.17870   0.20839   0.22535   0.24538

  Beta  occ. eigenvalues --  -20.58839 -11.26290 -11.23090  -1.33492  -0.98884
  Beta  occ. eigenvalues --   -0.80124  -0.71820  -0.59639  -0.56990  -0.54491
  Beta  occ. eigenvalues --   -0.51785  -0.50291
  Beta virt. eigenvalues --    0.03453   0.04783   0.05350   0.06298   0.07608
  Beta virt. eigenvalues --    0.10009   0.12316   0.13555   0.15237   0.15774
  Beta virt. eigenvalues --    0.16542   0.17375   0.19395   0.21859   0.22963

 Mulliken charges and spin densities:
               1          2
     1  C    0.552312   1.181015
     2  O   -0.530756   0.051353
     3  H    0.159414  -0.011182
     4  C    0.197378  -0.192869
     5  H   -0.032791   0.010305
     6  H   -0.005876   0.051298
     7  H   -0.045792   0.001165
     8  H   -0.293889  -0.091084
 Sum of Mulliken charges =  -0.00000   1.00000

 Dipole moment (field-independent basis, Debye):
    X=             -0.2625    Y=              1.4881    Z=              0.2532  Tot=              1.5322
                          Isotropic Fermi Contact Couplings
        Atom                 a.u.       MegaHertz       Gauss      10(-4) cm-1
     1  C(13)              0.28280     317.91689     113.44065     106.04566
     2  O(17)              0.05091     -30.86077     -11.01189     -10.29405
     3  H(1)              -0.00202      -9.02344      -3.21979      -3.00990
     4  C(13)             -0.04804     -54.00595     -19.27067     -18.01445
     5  H(1)               0.00981      43.83616      15.64183      14.62217
     6  H(1)               0.02394     107.02460      38.18904      35.69956
     7  H(1)               0.00298      13.31683       4.75178       4.44202
     8  H(1)              -0.01687     -75.42074     -26.91199     -25.15765

 Normal termination of Gaussian 16 at Tue Apr  8 22:30:21 2025.
