 Gaussian 16, Revision C.01,

 ----------------------------------------------------------------------
 #t hf aug-cc-pvdz symm=none int=(grid=ultrafine) guess=(read,tcheck) s
 table=(opt,rrhf)
 ----------------------------------------------------------------------
 -----
 title
 -----
 Symbolic Z-matrix:
 Charge =  0 Multiplicity = 1

 SCF Done:  E(RHF) =  -648.679167441     A.U. after   16 cycles
 Normal termination of Gaussian 16 at Tue Apr  8 23:17:49 2025.
 Gaussian 16:  ES64L-G16RevC.01  3-Jul-2019

 ----------------------------------------------------------------------
 #t hf aug-cc-pvdz iop(5/13=1,5/36=2,99/5=2) pseudo=read geom=check gue
 ss=(read,tcheck) scf=(maxcycle=1)
 ----------------------------------------------------------------------
 -----
 title
 -----
 Structure from the checkpoint file:  "BDE49_nonexpt_1091_mol1.chk"
 Charge =  0 Multiplicity = 1

                         Standard orientation:
 ---------------------------------------------------------------------
 Center     Atomic      Atomic             Coordinates (Angstroms)
 Number     Number       Type             X           Y           Z
 ---------------------------------------------------------------------
      1          8           0        0.040517   -0.798785    0.354592
      2         17           0        1.455605    0.262409   -0.048901
      3          8           0       -1.048689   -0.502401   -0.449346
      4          6           0       -1.789262    0.574826    0.136818
      5          1           0       -2.667037    0.677728   -0.501903
      6          1           0       -1.197132    1.493682    0.111078
      7          1           0       -2.080171    0.328163    1.159262
 ---------------------------------------------------------------------

 SCF Done:  E(RHF) =  -648.758702491     A.U. after    2 cycles

 The electronic state is 1-A.
 Alpha  occ. eigenvalues -- -103.71712 -20.72195 -20.67353 -11.31130 -10.74401
 Alpha  occ. eigenvalues --   -8.40130  -8.39741  -8.39716  -1.48189  -1.24088
 Alpha  occ. eigenvalues --   -1.09706  -0.93831  -0.72362  -0.71687  -0.71563
 Alpha  occ. eigenvalues --   -0.59521  -0.57809  -0.56115  -0.49320  -0.48591
 Alpha  occ. eigenvalues --   -0.47145
 Alpha virt. eigenvalues --    0.02425   0.03478   0.05592   0.06086   0.08637
 Alpha virt. eigenvalues --    0.12758   0.13712   0.13975   0.15459   0.16256
 Alpha virt. eigenvalues --    0.17214   0.18010   0.21705   0.24158   0.24646

 Mulliken charges:
               1
     1  O   -0.361972
     2  Cl   0.263885
     3  O   -0.420950
     4  C    0.808405
     5  H   -0.144773
     6  H   -0.074175
     7  H   -0.070420
 Sum of Mulliken charges =   0.00000

 Dipole moment (field-independent basis, Debye):
    X=             -1.4645    Y=              1.9190    Z=              0.4500  Tot=              2.4556

 Test job not archived.
 1\1\GINC-SE403\SP\RHF\Aug-CC-pVDZ\C1H3Cl1O2\OHZDE\08-Apr-2025\0\\#t hf
  aug-cc-pvdz iop(5/13=1,5/36=2,99/5=2) pseudo=read geom=check guess=(r
 ead,tcheck) scf=(maxcycle=1)\\title\\0,1\O,0,0.040517,-0.798785,0.3545
 92\Cl,0,1.455605,0.262409,-0.048901\O,0,-1.048689,-0.502401,-0.449346\
 C,0,-1.789262,0.574826,0.136818\H,0,-2.667037,0.677728,-0.501903\H,0,-
 1.197132,1.493682,0.111078\H,0,-2.080171,0.328163,1.159262\\Version=ES
 64L-G16RevC.01\State=1-A\HF=-648.7587025\RMSD=2.490e-03\Dipole=-0.5761
 606,0.7550071,0.1770593\Quadrupole=2.7566165,-1.2135391,-1.5430774,-0.

 Normal termination of Gaussian 16 at Tue Apr  8 23:17:51 2025.
