 Gaussian 16, Revision C.01,

 ----------------------------------------------------------------------
 #t hf aug-cc-pvdz symm=none int=(grid=ultrafine) guess=(read,tcheck) s
 table=(opt,rrhf)
 ----------------------------------------------------------------------
 -----
 title
 -----
 Symbolic Z-matrix:
 Charge =  0 Multiplicity = 1

 SCF Done:  E(RHF) =  -694.322989426     A.U. after   12 cycles
 Normal termination of Gaussian 16 at Tue Apr  8 22:47:34 2025.
 Gaussian 16:  ES64L-G16RevC.01  3-Jul-2019

 ----------------------------------------------------------------------
 #t hf aug-cc-pvdz iop(5/13=1,5/36=2,99/5=2) pseudo=read geom=check gue
 ss=(read,tcheck) scf=(maxcycle=1)
 ----------------------------------------------------------------------
 -----
 title
 -----
 Structure from the checkpoint file:  "BDE49_expt_1666_mol1.chk"
 Charge =  0 Multiplicity = 1

                         Standard orientation:
 ---------------------------------------------------------------------
 Center     Atomic      Atomic             Coordinates (Angstroms)
 Number     Number       Type             X           Y           Z
 ---------------------------------------------------------------------
      1          6           0       -1.364242    0.403663    0.390743
      2          6           0       -0.019973    0.792023   -0.217277
      3          6           0        1.180775   -0.024904    0.268362
      4          1           0        0.141074    1.849805    0.031459
      5          1           0       -0.097766    0.738223   -1.308897
      6          6           0       -2.499065    1.341066    0.008136
      7          1           0       -2.276690    2.349598    0.371849
      8          1           0       -3.443880    1.017880    0.447071
      9          1           0       -2.619138    1.384723   -1.076759
     10         17           0       -1.820637   -1.309035   -0.124412
     11          1           0       -1.281408    0.326374    1.476024
     12          6           0        2.507566    0.442136   -0.341699
     13          1           0        1.022006   -1.081144    0.029761
     14          1           0        1.243111    0.038921    1.362531
     15          6           0        3.710610   -0.371302    0.143665
     16          1           0        2.664425    1.501954   -0.106069
     17          1           0        2.442394    0.379911   -1.434589
     18          1           0        3.823457   -0.301169    1.230027
     19          1           0        4.640248   -0.017495   -0.310044
     20          1           0        3.598968   -1.430083   -0.108927
 ---------------------------------------------------------------------

 SCF Done:  E(RHF) =  -694.415241518     A.U. after    2 cycles

 The electronic state is 1-A.
 Alpha  occ. eigenvalues -- -103.63608 -11.30943 -11.24386 -11.24176 -11.23191
 Alpha  occ. eigenvalues --  -11.23064 -11.22436 -10.66890  -8.32595  -8.32337
 Alpha  occ. eigenvalues --   -8.32326  -1.15728  -1.07062  -1.02438  -0.97214
 Alpha  occ. eigenvalues --   -0.88289  -0.80290  -0.79274  -0.66254  -0.63027
 Alpha  occ. eigenvalues --   -0.61155  -0.60247  -0.57291  -0.55791  -0.54196
 Alpha  occ. eigenvalues --   -0.51958  -0.50898  -0.48674  -0.47643  -0.47140
 Alpha  occ. eigenvalues --   -0.46720  -0.43528  -0.43426
 Alpha virt. eigenvalues --    0.03343   0.03887   0.04332   0.04954   0.05876
 Alpha virt. eigenvalues --    0.06150   0.06368   0.07346   0.08240   0.08670
 Alpha virt. eigenvalues --    0.09036   0.09945   0.10909   0.11457   0.12366

 Mulliken charges:
               1
     1  C   -0.239275
     2  C    0.127686
     3  C    0.151115
     4  H   -0.123475
     5  H   -0.149248
     6  C    0.711202
     7  H   -0.026937
     8  H   -0.055176
     9  H   -0.023441
    10  Cl  -0.228636
    11  H   -0.119768
    12  C    0.295697
    13  H   -0.172610
    14  H   -0.170061
    15  C    0.554479
    16  H   -0.161662
    17  H   -0.145889
    18  H   -0.085405
    19  H   -0.057478
    20  H   -0.081119
 Sum of Mulliken charges =   0.00000

 Dipole moment (field-independent basis, Debye):
    X=              0.8190    Y=              2.4279    Z=              0.5487  Tot=              2.6204

 Test job not archived.
 1\1\GINC-SE048\SP\RHF\Aug-CC-pVDZ\C6H13Cl1\OHZDE\08-Apr-2025\0\\#t hf
 aug-cc-pvdz iop(5/13=1,5/36=2,99/5=2) pseudo=read geom=check guess=(re
 ad,tcheck) scf=(maxcycle=1)\\title\\0,1\C,0,-1.364242,0.403663,0.39074
 3\C,0,-0.019973,0.792023,-0.217277\C,0,1.180775,-0.024904,0.268362\H,0
 ,0.141074,1.849805,0.031459\H,0,-0.097766,0.738223,-1.308897\C,0,-2.49
 9065,1.341066,0.008136\H,0,-2.27669,2.349598,0.371849\H,0,-3.44388,1.0
 1788,0.447071\H,0,-2.619138,1.384723,-1.076759\Cl,0,-1.820637,-1.30903
 5,-0.124412\H,0,-1.281408,0.326374,1.476024\C,0,2.507566,0.442136,-0.3

 Normal termination of Gaussian 16 at Tue Apr  8 22:47:43 2025.
