 Gaussian 16, Revision C.01,

 ----------------------------------------------------------------------
 #t hf aug-cc-pvdz symm=none int=(grid=ultrafine) guess=(read,tcheck) s
 table=(opt,rrhf)
 ----------------------------------------------------------------------
 -----
 title
 -----
 Symbolic Z-matrix:
 Charge =  0 Multiplicity = 1

 SCF Done:  E(RHF) =  -573.179485675     A.U. after   14 cycles
 Normal termination of Gaussian 16 at Tue Apr  8 23:30:38 2025.
 Gaussian 16:  ES64L-G16RevC.01  3-Jul-2019

 ----------------------------------------------------------------------
 #t hf aug-cc-pvdz iop(5/13=1,5/36=2,99/5=2) pseudo=read geom=check gue
 ss=(read,tcheck) scf=(maxcycle=1)
 ----------------------------------------------------------------------
 -----
 title
 -----
 Structure from the checkpoint file:  "BDE49_nonexpt_1403_mol1.chk"
 Charge =  0 Multiplicity = 1

                         Standard orientation:
 ---------------------------------------------------------------------
 Center     Atomic      Atomic             Coordinates (Angstroms)
 Number     Number       Type             X           Y           Z
 ---------------------------------------------------------------------
      1         15           0        0.000000   -1.138744   -0.136137
      2          6           0        1.307882    0.127036    0.025752
      3          6           0        0.728153    1.349412   -0.007600
      4          6           0       -0.728153    1.349412   -0.007600
      5          6           0       -1.307882    0.127036    0.025752
      6          1           0       -1.299188    2.273513   -0.032027
      7          1           0        1.299188    2.273513   -0.032027
      8          6           0       -2.778022   -0.169055    0.037808
      9          1           0       -3.359049    0.755752    0.084128
     10          1           0       -3.060047   -0.783662    0.899748
     11          1           0       -3.088273   -0.717490   -0.857680
     12          6           0        2.778022   -0.169055    0.037808
     13          1           0        3.088273   -0.717490   -0.857681
     14          1           0        3.060047   -0.783662    0.899747
     15          1           0        3.359049    0.755752    0.084128
     16          1           0        0.000000   -1.663788    1.182200
 ---------------------------------------------------------------------

 SCF Done:  E(RHF) =  -573.270973679     A.U. after    2 cycles

 The electronic state is 1-A.
 Alpha  occ. eigenvalues --  -81.25170 -11.24666 -11.24664 -11.24168 -11.24091
 Alpha  occ. eigenvalues --  -11.23865 -11.23865  -7.75630  -4.89701  -4.89669
 Alpha  occ. eigenvalues --   -4.89340  -1.11809  -1.03248  -0.97183  -0.88740
 Alpha  occ. eigenvalues --   -0.84588  -0.70470  -0.69793  -0.65091  -0.58720
 Alpha  occ. eigenvalues --   -0.57547  -0.57517  -0.57201  -0.54785  -0.51263
 Alpha  occ. eigenvalues --   -0.49674  -0.44747  -0.43591  -0.33656  -0.30624
 Alpha virt. eigenvalues --    0.03468   0.03874   0.04533   0.05456   0.05732
 Alpha virt. eigenvalues --    0.06364   0.06904   0.08482   0.08505   0.08700
 Alpha virt. eigenvalues --    0.09416   0.11555   0.11675   0.12514   0.13444

 Mulliken charges:
               1
     1  P    0.166780
     2  C   -0.473650
     3  C    0.339743
     4  C    0.339743
     5  C   -0.473650
     6  H   -0.481281
     7  H   -0.481281
     8  C    0.410902
     9  H   -0.108944
    10  H    0.047678
    11  H    0.080493
    12  C    0.410902
    13  H    0.080495
    14  H    0.047676
    15  H   -0.108944
    16  H    0.203337
 Sum of Mulliken charges =  -0.00000

 Dipole moment (field-independent basis, Debye):
    X=              0.0000    Y=              0.6012    Z=              0.5243  Tot=              0.7977

 Test job not archived.
 1\1\GINC-SE059\SP\RHF\Aug-CC-pVDZ\C6H9P1\OHZDE\08-Apr-2025\0\\#t hf au
 g-cc-pvdz iop(5/13=1,5/36=2,99/5=2) pseudo=read geom=check guess=(read
 ,tcheck) scf=(maxcycle=1)\\title\\0,1\P,0,0.,-1.138744,-0.136137\C,0,1
 .307882,0.127036,0.025752\C,0,0.728153,1.349412,-0.0076\C,0,-0.728153,
 1.349412,-0.0076\C,0,-1.307882,0.127036,0.025752\H,0,-1.299188,2.27351
 3,-0.032027\H,0,1.299188,2.273513,-0.032027\C,0,-2.778022,-0.169055,0.
 037808\H,0,-3.359049,0.755752,0.084128\H,0,-3.060047,-0.783662,0.89974
 8\H,0,-3.088273,-0.71749,-0.85768\C,0,2.778022,-0.169055,0.037808\H,0,

 Normal termination of Gaussian 16 at Tue Apr  8 23:30:45 2025.
