 Gaussian 16, Revision C.01,

 ----------------------------------------------------------------------
 #t hf aug-cc-pvdz symm=none int=(grid=ultrafine) guess=(read,tcheck) s
 table=(opt,rrhf)
 ----------------------------------------------------------------------
 -----
 title
 -----
 Symbolic Z-matrix:
 Charge =  0 Multiplicity = 1

 SCF Done:  E(RHF) =  -398.698098803     A.U. after   10 cycles
 Normal termination of Gaussian 16 at Tue Apr  8 23:11:43 2025.
 Gaussian 16:  ES64L-G16RevC.01  3-Jul-2019

 ----------------------------------------------------------------------
 #t hf aug-cc-pvdz iop(5/13=1,5/36=2,99/5=2) pseudo=read geom=check gue
 ss=(read,tcheck) scf=(maxcycle=1)
 ----------------------------------------------------------------------
 -----
 title
 -----
 Structure from the checkpoint file:  "BDE49_expt_824_mol1.chk"
 Charge =  0 Multiplicity = 1

                         Standard orientation:
 ---------------------------------------------------------------------
 Center     Atomic      Atomic             Coordinates (Angstroms)
 Number     Number       Type             X           Y           Z
 ---------------------------------------------------------------------
      1         16           0        0.000000   -0.000000    0.103135
      2          1           0        0.000000    0.971454   -0.825079
      3          1           0       -0.000000   -0.971454   -0.825079
 ---------------------------------------------------------------------

 SCF Done:  E(RHF) =  -398.719959410     A.U. after    2 cycles

 The electronic state is 1-A1.
 Alpha  occ. eigenvalues --  -93.54991  -8.84751  -6.18922  -6.18709  -6.18330
 Alpha  occ. eigenvalues --   -0.96877  -0.58921  -0.49755  -0.38307
 Alpha virt. eigenvalues --    0.03482   0.06262   0.11317   0.11832   0.12556
 Alpha virt. eigenvalues --    0.17936   0.20720   0.23710   0.27309   0.30911
 Alpha virt. eigenvalues --    0.31495   0.41281   0.46175   0.47927   0.53334

 Mulliken charges:
               1
     1  S   -0.043462
     2  H    0.021731
     3  H    0.021731
 Sum of Mulliken charges =   0.00000

 Dipole moment (field-independent basis, Debye):
    X=              0.0000    Y=             -0.0000    Z=             -1.0748  Tot=              1.0748

 Test job not archived.
 1\1\GINC-SE102\SP\RHF\Aug-CC-pVDZ\H2S1\OHZDE\08-Apr-2025\0\\#t hf aug-
 cc-pvdz iop(5/13=1,5/36=2,99/5=2) pseudo=read geom=check guess=(read,t
 check) scf=(maxcycle=1)\\title\\0,1\S,0,0.,0.,0.103135\H,0,0.,0.971454
 ,-0.825079\H,0,0.,-0.971454,-0.825079\\Version=ES64L-G16RevC.01\State=
 1-A1\HF=-398.7199594\RMSD=1.106e-02\Dipole=0.,0.,-0.422842\Quadrupole=
 -1.9700268,1.5029105,0.4671163,0.,0.,0.\PG=C02V [C2(S1),SGV(H2)]\\@

 Normal termination of Gaussian 16 at Tue Apr  8 23:11:44 2025.
