 Gaussian 16, Revision C.01,

 ----------------------------------------------------------------------
 #t hf aug-cc-pvdz symm=none int=(grid=ultrafine) guess=(read,tcheck) s
 table=opt
 ----------------------------------------------------------------------
 -----
 title
 -----
 Symbolic Z-matrix:
 Charge =  0 Multiplicity = 2

 SCF Done:  E(UHF) =  -561.308522445     A.U. after   17 cycles
 Normal termination of Gaussian 16 at Wed Apr  9 00:28:13 2025.
 Gaussian 16:  ES64L-G16RevC.01  3-Jul-2019

 ----------------------------------------------------------------------
 #t hf aug-cc-pvdz iop(5/13=1,5/36=2,99/5=2) pseudo=read geom=check gue
 ss=(read,tcheck) scf=(maxcycle=1)
 ----------------------------------------------------------------------
 -----
 title
 -----
 Structure from the checkpoint file:  "BDE49_nonexpt_349_mol2.chk"
 Charge =  0 Multiplicity = 2

                         Standard orientation:
 ---------------------------------------------------------------------
 Center     Atomic      Atomic             Coordinates (Angstroms)
 Number     Number       Type             X           Y           Z
 ---------------------------------------------------------------------
      1          9           0       -2.201958    0.166685    0.000018
      2         16           0        0.427374   -0.605375   -0.000027
      3          5           0       -0.942937    0.551621    0.000035
      4          6           0        1.868570    0.534963    0.000010
      5          1           0        2.757701   -0.095282   -0.000357
      6          1           0        1.862782    1.156354    0.893370
      7          1           0        1.862416    1.156880   -0.892981
 ---------------------------------------------------------------------

 SCF Done:  E(UHF) =  -561.392194724     A.U. after    2 cycles

 The electronic state is 2-A.
 Alpha  occ. eigenvalues --  -93.54586 -26.14674 -11.28350  -8.84564  -7.72696
 Alpha  occ. eigenvalues --   -6.18807  -6.18485  -6.18160  -1.69035  -1.04381
 Alpha  occ. eigenvalues --   -0.89660  -0.84271  -0.77125  -0.75141  -0.62864
 Alpha  occ. eigenvalues --   -0.60712  -0.54483  -0.49253  -0.38484  -0.35381
 Alpha virt. eigenvalues --    0.03507   0.04979   0.04983   0.05866   0.06994
 Alpha virt. eigenvalues --    0.07301   0.08740   0.10417   0.12391   0.13486
 Alpha virt. eigenvalues --    0.14582   0.15322   0.16949   0.17196   0.18437

  Beta  occ. eigenvalues --  -93.54504 -26.14331 -11.28293  -8.84472  -7.70716
  Beta  occ. eigenvalues --   -6.18556  -6.18243  -6.18210  -1.68043  -1.03787
  Beta  occ. eigenvalues --   -0.88733  -0.83191  -0.75037  -0.74365  -0.61711
  Beta  occ. eigenvalues --   -0.60702  -0.52926  -0.46210  -0.38584
  Beta virt. eigenvalues --    0.02669   0.04771   0.05377   0.05708   0.06961
  Beta virt. eigenvalues --    0.07128   0.07475   0.10836   0.12633   0.12938
  Beta virt. eigenvalues --    0.13763   0.16244   0.16628   0.17195   0.17620

 Mulliken charges and spin densities:
               1          2
     1  F   -0.349394  -0.043882
     2  S    0.045212   0.039794
     3  B    0.445277   1.037002
     4  C    0.102222  -0.013410
     5  H   -0.066389  -0.003826
     6  H   -0.088432  -0.007839
     7  H   -0.088497  -0.007838
 Sum of Mulliken charges =   0.00000   1.00000

 Dipole moment (field-independent basis, Debye):
    X=              2.3861    Y=              1.0044    Z=              0.0000  Tot=              2.5889
                          Isotropic Fermi Contact Couplings
        Atom                 a.u.       MegaHertz       Gauss      10(-4) cm-1
     1  F(19)              0.07110     299.15868     106.74726      99.78859
     2  S(33)              0.02348       8.06331       2.87719       2.68963
     3  B(11)              0.38091     546.36166     194.95543     182.24663
     4  C(13)              0.01717      19.30009       6.88675       6.43782
     5  H(1)              -0.00064      -2.86657      -1.02286      -0.95618
     6  H(1)              -0.00041      -1.83400      -0.65442      -0.61176
     7  H(1)              -0.00041      -1.83385      -0.65436      -0.61171
 --------------------------------------------------------

 Normal termination of Gaussian 16 at Wed Apr  9 00:28:16 2025.
