 Gaussian 16, Revision C.01,

 ----------------------------------------------------------------------
 #t hf aug-cc-pvdz symm=none int=(grid=ultrafine) guess=(read,tcheck) s
 table=(opt,rrhf)
 ----------------------------------------------------------------------
 -----
 title
 -----
 Symbolic Z-matrix:
 Charge =  0 Multiplicity = 1

 SCF Done:  E(RHF) =  -525.894464572     A.U. after   13 cycles
 Normal termination of Gaussian 16 at Wed Apr  9 00:32:23 2025.
 Gaussian 16:  ES64L-G16RevC.01  3-Jul-2019

 ----------------------------------------------------------------------
 #t hf aug-cc-pvdz iop(5/13=1,5/36=2,99/5=2) pseudo=read geom=check gue
 ss=(read,tcheck) scf=(maxcycle=1)
 ----------------------------------------------------------------------
 -----
 title
 -----
 Structure from the checkpoint file:  "BDE49_nonexpt_420_mol1.chk"
 Charge =  0 Multiplicity = 1

                         Standard orientation:
 ---------------------------------------------------------------------
 Center     Atomic      Atomic             Coordinates (Angstroms)
 Number     Number       Type             X           Y           Z
 ---------------------------------------------------------------------
      1          9           0        2.718141   -0.844091    0.197862
      2          5           0        1.664694   -0.092370   -0.059739
      3          9           0        1.843647    1.128740   -0.522037
      4          8           0        0.433321   -0.655062    0.116572
      5          6           0       -0.728554    0.061093    0.186915
      6          8           0       -0.826545    1.176198    0.607098
      7          8           0       -1.707804   -0.722176   -0.250434
      8          6           0       -3.025915   -0.138178   -0.190941
      9          1           0       -3.072621    0.754576   -0.815231
     10          1           0       -3.276965    0.123676    0.837326
     11          1           0       -3.694938   -0.907408   -0.567553
 ---------------------------------------------------------------------

 SCF Done:  E(RHF) =  -526.090217969     A.U. after    2 cycles

 The electronic state is 1-A.
 Alpha  occ. eigenvalues --  -26.15488 -26.15305 -20.64985 -20.64942 -20.59038
 Alpha  occ. eigenvalues --  -11.48032 -11.32024  -7.79469  -1.70917  -1.68802
 Alpha  occ. eigenvalues --   -1.48943  -1.38926  -1.36374  -1.01797  -0.91075
 Alpha  occ. eigenvalues --   -0.87688  -0.84484  -0.80129  -0.79061  -0.76599
 Alpha  occ. eigenvalues --   -0.74005  -0.73850  -0.73626  -0.72502  -0.65273
 Alpha  occ. eigenvalues --   -0.64481  -0.63050  -0.56992  -0.55629  -0.52139
 Alpha  occ. eigenvalues --   -0.51094
 Alpha virt. eigenvalues --    0.03153   0.05132   0.05289   0.05447   0.06207
 Alpha virt. eigenvalues --    0.06409   0.06973   0.10738   0.13100   0.13352
 Alpha virt. eigenvalues --    0.13830   0.15196   0.15325   0.16757   0.18023

 Mulliken charges:
               1
     1  F   -0.498233
     2  B    0.984886
     3  F   -0.391866
     4  O   -0.467592
     5  C    0.732640
     6  O   -0.310370
     7  O   -0.466138
     8  C    0.749067
     9  H   -0.053831
    10  H   -0.052982
    11  H   -0.225581
 Sum of Mulliken charges =  -0.00000

 Dipole moment (field-independent basis, Debye):
    X=             -2.8500    Y=             -0.9463    Z=             -0.6526  Tot=              3.0731

 Test job not archived.
 1\1\GINC-SE462\SP\RHF\Aug-CC-pVDZ\C2H3B1F2O3\OHZDE\09-Apr-2025\0\\#t h
 f aug-cc-pvdz iop(5/13=1,5/36=2,99/5=2) pseudo=read geom=check guess=(
 read,tcheck) scf=(maxcycle=1)\\title\\0,1\F,0,2.718141,-0.844091,0.197
 862\B,0,1.664694,-0.09237,-0.059739\F,0,1.843647,1.12874,-0.522037\O,0
 ,0.433321,-0.655062,0.116572\C,0,-0.728554,0.061093,0.186915\O,0,-0.82
 6545,1.176198,0.607098\O,0,-1.707804,-0.722176,-0.250434\C,0,-3.025915
 ,-0.138178,-0.190941\H,0,-3.072621,0.754576,-0.815231\H,0,-3.276965,0.
 123676,0.837326\H,0,-3.694938,-0.907408,-0.567553\\Version=ES64L-G16Re

 Normal termination of Gaussian 16 at Wed Apr  9 00:32:27 2025.
