 Gaussian 16, Revision C.01,

 ----------------------------------------------------------------------
 #t hf aug-cc-pvdz symm=none int=(grid=ultrafine) guess=(read,tcheck) s
 table=(opt,rrhf)
 ----------------------------------------------------------------------
 -----
 title
 -----
 Symbolic Z-matrix:
 Charge =  0 Multiplicity = 1

 SCF Done:  E(RHF) =  -647.634059587     A.U. after   15 cycles
 Normal termination of Gaussian 16 at Tue Apr  8 23:15:48 2025.
 Gaussian 16:  ES64L-G16RevC.01  3-Jul-2019

 ----------------------------------------------------------------------
 #t hf aug-cc-pvdz iop(5/13=1,5/36=2,99/5=2) pseudo=read geom=check gue
 ss=(read,tcheck) scf=(maxcycle=1)
 ----------------------------------------------------------------------
 -----
 title
 -----
 Structure from the checkpoint file:  "BDE49_nonexpt_1044_mol1.chk"
 Charge =  0 Multiplicity = 1

                         Standard orientation:
 ---------------------------------------------------------------------
 Center     Atomic      Atomic             Coordinates (Angstroms)
 Number     Number       Type             X           Y           Z
 ---------------------------------------------------------------------
      1         17           0       -1.292359   -0.264978    0.000000
      2          8           0        0.000000    0.904009    0.000000
      3          6           0        1.253443    0.369725    0.000000
      4          8           0        1.565871   -0.773985    0.000000
      5          1           0        1.922481    1.246085    0.000000
 ---------------------------------------------------------------------

 SCF Done:  E(RHF) =  -647.714834204     A.U. after    2 cycles

 The electronic state is 1-A'.
 Alpha  occ. eigenvalues -- -103.74250 -20.70089 -20.60570 -11.43141 -10.76874
 Alpha  occ. eigenvalues --   -8.42640  -8.42178  -8.42168  -1.45953  -1.37746
 Alpha  occ. eigenvalues --   -1.14981  -0.87240  -0.76908  -0.72111  -0.69901
 Alpha  occ. eigenvalues --   -0.61276  -0.56328  -0.51190  -0.50502  -0.48727
 Alpha virt. eigenvalues --    0.02912   0.03600   0.08032   0.08274   0.09548
 Alpha virt. eigenvalues --    0.13775   0.13981   0.14387   0.15783   0.15875
 Alpha virt. eigenvalues --    0.21171   0.23051   0.23753   0.26016   0.28752

 Mulliken charges:
               1
     1  Cl   0.330155
     2  O   -0.599204
     3  C    0.691565
     4  O   -0.321776
     5  H   -0.100739
 Sum of Mulliken charges =  -0.00000

 Dipole moment (field-independent basis, Debye):
    X=             -0.0578    Y=              1.8162    Z=              0.0000  Tot=              1.8171

 Test job not archived.
 1\1\GINC-SE083\SP\RHF\Aug-CC-pVDZ\C1H1Cl1O2\OHZDE\08-Apr-2025\0\\#t hf
  aug-cc-pvdz iop(5/13=1,5/36=2,99/5=2) pseudo=read geom=check guess=(r
 ead,tcheck) scf=(maxcycle=1)\\title\\0,1\Cl,0,-1.292359,-0.264978,0.\O
 ,0,0.,0.904009,0.\C,0,1.253443,0.369725,0.\O,0,1.565871,-0.773985,0.\H
 ,0,1.922481,1.246085,0.\\Version=ES64L-G16RevC.01\State=1-A'\HF=-647.7
 148342\RMSD=2.760e-03\Dipole=-0.0227363,0.7145501,0.\Quadrupole=1.0664
 216,-0.9657599,-0.1006617,4.820387,0.,0.\PG=CS [SG(C1H1Cl1O2)]\\@

 Normal termination of Gaussian 16 at Tue Apr  8 23:15:51 2025.
