 Gaussian 16, Revision C.01,

 ----------------------------------------------------------------------
 #t hf aug-cc-pvdz symm=none int=(grid=ultrafine) guess=(read,tcheck) s
 table=opt
 ----------------------------------------------------------------------
 -----
 title
 -----
 Symbolic Z-matrix:
 Charge =  0 Multiplicity = 2

 SCF Done:  E(UHF) =  -696.218394837     A.U. after   16 cycles

 1\1\GINC-SE118\Stability\UHF\Aug-CC-pVDZ\C1Cl1F2\OHZDE\08-Apr-2025\0\\
 #t hf aug-cc-pvdz symm=none int=(grid=ultrafine) guess=(read,tcheck) s
 table=opt\\title\\0,2\C,0,0.432369,-0.000002,0.332206\Cl,0,-1.278302,0
 .000032,-0.031587\F,0,1.063097,-1.088312,-0.080902\F,0,1.063226,1.0882
 53,-0.080904\\Version=ES64L-G16RevC.01\HF=-696.2183948\S2=0.757572\S2-
 1=0.\S2A=0.750042\RMSD=5.776e-09\Dipole=-0.1533899,-0.0000103,0.165238
 4\Quadrupole=0.3783721,-0.9105672,0.532195,-0.0000702,0.5329349,-0.000
 0123\PG=Unknown\\@

 Normal termination of Gaussian 16 at Tue Apr  8 22:27:16 2025.
 Gaussian 16:  ES64L-G16RevC.01  3-Jul-2019

 ----------------------------------------------------------------------
 #t hf aug-cc-pvdz iop(5/13=1,5/36=2,99/5=2) pseudo=read geom=check gue
 ss=(read,tcheck) scf=(maxcycle=1)
 ----------------------------------------------------------------------
 -----
 title
 -----
 Structure from the checkpoint file:  "BDE49_expt_1004_mol2.chk"
 Charge =  0 Multiplicity = 2

                         Standard orientation:
 ---------------------------------------------------------------------
 Center     Atomic      Atomic             Coordinates (Angstroms)
 Number     Number       Type             X           Y           Z
 ---------------------------------------------------------------------
      1          6           0       -0.432369    0.000002    0.332206
      2         17           0        1.278302   -0.000032   -0.031587
      3          9           0       -1.063097    1.088312   -0.080902
      4          9           0       -1.063226   -1.088253   -0.080904
 ---------------------------------------------------------------------

 SCF Done:  E(UHF) =  -696.326224310     A.U. after    2 cycles

 The electronic state is 2-A.
 Alpha  occ. eigenvalues -- -103.70871 -26.19544 -26.19534 -11.51612 -10.74209
 Alpha  occ. eigenvalues --   -8.40069  -8.39588  -8.39553  -1.77264  -1.72397
 Alpha  occ. eigenvalues --   -1.22555  -1.01402  -0.88482  -0.86798  -0.84613
 Alpha  occ. eigenvalues --   -0.79136  -0.75266  -0.67781  -0.55281  -0.51966
 Alpha  occ. eigenvalues --   -0.45596
 Alpha virt. eigenvalues --    0.07206   0.08278   0.09797   0.09902   0.11863
 Alpha virt. eigenvalues --    0.15002   0.15393   0.20357   0.24222   0.25679
 Alpha virt. eigenvalues --    0.27766   0.28685   0.30187   0.30331   0.32681

  Beta  occ. eigenvalues -- -103.70745 -26.19085 -26.19074 -11.48647 -10.74070
  Beta  occ. eigenvalues --   -8.39795  -8.39482  -8.39304  -1.75712  -1.71098
  Beta  occ. eigenvalues --   -1.20807  -0.98106  -0.87125  -0.83705  -0.80798
  Beta  occ. eigenvalues --   -0.75972  -0.74752  -0.63983  -0.51924  -0.51754
  Beta virt. eigenvalues --    0.04421   0.07765   0.09630   0.09896   0.11981
  Beta virt. eigenvalues --    0.12374   0.15104   0.15978   0.22579   0.24365
  Beta virt. eigenvalues --    0.25948   0.28117   0.29624   0.31789   0.31798

 Mulliken charges and spin densities:
               1          2
     1  C    0.546379   0.915711
     2  Cl  -0.061362   0.047162
     3  F   -0.242497   0.018563
     4  F   -0.242520   0.018564
 Sum of Mulliken charges =  -0.00000   1.00000

 Dipole moment (field-independent basis, Debye):
    X=              0.6200    Y=              0.0000    Z=              0.5269  Tot=              0.8137
                          Isotropic Fermi Contact Couplings
        Atom                 a.u.       MegaHertz       Gauss      10(-4) cm-1
     1  C(13)              0.60010     674.62204     240.72192     225.02969
     2  Cl(35)             0.08063      35.35395      12.61517      11.79281
     3  F(19)              0.07579     318.89508     113.78969     106.37195
     4  F(19)              0.07580     318.91338     113.79623     106.37805
 --------------------------------------------------------
       Center         ----  Spin Dipole Couplings  ----
                      3XX-RR        3YY-RR        3ZZ-RR
 --------------------------------------------------------

 Normal termination of Gaussian 16 at Tue Apr  8 22:27:18 2025.
