 Gaussian 16, Revision C.01,

 ----------------------------------------------------------------------
 #t hf aug-cc-pvdz symm=none int=(grid=ultrafine) guess=(read,tcheck) s
 table=(opt,rrhf)
 ----------------------------------------------------------------------
 -----
 title
 -----
 Symbolic Z-matrix:
 Charge =  0 Multiplicity = 1

 SCF Done:  E(RHF) =  -388.329300943     A.U. after   11 cycles

 1\1\GINC-SE457\Stability\RHF\Aug-CC-pVDZ\C8H18O1\OHZDE\08-Apr-2025\0\\
 #t hf aug-cc-pvdz symm=none int=(grid=ultrafine) guess=(read,tcheck) s
 table=(opt,rrhf)\\title\\0,1\O,0,0.74656,0.211348,0.\C,0,1.423547,-0.1
 74107,-1.185654\C,0,0.625392,0.296649,-2.39312\H,0,1.546295,-1.269531,
 -1.209904\H,0,2.431748,0.268893,-1.20046\C,0,-0.75507,-0.356861,-2.519
 861\H,0,1.217391,0.091457,-3.293741\H,0,0.515058,1.385355,-2.330222\C,
 0,-1.543946,0.144581,-3.732278\H,0,-1.320647,-0.166892,-1.603623\H,0,-
 0.631794,-1.445049,-2.586614\H,0,-1.710509,1.224865,-3.675396\H,0,-2.5

 Normal termination of Gaussian 16 at Tue Apr  8 22:53:12 2025.
 Gaussian 16:  ES64L-G16RevC.01  3-Jul-2019

 ----------------------------------------------------------------------
 #t hf aug-cc-pvdz iop(5/13=1,5/36=2,99/5=2) pseudo=read geom=check gue
 ss=(read,tcheck) scf=(maxcycle=1)
 ----------------------------------------------------------------------
 -----
 title
 -----
 Structure from the checkpoint file:  "BDE49_expt_179_mol1.chk"
 Charge =  0 Multiplicity = 1

                         Standard orientation:
 ---------------------------------------------------------------------
 Center     Atomic      Atomic             Coordinates (Angstroms)
 Number     Number       Type             X           Y           Z
 ---------------------------------------------------------------------
      1          8           0       -0.746560    0.211348   -0.000000
      2          6           0       -1.423547   -0.174107    1.185654
      3          6           0       -0.625392    0.296649    2.393120
      4          1           0       -1.546295   -1.269531    1.209904
      5          1           0       -2.431748    0.268893    1.200460
      6          6           0        0.755070   -0.356861    2.519861
      7          1           0       -1.217391    0.091457    3.293741
      8          1           0       -0.515058    1.385355    2.330222
      9          6           0        1.543946    0.144581    3.732278
     10          1           0        1.320647   -0.166892    1.603623
     11          1           0        0.631794   -1.445049    2.586614
     12          1           0        1.710509    1.224865    3.675396
     13          1           0        2.522837   -0.338083    3.798318
     14          1           0        1.010481   -0.057986    4.666714
     15          6           0       -1.423547   -0.174107   -1.185654
     16          6           0       -0.625392    0.296649   -2.393120
     17          1           0       -2.431748    0.268893   -1.200460
     18          1           0       -1.546295   -1.269531   -1.209904
     19          6           0        0.755070   -0.356861   -2.519861
     20          1           0       -0.515058    1.385355   -2.330222
     21          1           0       -1.217391    0.091457   -3.293741
     22          6           0        1.543946    0.144581   -3.732278
     23          1           0        0.631794   -1.445049   -2.586614
     24          1           0        1.320647   -0.166892   -1.603623
     25          1           0        1.010481   -0.057986   -4.666714
     26          1           0        2.522837   -0.338083   -3.798318
     27          1           0        1.710509    1.224865   -3.675396
 ---------------------------------------------------------------------

 SCF Done:  E(RHF) =  -388.454339873     A.U. after    2 cycles

 The electronic state is 1-A'.
 Alpha  occ. eigenvalues --  -20.56276 -11.28028 -11.28000 -11.22492 -11.22489
 Alpha  occ. eigenvalues --  -11.22173 -11.22172 -11.21876 -11.21876  -1.32733
 Alpha  occ. eigenvalues --   -1.06921  -1.04725  -0.98651  -0.94732  -0.86040
 Alpha  occ. eigenvalues --   -0.84545  -0.78679  -0.78657  -0.67567  -0.67255
 Alpha  occ. eigenvalues --   -0.62935  -0.61590  -0.61215  -0.58420  -0.57112
 Alpha  occ. eigenvalues --   -0.55574  -0.53414  -0.52129  -0.51441  -0.50859
 Alpha  occ. eigenvalues --   -0.48212  -0.46966  -0.46543  -0.46305  -0.45794
 Alpha  occ. eigenvalues --   -0.45670  -0.42485
 Alpha virt. eigenvalues --    0.03572   0.04020   0.04190   0.04542   0.05284
 Alpha virt. eigenvalues --    0.05581   0.05964   0.06322   0.06671   0.07307
 Alpha virt. eigenvalues --    0.07934   0.08096   0.08472   0.09330   0.09838

 Mulliken charges:
               1
     1  O   -0.591957
     2  C    0.472804
     3  C    0.272770
     4  H   -0.193872
     5  H   -0.151462
     6  C    0.208093
     7  H   -0.103615
     8  H   -0.126167
     9  C    0.472292
    10  H   -0.160505
    11  H   -0.168572
    12  H   -0.067115
    13  H   -0.060637
    14  H   -0.098035
    15  C    0.472804
    16  C    0.272770
    17  H   -0.151462
    18  H   -0.193872
    19  C    0.208093
    20  H   -0.126167
    21  H   -0.103615
    22  C    0.472292
    23  H   -0.168572
    24  H   -0.160505
    25  H   -0.098035
    26  H   -0.060637
    27  H   -0.067115
 Sum of Mulliken charges =  -0.00000

 Dipole moment (field-independent basis, Debye):
    X=             -1.0736    Y=             -0.6424    Z=             -0.0000  Tot=              1.2512

 Test job not archived.
 1\1\GINC-SE457\SP\RHF\Aug-CC-pVDZ\C8H18O1\OHZDE\08-Apr-2025\0\\#t hf a
 ug-cc-pvdz iop(5/13=1,5/36=2,99/5=2) pseudo=read geom=check guess=(rea
 d,tcheck) scf=(maxcycle=1)\\title\\0,1\O,0,0.74656,0.211348,0.\C,0,1.4
 23547,-0.174107,-1.185654\C,0,0.625392,0.296649,-2.39312\H,0,1.546295,
 -1.269531,-1.209904\H,0,2.431748,0.268893,-1.20046\C,0,-0.75507,-0.356
 861,-2.519861\H,0,1.217391,0.091457,-3.293741\H,0,0.515058,1.385355,-2
 .330222\C,0,-1.543946,0.144581,-3.732278\H,0,-1.320647,-0.166892,-1.60
 3623\H,0,-0.631794,-1.445049,-2.586614\H,0,-1.710509,1.224865,-3.67539

 Normal termination of Gaussian 16 at Tue Apr  8 22:53:21 2025.
