 Gaussian 16, Revision C.01,

 ----------------------------------------------------------------------
 #t hf aug-cc-pvdz symm=none int=(grid=ultrafine) guess=(read,tcheck) s
 table=(opt,rrhf)
 ----------------------------------------------------------------------
 -----
 title
 -----
 Symbolic Z-matrix:
 Charge =  0 Multiplicity = 1

 SCF Done:  E(RHF) =  -877.273292224     A.U. after   16 cycles
 Normal termination of Gaussian 16 at Tue Apr  8 22:49:23 2025.
 Gaussian 16:  ES64L-G16RevC.01  3-Jul-2019

 ----------------------------------------------------------------------
 #t hf aug-cc-pvdz iop(5/13=1,5/36=2,99/5=2) pseudo=read geom=check gue
 ss=(read,tcheck) scf=(maxcycle=1)
 ----------------------------------------------------------------------
 -----
 title
 -----
 Structure from the checkpoint file:  "BDE49_expt_1720_mol1.chk"
 Charge =  0 Multiplicity = 1

                         Standard orientation:
 ---------------------------------------------------------------------
 Center     Atomic      Atomic             Coordinates (Angstroms)
 Number     Number       Type             X           Y           Z
 ---------------------------------------------------------------------
      1          6           0        3.367264    0.104375    0.039889
      2          6           0        2.547214    1.191269   -0.253606
      3          6           0        1.164780    1.037865   -0.345456
      4          6           0        2.803945   -1.154003    0.242423
      5          6           0        1.425464   -1.324903    0.155846
      6          6           0        0.627342   -0.225408   -0.132100
      7          1           0        4.440408    0.237131    0.108883
      8          1           0        2.980317    2.171535   -0.414308
      9          1           0        0.528124    1.882369   -0.564263
     10          1           0        3.434590   -2.005750    0.468236
     11          1           0        0.960722   -2.291548    0.303327
     12          8           0       -0.747962   -0.515589   -0.273040
     13          6           0       -1.675549    0.332619    0.174504
     14          8           0       -1.545661    1.386513    0.698374
     15         17           0       -3.268113   -0.396001   -0.152562
 ---------------------------------------------------------------------

 SCF Done:  E(RHF) =  -877.420468125     A.U. after    2 cycles

 The electronic state is 1-A.
 Alpha  occ. eigenvalues -- -103.68970 -20.66828 -20.60891 -11.48107 -11.33737
 Alpha  occ. eigenvalues --  -11.26662 -11.26622 -11.26542 -11.26508 -11.26056
 Alpha  occ. eigenvalues --  -10.72266  -8.37989  -8.37669  -8.37653  -1.47553
 Alpha  occ. eigenvalues --   -1.38969  -1.18875  -1.16103  -1.04060  -1.03470
 Alpha  occ. eigenvalues --   -0.91107  -0.86108  -0.80605  -0.75021  -0.74120
 Alpha  occ. eigenvalues --   -0.71263  -0.70687  -0.65726  -0.63822  -0.61756
 Alpha  occ. eigenvalues --   -0.60981  -0.56797  -0.55019  -0.52495  -0.51583
 Alpha  occ. eigenvalues --   -0.50860  -0.49403  -0.48586  -0.36126  -0.35543
 Alpha virt. eigenvalues --    0.03084   0.03837   0.04421   0.05930   0.06200
 Alpha virt. eigenvalues --    0.08237   0.08705   0.09146   0.10172   0.10918
 Alpha virt. eigenvalues --    0.11544   0.12120   0.12360   0.13175   0.13390

 Mulliken charges:
               1
     1  C    0.425945
     2  C    0.674226
     3  C    0.309617
     4  C    0.817252
     5  C    0.196262
     6  C    0.546105
     7  H   -0.438724
     8  H   -0.428777
     9  H   -0.573382
    10  H   -0.416396
    11  H   -0.481314
    12  O   -0.503966
    13  C    0.218796
    14  O   -0.279014
    15  Cl  -0.066629
 Sum of Mulliken charges =  -0.00000

 Dipole moment (field-independent basis, Debye):
    X=              2.6903    Y=             -1.0433    Z=             -0.5844  Tot=              2.9441

 Test job not archived.
 1\1\GINC-SE343\SP\RHF\Aug-CC-pVDZ\C7H5Cl1O2\OHZDE\08-Apr-2025\0\\#t hf
  aug-cc-pvdz iop(5/13=1,5/36=2,99/5=2) pseudo=read geom=check guess=(r
 ead,tcheck) scf=(maxcycle=1)\\title\\0,1\C,0,3.367264,0.104375,0.03988
 9\C,0,2.547214,1.191269,-0.253606\C,0,1.16478,1.037865,-0.345456\C,0,2
 .803945,-1.154003,0.242423\C,0,1.425464,-1.324903,0.155846\C,0,0.62734
 2,-0.225408,-0.1321\H,0,4.440408,0.237131,0.108883\H,0,2.980317,2.1715
 35,-0.414308\H,0,0.528124,1.882369,-0.564263\H,0,3.43459,-2.00575,0.46
 8236\H,0,0.960722,-2.291548,0.303327\O,0,-0.747962,-0.515589,-0.27304\

 Normal termination of Gaussian 16 at Tue Apr  8 22:49:30 2025.
