 Gaussian 16, Revision C.01,

 ----------------------------------------------------------------------
 #t hf aug-cc-pvdz symm=none int=(grid=ultrafine) guess=(read,tcheck) s
 table=(opt,rrhf)
 ----------------------------------------------------------------------
 -----
 title
 -----
 Symbolic Z-matrix:
 Charge =  0 Multiplicity = 1

 SCF Done:  E(RHF) =  -738.323642651     A.U. after   15 cycles

 1\1\GINC-SE453\Stability\RHF\Aug-CC-pVDZ\Cl1N1O3\OHZDE\08-Apr-2025\0\\
 #t hf aug-cc-pvdz symm=none int=(grid=ultrafine) guess=(read,tcheck) s
 table=(opt,rrhf)\\title\\0,1\Cl,0,1.672665,0.031893,0.000075\O,0,0.187
 716,-0.81948,-0.000134\N,0,-1.028777,0.090926,-0.000037\O,0,-0.838831,
 1.261463,-0.000049\O,0,-2.003119,-0.589317,0.000058\\Version=ES64L-G16
 RevC.01\HF=-738.3236427\RMSD=6.155e-09\Dipole=0.5456707,0.1033637,0.00
 00177\Quadrupole=0.5948664,-1.4919019,0.8970355,0.2914795,0.0003819,0.
 0000968\PG=Unknown\\@

 Normal termination of Gaussian 16 at Tue Apr  8 22:50:31 2025.
 Gaussian 16:  ES64L-G16RevC.01  3-Jul-2019

 ----------------------------------------------------------------------
 #t hf aug-cc-pvdz iop(5/13=1,5/36=2,99/5=2) pseudo=read geom=check gue
 ss=(read,tcheck) scf=(maxcycle=1)
 ----------------------------------------------------------------------
 -----
 title
 -----
 Structure from the checkpoint file:  "BDE49_expt_1789_mol1.chk"
 Charge =  0 Multiplicity = 1

                         Standard orientation:
 ---------------------------------------------------------------------
 Center     Atomic      Atomic             Coordinates (Angstroms)
 Number     Number       Type             X           Y           Z
 ---------------------------------------------------------------------
      1         17           0       -1.672665    0.031893   -0.000075
      2          8           0       -0.187716   -0.819480    0.000134
      3          7           0        1.028777    0.090926    0.000037
      4          8           0        0.838831    1.261463    0.000049
      5          8           0        2.003119   -0.589317   -0.000058
 ---------------------------------------------------------------------

 SCF Done:  E(RHF) =  -738.431255566     A.U. after    2 cycles

 The electronic state is 1-A.
 Alpha  occ. eigenvalues -- -103.75866 -20.74081 -20.69274 -20.68719 -16.02437
 Alpha  occ. eigenvalues --  -10.78509  -8.44281  -8.43823  -8.43791  -1.64711
 Alpha  occ. eigenvalues --   -1.47041  -1.41274  -1.14944  -0.93312  -0.84853
 Alpha  occ. eigenvalues --   -0.81802  -0.81089  -0.67503  -0.66247  -0.58955
 Alpha  occ. eigenvalues --   -0.57344  -0.54558  -0.51181  -0.50022
 Alpha virt. eigenvalues --    0.02223   0.06081   0.08289   0.10808   0.11255
 Alpha virt. eigenvalues --    0.11924   0.13983   0.14604   0.16837   0.17064
 Alpha virt. eigenvalues --    0.21727   0.22656   0.24390   0.25370   0.26630

 Mulliken charges:
               1
     1  Cl   0.404796
     2  O   -0.573873
     3  N    0.871922
     4  O   -0.337430
     5  O   -0.365416
 Sum of Mulliken charges =   0.00000

 Dipole moment (field-independent basis, Debye):
    X=             -1.5139    Y=              0.3176    Z=             -0.0001  Tot=              1.5469

 Test job not archived.
 1\1\GINC-SE453\SP\RHF\Aug-CC-pVDZ\Cl1N1O3\OHZDE\08-Apr-2025\0\\#t hf a
 ug-cc-pvdz iop(5/13=1,5/36=2,99/5=2) pseudo=read geom=check guess=(rea
 d,tcheck) scf=(maxcycle=1)\\title\\0,1\Cl,0,1.672665,0.031893,0.000075
 \O,0,0.187716,-0.81948,-0.000134\N,0,-1.028777,0.090926,-0.000037\O,0,
 -0.838831,1.261463,-0.000049\O,0,-2.003119,-0.589317,0.000058\\Version
 =ES64L-G16RevC.01\State=1-A\HF=-738.4312556\RMSD=3.882e-03\Dipole=0.59
 56135,0.1249575,0.0000203\Quadrupole=0.6335812,-1.6864855,1.0529042,0.
 2919911,0.0004237,0.0000968\PG=C01 [X(Cl1N1O3)]\\@

 Normal termination of Gaussian 16 at Tue Apr  8 22:50:33 2025.
