 Gaussian 16, Revision C.01,

 ----------------------------------------------------------------------
 #t hf aug-cc-pvdz symm=none int=(grid=ultrafine) guess=(read,tcheck) s
 table=(opt,rrhf)
 ----------------------------------------------------------------------
 -----
 title
 -----
 Symbolic Z-matrix:
 Charge =  0 Multiplicity = 1

 SCF Done:  E(RHF) =  -247.023684769     A.U. after   13 cycles
 Normal termination of Gaussian 16 at Tue Apr  8 22:38:29 2025.
 Gaussian 16:  ES64L-G16RevC.01  3-Jul-2019

 ----------------------------------------------------------------------
 #t hf aug-cc-pvdz iop(5/13=1,5/36=2,99/5=2) pseudo=read geom=check gue
 ss=(read,tcheck) scf=(maxcycle=1)
 ----------------------------------------------------------------------
 -----
 title
 -----
 Structure from the checkpoint file:  "BDE49_expt_1318_mol1.chk"
 Charge =  0 Multiplicity = 1

                         Standard orientation:
 ---------------------------------------------------------------------
 Center     Atomic      Atomic             Coordinates (Angstroms)
 Number     Number       Type             X           Y           Z
 ---------------------------------------------------------------------
      1          6           0        0.862724   -0.648994   -0.000000
      2          7           0       -0.347136   -0.018344   -0.000000
      3          6           0       -1.594134   -0.756623    0.000002
      4          1           0       -2.192376   -0.521638   -0.887799
      5          1           0       -2.192373   -0.521639    0.887804
      6          1           0       -1.384970   -1.827742   -0.000000
      7          8           0        1.947249   -0.103637   -0.000002
      8          6           0       -0.411949    1.433464    0.000001
      9          1           0        0.607292    1.815134   -0.000002
     10          1           0       -0.937788    1.798215    0.889184
     11          1           0       -0.937794    1.798215   -0.889179
     12          1           0        0.750125   -1.750126   -0.000002
 ---------------------------------------------------------------------

 SCF Done:  E(RHF) =  -247.104762718     A.U. after    2 cycles

 The electronic state is 1-A.
 Alpha  occ. eigenvalues --  -20.53663 -15.65767 -11.36083 -11.28840 -11.27152
 Alpha  occ. eigenvalues --   -1.34546  -1.22018  -0.98323  -0.94431  -0.77917
 Alpha  occ. eigenvalues --   -0.70745  -0.66414  -0.65980  -0.59144  -0.57126
 Alpha  occ. eigenvalues --   -0.57000  -0.54354  -0.54251  -0.44357  -0.37848
 Alpha virt. eigenvalues --    0.02811   0.04077   0.04668   0.05220   0.07439
 Alpha virt. eigenvalues --    0.07648   0.08001   0.10099   0.10865   0.12887
 Alpha virt. eigenvalues --    0.14015   0.14728   0.15630   0.16205   0.16329

 Mulliken charges:
               1
     1  C    0.537214
     2  N   -0.335303
     3  C    0.701074
     4  H   -0.096672
     5  H   -0.096674
     6  H   -0.239662
     7  O   -0.479073
     8  C    0.702535
     9  H   -0.224119
    10  H   -0.099958
    11  H   -0.099957
    12  H   -0.269404
 Sum of Mulliken charges =  -0.00000

 Dipole moment (field-independent basis, Debye):
    X=             -4.4723    Y=             -0.7591    Z=              0.0000  Tot=              4.5362

 Test job not archived.
 1\1\GINC-SE071\SP\RHF\Aug-CC-pVDZ\C3H7N1O1\OHZDE\08-Apr-2025\0\\#t hf
 aug-cc-pvdz iop(5/13=1,5/36=2,99/5=2) pseudo=read geom=check guess=(re
 ad,tcheck) scf=(maxcycle=1)\\title\\0,1\C,0,0.862724,-0.648994,0.\N,0,
 -0.347136,-0.018344,0.\C,0,-1.594134,-0.756623,0.000002\H,0,-2.192376,
 -0.521639,-0.887799\H,0,-2.192373,-0.52164,0.887804\H,0,-1.38497,-1.82
 7742,0.\O,0,1.947249,-0.103636,-0.000002\C,0,-0.411949,1.433464,0.0000
 01\H,0,0.607291,1.815134,-0.000002\H,0,-0.937789,1.798215,0.889184\H,0
 ,-0.937795,1.798215,-0.889179\H,0,0.750125,-1.750126,-0.000002\\Versio

 Normal termination of Gaussian 16 at Tue Apr  8 22:38:32 2025.
