 Gaussian 16, Revision C.01,

 ----------------------------------------------------------------------
 #t hf aug-cc-pvdz symm=none int=(grid=ultrafine) guess=(read,tcheck) s
 table=(opt,rrhf)
 ----------------------------------------------------------------------
 -----
 title
 -----
 Symbolic Z-matrix:
 Charge =  0 Multiplicity = 1

 SCF Done:  E(RHF) =  -477.653082946     A.U. after   15 cycles
 Normal termination of Gaussian 16 at Tue Apr  8 23:22:04 2025.
 Gaussian 16:  ES64L-G16RevC.01  3-Jul-2019

 ----------------------------------------------------------------------
 #t hf aug-cc-pvdz iop(5/13=1,5/36=2,99/5=2) pseudo=read geom=check gue
 ss=(read,tcheck) scf=(maxcycle=1)
 ----------------------------------------------------------------------
 -----
 title
 -----
 Structure from the checkpoint file:  "BDE49_nonexpt_1182_mol1.chk"
 Charge =  0 Multiplicity = 1

                         Standard orientation:
 ---------------------------------------------------------------------
 Center     Atomic      Atomic             Coordinates (Angstroms)
 Number     Number       Type             X           Y           Z
 ---------------------------------------------------------------------
      1          9           0        0.000142    1.555644    1.217589
      2          7           0       -1.118787   -0.558659   -0.385985
      3          7           0        1.118723   -0.558721   -0.386007
      4          6           0       -0.000015    0.224922   -0.774070
      5          6           0       -0.669292   -1.530609    0.533304
      6          1           0       -1.364619   -2.181236    1.035718
      7          6           0        0.669192   -1.530636    0.533302
      8          1           0        1.364495   -2.181292    1.035711
      9          6           0       -2.436741    0.045581   -0.312791
     10          1           0       -2.520240    0.767707    0.507281
     11          1           0       -3.179365   -0.742602   -0.176130
     12          6           0        2.436710    0.045450   -0.312842
     13          1           0        3.179294   -0.742772   -0.176190
     14          1           0        2.520264    0.767576    0.507223
     15          1           0        2.657773    0.559027   -1.251114
     16          8           0        0.000032    1.616648   -0.244757
     17          1           0       -0.000017    0.553852   -1.829164
     18          1           0       -2.657794    0.559175   -1.251056
 ---------------------------------------------------------------------

 SCF Done:  E(RHF) =  -477.804720071     A.U. after    2 cycles

 The electronic state is 1-A.
 Alpha  occ. eigenvalues --  -26.13643 -20.68131 -15.64396 -15.64390 -11.38198
 Alpha  occ. eigenvalues --  -11.27250 -11.27250 -11.26796 -11.26639  -1.63548
 Alpha  occ. eigenvalues --   -1.33178  -1.25353  -1.17478  -1.02723  -0.97616
 Alpha  occ. eigenvalues --   -0.91407  -0.82340  -0.80537  -0.75381  -0.73955
 Alpha  occ. eigenvalues --   -0.72928  -0.68258  -0.65090  -0.62992  -0.61154
 Alpha  occ. eigenvalues --   -0.60645  -0.58756  -0.57631  -0.57269  -0.55482
 Alpha  occ. eigenvalues --   -0.54449  -0.51809  -0.48553  -0.40570  -0.28285
 Alpha virt. eigenvalues --    0.03373   0.03510   0.03725   0.05619   0.06011
 Alpha virt. eigenvalues --    0.06383   0.07332   0.08266   0.08412   0.10228
 Alpha virt. eigenvalues --    0.12092   0.12143   0.12623   0.13285   0.14365

 Mulliken charges:
               1
     1  F   -0.434150
     2  N   -0.606058
     3  N   -0.606067
     4  C    1.308648
     5  C    0.599372
     6  H   -0.423101
     7  C    0.599405
     8  H   -0.423111
     9  C    0.763704
    10  H   -0.030732
    11  H   -0.225620
    12  C    0.763706
    13  H   -0.225621
    14  H   -0.030727
    15  H   -0.176010
    16  O   -0.339613
    17  H   -0.338018
    18  H   -0.176008
 Sum of Mulliken charges =  -0.00000

 Dipole moment (field-independent basis, Debye):
    X=             -0.0002    Y=             -1.7804    Z=             -1.4356  Tot=              2.2871

 Test job not archived.
 1\1\GINC-SE218\SP\RHF\Aug-CC-pVDZ\C5H9F1N2O1\OHZDE\08-Apr-2025\0\\#t h
 f aug-cc-pvdz iop(5/13=1,5/36=2,99/5=2) pseudo=read geom=check guess=(
 read,tcheck) scf=(maxcycle=1)\\title\\0,1\F,0,0.000142,1.555644,1.2175
 89\N,0,-1.118787,-0.558659,-0.385985\N,0,1.118723,-0.558721,-0.386007\
 C,0,-0.000015,0.224922,-0.77407\C,0,-0.669292,-1.530609,0.533304\H,0,-
 1.364619,-2.181236,1.035718\C,0,0.669192,-1.530636,0.533302\H,0,1.3644
 95,-2.181292,1.035711\C,0,-2.436741,0.045581,-0.312791\H,0,-2.52024,0.
 767707,0.507281\H,0,-3.179365,-0.742602,-0.17613\C,0,2.43671,0.045449,

 Normal termination of Gaussian 16 at Tue Apr  8 23:22:12 2025.
