 Gaussian 16, Revision C.01,

 ----------------------------------------------------------------------
 #t hf aug-cc-pvdz symm=none int=(grid=ultrafine) guess=(read,tcheck) s
 table=(opt,rrhf)
 ----------------------------------------------------------------------
 -----
 title
 -----
 Symbolic Z-matrix:
 Charge =  0 Multiplicity = 1

 SCF Done:  E(RHF) =  -306.947593474     A.U. after   13 cycles

 1\1\GINC-SE094\Stability\RHF\Aug-CC-pVDZ\C4H10O2\OHZDE\08-Apr-2025\0\\
 #t hf aug-cc-pvdz symm=none int=(grid=ultrafine) guess=(read,tcheck) s
 table=(opt,rrhf)\\title\\0,1\C,0,-2.927775,-0.197327,0.134159\C,0,-1.5
 89199,0.520653,0.194771\H,0,-2.891323,-1.136356,0.690702\H,0,-3.200219
 ,-0.418322,-0.899874\H,0,-3.706285,0.433367,0.570563\C,0,1.589199,-0.5
 20652,0.194772\C,0,2.927775,0.197327,0.134158\H,0,3.706285,-0.433365,0
 .570563\H,0,2.891323,1.136357,0.6907\H,0,3.200219,0.418321,-0.899875\O
 ,0,-0.635962,-0.355448,-0.399864\O,0,0.635962,0.355447,-0.399864\H,0,-

 Normal termination of Gaussian 16 at Tue Apr  8 22:42:50 2025.
 Gaussian 16:  ES64L-G16RevC.01  3-Jul-2019

 ----------------------------------------------------------------------
 #t hf aug-cc-pvdz iop(5/13=1,5/36=2,99/5=2) pseudo=read geom=check gue
 ss=(read,tcheck) scf=(maxcycle=1)
 ----------------------------------------------------------------------
 -----
 title
 -----
 Structure from the checkpoint file:  "BDE49_expt_1473_mol1.chk"
 Charge =  0 Multiplicity = 1

                         Standard orientation:
 ---------------------------------------------------------------------
 Center     Atomic      Atomic             Coordinates (Angstroms)
 Number     Number       Type             X           Y           Z
 ---------------------------------------------------------------------
      1          6           0       -2.927775   -0.197327    0.134159
      2          6           0       -1.589199    0.520653    0.194771
      3          1           0       -2.891323   -1.136356    0.690702
      4          1           0       -3.200219   -0.418322   -0.899874
      5          1           0       -3.706285    0.433367    0.570563
      6          6           0        1.589199   -0.520652    0.194772
      7          6           0        2.927775    0.197327    0.134158
      8          1           0        3.706285   -0.433365    0.570563
      9          1           0        2.891323    1.136357    0.690700
     10          1           0        3.200219    0.418321   -0.899875
     11          8           0       -0.635962   -0.355448   -0.399864
     12          8           0        0.635962    0.355447   -0.399864
     13          1           0       -1.298963    0.740635    1.229371
     14          1           0       -1.618588    1.461966   -0.365430
     15          1           0        1.298963   -0.740633    1.229372
     16          1           0        1.618588   -1.461967   -0.365428
 ---------------------------------------------------------------------

 SCF Done:  E(RHF) =  -307.048544399     A.U. after    2 cycles

 The electronic state is 1-A.
 Alpha  occ. eigenvalues --  -20.62515 -20.62487 -11.28860 -11.28859 -11.23158
 Alpha  occ. eigenvalues --  -11.23158  -1.41328  -1.21703  -1.01678  -0.98130
 Alpha  occ. eigenvalues --   -0.84542  -0.83800  -0.69600  -0.69031  -0.66787
 Alpha  occ. eigenvalues --   -0.62377  -0.58686  -0.56427  -0.54599  -0.52492
 Alpha  occ. eigenvalues --   -0.52443  -0.51986  -0.48996  -0.47351  -0.43960
 Alpha virt. eigenvalues --    0.03588   0.04353   0.04806   0.05041   0.06196
 Alpha virt. eigenvalues --    0.06310   0.06360   0.07909   0.08107   0.08803
 Alpha virt. eigenvalues --    0.12250   0.13271   0.14011   0.14342   0.15700

 Mulliken charges:
               1
     1  C    0.161520
     2  C    0.795842
     3  H   -0.051388
     4  H   -0.039537
     5  H   -0.024969
     6  C    0.795839
     7  C    0.161522
     8  H   -0.024971
     9  H   -0.051387
    10  H   -0.039538
    11  O   -0.470374
    12  O   -0.470374
    13  H   -0.195792
    14  H   -0.175302
    15  H   -0.195793
    16  H   -0.175299
 Sum of Mulliken charges =  -0.00000

 Dipole moment (field-independent basis, Debye):
    X=             -0.0000    Y=              0.0000    Z=              1.4903  Tot=              1.4903

 Test job not archived.
 1\1\GINC-SE094\SP\RHF\Aug-CC-pVDZ\C4H10O2\OHZDE\08-Apr-2025\0\\#t hf a
 ug-cc-pvdz iop(5/13=1,5/36=2,99/5=2) pseudo=read geom=check guess=(rea
 d,tcheck) scf=(maxcycle=1)\\title\\0,1\C,0,-2.927775,-0.197327,0.13415
 9\C,0,-1.589199,0.520653,0.194771\H,0,-2.891323,-1.136356,0.690702\H,0
 ,-3.200219,-0.418322,-0.899874\H,0,-3.706285,0.433367,0.570563\C,0,1.5
 89199,-0.520652,0.194772\C,0,2.927775,0.197327,0.134158\H,0,3.706285,-
 0.433365,0.570563\H,0,2.891323,1.136357,0.6907\H,0,3.200219,0.418321,-
 0.899875\O,0,-0.635962,-0.355448,-0.399864\O,0,0.635962,0.355447,-0.39

 Normal termination of Gaussian 16 at Tue Apr  8 22:42:54 2025.
