 Gaussian 16, Revision C.01,

 ----------------------------------------------------------------------
 #t hf aug-cc-pvdz symm=none int=(grid=ultrafine) guess=(read,tcheck) s
 table=(opt,rrhf)
 ----------------------------------------------------------------------
 -----
 title
 -----
 Symbolic Z-matrix:
 Charge =  0 Multiplicity = 1

 SCF Done:  E(RHF) =  -743.979748361     A.U. after   14 cycles
 Normal termination of Gaussian 16 at Tue Apr  8 23:52:23 2025.
 Gaussian 16:  ES64L-G16RevC.01  3-Jul-2019

 ----------------------------------------------------------------------
 #t hf aug-cc-pvdz iop(5/13=1,5/36=2,99/5=2) pseudo=read geom=check gue
 ss=(read,tcheck) scf=(maxcycle=1)
 ----------------------------------------------------------------------
 -----
 title
 -----
 Structure from the checkpoint file:  "BDE49_nonexpt_1893_mol1.chk"
 Charge =  0 Multiplicity = 1

                         Standard orientation:
 ---------------------------------------------------------------------
 Center     Atomic      Atomic             Coordinates (Angstroms)
 Number     Number       Type             X           Y           Z
 ---------------------------------------------------------------------
      1         14           0       -0.596920   -1.601507   -0.129007
      2          6           0        0.941442   -1.141255    0.908941
      3          6           0        1.673190    0.074721    0.391860
      4          8           0        1.161509    1.194008    0.419106
      5          7           0        2.909159   -0.142851   -0.128599
      6          6           0       -1.991938   -0.286671   -0.198326
      7          1           0       -1.180699   -2.818352    0.472392
      8          1           0       -0.167745   -1.894794   -1.516395
      9          8           0       -3.074804   -0.699631   -0.608158
     10          7           0       -1.747505    0.988380    0.188978
     11          6           0        3.722645    0.915430   -0.707061
     12          1           0        3.280456   -1.078405   -0.104250
     13          1           0        3.976372    0.688023   -1.745873
     14          1           0        4.645475    1.059098   -0.137970
     15          1           0        3.138846    1.833111   -0.673298
     16          6           0       -2.758676    2.032753    0.109438
     17          1           0       -0.786352    1.240137    0.412459
     18          1           0       -3.703861    1.566691   -0.164081
     19          1           0       -2.496964    2.778010   -0.648129
     20          1           0       -2.868668    2.536839    1.073337
     21          1           0        1.587241   -2.022198    0.980380
     22          1           0        0.587590   -0.910655    1.918176
 ---------------------------------------------------------------------

 SCF Done:  E(RHF) =  -744.145422179     A.U. after    2 cycles

 The electronic state is 1-A.
 Alpha  occ. eigenvalues --  -69.07984 -20.55051 -20.52451 -15.66968 -15.63279
 Alpha  occ. eigenvalues --  -11.38691 -11.33704 -11.28376 -11.25694 -11.25576
 Alpha  occ. eigenvalues --   -6.83239  -3.94025  -3.93989  -3.93980  -1.36251
 Alpha  occ. eigenvalues --   -1.32489  -1.21393  -1.17763  -1.02650  -0.94518
 Alpha  occ. eigenvalues --   -0.93548  -0.80999  -0.77900  -0.74098  -0.71268
 Alpha  occ. eigenvalues --   -0.67756  -0.65426  -0.63695  -0.63372  -0.61006
 Alpha  occ. eigenvalues --   -0.60686  -0.58938  -0.56454  -0.55936  -0.54122
 Alpha  occ. eigenvalues --   -0.53622  -0.53480  -0.48603  -0.47027  -0.45301
 Alpha  occ. eigenvalues --   -0.41493  -0.39283  -0.37712
 Alpha virt. eigenvalues --    0.02167   0.03480   0.03952   0.04238   0.05334
 Alpha virt. eigenvalues --    0.05819   0.06060   0.06892   0.06938   0.08172
 Alpha virt. eigenvalues --    0.08419   0.09104   0.09349   0.10392   0.11217

 Mulliken charges:
               1
     1  Si   0.374206
     2  C    0.167574
     3  C    0.461778
     4  O   -0.624554
     5  N   -0.298139
     6  C    0.364286
     7  H    0.081628
     8  H    0.100971
     9  O   -0.612535
    10  N   -0.302362
    11  C    0.766131
    12  H   -0.101882
    13  H   -0.137507
    14  H   -0.140654
    15  H   -0.158490
    16  C    0.803067
    17  H   -0.024860
    18  H   -0.191359
    19  H   -0.106674
    20  H   -0.127427
    21  H   -0.277767
    22  H   -0.015431
 Sum of Mulliken charges =  -0.00000

 Dipole moment (field-independent basis, Debye):
    X=              6.4898    Y=             -0.6389    Z=              1.0979  Tot=              6.6130

 Test job not archived.
 1\1\GINC-SE393\SP\RHF\Aug-CC-pVDZ\C5H12N2O2Si1\OHZDE\08-Apr-2025\0\\#t
  hf aug-cc-pvdz iop(5/13=1,5/36=2,99/5=2) pseudo=read geom=check guess
 =(read,tcheck) scf=(maxcycle=1)\\title\\0,1\Si,0,-0.59692,-1.601507,-0
 .129007\C,0,0.941442,-1.141255,0.908941\C,0,1.67319,0.074721,0.39186\O
 ,0,1.161509,1.194008,0.419106\N,0,2.909159,-0.142851,-0.128599\C,0,-1.
 991938,-0.286671,-0.198326\H,0,-1.180699,-2.818352,0.472392\H,0,-0.167
 745,-1.894794,-1.516395\O,0,-3.074804,-0.699631,-0.608158\N,0,-1.74750
 5,0.98838,0.188978\C,0,3.722645,0.91543,-0.707061\H,0,3.280456,-1.0784

 Normal termination of Gaussian 16 at Tue Apr  8 23:52:36 2025.
