 Gaussian 16, Revision C.01,

 ----------------------------------------------------------------------
 #t hf aug-cc-pvdz symm=none int=(grid=ultrafine) guess=(read,tcheck) s
 table=(opt,rrhf)
 ----------------------------------------------------------------------
 -----
 title
 -----
 Symbolic Z-matrix:
 Charge =  0 Multiplicity = 1

 SCF Done:  E(RHF) =  -1000.75097582     A.U. after   11 cycles
 Normal termination of Gaussian 16 at Wed Apr  9 00:12:30 2025.
 Gaussian 16:  ES64L-G16RevC.01  3-Jul-2019

 ----------------------------------------------------------------------
 #t hf aug-cc-pvdz iop(5/13=1,5/36=2,99/5=2) pseudo=read geom=check gue
 ss=(read,tcheck) scf=(maxcycle=1)
 ----------------------------------------------------------------------
 -----
 title
 -----
 Structure from the checkpoint file:  "BDE49_nonexpt_2446_mol1.chk"
 Charge =  0 Multiplicity = 1

                         Standard orientation:
 ---------------------------------------------------------------------
 Center     Atomic      Atomic             Coordinates (Angstroms)
 Number     Number       Type             X           Y           Z
 ---------------------------------------------------------------------
      1         14           0       -2.296563   -0.604830    0.000035
      2         14           0       -0.656766    1.099439   -0.000072
      3         15           0        1.531799    0.454742   -0.000030
      4          1           0       -0.860924    1.952237    1.200032
      5          1           0       -0.860923    1.952085   -1.200283
      6          1           0       -2.165106   -1.466786   -1.200699
      7          1           0       -3.657341   -0.012925    0.000001
      8          6           0        1.550707   -0.738821    1.436443
      9          1           0        0.810474   -1.538363    1.356075
     10          1           0        1.379864   -0.190367    2.365491
     11          1           0        2.544928   -1.189201    1.497026
     12          6           0        1.550706   -0.739018   -1.436338
     13          1           0        1.379858   -0.190693   -2.365461
     14          1           0        0.810476   -1.538552   -1.355858
     15          1           0        2.544929   -1.189404   -1.496863
     16          1           0       -2.165102   -1.466641    1.200871
 ---------------------------------------------------------------------

 SCF Done:  E(RHF) =  -1000.83854788     A.U. after    2 cycles

 The electronic state is 1-A.
 Alpha  occ. eigenvalues --  -81.24577 -69.06351 -69.06317 -11.24163 -11.24162
 Alpha  occ. eigenvalues --   -7.74942  -6.81719  -6.81708  -4.88888  -4.88851
 Alpha  occ. eigenvalues --   -4.88563  -3.92472  -3.92472  -3.92466  -3.92443
 Alpha  occ. eigenvalues --   -3.92431  -3.92374  -0.98230  -0.93721  -0.75003
 Alpha  occ. eigenvalues --   -0.70058  -0.63696  -0.59170  -0.58419  -0.56501
 Alpha  occ. eigenvalues --   -0.56215  -0.49742  -0.48559  -0.47568  -0.45621
 Alpha  occ. eigenvalues --   -0.41195  -0.40973  -0.31257
 Alpha virt. eigenvalues --    0.03353   0.04480   0.04761   0.04896   0.06479
 Alpha virt. eigenvalues --    0.06613   0.06773   0.07349   0.07510   0.08460
 Alpha virt. eigenvalues --    0.09125   0.09685   0.09895   0.09976   0.10321

 Mulliken charges:
               1
     1  Si  -0.262824
     2  Si   0.162412
     3  P    0.213077
     4  H    0.059204
     5  H    0.059205
     6  H    0.090766
     7  H    0.009889
     8  C    0.368023
     9  H   -0.178962
    10  H   -0.213476
    11  H   -0.186831
    12  C    0.368019
    13  H   -0.213477
    14  H   -0.178960
    15  H   -0.186828
    16  H    0.090764
 Sum of Mulliken charges =  -0.00000

 Dipole moment (field-independent basis, Debye):
    X=              0.0664    Y=             -1.2361    Z=              0.0001  Tot=              1.2379

 Test job not archived.
 1\1\GINC-SE273\SP\RHF\Aug-CC-pVDZ\C2H11P1Si2\OHZDE\09-Apr-2025\0\\#t h
 f aug-cc-pvdz iop(5/13=1,5/36=2,99/5=2) pseudo=read geom=check guess=(
 read,tcheck) scf=(maxcycle=1)\\title\\0,1\Si,0,-2.296563,-0.60483,0.00
 0035\Si,0,-0.656766,1.099439,-0.000072\P,0,1.531799,0.454742,-0.00003\
 H,0,-0.860924,1.952237,1.200032\H,0,-0.860923,1.952085,-1.200283\H,0,-
 2.165106,-1.466786,-1.200699\H,0,-3.657341,-0.012924,0.000001\C,0,1.55
 0707,-0.738821,1.436443\H,0,0.810474,-1.538363,1.356075\H,0,1.379864,-
 0.190367,2.365491\H,0,2.544928,-1.189201,1.497026\C,0,1.550706,-0.7390

 Normal termination of Gaussian 16 at Wed Apr  9 00:12:37 2025.
