 Gaussian 16, Revision C.01,

 ----------------------------------------------------------------------
 #t hf aug-cc-pvdz symm=none int=(grid=ultrafine) guess=(read,tcheck) s
 table=opt
 ----------------------------------------------------------------------
 -----
 title
 -----
 Symbolic Z-matrix:
 Charge =  0 Multiplicity = 2

 SCF Done:  E(UHF) =  -524.864655777     A.U. after   15 cycles
 Normal termination of Gaussian 16 at Tue Apr  8 23:44:51 2025.
 Gaussian 16:  ES64L-G16RevC.01  3-Jul-2019

 ----------------------------------------------------------------------
 #t hf aug-cc-pvdz iop(5/13=1,5/36=2,99/5=2) pseudo=read geom=check gue
 ss=(read,tcheck) scf=(maxcycle=1)
 ----------------------------------------------------------------------
 -----
 title
 -----
 Structure from the checkpoint file:  "BDE49_nonexpt_1731_mol2.chk"
 Charge =  0 Multiplicity = 2

                         Standard orientation:
 ---------------------------------------------------------------------
 Center     Atomic      Atomic             Coordinates (Angstroms)
 Number     Number       Type             X           Y           Z
 ---------------------------------------------------------------------
      1         14           0        3.703169   -0.243640    0.000001
      2          6           0        2.056344    0.689496   -0.000001
      3          6           0        0.810157   -0.221890    0.000000
      4          1           0        2.036252    1.348364   -0.875944
      5          1           0        2.036252    1.348366    0.875941
      6          6           0       -0.510144    0.562556   -0.000001
      7          1           0        0.837064   -0.880433    0.876122
      8          1           0        0.837064   -0.880435   -0.876120
      9          6           0       -1.752848   -0.334878    0.000000
     10          1           0       -0.536488    1.221433   -0.877217
     11          1           0       -0.536488    1.221435    0.877214
     12          6           0       -3.072982    0.444917   -0.000001
     13          1           0       -1.723880   -0.994583    0.876888
     14          1           0       -1.723880   -0.994585   -0.876886
     15          6           0       -4.309418   -0.458562    0.000000
     16          1           0       -3.102205    1.103836   -0.876229
     17          1           0       -3.102205    1.103838    0.876226
     18          1           0       -4.326727   -1.105282   -0.882827
     19          1           0       -5.232577    0.127384   -0.000001
     20          1           0       -4.326727   -1.105280    0.882829
     21          1           0        3.846760   -1.096465   -1.211369
     22          1           0        3.846760   -1.096460    1.211374
 ---------------------------------------------------------------------

 SCF Done:  E(UHF) =  -524.959624814     A.U. after    2 cycles

 The electronic state is 2-A.
 Alpha  occ. eigenvalues --  -69.06305 -11.23647 -11.22791 -11.22779 -11.22626
 Alpha  occ. eigenvalues --  -11.22606 -11.22228  -6.81670  -3.93019  -3.92120
 Alpha  occ. eigenvalues --   -3.92114  -1.07805  -1.03186  -0.95936  -0.87321
 Alpha  occ. eigenvalues --   -0.80415  -0.78924  -0.68106  -0.65717  -0.61847
 Alpha  occ. eigenvalues --   -0.59126  -0.56835  -0.56402  -0.53734  -0.51156
 Alpha  occ. eigenvalues --   -0.50314  -0.47715  -0.47297  -0.46883  -0.46592
 Alpha  occ. eigenvalues --   -0.46378  -0.42641  -0.31441
 Alpha virt. eigenvalues --    0.03421   0.03990   0.04363   0.04537   0.05191
 Alpha virt. eigenvalues --    0.05930   0.05994   0.06789   0.07068   0.07891
 Alpha virt. eigenvalues --    0.08089   0.09227   0.09331   0.10023   0.10685

  Beta  occ. eigenvalues --  -69.05745 -11.23549 -11.22777 -11.22761 -11.22602
  Beta  occ. eigenvalues --  -11.22589 -11.22228  -6.80833  -3.91730  -3.91726
  Beta  occ. eigenvalues --   -3.90865  -1.07695  -1.03010  -0.95736  -0.87083
  Beta  occ. eigenvalues --   -0.80218  -0.78900  -0.65679  -0.64397  -0.61787
  Beta  occ. eigenvalues --   -0.59030  -0.56367  -0.56327  -0.53344  -0.51054
  Beta  occ. eigenvalues --   -0.50095  -0.47598  -0.47088  -0.46505  -0.46402
  Beta  occ. eigenvalues --   -0.46166  -0.41787
  Beta virt. eigenvalues --    0.03162   0.03619   0.04303   0.04547   0.04709
  Beta virt. eigenvalues --    0.05455   0.05987   0.06797   0.06848   0.07352
  Beta virt. eigenvalues --    0.08010   0.09115   0.09242   0.09760   0.10202

 Mulliken charges and spin densities:
               1          2
     1  Si   0.148446   1.032646
     2  C    0.117594  -0.059712
     3  C    0.273451   0.023055
     4  H   -0.112413  -0.002981
     5  H   -0.112411  -0.002981
     6  C    0.184046   0.011041
     7  H   -0.203022  -0.006644
     8  H   -0.203023  -0.006644
     9  C    0.116326  -0.009964
    10  H   -0.180790  -0.000111
    11  H   -0.180789  -0.000111
    12  C    0.398371  -0.000380
    13  H   -0.176373  -0.000020
    14  H   -0.176375  -0.000020
    15  C    0.596274   0.000228
    16  H   -0.154348  -0.000020
    17  H   -0.154347  -0.000020
    18  H   -0.090905  -0.000031
    19  H   -0.064267   0.000042
    20  H   -0.090903  -0.000031
    21  H    0.032729   0.011329
    22  H    0.032729   0.011329
 Sum of Mulliken charges =  -0.00000   1.00000

 Dipole moment (field-independent basis, Debye):
    X=             -0.8923    Y=              0.4752    Z=             -0.0000  Tot=              1.0109
                          Isotropic Fermi Contact Couplings
        Atom                 a.u.       MegaHertz       Gauss      10(-4) cm-1
     1  Si(29)             0.51431    -457.08528    -163.09940    -152.46724
     2  C(13)              0.01038      11.66526       4.16245       3.89111
     3  C(13)              0.02375      26.69589       9.52576       8.90479
     4  H(1)               0.00030       1.32474       0.47270       0.44188
     5  H(1)               0.00030       1.32472       0.47269       0.44188
     6  C(13)              0.00535       6.01245       2.14539       2.00554
     7  H(1)              -0.00033      -1.48850      -0.53114      -0.49651
     8  H(1)              -0.00033      -1.48851      -0.53114      -0.49651

 Normal termination of Gaussian 16 at Tue Apr  8 23:45:01 2025.
