 Gaussian 16, Revision C.01,

 ----------------------------------------------------------------------
 #t hf aug-cc-pvdz symm=none int=(grid=ultrafine) guess=(read,tcheck) s
 table=(opt,rrhf)
 ----------------------------------------------------------------------
 -----
 title
 -----
 Symbolic Z-matrix:
 Charge =  0 Multiplicity = 1

 SCF Done:  E(RHF) =  -607.821393179     A.U. after   18 cycles
 Normal termination of Gaussian 16 at Tue Apr  8 23:22:22 2025.
 Gaussian 16:  ES64L-G16RevC.01  3-Jul-2019

 ----------------------------------------------------------------------
 #t hf aug-cc-pvdz iop(5/13=1,5/36=2,99/5=2) pseudo=read geom=check gue
 ss=(read,tcheck) scf=(maxcycle=1)
 ----------------------------------------------------------------------
 -----
 title
 -----
 Structure from the checkpoint file:  "BDE49_nonexpt_1179_mol1.chk"
 Charge =  0 Multiplicity = 1

                         Standard orientation:
 ---------------------------------------------------------------------
 Center     Atomic      Atomic             Coordinates (Angstroms)
 Number     Number       Type             X           Y           Z
 ---------------------------------------------------------------------
      1          9           0       -3.363306   -0.814992    0.662004
      2          8           0       -2.455663   -0.940269   -0.505263
      3          6           0       -1.389878   -0.122252   -0.249476
      4          6           0       -0.136345   -0.717743   -0.151001
      5          6           0        0.965758    0.118947   -0.025379
      6          6           0        0.844000    1.500484    0.055229
      7          6           0       -1.548812    1.265825   -0.174187
      8          1           0       -2.544510    1.685416   -0.238965
      9          6           0       -0.428393    2.069511   -0.011215
     10          1           0       -0.537657    3.145055    0.051169
     11          1           0        1.733869    2.103856    0.166765
     12          7           0        2.316205   -0.490731    0.051126
     13          8           0        3.265766    0.264535    0.196847
     14          8           0        2.388596   -1.706942   -0.037539
     15          1           0       -0.022953   -1.791510   -0.191069
 ---------------------------------------------------------------------

 SCF Done:  E(RHF) =  -608.008159481     A.U. after    2 cycles

 The electronic state is 1-A.
 Alpha  occ. eigenvalues --  -26.17880 -20.73456 -20.63325 -20.63279 -15.93629
 Alpha  occ. eigenvalues --  -11.35438 -11.34231 -11.30966 -11.30732 -11.30572
 Alpha  occ. eigenvalues --  -11.29644  -1.67185  -1.56630  -1.38263  -1.37559
 Alpha  occ. eigenvalues --   -1.20590  -1.10175  -1.05707  -0.97773  -0.89131
 Alpha  occ. eigenvalues --   -0.86047  -0.81610  -0.78385  -0.77062  -0.75293
 Alpha  occ. eigenvalues --   -0.74371  -0.74097  -0.73252  -0.70101  -0.66961
 Alpha  occ. eigenvalues --   -0.65373  -0.60965  -0.58742  -0.56762  -0.55279
 Alpha  occ. eigenvalues --   -0.53071  -0.52414  -0.48922  -0.40229  -0.39365
 Alpha virt. eigenvalues --    0.01088   0.02475   0.03627   0.04100   0.04490
 Alpha virt. eigenvalues --    0.05884   0.08902   0.09537   0.09973   0.10394
 Alpha virt. eigenvalues --    0.12028   0.12553   0.12796   0.12980   0.13207

 Mulliken charges:
               1
     1  F   -0.349318
     2  O   -0.353115
     3  C    0.558919
     4  C    0.139057
     5  C    1.374358
     6  C    0.161525
     7  C    0.595190
     8  H   -0.442982
     9  C    0.574092
    10  H   -0.411739
    11  H   -0.431220
    12  N    0.105356
    13  O   -0.564581
    14  O   -0.555449
    15  H   -0.400094
 Sum of Mulliken charges =  -0.00000

 Dipole moment (field-independent basis, Debye):
    X=             -1.7204    Y=              3.7799    Z=             -0.7125  Tot=              4.2137

 Test job not archived.
 1\1\GINC-SE143\SP\RHF\Aug-CC-pVDZ\C6H4F1N1O3\OHZDE\08-Apr-2025\0\\#t h
 f aug-cc-pvdz iop(5/13=1,5/36=2,99/5=2) pseudo=read geom=check guess=(
 read,tcheck) scf=(maxcycle=1)\\title\\0,1\F,0,-3.363306,-0.814992,0.66
 2004\O,0,-2.455663,-0.940269,-0.505263\C,0,-1.389878,-0.122252,-0.2494
 76\C,0,-0.136345,-0.717743,-0.151001\C,0,0.965758,0.118947,-0.025379\C
 ,0,0.844,1.500484,0.055229\C,0,-1.548812,1.265825,-0.174187\H,0,-2.544
 51,1.685416,-0.238965\C,0,-0.428393,2.069511,-0.011215\H,0,-0.537657,3
 .145055,0.051169\H,0,1.733869,2.103856,0.166765\N,0,2.316205,-0.490731

 Normal termination of Gaussian 16 at Tue Apr  8 23:22:30 2025.
