 Gaussian 16, Revision C.01,

 ----------------------------------------------------------------------
 #t hf aug-cc-pvdz symm=none int=(grid=ultrafine) guess=(read,tcheck) s
 table=(opt,rrhf)
 ----------------------------------------------------------------------
 -----
 title
 -----
 Symbolic Z-matrix:
 Charge =  0 Multiplicity = 1

 SCF Done:  E(RHF) =  -571.168661553     A.U. after   15 cycles
 Normal termination of Gaussian 16 at Tue Apr  8 23:29:20 2025.
 Gaussian 16:  ES64L-G16RevC.01  3-Jul-2019

 ----------------------------------------------------------------------
 #t hf aug-cc-pvdz iop(5/13=1,5/36=2,99/5=2) pseudo=read geom=check gue
 ss=(read,tcheck) scf=(maxcycle=1)
 ----------------------------------------------------------------------
 -----
 title
 -----
 Structure from the checkpoint file:  "BDE49_nonexpt_1391_mol1.chk"
 Charge =  0 Multiplicity = 1

                         Standard orientation:
 ---------------------------------------------------------------------
 Center     Atomic      Atomic             Coordinates (Angstroms)
 Number     Number       Type             X           Y           Z
 ---------------------------------------------------------------------
      1         15           0       -0.113810   -1.335261   -0.180057
      2          6           0        1.031782    0.173780    0.007761
      3          6           0        0.191088    1.447682    0.137103
      4          6           0       -1.248642    1.124402   -0.272364
      5          6           0       -1.596803   -0.278923    0.275624
      6          1           0       -1.326514    1.118260   -1.365037
      7          1           0       -1.955054    1.874282    0.091223
      8          1           0        0.652871    2.254325   -0.436767
      9          1           0        0.236481    1.735794    1.195409
     10          8           0        2.232570    0.129590    0.007675
     11          1           0       -2.509350   -0.670028   -0.175854
     12          1           0       -1.741040   -0.245570    1.357927
     13          1           0        0.224651   -1.876514    1.083806
 ---------------------------------------------------------------------

 SCF Done:  E(RHF) =  -571.259264424     A.U. after    2 cycles

 The electronic state is 1-A.
 Alpha  occ. eigenvalues --  -81.26438 -20.57291 -11.34994 -11.26014 -11.25778
 Alpha  occ. eigenvalues --  -11.25642  -7.76876  -4.90869  -4.90774  -4.90516
 Alpha  occ. eigenvalues --   -1.36336  -1.09904  -0.96413  -0.88301  -0.79202
 Alpha  occ. eigenvalues --   -0.71565  -0.66876  -0.65754  -0.60878  -0.59393
 Alpha  occ. eigenvalues --   -0.56922  -0.54543  -0.51065  -0.49714  -0.47916
 Alpha  occ. eigenvalues --   -0.39873  -0.35270
 Alpha virt. eigenvalues --    0.02951   0.04336   0.04484   0.05134   0.06543
 Alpha virt. eigenvalues --    0.06835   0.06936   0.08748   0.09479   0.10792
 Alpha virt. eigenvalues --    0.11891   0.12389   0.13854   0.14262   0.14804

 Mulliken charges:
               1
     1  P    0.319744
     2  C    0.081048
     3  C   -0.018649
     4  C    0.311982
     5  C    0.073586
     6  H   -0.100441
     7  H   -0.051491
     8  H   -0.051956
     9  H    0.020651
    10  O   -0.498809
    11  H   -0.097400
    12  H   -0.182479
    13  H    0.194214
 Sum of Mulliken charges =  -0.00000

 Dipole moment (field-independent basis, Debye):
    X=             -3.9970    Y=              1.1073    Z=              0.7852  Tot=              4.2212

 Test job not archived.
 1\1\GINC-SE074\SP\RHF\Aug-CC-pVDZ\C4H7O1P1\OHZDE\08-Apr-2025\0\\#t hf
 aug-cc-pvdz iop(5/13=1,5/36=2,99/5=2) pseudo=read geom=check guess=(re
 ad,tcheck) scf=(maxcycle=1)\\title\\0,1\P,0,-0.11381,-1.335261,-0.1800
 57\C,0,1.031782,0.17378,0.007761\C,0,0.191088,1.447682,0.137103\C,0,-1
 .248642,1.124402,-0.272364\C,0,-1.596803,-0.278923,0.275624\H,0,-1.326
 514,1.11826,-1.365037\H,0,-1.955054,1.874282,0.091223\H,0,0.652871,2.2
 54325,-0.436767\H,0,0.236481,1.735794,1.195409\O,0,2.23257,0.12959,0.0
 07675\H,0,-2.50935,-0.670028,-0.175854\H,0,-1.74104,-0.24557,1.357927\

 Normal termination of Gaussian 16 at Tue Apr  8 23:29:25 2025.
