 Gaussian 16, Revision C.01,

 ----------------------------------------------------------------------
 #t hf aug-cc-pvdz symm=none int=(grid=ultrafine) guess=(read,tcheck) s
 table=opt
 ----------------------------------------------------------------------
 -----
 title
 -----
 Symbolic Z-matrix:
 Charge =  0 Multiplicity = 2

 SCF Done:  E(UHF) =  -908.370336834     A.U. after   24 cycles
 Normal termination of Gaussian 16 at Tue Apr  8 23:16:50 2025.
 Gaussian 16:  ES64L-G16RevC.01  3-Jul-2019

 ----------------------------------------------------------------------
 #t hf aug-cc-pvdz iop(5/13=1,5/36=2,99/5=2) pseudo=read geom=check gue
 ss=(read,tcheck) scf=(maxcycle=1)
 ----------------------------------------------------------------------
 -----
 title
 -----
 Structure from the checkpoint file:  "BDE49_nonexpt_1060_mol2.chk"
 Charge =  0 Multiplicity = 2

                         Standard orientation:
 ---------------------------------------------------------------------
 Center     Atomic      Atomic             Coordinates (Angstroms)
 Number     Number       Type             X           Y           Z
 ---------------------------------------------------------------------
      1          8           0        0.133158    1.626403   -0.000181
      2          6           0        0.043336    0.424737    0.000774
      3         16           0        1.541420   -0.505388   -0.000321
      4         16           0       -1.483094   -0.504373    0.000138
      5          1           0       -2.258489    0.596536   -0.000276
 ---------------------------------------------------------------------

 SCF Done:  E(UHF) =  -908.443628224     A.U. after    2 cycles

 The electronic state is 2-A.
 Alpha  occ. eigenvalues --  -93.60077 -93.58755 -20.60111 -11.42612  -8.89932
 Alpha  occ. eigenvalues --   -8.88633  -6.25263  -6.23577  -6.23090  -6.22766
 Alpha  occ. eigenvalues --   -6.22547  -6.22190  -1.40290  -1.07290  -1.00283
 Alpha  occ. eigenvalues --   -0.76584  -0.68008  -0.65703  -0.61363  -0.54484
 Alpha  occ. eigenvalues --   -0.48429  -0.44598  -0.43036  -0.40956
 Alpha virt. eigenvalues --    0.03862   0.06836   0.07593   0.08620   0.09659
 Alpha virt. eigenvalues --    0.11128   0.12273   0.12904   0.13567   0.14563
 Alpha virt. eigenvalues --    0.14929   0.15573   0.17199   0.19529   0.23376

  Beta  occ. eigenvalues --  -93.59145 -93.58757 -20.59932 -11.42724  -8.88893
  Beta  occ. eigenvalues --   -8.88631  -6.23058  -6.22767  -6.22560  -6.22497
  Beta  occ. eigenvalues --   -6.22195  -6.21175  -1.39752  -1.05205  -0.95190
  Beta  occ. eigenvalues --   -0.74712  -0.66829  -0.63590  -0.61211  -0.53943
  Beta  occ. eigenvalues --   -0.43745  -0.42163  -0.39484
  Beta virt. eigenvalues --   -0.01898   0.03963   0.07039   0.07726   0.08508
  Beta virt. eigenvalues --    0.10277   0.12058   0.12368   0.13375   0.13664
  Beta virt. eigenvalues --    0.14958   0.15064   0.15773   0.17710   0.20226

 Mulliken charges and spin densities:
               1          2
     1  O   -0.448751   0.015141
     2  C   -0.269048  -0.098455
     3  S    0.346959   1.086091
     4  S    0.248543  -0.009390
     5  H    0.122297   0.006613
 Sum of Mulliken charges =  -0.00000   1.00000

 Dipole moment (field-independent basis, Debye):
    X=             -0.9773    Y=             -1.8717    Z=              0.0006  Tot=              2.1115
                          Isotropic Fermi Contact Couplings
        Atom                 a.u.       MegaHertz       Gauss      10(-4) cm-1
     1  O(17)              0.02636     -15.97918      -5.70177      -5.33008
     2  C(13)             -0.02100     -23.60650      -8.42339      -7.87428
     3  S(33)              0.21692      74.50575      26.58550      24.85244
     4  S(33)              0.01782       6.12012       2.18381       2.04145
     5  H(1)               0.00304      13.58973       4.84915       4.53305
 --------------------------------------------------------
       Center         ----  Spin Dipole Couplings  ----
                      3XX-RR        3YY-RR        3ZZ-RR

 Normal termination of Gaussian 16 at Tue Apr  8 23:16:52 2025.
