 Gaussian 16, Revision C.01,

 ----------------------------------------------------------------------
 #t hf aug-cc-pvdz symm=none int=(grid=ultrafine) guess=(read,tcheck) s
 table=(opt,rrhf)
 ----------------------------------------------------------------------
 -----
 title
 -----
 Symbolic Z-matrix:
 Charge =  0 Multiplicity = 1

 SCF Done:  E(RHF) =  -1367.80014929     A.U. after   14 cycles
 Normal termination of Gaussian 16 at Tue Apr  8 23:16:51 2025.
 Gaussian 16:  ES64L-G16RevC.01  3-Jul-2019

 ----------------------------------------------------------------------
 #t hf aug-cc-pvdz iop(5/13=1,5/36=2,99/5=2) pseudo=read geom=check gue
 ss=(read,tcheck) scf=(maxcycle=1)
 ----------------------------------------------------------------------
 -----
 title
 -----
 Structure from the checkpoint file:  "BDE49_nonexpt_1060_mol1.chk"
 Charge =  0 Multiplicity = 1

                         Standard orientation:
 ---------------------------------------------------------------------
 Center     Atomic      Atomic             Coordinates (Angstroms)
 Number     Number       Type             X           Y           Z
 ---------------------------------------------------------------------
      1         17           0        2.160684   -0.421967   -0.000570
      2          8           0        0.490485   -0.909900    0.000290
      3          6           0       -0.442334    0.075146    0.000938
      4         16           0       -0.223360    1.679261    0.000093
      5         16           0       -1.980910   -0.822147    0.000052
      6          1           0       -2.733199    0.287934   -0.000570
 ---------------------------------------------------------------------

 SCF Done:  E(RHF) =  -1367.89326624     A.U. after    2 cycles

 The electronic state is 1-A.
 Alpha  occ. eigenvalues -- -103.75027 -93.59181 -93.53133 -20.71205 -11.44096
 Alpha  occ. eigenvalues --  -10.77625  -8.88983  -8.83138  -8.43392  -8.42921
 Alpha  occ. eigenvalues --   -8.42908  -6.23124  -6.22909  -6.22533  -6.17346
 Alpha  occ. eigenvalues --   -6.16849  -6.16694  -1.44794  -1.17308  -1.06993
 Alpha  occ. eigenvalues --   -0.98580  -0.81765  -0.70262  -0.69775  -0.63695
 Alpha  occ. eigenvalues --   -0.56798  -0.51961  -0.51376  -0.50950  -0.44969
 Alpha  occ. eigenvalues --   -0.37457  -0.36548
 Alpha virt. eigenvalues --    0.01733   0.04306   0.04999   0.07255   0.08257
 Alpha virt. eigenvalues --    0.09197   0.10611   0.11742   0.13894   0.13929
 Alpha virt. eigenvalues --    0.14238   0.15117   0.16170   0.17311   0.17791

 Mulliken charges:
               1
     1  Cl   0.381873
     2  O   -0.557566
     3  C   -0.275062
     4  S    0.063014
     5  S    0.240884
     6  H    0.146856
 Sum of Mulliken charges =  -0.00000

 Dipole moment (field-independent basis, Debye):
    X=             -0.6582    Y=             -0.3664    Z=             -0.0010  Tot=              0.7533

 Test job not archived.
 1\1\GINC-SE043\SP\RHF\Aug-CC-pVDZ\C1H1Cl1O1S2\OHZDE\08-Apr-2025\0\\#t
 hf aug-cc-pvdz iop(5/13=1,5/36=2,99/5=2) pseudo=read geom=check guess=
 (read,tcheck) scf=(maxcycle=1)\\title\\0,1\Cl,0,-2.160684,-0.421968,0.
 00057\O,0,-0.490485,-0.9099,-0.00029\C,0,0.442334,0.075146,-0.000938\S
 ,0,0.223359,1.679261,-0.000093\S,0,1.98091,-0.822146,-0.000052\H,0,2.7
 33199,0.287935,0.00057\\Version=ES64L-G16RevC.01\State=1-A\HF=-1367.89
 32662\RMSD=5.846e-03\Dipole=0.2589514,-0.144146,0.0003908\Quadrupole=5
 .3623176,-3.0327359,-2.3295817,0.0345019,0.0013129,0.0018344\PG=C01 [X

 Normal termination of Gaussian 16 at Tue Apr  8 23:16:55 2025.
