 Gaussian 16, Revision C.01,

 ----------------------------------------------------------------------
 #t hf aug-cc-pvdz symm=none int=(grid=ultrafine) guess=(read,tcheck) s
 table=opt
 ----------------------------------------------------------------------
 -----
 title
 -----
 Symbolic Z-matrix:
 Charge =  0 Multiplicity = 2

 SCF Done:  E(UHF) =  -361.413529526     A.U. after   14 cycles
 Normal termination of Gaussian 16 at Wed Apr  9 00:35:48 2025.
 Gaussian 16:  ES64L-G16RevC.01  3-Jul-2019

 ----------------------------------------------------------------------
 #t hf aug-cc-pvdz iop(5/13=1,5/36=2,99/5=2) pseudo=read geom=check gue
 ss=(read,tcheck) scf=(maxcycle=1)
 ----------------------------------------------------------------------
 -----
 title
 -----
 Structure from the checkpoint file:  "BDE49_nonexpt_545_mol2.chk"
 Charge =  0 Multiplicity = 2

                         Standard orientation:
 ---------------------------------------------------------------------
 Center     Atomic      Atomic             Coordinates (Angstroms)
 Number     Number       Type             X           Y           Z
 ---------------------------------------------------------------------
      1          1           0        2.451185    0.000689    0.600028
      2          9           0        0.044994    1.099998   -0.712835
      3          9           0        0.045623   -1.099419   -0.713641
      4          9           0       -1.134848   -0.000550    0.745432
      5          6           0        0.042670    0.000006    0.086812
      6          5           0        1.338175   -0.000197    1.001700
 ---------------------------------------------------------------------

 SCF Done:  E(UHF) =  -361.542827066     A.U. after    2 cycles

 The electronic state is 2-A.
 Alpha  occ. eigenvalues --  -26.16960 -26.16951 -26.16528 -11.51492  -7.70109
 Alpha  occ. eigenvalues --   -1.75851  -1.69194  -1.68907  -1.03693  -0.88984
 Alpha  occ. eigenvalues --   -0.87637  -0.87458  -0.77593  -0.77209  -0.73085
 Alpha  occ. eigenvalues --   -0.72965  -0.71885  -0.69679  -0.57308  -0.40138
 Alpha virt. eigenvalues --    0.00884   0.04689   0.05184   0.05607   0.07197
 Alpha virt. eigenvalues --    0.09863   0.11775   0.13169   0.14447   0.19109
 Alpha virt. eigenvalues --    0.21664   0.23361   0.24775   0.25857   0.26331

  Beta  occ. eigenvalues --  -26.16878 -26.16869 -26.16526 -11.51470  -7.68122
  Beta  occ. eigenvalues --   -1.75694  -1.68954  -1.68804  -1.03197  -0.87948
  Beta  occ. eigenvalues --   -0.87531  -0.87225  -0.77151  -0.77123  -0.73033
  Beta  occ. eigenvalues --   -0.72861  -0.71788  -0.65747  -0.56049
  Beta virt. eigenvalues --    0.02683   0.02833   0.05159   0.05635   0.07491
  Beta virt. eigenvalues --    0.08297   0.10478   0.12150   0.13410   0.16677
  Beta virt. eigenvalues --    0.19516   0.22101   0.23884   0.25917   0.26669

 Mulliken charges and spin densities:
               1          2
     1  H    0.284715  -0.013959
     2  F   -0.360866   0.007103
     3  F   -0.360907   0.007088
     4  F   -0.315989  -0.013864
     5  C    0.918985  -0.009773
     6  B   -0.165939   1.023405
 Sum of Mulliken charges =  -0.00000   1.00000

 Dipole moment (field-independent basis, Debye):
    X=              2.0129    Y=              0.0005    Z=              1.0788  Tot=              2.2837
                          Isotropic Fermi Contact Couplings
        Atom                 a.u.       MegaHertz       Gauss      10(-4) cm-1
     1  H(1)               0.00329      14.69527       5.24364       4.90181
     2  F(19)              0.01460      61.41264      21.91356      20.48505
     3  F(19)              0.01455      61.21695      21.84373      20.41978
     4  F(19)              0.00269      11.31848       4.03872       3.77544
     5  C(13)              0.01119      12.57759       4.48800       4.19543
     6  B(11)              0.30099     431.73331     154.05318     144.01073
 --------------------------------------------------------
       Center         ----  Spin Dipole Couplings  ----

 Normal termination of Gaussian 16 at Wed Apr  9 00:35:50 2025.
