 Gaussian 16, Revision C.01,

 ----------------------------------------------------------------------
 #t hf aug-cc-pvdz symm=none int=(grid=ultrafine) guess=(read,tcheck) s
 table=(opt,rrhf)
 ----------------------------------------------------------------------
 -----
 title
 -----
 Symbolic Z-matrix:
 Charge =  0 Multiplicity = 1

 SCF Done:  E(RHF) =  -976.901417370     A.U. after   13 cycles
 Normal termination of Gaussian 16 at Wed Apr  9 00:04:34 2025.
 Gaussian 16:  ES64L-G16RevC.01  3-Jul-2019

 ----------------------------------------------------------------------
 #t hf aug-cc-pvdz iop(5/13=1,5/36=2,99/5=2) pseudo=read geom=check gue
 ss=(read,tcheck) scf=(maxcycle=1)
 ----------------------------------------------------------------------
 -----
 title
 -----
 Structure from the checkpoint file:  "BDE49_nonexpt_2236_mol1.chk"
 Charge =  0 Multiplicity = 1

                         Standard orientation:
 ---------------------------------------------------------------------
 Center     Atomic      Atomic             Coordinates (Angstroms)
 Number     Number       Type             X           Y           Z
 ---------------------------------------------------------------------
      1          8           0       -0.029318   -0.707442    0.048743
      2          6           0        0.812533    0.280334   -0.186437
      3         14           0       -1.709622   -0.595218   -0.310402
      4          8           0        0.571803    1.356221   -0.634621
      5         17           0        2.466649   -0.204944    0.274555
      6          6           0       -2.519508    0.714147    0.731463
      7          1           0       -2.377686    0.516420    1.797083
      8          1           0       -3.595710    0.730052    0.531411
      9          1           0       -2.113606    1.701149    0.500664
     10          1           0       -2.170971   -1.953737    0.022238
     11          1           0       -1.838379   -0.333888   -1.756337
 ---------------------------------------------------------------------

 SCF Done:  E(RHF) =  -977.025470781     A.U. after    2 cycles

 The electronic state is 1-A.
 Alpha  occ. eigenvalues -- -103.68383 -69.12102 -20.63655 -20.60232 -11.47677
 Alpha  occ. eigenvalues --  -11.23812 -10.71694  -8.37414  -8.37100  -8.37081
 Alpha  occ. eigenvalues --   -6.86896  -3.97816  -3.97627  -3.97604  -1.45612
 Alpha  occ. eigenvalues --   -1.36250  -1.17447  -0.96613  -0.87567  -0.74565
 Alpha  occ. eigenvalues --   -0.73411  -0.69470  -0.65906  -0.59678  -0.58592
 Alpha  occ. eigenvalues --   -0.57030  -0.54816  -0.51255  -0.49411  -0.48870
 Alpha  occ. eigenvalues --   -0.48051  -0.47534
 Alpha virt. eigenvalues --    0.03034   0.04659   0.04782   0.05444   0.07412
 Alpha virt. eigenvalues --    0.07544   0.08184   0.08761   0.10338   0.11802
 Alpha virt. eigenvalues --    0.12512   0.13549   0.13826   0.14313   0.15453

 Mulliken charges:
               1
     1  O   -0.589103
     2  C    0.279276
     3  Si   1.035814
     4  O   -0.273479
     5  Cl  -0.099014
     6  C    0.185951
     7  H   -0.131144
     8  H   -0.223996
     9  H   -0.150506
    10  H   -0.033006
    11  H   -0.000792
 Sum of Mulliken charges =  -0.00000

 Dipole moment (field-independent basis, Debye):
    X=             -2.7376    Y=             -1.0893    Z=              0.6815  Tot=              3.0242

 Test job not archived.
 1\1\GINC-SE284\SP\RHF\Aug-CC-pVDZ\C2H5Cl1O2Si1\OHZDE\09-Apr-2025\0\\#t
  hf aug-cc-pvdz iop(5/13=1,5/36=2,99/5=2) pseudo=read geom=check guess
 =(read,tcheck) scf=(maxcycle=1)\\title\\0,1\O,0,-0.029318,-0.707442,0.
 048743\C,0,0.812533,0.280334,-0.186437\Si,0,-1.709622,-0.595218,-0.310
 402\O,0,0.571803,1.356221,-0.634621\Cl,0,2.466649,-0.204944,0.274555\C
 ,0,-2.519508,0.714147,0.731463\H,0,-2.377686,0.51642,1.797083\H,0,-3.5
 9571,0.730052,0.531411\H,0,-2.113606,1.701149,0.500664\H,0,-2.170971,-
 1.953737,0.022238\H,0,-1.838379,-0.333888,-1.756337\\Version=ES64L-G16

 Normal termination of Gaussian 16 at Wed Apr  9 00:04:39 2025.
