 Gaussian 16, Revision C.01,

 ----------------------------------------------------------------------
 #t hf aug-cc-pvdz symm=none int=(grid=ultrafine) guess=(read,tcheck) s
 table=opt
 ----------------------------------------------------------------------
 -----
 title
 -----
 Symbolic Z-matrix:
 Charge =  0 Multiplicity = 2

 SCF Done:  E(UHF) =  -389.555679944     A.U. after   13 cycles

 1\1\GINC-SE141\Stability\UHF\Aug-CC-pVDZ\F1H2Si1\OHZDE\08-Apr-2025\0\\
 #t hf aug-cc-pvdz symm=none int=(grid=ultrafine) guess=(read,tcheck) s
 table=opt\\title\\0,2\Si,0,-0.056603,-0.545753,0.\F,0,-0.056603,1.0707
 42,0.\H,0,0.650939,-0.99807,1.226739\H,0,0.650939,-0.99807,-1.226739\\
 Version=ES64L-G16RevC.01\HF=-389.5556799\S2=0.753319\S2-1=0.\S2A=0.750
 004\RMSD=8.838e-09\Dipole=0.0063572,-0.6056984,0.\Quadrupole=0.2820724
 ,-0.67952,0.3974476,-0.0144759,0.,0.\PG=Unknown\\@
 The archive entry for this job was punched.

 Normal termination of Gaussian 16 at Tue Apr  8 23:45:50 2025.
 Gaussian 16:  ES64L-G16RevC.01  3-Jul-2019

 ----------------------------------------------------------------------
 #t hf aug-cc-pvdz iop(5/13=1,5/36=2,99/5=2) pseudo=read geom=check gue
 ss=(read,tcheck) scf=(maxcycle=1)
 ----------------------------------------------------------------------
 -----
 title
 -----
 Structure from the checkpoint file:  "BDE49_nonexpt_1789_mol2.chk"
 Charge =  0 Multiplicity = 2

                         Standard orientation:
 ---------------------------------------------------------------------
 Center     Atomic      Atomic             Coordinates (Angstroms)
 Number     Number       Type             X           Y           Z
 ---------------------------------------------------------------------
      1         14           0       -0.056603   -0.545753   -0.000000
      2          9           0       -0.056603    1.070742    0.000000
      3          1           0        0.650939   -0.998070    1.226739
      4          1           0        0.650939   -0.998070   -1.226739
 ---------------------------------------------------------------------

 SCF Done:  E(UHF) =  -389.620558455     A.U. after    2 cycles

 The electronic state is 2-A'.
 Alpha  occ. eigenvalues --  -69.13268 -26.11357  -6.87993  -3.99233  -3.98539
 Alpha  occ. eigenvalues --   -3.98345  -1.64043  -0.81047  -0.73142  -0.72489
 Alpha  occ. eigenvalues --   -0.64707  -0.50444  -0.35718
 Alpha virt. eigenvalues --    0.04132   0.04947   0.06130   0.06805   0.08784
 Alpha virt. eigenvalues --    0.13435   0.14800   0.17370   0.18428   0.21848
 Alpha virt. eigenvalues --    0.24180   0.24994   0.31491   0.32134   0.32383

  Beta  occ. eigenvalues --  -69.12702 -26.11035  -6.87101  -3.98185  -3.97985
  Beta  occ. eigenvalues --   -3.97156  -1.63137  -0.79430  -0.72224  -0.70803
  Beta  occ. eigenvalues --   -0.61165  -0.48842
  Beta virt. eigenvalues --    0.02291   0.04507   0.05355   0.06284   0.09056
  Beta virt. eigenvalues --    0.09356   0.14653   0.16316   0.20203   0.21342
  Beta virt. eigenvalues --    0.22563   0.25357   0.26147   0.32252   0.32678

 Mulliken charges and spin densities:
               1          2
     1  Si   0.930445   0.912506
     2  F   -0.727512  -0.008315
     3  H   -0.101467   0.047904
     4  H   -0.101467   0.047904
 Sum of Mulliken charges =   0.00000   1.00000

 Dipole moment (field-independent basis, Debye):
    X=             -0.0314    Y=             -1.7125    Z=              0.0000  Tot=              1.7128
                          Isotropic Fermi Contact Couplings
        Atom                 a.u.       MegaHertz       Gauss      10(-4) cm-1
     1  Si(29)             0.67674    -601.44148    -214.60928    -200.61928
     2  F(19)              0.04728     198.92614      70.98179      66.35462
     3  H(1)               0.01563      69.84327      24.92181      23.29721
     4  H(1)               0.01563      69.84327      24.92181      23.29721
 --------------------------------------------------------
       Center         ----  Spin Dipole Couplings  ----
                      3XX-RR        3YY-RR        3ZZ-RR
 --------------------------------------------------------

 Normal termination of Gaussian 16 at Tue Apr  8 23:45:52 2025.
