 Gaussian 16, Revision C.01,

 ----------------------------------------------------------------------
 #t hf aug-cc-pvdz symm=none int=(grid=ultrafine) guess=(read,tcheck) s
 table=(opt,rrhf)
 ----------------------------------------------------------------------
 -----
 title
 -----
 Symbolic Z-matrix:
 Charge =  0 Multiplicity = 1

 SCF Done:  E(RHF) =  -955.975196129     A.U. after   12 cycles

 1\1\GINC-SE096\Stability\RHF\Aug-CC-pVDZ\H6O5Si2\OHZDE\09-Apr-2025\0\\
 #t hf aug-cc-pvdz symm=none int=(grid=ultrafine) guess=(read,tcheck) s
 table=(opt,rrhf)\\title\\0,1\Si,0,0.982077,-0.005525,0.032339\Si,0,-1.
 326948,-0.085214,0.439063\O,0,1.320854,1.458358,-0.650372\H,0,0.601997
 ,2.09833,-0.613524\O,0,-2.074464,-1.364718,-0.292103\H,0,-1.6863,-1.70
 6298,-1.101846\O,0,1.501412,-1.131796,-1.060106\H,0,1.753878,-0.782967
 ,-1.919379\O,0,-1.755618,1.38702,-0.214574\H,0,-2.669038,1.67911,-0.14
 5589\O,0,1.749198,-0.272272,1.453919\H,0,2.690393,-0.467767,1.448477\H

 Normal termination of Gaussian 16 at Wed Apr  9 00:08:54 2025.
 Gaussian 16:  ES64L-G16RevC.01  3-Jul-2019

 ----------------------------------------------------------------------
 #t hf aug-cc-pvdz iop(5/13=1,5/36=2,99/5=2) pseudo=read geom=check gue
 ss=(read,tcheck) scf=(maxcycle=1)
 ----------------------------------------------------------------------
 -----
 title
 -----
 Structure from the checkpoint file:  "BDE49_nonexpt_2333_mol1.chk"
 Charge =  0 Multiplicity = 1

                         Standard orientation:
 ---------------------------------------------------------------------
 Center     Atomic      Atomic             Coordinates (Angstroms)
 Number     Number       Type             X           Y           Z
 ---------------------------------------------------------------------
      1         14           0        0.982077   -0.005525    0.032339
      2         14           0       -1.326948   -0.085214    0.439063
      3          8           0        1.320854    1.458358   -0.650372
      4          1           0        0.601997    2.098330   -0.613524
      5          8           0       -2.074464   -1.364718   -0.292103
      6          1           0       -1.686300   -1.706298   -1.101846
      7          8           0        1.501412   -1.131796   -1.060106
      8          1           0        1.753878   -0.782967   -1.919379
      9          8           0       -1.755618    1.387020   -0.214574
     10          1           0       -2.669038    1.679110   -0.145589
     11          8           0        1.749198   -0.272272    1.453919
     12          1           0        2.690393   -0.467767    1.448477
     13          1           0       -1.793801   -0.162807    1.838101
 ---------------------------------------------------------------------

 SCF Done:  E(RHF) =  -956.184164635     A.U. after    2 cycles

 The electronic state is 1-A.
 Alpha  occ. eigenvalues --  -69.13469 -69.11584 -20.58156 -20.57548 -20.57547
 Alpha  occ. eigenvalues --  -20.57358 -20.57150  -6.87607  -6.86040  -3.98610
 Alpha  occ. eigenvalues --   -3.98597  -3.98398  -3.97009  -3.96877  -3.96769
 Alpha  occ. eigenvalues --   -1.32765  -1.31631  -1.29903  -1.29778  -1.29317
 Alpha  occ. eigenvalues --   -0.79299  -0.77068  -0.73317  -0.72445  -0.72167
 Alpha  occ. eigenvalues --   -0.61890  -0.61449  -0.59589  -0.59161  -0.58896
 Alpha  occ. eigenvalues --   -0.57919  -0.55191  -0.53771  -0.52690  -0.51929
 Alpha  occ. eigenvalues --   -0.50674  -0.40989
 Alpha virt. eigenvalues --    0.02992   0.03973   0.05024   0.05681   0.06695
 Alpha virt. eigenvalues --    0.06844   0.07671   0.07827   0.08102   0.09328
 Alpha virt. eigenvalues --    0.09908   0.10461   0.12893   0.14025   0.15227

 Mulliken charges:
               1
     1  Si   2.030714
     2  Si   1.311492
     3  O   -0.889535
     4  H    0.183039
     5  O   -0.805723
     6  H    0.143063
     7  O   -0.816372
     8  H    0.132322
     9  O   -0.764513
    10  H    0.114068
    11  O   -0.752894
    12  H    0.126898
    13  H   -0.012558
 Sum of Mulliken charges =  -0.00000

 Dipole moment (field-independent basis, Debye):
    X=             -0.2937    Y=              0.9634    Z=             -1.4371  Tot=              1.7549

 Test job not archived.
 1\1\GINC-SE096\SP\RHF\Aug-CC-pVDZ\H6O5Si2\OHZDE\09-Apr-2025\0\\#t hf a
 ug-cc-pvdz iop(5/13=1,5/36=2,99/5=2) pseudo=read geom=check guess=(rea
 d,tcheck) scf=(maxcycle=1)\\title\\0,1\Si,0,0.982077,-0.005525,0.03233
 9\Si,0,-1.326948,-0.085214,0.439063\O,0,1.320854,1.458358,-0.650372\H,
 0,0.601997,2.09833,-0.613524\O,0,-2.074464,-1.364718,-0.292103\H,0,-1.
 6863,-1.706298,-1.101846\O,0,1.501412,-1.131796,-1.060106\H,0,1.753878
 ,-0.782967,-1.919379\O,0,-1.755618,1.38702,-0.214574\H,0,-2.669038,1.6
 7911,-0.145589\O,0,1.749198,-0.272272,1.453919\H,0,2.690393,-0.467767,

 Normal termination of Gaussian 16 at Wed Apr  9 00:08:59 2025.
