 Gaussian 16, Revision C.01,

 ----------------------------------------------------------------------
 #t hf aug-cc-pvdz symm=none int=(grid=ultrafine) guess=(read,tcheck) s
 table=(opt,rrhf)
 ----------------------------------------------------------------------
 -----
 title
 -----
 Symbolic Z-matrix:
 Charge =  0 Multiplicity = 1

 SCF Done:  E(RHF) =  -979.652604910     A.U. after   16 cycles
 Normal termination of Gaussian 16 at Tue Apr  8 22:52:36 2025.
 Gaussian 16:  ES64L-G16RevC.01  3-Jul-2019

 ----------------------------------------------------------------------
 #t hf aug-cc-pvdz iop(5/13=1,5/36=2,99/5=2) pseudo=read geom=check gue
 ss=(read,tcheck) scf=(maxcycle=1)
 ----------------------------------------------------------------------
 -----
 title
 -----
 Structure from the checkpoint file:  "BDE49_expt_1832_mol1.chk"
 Charge =  0 Multiplicity = 1

                         Standard orientation:
 ---------------------------------------------------------------------
 Center     Atomic      Atomic             Coordinates (Angstroms)
 Number     Number       Type             X           Y           Z
 ---------------------------------------------------------------------
      1         16           0        2.448775    0.390531   -0.000041
      2          6           0        1.125499   -0.441158    0.000098
      3          7           0        0.145079   -1.155099    0.000043
      4         16           0       -1.526777   -0.883568   -0.000046
      5          6           0       -1.663696    0.811825    0.000013
      6          7           0       -1.791191    1.964326    0.000061
 ---------------------------------------------------------------------

 SCF Done:  E(RHF) =  -979.751475541     A.U. after    2 cycles

 The electronic state is 1-A.
 Alpha  occ. eigenvalues --  -93.67686 -93.57752 -15.71828 -15.68453 -11.42730
 Alpha  occ. eigenvalues --  -11.33595  -8.96728  -8.87651  -6.30955  -6.30619
 Alpha  occ. eigenvalues --   -6.30143  -6.21928  -6.21307  -6.21199  -1.29887
 Alpha  occ. eigenvalues --   -1.22668  -1.09854  -1.03620  -0.82160  -0.64196
 Alpha  occ. eigenvalues --   -0.63170  -0.62641  -0.59935  -0.55641  -0.54405
 Alpha  occ. eigenvalues --   -0.50335  -0.44638  -0.41548  -0.36678
 Alpha virt. eigenvalues --    0.02195   0.05056   0.06069   0.07157   0.08754
 Alpha virt. eigenvalues --    0.08888   0.09180   0.09901   0.11381   0.12033
 Alpha virt. eigenvalues --    0.13008   0.13369   0.13831   0.15509   0.16363

 Mulliken charges:
               1
     1  S    0.372294
     2  C   -0.363484
     3  N   -0.579410
     4  S    1.116968
     5  C   -0.366877
     6  N   -0.179492
 Sum of Mulliken charges =  -0.00000

 Dipole moment (field-independent basis, Debye):
    X=              0.0587    Y=             -2.2639    Z=             -0.0001  Tot=              2.2647

 Test job not archived.
 1\1\GINC-SE249\SP\RHF\Aug-CC-pVDZ\C2N2S2\OHZDE\08-Apr-2025\0\\#t hf au
 g-cc-pvdz iop(5/13=1,5/36=2,99/5=2) pseudo=read geom=check guess=(read
 ,tcheck) scf=(maxcycle=1)\\title\\0,1\S,0,2.448775,0.390531,-0.000041\
 C,0,1.125499,-0.441158,0.000098\N,0,0.145079,-1.155099,0.000043\S,0,-1
 .526777,-0.883568,-0.000046\C,0,-1.663696,0.811825,0.000013\N,0,-1.791
 191,1.964326,0.000061\\Version=ES64L-G16RevC.01\State=1-A\HF=-979.7514
 755\RMSD=5.323e-03\Dipole=0.0230764,-0.8906899,-0.0000388\Quadrupole=2
 .4160232,-2.8364415,0.4204184,4.2099504,0.0000784,-0.0001973\PG=C01 [X

 Normal termination of Gaussian 16 at Tue Apr  8 22:52:38 2025.
