 Gaussian 16, Revision C.01,

 ----------------------------------------------------------------------
 #t hf aug-cc-pvdz symm=none int=(grid=ultrafine) guess=(read,tcheck) s
 table=opt
 ----------------------------------------------------------------------
 -----
 title
 -----
 Symbolic Z-matrix:
 Charge =  0 Multiplicity = 2

 SCF Done:  E(UHF) =  -856.650709852     A.U. after   16 cycles
 Normal termination of Gaussian 16 at Tue Apr  8 23:52:28 2025.
 Gaussian 16:  ES64L-G16RevC.01  3-Jul-2019

 ----------------------------------------------------------------------
 #t hf aug-cc-pvdz iop(5/13=1,5/36=2,99/5=2) pseudo=read geom=check gue
 ss=(read,tcheck) scf=(maxcycle=1)
 ----------------------------------------------------------------------
 -----
 title
 -----
 Structure from the checkpoint file:  "BDE49_nonexpt_1954_mol2.chk"
 Charge =  0 Multiplicity = 2

                         Standard orientation:
 ---------------------------------------------------------------------
 Center     Atomic      Atomic             Coordinates (Angstroms)
 Number     Number       Type             X           Y           Z
 ---------------------------------------------------------------------
      1         14           0       -1.846009   -0.129226    0.054291
      2         15           0        0.413366   -0.060950   -0.116295
      3          1           0       -2.361880    0.756568    1.124036
      4          1           0       -2.470022    0.151445   -1.258055
      5          8           0        0.716011    1.516707   -0.170575
      6          1           0        1.652486    1.726718   -0.297136
      7          8           0        0.981882   -0.438145    1.357665
      8          1           0        1.329469   -1.339024    1.367582
      9          8           0        0.988805   -0.900099   -1.181099
 ---------------------------------------------------------------------

 SCF Done:  E(UHF) =  -856.805197263     A.U. after    2 cycles

 The electronic state is 2-A.
 Alpha  occ. eigenvalues --  -81.41486 -69.10205 -20.62070 -20.61680 -20.52857
 Alpha  occ. eigenvalues --   -7.89930  -6.85633  -5.04542  -5.04419  -5.04009
 Alpha  occ. eigenvalues --   -3.96975  -3.96072  -3.96036  -1.38044  -1.34711
 Alpha  occ. eigenvalues --   -1.25946  -0.85970  -0.76512  -0.73485  -0.68253
 Alpha  occ. eigenvalues --   -0.65304  -0.62233  -0.58262  -0.57643  -0.52771
 Alpha  occ. eigenvalues --   -0.50691  -0.49061  -0.44424  -0.35275
 Alpha virt. eigenvalues --    0.03052   0.04435   0.04877   0.06491   0.07054
 Alpha virt. eigenvalues --    0.07174   0.08824   0.10479   0.10948   0.12431
 Alpha virt. eigenvalues --    0.13799   0.14999   0.15656   0.16080   0.17088

  Beta  occ. eigenvalues --  -81.41474 -69.09615 -20.61990 -20.61712 -20.52871
  Beta  occ. eigenvalues --   -7.89911  -6.84752  -5.04520  -5.04407  -5.03993
  Beta  occ. eigenvalues --   -3.95648  -3.95614  -3.94727  -1.37948  -1.34664
  Beta  occ. eigenvalues --   -1.25993  -0.85449  -0.76176  -0.70147  -0.68196
  Beta  occ. eigenvalues --   -0.64777  -0.61825  -0.58225  -0.57605  -0.52475
  Beta  occ. eigenvalues --   -0.50165  -0.48865  -0.43716
  Beta virt. eigenvalues --    0.01263   0.03224   0.04625   0.05348   0.06622
  Beta virt. eigenvalues --    0.07395   0.08265   0.09162   0.10605   0.11113
  Beta virt. eigenvalues --    0.13491   0.14857   0.15934   0.16695   0.17606

 Mulliken charges and spin densities:
               1          2
     1  Si   0.262651   1.019357
     2  P    1.834695   0.011796
     3  H   -0.026147   0.002573
     4  H   -0.057733  -0.003089
     5  O   -0.664699  -0.032078
     6  H    0.143974   0.001935
     7  O   -0.702179  -0.004178
     8  H    0.145779   0.002472
     9  O   -0.936340   0.001214
 Sum of Mulliken charges =  -0.00000   1.00000

 Dipole moment (field-independent basis, Debye):
    X=             -0.7173    Y=              0.6272    Z=              1.9924  Tot=              2.2085
                          Isotropic Fermi Contact Couplings
        Atom                 a.u.       MegaHertz       Gauss      10(-4) cm-1
     1  Si(29)             0.53885    -478.89211    -170.88061    -159.74121
     2  P(31)              0.02317      41.96175      14.97300      13.99693
     3  H(1)               0.00011       0.49333       0.17603       0.16456
     4  H(1)              -0.00148      -6.59792      -2.35430      -2.20083
     5  O(17)              0.04558     -27.63020      -9.85914      -9.21644
     6  H(1)               0.00286      12.76553       4.55506       4.25812
     7  O(17)             -0.00692       4.19375       1.49644       1.39889
     8  H(1)               0.00024       1.08486       0.38710       0.36187

 Normal termination of Gaussian 16 at Tue Apr  8 23:52:31 2025.
