 Gaussian 16, Revision C.01,

 ----------------------------------------------------------------------
 #t hf aug-cc-pvdz symm=none int=(grid=ultrafine) guess=(read,tcheck) s
 table=opt
 ----------------------------------------------------------------------
 -----
 title
 -----
 Symbolic Z-matrix:
 Charge =  0 Multiplicity = 2

 SCF Done:  E(UHF) =  -846.477256519     A.U. after   20 cycles
 Normal termination of Gaussian 16 at Wed Apr  9 00:23:20 2025.
 Gaussian 16:  ES64L-G16RevC.01  3-Jul-2019

 ----------------------------------------------------------------------
 #t hf aug-cc-pvdz iop(5/13=1,5/36=2,99/5=2) pseudo=read geom=check gue
 ss=(read,tcheck) scf=(maxcycle=1)
 ----------------------------------------------------------------------
 -----
 title
 -----
 Structure from the checkpoint file:  "BDE49_nonexpt_2727_mol2.chk"
 Charge =  0 Multiplicity = 2

                         Standard orientation:
 ---------------------------------------------------------------------
 Center     Atomic      Atomic             Coordinates (Angstroms)
 Number     Number       Type             X           Y           Z
 ---------------------------------------------------------------------
      1         16           0        1.950488   -0.470478    0.000093
      2          6           0        0.530157    0.563115   -0.000167
      3          8           0        0.639165    1.759234   -0.000036
      4          6           0       -0.856105   -0.129709   -0.000037
      5          9           0       -0.721118   -1.468289   -0.000066
      6          9           0       -1.548739    0.226007   -1.086719
      7          9           0       -1.548525    0.225985    1.086787
 ---------------------------------------------------------------------

 SCF Done:  E(UHF) =  -846.652161294     A.U. after    2 cycles

 The electronic state is 2-A.
 Alpha  occ. eigenvalues --  -93.62073 -26.20271 -26.19791 -26.19781 -20.62998
 Alpha  occ. eigenvalues --  -11.56835 -11.43275  -8.91889  -6.27247  -6.25533
 Alpha  occ. eigenvalues --   -6.25065  -1.79661  -1.72724  -1.72415  -1.42753
 Alpha  occ. eigenvalues --   -1.10716  -1.05044  -0.93714  -0.91395  -0.91340
 Alpha  occ. eigenvalues --   -0.80663  -0.80423  -0.78125  -0.76249  -0.76192
 Alpha  occ. eigenvalues --   -0.74884  -0.70350  -0.66717  -0.61758  -0.50704
 Alpha  occ. eigenvalues --   -0.48759  -0.44156
 Alpha virt. eigenvalues --    0.05609   0.05828   0.07652   0.08707   0.09377
 Alpha virt. eigenvalues --    0.10154   0.11273   0.12969   0.13307   0.13474
 Alpha virt. eigenvalues --    0.14760   0.19010   0.19702   0.23146   0.23893

  Beta  occ. eigenvalues --  -93.61117 -26.20224 -26.19786 -26.19776 -20.62937
  Beta  occ. eigenvalues --  -11.56822 -11.43369  -8.90822  -6.25007  -6.24432
  Beta  occ. eigenvalues --   -6.23087  -1.79612  -1.72634  -1.72402  -1.42458
  Beta  occ. eigenvalues --   -1.09610  -1.00391  -0.92204  -0.91386  -0.90793
  Beta  occ. eigenvalues --   -0.80450  -0.80376  -0.76905  -0.76176  -0.75936
  Beta  occ. eigenvalues --   -0.74867  -0.69496  -0.64635  -0.61895  -0.48070
  Beta  occ. eigenvalues --   -0.41826
  Beta virt. eigenvalues --   -0.02990   0.05667   0.05858   0.07724   0.09039
  Beta virt. eigenvalues --    0.09421   0.10456   0.12593   0.13092   0.13435
  Beta virt. eigenvalues --    0.13564   0.15028   0.19765   0.21024   0.23478

 Mulliken charges and spin densities:
               1          2
     1  S    0.365292   1.102967
     2  C   -0.174051  -0.092691
     3  O   -0.413240  -0.004356
     4  C    1.023998   0.000979
     5  F   -0.246324  -0.009976
     6  F   -0.277837   0.001538
     7  F   -0.277838   0.001538
 Sum of Mulliken charges =  -0.00000   1.00000

 Dipole moment (field-independent basis, Debye):
    X=              1.4407    Y=             -1.8839    Z=             -0.0002  Tot=              2.3716
                          Isotropic Fermi Contact Couplings
        Atom                 a.u.       MegaHertz       Gauss      10(-4) cm-1
     1  S(33)              0.23047      79.16180      28.24690      26.40553
     2  C(13)             -0.02144     -24.10651      -8.60180      -8.04107
     3  O(17)              0.01472      -8.92447      -3.18447      -2.97688
     4  C(13)              0.00316       3.55798       1.26958       1.18681
     5  F(19)              0.01187      49.94197      17.82054      16.65885
     6  F(19)              0.00064       2.67433       0.95427       0.89206
     7  F(19)              0.00063       2.67126       0.95317       0.89104
 --------------------------------------------------------

 Normal termination of Gaussian 16 at Wed Apr  9 00:23:24 2025.
