 Gaussian 16, Revision C.01,

 ----------------------------------------------------------------------
 #t hf aug-cc-pvdz symm=none int=(grid=ultrafine) guess=(read,tcheck) s
 table=(opt,rrhf)
 ----------------------------------------------------------------------
 -----
 title
 -----
 Symbolic Z-matrix:
 Charge =  0 Multiplicity = 1

 SCF Done:  E(RHF) =  -409.374145018     A.U. after   12 cycles
 Normal termination of Gaussian 16 at Wed Apr  9 00:29:19 2025.
 Gaussian 16:  ES64L-G16RevC.01  3-Jul-2019

 ----------------------------------------------------------------------
 #t hf aug-cc-pvdz iop(5/13=1,5/36=2,99/5=2) pseudo=read geom=check gue
 ss=(read,tcheck) scf=(maxcycle=1)
 ----------------------------------------------------------------------
 -----
 title
 -----
 Structure from the checkpoint file:  "BDE49_nonexpt_333_mol1.chk"
 Charge =  0 Multiplicity = 1

                         Standard orientation:
 ---------------------------------------------------------------------
 Center     Atomic      Atomic             Coordinates (Angstroms)
 Number     Number       Type             X           Y           Z
 ---------------------------------------------------------------------
      1          6           0       -1.851275   -1.322756   -0.031520
      2          6           0       -0.355403   -1.219841   -0.360921
      3          6           0       -2.587185   -0.006195   -0.317034
      4          1           0       -1.966838   -1.578060    1.029866
      5          1           0       -2.306707   -2.140623   -0.600061
      6          6           0       -1.931526    1.174555    0.412373
      7          1           0       -3.640529   -0.088759   -0.029799
      8          1           0       -2.574008    0.186529   -1.398006
      9          6           0       -0.433234    1.278179    0.088465
     10          1           0       -2.052315    1.042095    1.495183
     11          1           0       -2.439780    2.109625    0.154086
     12          6           0        0.323239   -0.035867    0.373508
     13          1           0        0.006866    2.104792    0.659929
     14          1           0       -0.325694    1.537786   -0.975795
     15          1           0       -0.237724   -1.088202   -1.445661
     16          1           0        0.156996   -2.151240   -0.106377
     17          5           0        1.876061    0.016724    0.065707
     18          1           0        0.234410   -0.242914    1.451765
     19          8           0        2.519959    1.088919   -0.502037
     20          8           0        2.640091   -1.072207    0.377938
     21          1           0        3.565234   -0.937705    0.145102
     22          1           0        1.931689    1.820911   -0.705204
 ---------------------------------------------------------------------

 SCF Done:  E(RHF) =  -409.504557903     A.U. after    2 cycles

 The electronic state is 1-A.
 Alpha  occ. eigenvalues --  -20.58007 -20.57101 -11.23296 -11.22739 -11.22525
 Alpha  occ. eigenvalues --  -11.22493 -11.22304 -11.21041  -7.64668  -1.33962
 Alpha  occ. eigenvalues --   -1.30061  -1.10065  -0.99545  -0.99365  -0.83557
 Alpha  occ. eigenvalues --   -0.82954  -0.77475  -0.75350  -0.73361  -0.65334
 Alpha  occ. eigenvalues --   -0.62884  -0.60611  -0.60127  -0.58859  -0.57677
 Alpha  occ. eigenvalues --   -0.57044  -0.52743  -0.51873  -0.51457  -0.50417
 Alpha  occ. eigenvalues --   -0.48486  -0.47935  -0.45112  -0.42971  -0.41601
 Alpha virt. eigenvalues --    0.02972   0.04081   0.04285   0.04403   0.05786
 Alpha virt. eigenvalues --    0.06238   0.06427   0.06565   0.06730   0.08169
 Alpha virt. eigenvalues --    0.08615   0.08848   0.09064   0.09358   0.10309

 Mulliken charges:
               1
     1  C    0.328519
     2  C    0.329318
     3  C    0.255758
     4  H   -0.080660
     5  H   -0.103844
     6  C    0.263547
     7  H   -0.116536
     8  H   -0.098720
     9  C    0.276955
    10  H   -0.069757
    11  H   -0.094712
    12  C   -0.069721
    13  H   -0.224045
    14  H   -0.145487
    15  H   -0.189260
    16  H   -0.204393
    17  B    0.873020
    18  H   -0.230095
    19  O   -0.452990
    20  O   -0.612954
    21  H    0.179067
    22  H    0.186993
 Sum of Mulliken charges =   0.00000

 Dipole moment (field-independent basis, Debye):
    X=             -0.7407    Y=              1.2165    Z=             -0.3802  Tot=              1.4741

 Test job not archived.
 1\1\GINC-SE127\SP\RHF\Aug-CC-pVDZ\C6H13B1O2\OHZDE\09-Apr-2025\0\\#t hf
  aug-cc-pvdz iop(5/13=1,5/36=2,99/5=2) pseudo=read geom=check guess=(r
 ead,tcheck) scf=(maxcycle=1)\\title\\0,1\C,0,-1.851275,-1.322756,-0.03
 152\C,0,-0.355403,-1.219841,-0.360921\C,0,-2.587185,-0.006195,-0.31703
 4\H,0,-1.966838,-1.57806,1.029866\H,0,-2.306707,-2.140623,-0.600061\C,
 0,-1.931526,1.174555,0.412373\H,0,-3.640529,-0.088759,-0.029799\H,0,-2
 .574008,0.186529,-1.398006\C,0,-0.433234,1.278179,0.088465\H,0,-2.0523
 15,1.042095,1.495183\H,0,-2.43978,2.109625,0.154086\C,0,0.323239,-0.03

 Normal termination of Gaussian 16 at Wed Apr  9 00:29:31 2025.
