 Gaussian 16, Revision C.01,

 ----------------------------------------------------------------------
 #t hf aug-cc-pvdz symm=none int=(grid=ultrafine) guess=(read,tcheck) s
 table=opt
 ----------------------------------------------------------------------
 -----
 title
 -----
 Symbolic Z-matrix:
 Charge =  0 Multiplicity = 2

 SCF Done:  E(UHF) =  -627.955789327     A.U. after   26 cycles
 Normal termination of Gaussian 16 at Tue Apr  8 23:14:24 2025.
 Gaussian 16:  ES64L-G16RevC.01  3-Jul-2019

 ----------------------------------------------------------------------
 #t hf aug-cc-pvdz iop(5/13=1,5/36=2,99/5=2) pseudo=read geom=check gue
 ss=(read,tcheck) scf=(maxcycle=1)
 ----------------------------------------------------------------------
 -----
 title
 -----
 Structure from the checkpoint file:  "BDE49_nonexpt_1006_mol2.chk"
 Charge =  0 Multiplicity = 2

                         Standard orientation:
 ---------------------------------------------------------------------
 Center     Atomic      Atomic             Coordinates (Angstroms)
 Number     Number       Type             X           Y           Z
 ---------------------------------------------------------------------
      1          6           0       -0.947402    0.221798   -0.375886
      2          6           0        0.347638   -0.495877   -0.033560
      3         16           0        1.904308    0.341777   -0.047958
      4          8           0        0.443192   -1.675421    0.233449
      5          6           0       -1.009218    1.623632    0.247444
      6          1           0       -1.030184    1.566213    1.338786
      7          1           0       -1.913940    2.137781   -0.085213
      8          1           0       -0.154235    2.239255   -0.043266
      9          6           0       -2.159313   -0.644458   -0.016567
     10          1           0       -0.907501    0.340705   -1.468084
     11          1           0       -2.240471   -0.770266    1.066188
     12          1           0       -2.081579   -1.637031   -0.461812
     13          1           0       -3.076786   -0.172295   -0.375445
 ---------------------------------------------------------------------

 SCF Done:  E(UHF) =  -628.045635140     A.U. after    2 cycles

 The electronic state is 2-A.
 Alpha  occ. eigenvalues --  -93.57768 -20.58065 -11.38205 -11.27614 -11.25220
 Alpha  occ. eigenvalues --  -11.23966  -8.87628  -6.23013  -6.21300  -6.20831
 Alpha  occ. eigenvalues --   -1.37849  -1.09967  -1.01607  -0.94858  -0.87234
 Alpha  occ. eigenvalues --   -0.73746  -0.68419  -0.64649  -0.63623  -0.58247
 Alpha  occ. eigenvalues --   -0.56468  -0.55970  -0.55231  -0.50668  -0.50068
 Alpha  occ. eigenvalues --   -0.46170  -0.43010  -0.40381
 Alpha virt. eigenvalues --    0.03123   0.04610   0.04714   0.05487   0.06849
 Alpha virt. eigenvalues --    0.07443   0.07579   0.08383   0.10918   0.11467
 Alpha virt. eigenvalues --    0.12137   0.13274   0.14285   0.15012   0.15337

  Beta  occ. eigenvalues --  -93.56836 -20.57823 -11.38323 -11.27617 -11.25189
  Beta  occ. eigenvalues --  -11.23965  -8.86588  -6.20773  -6.20235  -6.18938
  Beta  occ. eigenvalues --   -1.37187  -1.09669  -0.96387  -0.94164  -0.85579
  Beta  occ. eigenvalues --   -0.72770  -0.67302  -0.64374  -0.61783  -0.57785
  Beta  occ. eigenvalues --   -0.56269  -0.55630  -0.54726  -0.50584  -0.50001
  Beta  occ. eigenvalues --   -0.42010  -0.38061
  Beta virt. eigenvalues --    0.00250   0.03181   0.04657   0.04829   0.05533
  Beta virt. eigenvalues --    0.06895   0.07464   0.07597   0.08713   0.10915
  Beta virt. eigenvalues --    0.11610   0.12188   0.13773   0.14414   0.15172

 Mulliken charges and spin densities:
               1          2
     1  C   -0.993894  -0.006611
     2  C    0.088119  -0.118001
     3  S    0.230890   1.092834
     4  O   -0.513656   0.024527
     5  C    0.679250   0.006496
     6  H   -0.011126   0.001042
     7  H   -0.047782  -0.000584
     8  H   -0.113406   0.005497
     9  C    0.748004  -0.004146
    10  H    0.046587  -0.000781
    11  H   -0.022493  -0.000494
    12  H   -0.054633  -0.000981
    13  H   -0.035860   0.001202
 Sum of Mulliken charges =  -0.00000   1.00000

 Dipole moment (field-independent basis, Debye):
    X=             -1.7579    Y=              2.8928    Z=             -0.7623  Tot=              3.4698
                          Isotropic Fermi Contact Couplings
        Atom                 a.u.       MegaHertz       Gauss      10(-4) cm-1
     1  C(13)             -0.00027      -0.30710      -0.10958      -0.10244
     2  C(13)             -0.01965     -22.09198      -7.88297      -7.36909
     3  S(33)              0.21758      74.73402      26.66696      24.92859
     4  O(17)              0.03573     -21.65660      -7.72761      -7.22386
     5  C(13)              0.00578       6.49993       2.31934       2.16814
     6  H(1)              -0.00016      -0.73165      -0.26107      -0.24405
     7  H(1)               0.00045       2.02397       0.72220       0.67512
     8  H(1)               0.00043       1.93827       0.69162       0.64654

 Normal termination of Gaussian 16 at Tue Apr  8 23:14:29 2025.
