 Gaussian 16, Revision C.01,

 ----------------------------------------------------------------------
 #t hf aug-cc-pvdz symm=none int=(grid=ultrafine) guess=(read,tcheck) s
 table=(opt,rrhf)
 ----------------------------------------------------------------------
 -----
 title
 -----
 Symbolic Z-matrix:
 Charge =  0 Multiplicity = 1

 SCF Done:  E(RHF) =  -1047.03787716     A.U. after   10 cycles
 Normal termination of Gaussian 16 at Tue Apr  8 23:46:13 2025.
 Gaussian 16:  ES64L-G16RevC.01  3-Jul-2019

 ----------------------------------------------------------------------
 #t hf aug-cc-pvdz iop(5/13=1,5/36=2,99/5=2) pseudo=read geom=check gue
 ss=(read,tcheck) scf=(maxcycle=1)
 ----------------------------------------------------------------------
 -----
 title
 -----
 Structure from the checkpoint file:  "BDE49_nonexpt_1803_mol1.chk"
 Charge =  0 Multiplicity = 1

                         Standard orientation:
 ---------------------------------------------------------------------
 Center     Atomic      Atomic             Coordinates (Angstroms)
 Number     Number       Type             X           Y           Z
 ---------------------------------------------------------------------
      1         14           0        0.335838    0.000054   -0.000004
      2          9           0        0.884804   -0.777136   -1.253797
      3          9           0        0.884772   -0.697406    1.299838
      4         17           0       -1.681822   -0.000011   -0.000008
      5          9           0        0.884784    1.474479   -0.046020
 ---------------------------------------------------------------------

 SCF Done:  E(RHF) =  -1047.22272531     A.U. after    2 cycles

 The electronic state is 1-A.
 Alpha  occ. eigenvalues -- -103.70038 -69.27186 -26.16311 -26.16309 -26.16308
 Alpha  occ. eigenvalues --  -10.73571  -8.39268  -8.39011  -8.39011  -7.00396
 Alpha  occ. eigenvalues --   -4.11455  -4.11455  -4.11388  -1.70790  -1.68983
 Alpha  occ. eigenvalues --   -1.68981  -1.19064  -0.89460  -0.83095  -0.83093
 Alpha  occ. eigenvalues --   -0.79851  -0.77855  -0.77854  -0.75611  -0.75610
 Alpha  occ. eigenvalues --   -0.74071  -0.61745  -0.52947  -0.52947
 Alpha virt. eigenvalues --    0.04887   0.05965   0.06204   0.06204   0.12366
 Alpha virt. eigenvalues --    0.14590   0.14590   0.18789   0.19186   0.19188
 Alpha virt. eigenvalues --    0.20660   0.20662   0.23119   0.24629   0.27251

 Mulliken charges:
               1
     1  Si   2.695365
     2  F   -0.779296
     3  F   -0.779296
     4  Cl  -0.357489
     5  F   -0.779284
 Sum of Mulliken charges =  -0.00000

 Dipole moment (field-independent basis, Debye):
    X=             -0.8586    Y=              0.0006    Z=             -0.0001  Tot=              0.8586

 Test job not archived.
 1\1\GINC-SE362\SP\RHF\Aug-CC-pVDZ\Cl1F3Si1\OHZDE\08-Apr-2025\0\\#t hf
 aug-cc-pvdz iop(5/13=1,5/36=2,99/5=2) pseudo=read geom=check guess=(re
 ad,tcheck) scf=(maxcycle=1)\\title\\0,1\Si,0,0.335838,0.000054,-0.0000
 04\F,0,0.884804,-0.774759,-1.255267\F,0,0.884773,-0.699867,1.298514\Cl
 ,0,-1.681822,-0.000012,-0.000007\F,0,0.884783,1.474564,-0.043227\\Vers
 ion=ES64L-G16RevC.01\State=1-A\HF=-1047.2227253\RMSD=4.966e-03\Dipole=
 -0.337782,0.0002436,-0.0000225\Quadrupole=1.0536945,-0.5272419,-0.5264
 525,0.0004224,-0.0000023,-0.0000068\PG=C01 [X(Cl1F3Si1)]\\@

 Normal termination of Gaussian 16 at Tue Apr  8 23:46:15 2025.
