 Gaussian 16, Revision C.01,

 ----------------------------------------------------------------------
 #t hf aug-cc-pvdz symm=none int=(grid=ultrafine) guess=(read,tcheck) s
 table=(opt,rrhf)
 ----------------------------------------------------------------------
 -----
 title
 -----
 Symbolic Z-matrix:
 Charge =  0 Multiplicity = 1

 SCF Done:  E(RHF) =  -602.172151612     A.U. after   14 cycles
 Normal termination of Gaussian 16 at Tue Apr  8 23:12:45 2025.
 Gaussian 16:  ES64L-G16RevC.01  3-Jul-2019

 ----------------------------------------------------------------------
 #t hf aug-cc-pvdz iop(5/13=1,5/36=2,99/5=2) pseudo=read geom=check gue
 ss=(read,tcheck) scf=(maxcycle=1)
 ----------------------------------------------------------------------
 -----
 title
 -----
 Structure from the checkpoint file:  "BDE49_nonexpt_1000_mol1.chk"
 Charge =  0 Multiplicity = 1

                         Standard orientation:
 ---------------------------------------------------------------------
 Center     Atomic      Atomic             Coordinates (Angstroms)
 Number     Number       Type             X           Y           Z
 ---------------------------------------------------------------------
      1         16           0        1.267822   -0.090780   -0.000081
      2          7           0       -0.580278    0.003576   -0.000038
      3          8           0       -1.085596    1.099100   -0.000082
      4          8           0       -1.119352   -1.076296    0.000117
      5          1           0        1.416381    1.245002    0.001289
 ---------------------------------------------------------------------

 SCF Done:  E(RHF) =  -602.257224364     A.U. after    2 cycles

 The electronic state is 1-A.
 Alpha  occ. eigenvalues --  -93.63558 -20.64872 -20.64808 -15.95589  -8.92960
 Alpha  occ. eigenvalues --   -6.27097  -6.26805  -6.26386  -1.58368  -1.40865
 Alpha  occ. eigenvalues --   -1.07033  -0.88404  -0.78324  -0.76567  -0.75508
 Alpha  occ. eigenvalues --   -0.60100  -0.53783  -0.50491  -0.49350  -0.44058
 Alpha virt. eigenvalues --    0.02731   0.04687   0.06207   0.09435   0.10483
 Alpha virt. eigenvalues --    0.11268   0.13813   0.16075   0.16495   0.17778
 Alpha virt. eigenvalues --    0.18440   0.22709   0.24738   0.26627   0.27965

 Mulliken charges:
               1
     1  S    0.503772
     2  N    0.372778
     3  O   -0.501781
     4  O   -0.488090
     5  H    0.113321
 Sum of Mulliken charges =  -0.00000

 Dipole moment (field-independent basis, Debye):
    X=              3.5044    Y=              0.8971    Z=              0.0008  Tot=              3.6174

 Test job not archived.
 1\1\GINC-SE074\SP\RHF\Aug-CC-pVDZ\H1N1O2S1\OHZDE\08-Apr-2025\0\\#t hf
 aug-cc-pvdz iop(5/13=1,5/36=2,99/5=2) pseudo=read geom=check guess=(re
 ad,tcheck) scf=(maxcycle=1)\\title\\0,1\S,0,1.267822,-0.090779,-0.0000
 81\N,0,-0.580278,0.003576,-0.000038\O,0,-1.085596,1.0991,-0.000082\O,0
 ,-1.119352,-1.076296,0.000117\H,0,1.416381,1.245003,0.001289\\Version=
 ES64L-G16RevC.01\State=1-A\HF=-602.2572244\RMSD=5.248e-03\Dipole=1.378
 7492,0.3529545,0.0003257\Quadrupole=0.5951346,-0.8216526,0.226518,1.38
 0473,0.0015471,0.003027\PG=C01 [X(H1N1O2S1)]\\@

 Normal termination of Gaussian 16 at Tue Apr  8 23:12:47 2025.
