 Gaussian 16, Revision C.01,

 ----------------------------------------------------------------------
 #t hf aug-cc-pvdz symm=none int=(grid=ultrafine) guess=(read,tcheck) s
 table=(opt,rrhf)
 ----------------------------------------------------------------------
 -----
 title
 -----
 Symbolic Z-matrix:
 Charge =  0 Multiplicity = 1

 SCF Done:  E(RHF) =  -350.103767141     A.U. after   15 cycles
 Normal termination of Gaussian 16 at Wed Apr  9 00:38:03 2025.
 Gaussian 16:  ES64L-G16RevC.01  3-Jul-2019

 ----------------------------------------------------------------------
 #t hf aug-cc-pvdz iop(5/13=1,5/36=2,99/5=2) pseudo=read geom=check gue
 ss=(read,tcheck) scf=(maxcycle=1)
 ----------------------------------------------------------------------
 -----
 title
 -----
 Structure from the checkpoint file:  "BDE49_nonexpt_574_mol1.chk"
 Charge =  0 Multiplicity = 1

                         Standard orientation:
 ---------------------------------------------------------------------
 Center     Atomic      Atomic             Coordinates (Angstroms)
 Number     Number       Type             X           Y           Z
 ---------------------------------------------------------------------
      1          6           0        0.008398   -0.352155    0.175376
      2          6           0       -0.310817    1.009762    0.199394
      3          6           0       -1.628707    1.431940    0.052866
      4          6           0       -2.649988    0.498168   -0.120576
      5          6           0       -2.343039   -0.859259   -0.148601
      6          6           0       -1.021351   -1.278567   -0.004014
      7          5           0        3.538588    0.576304   -0.033180
      8          1           0       -1.860382    2.491115    0.074684
      9          1           0       -3.676299    0.827975   -0.235968
     10          1           0       -3.129500   -1.592623   -0.288158
     11          1           0       -0.787661   -2.338448   -0.031085
     12          1           0        0.480287    1.740060    0.328118
     13          6           0        1.439764   -0.822399    0.367600
     14          7           0        2.409813   -0.109586   -0.460466
     15          1           0        3.777445    0.629180    1.135246
     16          1           0        4.237608    1.097425   -0.846949
     17          1           0        1.488921   -1.897703    0.161576
     18          1           0        1.745616   -0.684275    1.408316
     19          1           0        2.196774   -0.152062   -1.448885
 ---------------------------------------------------------------------

 SCF Done:  E(RHF) =  -350.209818029     A.U. after    2 cycles

 The electronic state is 1-A.
 Alpha  occ. eigenvalues --  -15.62399 -11.27929 -11.25340 -11.24868 -11.24821
 Alpha  occ. eigenvalues --  -11.24667 -11.24596 -11.24428  -7.59577  -1.17455
 Alpha  occ. eigenvalues --   -1.13813  -1.02631  -1.01223  -0.91472  -0.83282
 Alpha  occ. eigenvalues --   -0.80589  -0.72839  -0.70595  -0.65691  -0.64443
 Alpha  occ. eigenvalues --   -0.61353  -0.59510  -0.58461  -0.57543  -0.53997
 Alpha  occ. eigenvalues --   -0.50657  -0.49975  -0.49436  -0.46198  -0.40780
 Alpha  occ. eigenvalues --   -0.34350  -0.33543
 Alpha virt. eigenvalues --    0.03189   0.03711   0.03853   0.04551   0.05216
 Alpha virt. eigenvalues --    0.05240   0.06741   0.07134   0.07526   0.08116
 Alpha virt. eigenvalues --    0.09450   0.10074   0.10339   0.10643   0.12333

 Mulliken charges:
               1
     1  C    0.502022
     2  C    0.174212
     3  C    0.227845
     4  C    0.577109
     5  C    0.312229
     6  C    0.592970
     7  B   -0.628675
     8  H   -0.457881
     9  H   -0.439047
    10  H   -0.442865
    11  H   -0.561063
    12  H   -0.596366
    13  C    0.837940
    14  N   -0.304197
    15  H    0.223077
    16  H    0.387447
    17  H   -0.250172
    18  H   -0.114734
    19  H   -0.039851
 Sum of Mulliken charges =  -0.00000

 Dipole moment (field-independent basis, Debye):
    X=             -1.2628    Y=             -0.7723    Z=             -0.4606  Tot=              1.5502

 Test job not archived.
 1\1\GINC-SE054\SP\RHF\Aug-CC-pVDZ\C7H10B1N1\OHZDE\09-Apr-2025\0\\#t hf
  aug-cc-pvdz iop(5/13=1,5/36=2,99/5=2) pseudo=read geom=check guess=(r
 ead,tcheck) scf=(maxcycle=1)\\title\\0,1\C,0,0.008398,-0.352155,0.1753
 76\C,0,-0.310817,1.009762,0.199394\C,0,-1.628707,1.43194,0.052866\C,0,
 -2.649988,0.498168,-0.120576\C,0,-2.343039,-0.859259,-0.148601\C,0,-1.
 021351,-1.278567,-0.004014\B,0,3.538588,0.576304,-0.03318\H,0,-1.86038
 2,2.491115,0.074684\H,0,-3.676299,0.827975,-0.235968\H,0,-3.1295,-1.59
 2623,-0.288158\H,0,-0.787661,-2.338448,-0.031085\H,0,0.480287,1.74006,

 Normal termination of Gaussian 16 at Wed Apr  9 00:38:12 2025.
