 Gaussian 16, Revision C.01,

 ----------------------------------------------------------------------
 #t hf aug-cc-pvdz symm=none int=(grid=ultrafine) guess=(read,tcheck) s
 table=(opt,rrhf)
 ----------------------------------------------------------------------
 -----
 title
 -----
 Symbolic Z-matrix:
 Charge =  0 Multiplicity = 1

 SCF Done:  E(RHF) =  -535.978074018     A.U. after   13 cycles
 Normal termination of Gaussian 16 at Wed Apr  9 00:04:15 2025.
 Gaussian 16:  ES64L-G16RevC.01  3-Jul-2019

 ----------------------------------------------------------------------
 #t hf aug-cc-pvdz iop(5/13=1,5/36=2,99/5=2) pseudo=read geom=check gue
 ss=(read,tcheck) scf=(maxcycle=1)
 ----------------------------------------------------------------------
 -----
 title
 -----
 Structure from the checkpoint file:  "BDE49_nonexpt_2235_mol1.chk"
 Charge =  0 Multiplicity = 1

                         Standard orientation:
 ---------------------------------------------------------------------
 Center     Atomic      Atomic             Coordinates (Angstroms)
 Number     Number       Type             X           Y           Z
 ---------------------------------------------------------------------
      1         14           0       -1.446653   -0.362857    0.160401
      2          8           0       -0.056644   -1.012055   -0.501066
      3          6           0        1.215679   -1.067159    0.096024
      4          6           0        1.922998    0.225902    0.052869
      5          1           0        1.815238   -1.803271   -0.445868
      6          1           0        1.162094   -1.388349    1.144786
      7          7           0        2.459908    1.245197    0.026262
      8          6           0       -1.580478    1.478177   -0.105532
      9          1           0       -0.750693    2.015593    0.360442
     10          1           0       -2.513626    1.847897    0.332594
     11          1           0       -1.587510    1.722040   -1.171152
     12          1           0       -1.442466   -0.674307    1.613680
     13          1           0       -2.545283   -1.081058   -0.515564
 ---------------------------------------------------------------------

 SCF Done:  E(RHF) =  -536.088189863     A.U. after    2 cycles

 The electronic state is 1-A.
 Alpha  occ. eigenvalues --  -69.10192 -20.59141 -15.65219 -11.36141 -11.29625
 Alpha  occ. eigenvalues --  -11.22513  -6.84999  -3.95924  -3.95765  -3.95730
 Alpha  occ. eigenvalues --   -1.34388  -1.20229  -1.00996  -0.95028  -0.76773
 Alpha  occ. eigenvalues --   -0.72662  -0.68675  -0.63008  -0.58085  -0.57318
 Alpha  occ. eigenvalues --   -0.56098  -0.53891  -0.53362  -0.48408  -0.47373
 Alpha  occ. eigenvalues --   -0.46572  -0.45359
 Alpha virt. eigenvalues --    0.02915   0.03988   0.04728   0.05250   0.06039
 Alpha virt. eigenvalues --    0.06929   0.07543   0.08136   0.08836   0.09848
 Alpha virt. eigenvalues --    0.11155   0.12326   0.13265   0.13367   0.14436

 Mulliken charges:
               1
     1  Si   1.041510
     2  O   -0.954425
     3  C    0.907624
     4  C   -0.309544
     5  H   -0.105553
     6  H   -0.034662
     7  N   -0.168249
     8  C    0.267143
     9  H   -0.221064
    10  H   -0.240113
    11  H   -0.156785
    12  H   -0.027548
    13  H    0.001665
 Sum of Mulliken charges =  -0.00000

 Dipole moment (field-independent basis, Debye):
    X=             -1.6133    Y=             -2.1014    Z=              0.9288  Tot=              2.8073

 Test job not archived.
 1\1\GINC-SE250\SP\RHF\Aug-CC-pVDZ\C3H7N1O1Si1\OHZDE\09-Apr-2025\0\\#t
 hf aug-cc-pvdz iop(5/13=1,5/36=2,99/5=2) pseudo=read geom=check guess=
 (read,tcheck) scf=(maxcycle=1)\\title\\0,1\Si,0,-1.446653,-0.362857,0.
 160401\O,0,-0.056644,-1.012055,-0.501066\C,0,1.215679,-1.067159,0.0960
 24\C,0,1.922998,0.225902,0.052869\H,0,1.815238,-1.803271,-0.445868\H,0
 ,1.162094,-1.388349,1.144786\N,0,2.459908,1.245197,0.026262\C,0,-1.580
 478,1.478177,-0.105532\H,0,-0.750693,2.015593,0.360442\H,0,-2.513626,1
 .847897,0.332594\H,0,-1.58751,1.72204,-1.171152\H,0,-1.442466,-0.67430

 Normal termination of Gaussian 16 at Wed Apr  9 00:04:19 2025.
