 Gaussian 16, Revision C.01,

 ----------------------------------------------------------------------
 #t hf aug-cc-pvdz symm=none int=(grid=ultrafine) guess=(read,tcheck) s
 table=(opt,rrhf)
 ----------------------------------------------------------------------
 -----
 title
 -----
 Symbolic Z-matrix:
 Charge =  0 Multiplicity = 1

 SCF Done:  E(RHF) =  -761.878181145     A.U. after   12 cycles
 Normal termination of Gaussian 16 at Tue Apr  8 23:38:57 2025.
 Gaussian 16:  ES64L-G16RevC.01  3-Jul-2019

 ----------------------------------------------------------------------
 #t hf aug-cc-pvdz iop(5/13=1,5/36=2,99/5=2) pseudo=read geom=check gue
 ss=(read,tcheck) scf=(maxcycle=1)
 ----------------------------------------------------------------------
 -----
 title
 -----
 Structure from the checkpoint file:  "BDE49_nonexpt_1620_mol1.chk"
 Charge =  0 Multiplicity = 1

                         Standard orientation:
 ---------------------------------------------------------------------
 Center     Atomic      Atomic             Coordinates (Angstroms)
 Number     Number       Type             X           Y           Z
 ---------------------------------------------------------------------
      1         15           0        0.171942   -1.103466   -0.670085
      2         15           0       -0.171942    1.103466   -0.670085
      3          6           0       -0.171942   -1.700454    1.065077
      4          6           0        0.171942    1.700454    1.065077
      5          1           0       -0.319045    1.116968    1.844317
      6          1           0       -0.166041    2.737454    1.139058
      7          1           0        1.250784    1.688156    1.235245
      8          1           0       -1.250784   -1.688156    1.235245
      9          1           0        0.319045   -1.116968    1.844317
     10          1           0        0.166041   -2.737454    1.139058
     11          1           0       -1.581790    0.991774   -0.557808
     12          1           0        1.581790   -0.991774   -0.557808
 ---------------------------------------------------------------------

 SCF Done:  E(RHF) =  -761.947415433     A.U. after    2 cycles

 The electronic state is 1-A.
 Alpha  occ. eigenvalues --  -81.25652 -81.25652 -11.24410 -11.24409  -7.75974
 Alpha  occ. eigenvalues --   -7.75964  -4.89901  -4.89861  -4.89854  -4.89816
 Alpha  occ. eigenvalues --   -4.89568  -4.89545  -0.97545  -0.95586  -0.78815
 Alpha  occ. eigenvalues --   -0.69212  -0.59651  -0.58559  -0.57908  -0.55852
 Alpha  occ. eigenvalues --   -0.49577  -0.48636  -0.44263  -0.34479  -0.32744
 Alpha virt. eigenvalues --    0.03324   0.04533   0.05071   0.05526   0.06516
 Alpha virt. eigenvalues --    0.07309   0.07471   0.09426   0.09992   0.10100
 Alpha virt. eigenvalues --    0.12072   0.12357   0.12801   0.14048   0.15090

 Mulliken charges:
               1
     1  P    0.052743
     2  P    0.052743
     3  C    0.235600
     4  C    0.235600
     5  H   -0.191544
     6  H   -0.180194
     7  H   -0.108905
     8  H   -0.108905
     9  H   -0.191544
    10  H   -0.180194
    11  H    0.192299
    12  H    0.192299
 Sum of Mulliken charges =   0.00000

 Dipole moment (field-independent basis, Debye):
    X=              0.0000    Y=             -0.0000    Z=              2.2831  Tot=              2.2831

 Test job not archived.
 1\1\GINC-SE165\SP\RHF\Aug-CC-pVDZ\C2H8P2\OHZDE\08-Apr-2025\0\\#t hf au
 g-cc-pvdz iop(5/13=1,5/36=2,99/5=2) pseudo=read geom=check guess=(read
 ,tcheck) scf=(maxcycle=1)\\title\\0,1\P,0,0.171942,-1.103466,-0.670085
 \P,0,-0.171942,1.103466,-0.670085\C,0,-0.171942,-1.700454,1.065077\C,0
 ,0.171942,1.700454,1.065077\H,0,-0.319045,1.116968,1.844317\H,0,-0.166
 041,2.737454,1.139058\H,0,1.250784,1.688156,1.235245\H,0,-1.250784,-1.
 688156,1.235245\H,0,0.319045,-1.116968,1.844317\H,0,0.166041,-2.737454
 ,1.139058\H,0,-1.58179,0.991774,-0.557808\H,0,1.58179,-0.991774,-0.557

 Normal termination of Gaussian 16 at Tue Apr  8 23:39:02 2025.
