 Gaussian 16, Revision C.01,

 ----------------------------------------------------------------------
 #t hf aug-cc-pvdz symm=none int=(grid=ultrafine) guess=(read,tcheck) s
 table=(opt,rrhf)
 ----------------------------------------------------------------------
 -----
 title
 -----
 Symbolic Z-matrix:
 Charge =  0 Multiplicity = 1

 SCF Done:  E(RHF) =  -836.264096323     A.U. after   17 cycles
 Normal termination of Gaussian 16 at Tue Apr  8 23:54:44 2025.
 Gaussian 16:  ES64L-G16RevC.01  3-Jul-2019

 ----------------------------------------------------------------------
 #t hf aug-cc-pvdz iop(5/13=1,5/36=2,99/5=2) pseudo=read geom=check gue
 ss=(read,tcheck) scf=(maxcycle=1)
 ----------------------------------------------------------------------
 -----
 title
 -----
 Structure from the checkpoint file:  "BDE49_nonexpt_1998_mol1.chk"
 Charge =  0 Multiplicity = 1

                         Standard orientation:
 ---------------------------------------------------------------------
 Center     Atomic      Atomic             Coordinates (Angstroms)
 Number     Number       Type             X           Y           Z
 ---------------------------------------------------------------------
      1          6           0       -0.225613    2.041035   -0.849778
      2         14           0       -0.026805    0.560849    0.203756
      3          7           0        1.480236   -0.394407   -0.250583
      4          7           0       -1.383391   -0.673474   -0.021795
      5          8           0       -1.198223   -1.807555    0.397106
      6          8           0       -2.414061   -0.255845   -0.543631
      7          8           0        1.427634   -0.737637   -1.435348
      8          8           0        2.396879   -0.610205    0.520157
      9          9           0        0.017751    0.849312    1.760371
     10          1           0       -0.259564    1.742588   -1.898975
     11          1           0        0.610530    2.728929   -0.700242
     12          1           0       -1.157533    2.551677   -0.597661
 ---------------------------------------------------------------------

 SCF Done:  E(RHF) =  -836.474844448     A.U. after    2 cycles

 The electronic state is 1-A.
 Alpha  occ. eigenvalues --  -69.24967 -26.18573 -20.66100 -20.65561 -20.65468
 Alpha  occ. eigenvalues --  -20.65316 -15.92328 -15.92242 -11.29264  -6.99159
 Alpha  occ. eigenvalues --   -4.10077  -4.10017  -4.09845  -1.71495  -1.57334
 Alpha  occ. eigenvalues --   -1.56807  -1.39702  -1.39452  -1.03811  -0.98924
 Alpha  occ. eigenvalues --   -0.95854  -0.86480  -0.82588  -0.82001  -0.79265
 Alpha  occ. eigenvalues --   -0.78162  -0.76510  -0.76402  -0.74743  -0.73517
 Alpha  occ. eigenvalues --   -0.63239  -0.62971  -0.59858  -0.55840  -0.55454
 Alpha  occ. eigenvalues --   -0.51723  -0.50928  -0.50379  -0.49877
 Alpha virt. eigenvalues --    0.02015   0.02483   0.03076   0.04406   0.04499
 Alpha virt. eigenvalues --    0.06075   0.07542   0.07586   0.09166   0.12527
 Alpha virt. eigenvalues --    0.12902   0.13201   0.14256   0.15337   0.16544

 Mulliken charges:
               1
     1  C    0.308926
     2  Si   2.471521
     3  N    0.181592
     4  N    0.311487
     5  O   -0.526729
     6  O   -0.529486
     7  O   -0.544489
     8  O   -0.456856
     9  F   -0.783193
    10  H   -0.119886
    11  H   -0.190048
    12  H   -0.122838
 Sum of Mulliken charges =   0.00000

 Dipole moment (field-independent basis, Debye):
    X=             -0.2741    Y=              5.2970    Z=             -0.5749  Tot=              5.3351

 Test job not archived.
 1\1\GINC-SE336\SP\RHF\Aug-CC-pVDZ\C1H3F1N2O4Si1\OHZDE\08-Apr-2025\0\\#
 t hf aug-cc-pvdz iop(5/13=1,5/36=2,99/5=2) pseudo=read geom=check gues
 s=(read,tcheck) scf=(maxcycle=1)\\title\\0,1\C,0,-0.225613,2.041035,-0
 .849778\Si,0,-0.026805,0.560849,0.203756\N,0,1.480236,-0.394407,-0.250
 583\N,0,-1.383391,-0.673474,-0.021795\O,0,-1.198223,-1.807555,0.397106
 \O,0,-2.414061,-0.255845,-0.543631\O,0,1.427634,-0.737637,-1.435348\O,
 0,2.396879,-0.610205,0.520157\F,0,0.017751,0.849312,1.760371\H,0,-0.25
 9564,1.742588,-1.898975\H,0,0.61053,2.728929,-0.700242\H,0,-1.157533,2

 Normal termination of Gaussian 16 at Tue Apr  8 23:54:51 2025.
