 Gaussian 16, Revision C.01,

 ----------------------------------------------------------------------
 #t hf aug-cc-pvdz symm=none int=(grid=ultrafine) guess=(read,tcheck) s
 table=opt
 ----------------------------------------------------------------------
 -----
 title
 -----
 Symbolic Z-matrix:
 Charge =  0 Multiplicity = 2

 SCF Done:  E(UHF) =  -273.804190363     A.U. after   16 cycles
 Normal termination of Gaussian 16 at Tue Apr  8 22:48:43 2025.
 Gaussian 16:  ES64L-G16RevC.01  3-Jul-2019

 ----------------------------------------------------------------------
 #t hf aug-cc-pvdz iop(5/13=1,5/36=2,99/5=2) pseudo=read geom=check gue
 ss=(read,tcheck) scf=(maxcycle=1)
 ----------------------------------------------------------------------
 -----
 title
 -----
 Structure from the checkpoint file:  "BDE49_expt_1667_mol2.chk"
 Charge =  0 Multiplicity = 2

                         Standard orientation:
 ---------------------------------------------------------------------
 Center     Atomic      Atomic             Coordinates (Angstroms)
 Number     Number       Type             X           Y           Z
 ---------------------------------------------------------------------
      1          6           0        2.586916    0.427994    0.061343
      2          6           0        1.322313   -0.363612    0.104323
      3          6           0        0.046878    0.482484   -0.015725
      4          1           0        1.272517   -0.945293    1.044146
      5          1           0        1.336729   -1.123506   -0.691285
      6          6           0        3.911903   -0.231247   -0.115668
      7          1           0        4.223228   -0.785183    0.786638
      8          1           0        4.702690    0.491398   -0.332300
      9          1           0        3.891599   -0.966635   -0.929690
     10          1           0        2.557280    1.464240    0.385467
     11          6           0       -1.243471   -0.341181    0.044059
     12          1           0        0.078946    1.044974   -0.956532
     13          1           0        0.037612    1.230419    0.787191
     14          6           0       -2.517520    0.503247   -0.072268
     15          1           0       -1.270228   -0.906422    0.984939
     16          1           0       -1.233426   -1.090058   -0.758731
     17          6           0       -3.802622   -0.327445   -0.013457
     18          1           0       -2.490595    1.068211   -1.011908
     19          1           0       -2.528870    1.250561    0.730436
     20          1           0       -3.837089   -1.060602   -0.825454
     21          1           0       -4.691441    0.303735   -0.098743
     22          1           0       -3.875328   -0.877280    0.930184
 ---------------------------------------------------------------------

 SCF Done:  E(UHF) =  -273.891343643     A.U. after    2 cycles

 The electronic state is 2-A.
 Alpha  occ. eigenvalues --  -11.23188 -11.22622 -11.22538 -11.22448 -11.22439
 Alpha  occ. eigenvalues --  -11.22315 -11.22050  -1.08177  -1.04676  -0.98855
 Alpha  occ. eigenvalues --   -0.91723  -0.83662  -0.78654  -0.77919  -0.65186
 Alpha  occ. eigenvalues --   -0.61539  -0.60122  -0.59178  -0.57080  -0.56138
 Alpha  occ. eigenvalues --   -0.53212  -0.52525  -0.50937  -0.48595  -0.47927
 Alpha  occ. eigenvalues --   -0.46401  -0.46107  -0.44710  -0.32576
 Alpha virt. eigenvalues --    0.03642   0.03851   0.04343   0.04744   0.05559
 Alpha virt. eigenvalues --    0.05776   0.06189   0.06961   0.07857   0.07911
 Alpha virt. eigenvalues --    0.08481   0.09412   0.10570   0.10842   0.11202

  Beta  occ. eigenvalues --  -11.22952 -11.22777 -11.22540 -11.22407 -11.22318
  Beta  occ. eigenvalues --  -11.22050 -11.20679  -1.07304  -1.02752  -0.97856
  Beta  occ. eigenvalues --   -0.91669  -0.82820  -0.78606  -0.73912  -0.64754
  Beta  occ. eigenvalues --   -0.60496  -0.59240  -0.58693  -0.55741  -0.54789
  Beta  occ. eigenvalues --   -0.52754  -0.51966  -0.50742  -0.48088  -0.47529
  Beta  occ. eigenvalues --   -0.46234  -0.45997  -0.44465
  Beta virt. eigenvalues --    0.03662   0.03860   0.04364   0.04761   0.05567
  Beta virt. eigenvalues --    0.05787   0.06202   0.06851   0.07879   0.07912
  Beta virt. eigenvalues --    0.08419   0.09210   0.10363   0.10757   0.11209

 Mulliken charges and spin densities:
               1          2
     1  C    0.394338   1.488447
     2  C   -0.010579  -0.290977
     3  C    0.039949   0.028166
     4  H   -0.064306   0.050313
     5  H   -0.087932   0.016180
     6  C    0.432530  -0.258830
     7  H    0.011828   0.047699
     8  H   -0.060352   0.003898
     9  H   -0.048721   0.017661
    10  H   -0.474013  -0.100586
    11  C    0.167002   0.001876
    12  H   -0.159465  -0.000931
    13  H   -0.182757  -0.003970
    14  C    0.380642   0.000681
    15  H   -0.172641  -0.001178
    16  H   -0.201974   0.000733
    17  C    0.584052   0.000504
    18  H   -0.153814   0.000107
    19  H   -0.150675   0.000125
    20  H   -0.085669   0.000038
    21  H   -0.065619   0.000003
    22  H   -0.091824   0.000040
 Sum of Mulliken charges =  -0.00000   1.00000

 Dipole moment (field-independent basis, Debye):
    X=              0.0024    Y=             -0.0487    Z=              0.1205  Tot=              0.1300
                          Isotropic Fermi Contact Couplings
        Atom                 a.u.       MegaHertz       Gauss      10(-4) cm-1
     1  C(13)              0.23393     262.98749      93.84048      87.72318
     2  C(13)             -0.06211     -69.81796     -24.91278     -23.28876
     3  C(13)              0.01026      11.53232       4.11502       3.84677
     4  H(1)               0.02396     107.07778      38.20802      35.71730
     5  H(1)               0.01060      47.38443      16.90794      15.80574
     6  C(13)             -0.06409     -72.04587     -25.70776     -24.03191
     7  H(1)               0.02571     114.93551      41.01185      38.33836
     8  H(1)               0.00444      19.85443       7.08456       6.62273

 Normal termination of Gaussian 16 at Tue Apr  8 22:48:53 2025.
