 Gaussian 16, Revision C.01,

 ----------------------------------------------------------------------
 #t hf aug-cc-pvdz symm=none int=(grid=ultrafine) guess=(read,tcheck) s
 table=(opt,rrhf)
 ----------------------------------------------------------------------
 -----
 title
 -----
 Symbolic Z-matrix:
 Charge =  0 Multiplicity = 1

 SCF Done:  E(RHF) =  -626.947482123     A.U. after   11 cycles
 Normal termination of Gaussian 16 at Tue Apr  8 23:53:55 2025.
 Gaussian 16:  ES64L-G16RevC.01  3-Jul-2019

 ----------------------------------------------------------------------
 #t hf aug-cc-pvdz iop(5/13=1,5/36=2,99/5=2) pseudo=read geom=check gue
 ss=(read,tcheck) scf=(maxcycle=1)
 ----------------------------------------------------------------------
 -----
 title
 -----
 Structure from the checkpoint file:  "BDE49_nonexpt_1976_mol1.chk"
 Charge =  0 Multiplicity = 1

                         Standard orientation:
 ---------------------------------------------------------------------
 Center     Atomic      Atomic             Coordinates (Angstroms)
 Number     Number       Type             X           Y           Z
 ---------------------------------------------------------------------
      1          6           0        0.827534    0.118003   -0.392207
      2         14           0       -0.870509   -0.522029    0.197489
      3          9           0        1.154804    1.272804    0.281651
      4          1           0        0.940994    0.319081   -1.461538
      5          9           0        1.758305   -0.846508   -0.049635
      6          9           0       -1.991775    0.541649   -0.249207
      7          1           0       -0.849581   -0.622100    1.665952
      8          1           0       -1.161494   -1.808092   -0.461306
 ---------------------------------------------------------------------

 SCF Done:  E(RHF) =  -627.099866567     A.U. after    2 cycles

 The electronic state is 1-A.
 Alpha  occ. eigenvalues --  -69.14126 -26.14549 -26.14357 -26.12702 -11.41649
 Alpha  occ. eigenvalues --   -6.88872  -3.99806  -3.99624  -3.99588  -1.70049
 Alpha  occ. eigenvalues --   -1.65930  -1.65318  -1.00020  -0.83757  -0.81867
 Alpha  occ. eigenvalues --   -0.81146  -0.79358  -0.74162  -0.73918  -0.73487
 Alpha  occ. eigenvalues --   -0.70302  -0.66785  -0.62879  -0.51528  -0.49536
 Alpha virt. eigenvalues --    0.03513   0.04588   0.05327   0.06166   0.07226
 Alpha virt. eigenvalues --    0.08735   0.10882   0.11307   0.13151   0.14964
 Alpha virt. eigenvalues --    0.15825   0.16735   0.18987   0.21471   0.21848

 Mulliken charges:
               1
     1  C    0.670917
     2  Si   1.270380
     3  F   -0.400947
     4  H   -0.235163
     5  F   -0.403697
     6  F   -0.764881
     7  H   -0.074735
     8  H   -0.061874
 Sum of Mulliken charges =   0.00000

 Dipole moment (field-independent basis, Debye):
    X=             -0.8673    Y=             -1.4568    Z=             -0.9668  Tot=              1.9517

 Test job not archived.
 1\1\GINC-SE126\SP\RHF\Aug-CC-pVDZ\C1H3F3Si1\OHZDE\08-Apr-2025\0\\#t hf
  aug-cc-pvdz iop(5/13=1,5/36=2,99/5=2) pseudo=read geom=check guess=(r
 ead,tcheck) scf=(maxcycle=1)\\title\\0,1\C,0,0.827534,0.118003,-0.3922
 07\Si,0,-0.870509,-0.522029,0.197489\F,0,1.154804,1.272804,0.281651\H,
 0,0.940994,0.319081,-1.461538\F,0,1.758305,-0.846508,-0.049635\F,0,-1.
 991775,0.541649,-0.249207\H,0,-0.849581,-0.6221,1.665952\H,0,-1.161494
 ,-1.808092,-0.461306\\Version=ES64L-G16RevC.01\State=1-A\HF=-627.09986
 66\RMSD=5.389e-03\Dipole=-0.3412253,-0.573161,-0.3803623\Quadrupole=-3

 Normal termination of Gaussian 16 at Tue Apr  8 23:53:58 2025.
