 Gaussian 16, Revision C.01,

 ----------------------------------------------------------------------
 #t hf aug-cc-pvdz symm=none int=(grid=ultrafine) guess=(read,tcheck) s
 table=(opt,rrhf)
 ----------------------------------------------------------------------
 -----
 title
 -----
 Symbolic Z-matrix:
 Charge =  0 Multiplicity = 1

 SCF Done:  E(RHF) =  -760.981707943     A.U. after   15 cycles
 Normal termination of Gaussian 16 at Tue Apr  8 23:19:55 2025.
 Gaussian 16:  ES64L-G16RevC.01  3-Jul-2019

 ----------------------------------------------------------------------
 #t hf aug-cc-pvdz iop(5/13=1,5/36=2,99/5=2) pseudo=read geom=check gue
 ss=(read,tcheck) scf=(maxcycle=1)
 ----------------------------------------------------------------------
 -----
 title
 -----
 Structure from the checkpoint file:  "BDE49_nonexpt_1152_mol1.chk"
 Charge =  0 Multiplicity = 1

                         Standard orientation:
 ---------------------------------------------------------------------
 Center     Atomic      Atomic             Coordinates (Angstroms)
 Number     Number       Type             X           Y           Z
 ---------------------------------------------------------------------
      1          9           0       -2.050995    0.049789    0.036546
      2          8           0       -0.966010   -0.550027   -0.701550
      3         16           0        0.475457   -0.130369    0.090487
      4          8           0        1.406697   -0.820826   -0.750409
      5          6           0        0.506497    1.623546   -0.216289
      6          8           0        0.341663   -0.372587    1.491405
      7          1           0        0.556586    1.779723   -1.291724
      8          1           0        1.394084    2.012430    0.282802
      9          1           0       -0.396813    2.051892    0.214395
 ---------------------------------------------------------------------

 SCF Done:  E(RHF) =  -761.183872082     A.U. after    2 cycles

 The electronic state is 1-A.
 Alpha  occ. eigenvalues --  -93.85916 -26.20713 -20.74940 -20.61041 -20.60989
 Alpha  occ. eigenvalues --  -11.32303  -9.12133  -6.46771  -6.46678  -6.46414
 Alpha  occ. eigenvalues --   -1.70820  -1.49124  -1.36681  -1.33260  -1.07519
 Alpha  occ. eigenvalues --   -0.89409  -0.81222  -0.80668  -0.78274  -0.73020
 Alpha  occ. eigenvalues --   -0.71021  -0.69526  -0.64640  -0.64508  -0.60830
 Alpha  occ. eigenvalues --   -0.57956  -0.56185  -0.54293  -0.52913
 Alpha virt. eigenvalues --    0.02645   0.04929   0.04961   0.07338   0.08286
 Alpha virt. eigenvalues --    0.10844   0.11235   0.11962   0.13820   0.14331
 Alpha virt. eigenvalues --    0.14959   0.15329   0.18081   0.20517   0.21414

 Mulliken charges:
               1
     1  F   -0.309600
     2  O   -0.365478
     3  S    2.473871
     4  O   -0.910381
     5  C   -0.105230
     6  O   -0.931880
     7  H    0.032295
     8  H    0.064585
     9  H    0.051818
 Sum of Mulliken charges =   0.00000

 Dipole moment (field-independent basis, Debye):
    X=              0.5240    Y=              4.3031    Z=             -1.0722  Tot=              4.4655

 Test job not archived.
 1\1\GINC-SE044\SP\RHF\Aug-CC-pVDZ\C1H3F1O3S1\OHZDE\08-Apr-2025\0\\#t h
 f aug-cc-pvdz iop(5/13=1,5/36=2,99/5=2) pseudo=read geom=check guess=(
 read,tcheck) scf=(maxcycle=1)\\title\\0,1\F,0,-2.050995,0.049789,0.036
 546\O,0,-0.96601,-0.550027,-0.70155\S,0,0.475457,-0.130369,0.090487\O,
 0,1.406697,-0.820826,-0.750409\C,0,0.506497,1.623546,-0.216289\O,0,0.3
 41663,-0.372587,1.491405\H,0,0.556586,1.779723,-1.291724\H,0,1.394084,
 2.01243,0.282802\H,0,-0.396813,2.051892,0.214395\\Version=ES64L-G16Rev
 C.01\State=1-A\HF=-761.1838721\RMSD=4.755e-03\Dipole=0.2061595,1.69296

 Normal termination of Gaussian 16 at Tue Apr  8 23:19:58 2025.
