 Gaussian 16, Revision C.01,

 ----------------------------------------------------------------------
 #t hf aug-cc-pvdz symm=none int=(grid=ultrafine) guess=(read,tcheck) s
 table=opt
 ----------------------------------------------------------------------
 -----
 title
 -----
 Symbolic Z-matrix:
 Charge =  0 Multiplicity = 2

 SCF Done:  E(UHF) =  -625.798581299     A.U. after   17 cycles
 Normal termination of Gaussian 16 at Tue Apr  8 23:03:51 2025.
 Gaussian 16:  ES64L-G16RevC.01  3-Jul-2019

 ----------------------------------------------------------------------
 #t hf aug-cc-pvdz iop(5/13=1,5/36=2,99/5=2) pseudo=read geom=check gue
 ss=(read,tcheck) scf=(maxcycle=1)
 ----------------------------------------------------------------------
 -----
 title
 -----
 Structure from the checkpoint file:  "BDE49_expt_390_mol2.chk"
 Charge =  0 Multiplicity = 2

                         Standard orientation:
 ---------------------------------------------------------------------
 Center     Atomic      Atomic             Coordinates (Angstroms)
 Number     Number       Type             X           Y           Z
 ---------------------------------------------------------------------
      1          6           0        1.139678    1.210477   -0.184294
      2         16           0        0.073557   -0.148385    0.023410
      3          1           0        0.853086    2.187235    0.181316
      4          1           0        2.156895    0.978161   -0.468685
      5          6           0       -1.564149    0.559655   -0.161123
      6          1           0       -2.260502   -0.268019   -0.021251
      7          1           0       -1.664592    0.975762   -1.162645
      8          1           0       -1.720596    1.314115    0.609237
      9          8           0        0.199753   -0.613041    1.394281
     10          8           0        0.300950   -1.066194   -1.074286
 ---------------------------------------------------------------------

 SCF Done:  E(UHF) =  -625.946705269     A.U. after    2 cycles

 The electronic state is 2-A.
 Alpha  occ. eigenvalues --  -93.78887 -20.55920 -20.55898 -11.31217 -11.29356
 Alpha  occ. eigenvalues --   -9.05596  -6.40244  -6.40036  -6.39922  -1.42413
 Alpha  occ. eigenvalues --   -1.30768  -1.07657  -1.01214  -0.82042  -0.70758
 Alpha  occ. eigenvalues --   -0.69551  -0.67661  -0.64312  -0.61732  -0.60281
 Alpha  occ. eigenvalues --   -0.54017  -0.52401  -0.50021  -0.47105  -0.44165
 Alpha virt. eigenvalues --    0.02571   0.04250   0.04851   0.05511   0.06800
 Alpha virt. eigenvalues --    0.09600   0.11194   0.12277   0.13068   0.14285
 Alpha virt. eigenvalues --    0.14892   0.15348   0.16290   0.16367   0.17563

  Beta  occ. eigenvalues --  -93.78964 -20.55829 -20.55629 -11.29367 -11.28683
  Beta  occ. eigenvalues --   -9.05695  -6.40324  -6.40190  -6.40054  -1.42036
  Beta  occ. eigenvalues --   -1.30234  -1.05397  -0.96237  -0.80333  -0.69946
  Beta  occ. eigenvalues --   -0.68908  -0.66762  -0.63507  -0.61410  -0.59807
  Beta  occ. eigenvalues --   -0.52081  -0.51214  -0.49077  -0.46129
  Beta virt. eigenvalues --    0.02545   0.03447   0.04310   0.05035   0.05899
  Beta virt. eigenvalues --    0.06815   0.09643   0.12196   0.12873   0.13638
  Beta virt. eigenvalues --    0.14737   0.15091   0.15593   0.16355   0.16707

 Mulliken charges and spin densities:
               1          2
     1  C    0.088064   1.266313
     2  S    2.340325  -0.092756
     3  H   -0.184293  -0.101370
     4  H   -0.116081  -0.094286
     5  C   -0.018633  -0.005532
     6  H    0.048561  -0.000056
     7  H    0.006097  -0.000096
     8  H    0.010248  -0.000755
     9  O   -1.081183   0.020301
    10  O   -1.093105   0.008237
 Sum of Mulliken charges =  -0.00000   1.00000

 Dipole moment (field-independent basis, Debye):
    X=             -1.4298    Y=              5.0554    Z=             -0.8584  Tot=              5.3233
                          Isotropic Fermi Contact Couplings
        Atom                 a.u.       MegaHertz       Gauss      10(-4) cm-1
     1  C(13)              0.22819     256.53046      91.53645      85.56935
     2  S(33)             -0.09360     -32.15073     -11.47218     -10.72433
     3  H(1)              -0.02434    -108.81125     -38.82656     -36.29553
     4  H(1)              -0.02493    -111.41713     -39.75640     -37.16475
     5  C(13)             -0.00223      -2.50629      -0.89431      -0.83601
     6  H(1)               0.00056       2.51337       0.89683       0.83837
     7  H(1)               0.00058       2.58995       0.92416       0.86392
     8  H(1)               0.00001       0.05062       0.01806       0.01688

 Normal termination of Gaussian 16 at Tue Apr  8 23:03:56 2025.
