 Gaussian 16, Revision C.01,

 ----------------------------------------------------------------------
 #t hf aug-cc-pvdz symm=none int=(grid=ultrafine) guess=(read,tcheck) s
 table=opt
 ----------------------------------------------------------------------
 -----
 title
 -----
 Symbolic Z-matrix:
 Charge =  0 Multiplicity = 2

 SCF Done:  E(UHF) =  -517.311760057     A.U. after   20 cycles
 Normal termination of Gaussian 16 at Tue Apr  8 23:44:03 2025.
 Gaussian 16:  ES64L-G16RevC.01  3-Jul-2019

 ----------------------------------------------------------------------
 #t hf aug-cc-pvdz iop(5/13=1,5/36=2,99/5=2) pseudo=read geom=check gue
 ss=(read,tcheck) scf=(maxcycle=1)
 ----------------------------------------------------------------------
 -----
 title
 -----
 Structure from the checkpoint file:  "BDE49_nonexpt_1746_mol2.chk"
 Charge =  0 Multiplicity = 2

                         Standard orientation:
 ---------------------------------------------------------------------
 Center     Atomic      Atomic             Coordinates (Angstroms)
 Number     Number       Type             X           Y           Z
 ---------------------------------------------------------------------
      1          6           0       -2.166998    0.445406    0.176586
      2         14           0       -0.751086   -0.713668   -0.218899
      3          1           0       -2.045737    1.375772   -0.381449
      4          1           0       -2.165966    0.687674    1.244180
      5          1           0       -3.131007    0.000146   -0.078049
      6          6           0        0.917819    0.214198   -0.017297
      7          8           0        0.955521    1.415316   -0.081424
      8          8           0        2.073360   -0.493969    0.146506
      9          1           0        1.873319   -1.435993    0.211712
     10          1           0       -0.751379   -1.964654    0.591798
 ---------------------------------------------------------------------

 SCF Done:  E(UHF) =  -517.406600790     A.U. after    2 cycles

 The electronic state is 2-A.
 Alpha  occ. eigenvalues --  -69.09827 -20.62770 -20.57301 -11.38764 -11.24149
 Alpha  occ. eigenvalues --   -6.85221  -3.96565  -3.95703  -3.95659  -1.41736
 Alpha  occ. eigenvalues --   -1.33565  -0.96459  -0.85396  -0.78645  -0.68030
 Alpha  occ. eigenvalues --   -0.64812  -0.64164  -0.59817  -0.58335  -0.55956
 Alpha  occ. eigenvalues --   -0.51436  -0.48685  -0.44288  -0.34245
 Alpha virt. eigenvalues --    0.02912   0.03671   0.04810   0.05435   0.06892
 Alpha virt. eigenvalues --    0.07444   0.08025   0.08805   0.10476   0.11070
 Alpha virt. eigenvalues --    0.13065   0.13995   0.14896   0.15507   0.16296

  Beta  occ. eigenvalues --  -69.09260 -20.62792 -20.56878 -11.38890 -11.24113
  Beta  occ. eigenvalues --   -6.84376  -3.95307  -3.95265  -3.94379  -1.41532
  Beta  occ. eigenvalues --   -1.32942  -0.95887  -0.85078  -0.77315  -0.67489
  Beta  occ. eigenvalues --   -0.63801  -0.62625  -0.59369  -0.57366  -0.55422
  Beta  occ. eigenvalues --   -0.49347  -0.47927  -0.43487
  Beta virt. eigenvalues --    0.01533   0.03379   0.03822   0.05299   0.05842
  Beta virt. eigenvalues --    0.07083   0.07790   0.08289   0.09422   0.10917
  Beta virt. eigenvalues --    0.11590   0.14345   0.14418   0.15503   0.16262

 Mulliken charges and spin densities:
               1          2
     1  C    0.176459   0.008868
     2  Si   0.702347   0.978887
     3  H   -0.138453  -0.002122
     4  H   -0.129165   0.010780
     5  H   -0.228226  -0.005968
     6  C    0.423690  -0.095169
     7  O   -0.457250   0.100948
     8  O   -0.487738   0.001944
     9  H    0.189919  -0.006988
    10  H   -0.051583   0.008819
 Sum of Mulliken charges =  -0.00000   1.00000

 Dipole moment (field-independent basis, Debye):
    X=             -2.7223    Y=             -3.5784    Z=              0.2564  Tot=              4.5035
                          Isotropic Fermi Contact Couplings
        Atom                 a.u.       MegaHertz       Gauss      10(-4) cm-1
     1  C(13)              0.00794       8.92948       3.18626       2.97855
     2  Si(29)             0.52199    -463.91040    -165.53477    -154.74385
     3  H(1)               0.00027       1.22023       0.43541       0.40703
     4  H(1)               0.00993      44.38044      15.83604      14.80372
     5  H(1)               0.00058       2.61416       0.93280       0.87199
     6  C(13)             -0.00633      -7.11078      -2.53730      -2.37190
     7  O(17)              0.03554     -21.54540      -7.68793      -7.18677
     8  O(17)             -0.00443       2.68589       0.95839       0.89592

 Normal termination of Gaussian 16 at Tue Apr  8 23:44:07 2025.
