 Gaussian 16, Revision C.01,

 ----------------------------------------------------------------------
 #t hf aug-cc-pvdz symm=none int=(grid=ultrafine) guess=(read,tcheck) s
 table=(opt,rrhf)
 ----------------------------------------------------------------------
 -----
 title
 -----
 Symbolic Z-matrix:
 Charge =  0 Multiplicity = 1

 SCF Done:  E(RHF) =  -673.399870442     A.U. after   15 cycles
 Normal termination of Gaussian 16 at Wed Apr  9 00:02:50 2025.
 Gaussian 16:  ES64L-G16RevC.01  3-Jul-2019

 ----------------------------------------------------------------------
 #t hf aug-cc-pvdz iop(5/13=1,5/36=2,99/5=2) pseudo=read geom=check gue
 ss=(read,tcheck) scf=(maxcycle=1)
 ----------------------------------------------------------------------
 -----
 title
 -----
 Structure from the checkpoint file:  "BDE49_nonexpt_2120_mol1.chk"
 Charge =  0 Multiplicity = 1

                         Standard orientation:
 ---------------------------------------------------------------------
 Center     Atomic      Atomic             Coordinates (Angstroms)
 Number     Number       Type             X           Y           Z
 ---------------------------------------------------------------------
      1          7           0        0.104370   -1.717276   -0.201348
      2          7           0       -0.389509   -0.941770    0.635493
      3         14           0        1.824944   -1.443261   -0.650272
      4          6           0        2.682212   -0.006645    0.202258
      5          6           0        2.175389    1.395603   -0.184104
      6          1           0        3.754276   -0.095018   -0.022293
      7          1           0        2.587430   -0.151109    1.285407
      8          6           0        2.950893    2.523311    0.504873
      9          1           0        1.114945    1.472989    0.073175
     10          1           0        2.241524    1.523915   -1.270850
     11          1           0        2.872926    2.445107    1.593618
     12          1           0        2.568796    3.505801    0.212898
     13          1           0        4.013753    2.487733    0.245591
     14          6           0       -1.790701   -1.248478    0.987364
     15          6           0       -2.671069   -0.003939    0.835225
     16          1           0       -1.764483   -1.547150    2.042054
     17          1           0       -2.148064   -2.091145    0.383909
     18          6           0       -2.885561    0.428112   -0.619817
     19          1           0       -2.219217    0.816713    1.403818
     20          1           0       -3.640582   -0.211873    1.302038
     21          6           0       -3.783497    1.661539   -0.747723
     22          1           0       -3.322749   -0.405830   -1.181622
     23          1           0       -1.915560    0.632165   -1.085418
     24          1           0       -4.774332    1.476746   -0.320747
     25          1           0       -3.921430    1.946628   -1.794051
     26          1           0       -3.353112    2.520419   -0.223394
     27          1           0        1.801655   -1.274473   -2.122926
     28          1           0        2.484989   -2.729656   -0.324871
 ---------------------------------------------------------------------

 SCF Done:  E(RHF) =  -673.544131364     A.U. after    2 cycles

 The electronic state is 1-A.
 Alpha  occ. eigenvalues --  -69.07163 -15.69362 -15.65606 -11.25917 -11.23444
 Alpha  occ. eigenvalues --  -11.23405 -11.22936 -11.22401 -11.22313 -11.22137
 Alpha  occ. eigenvalues --   -6.82336  -3.93171  -3.93079  -3.93063  -1.29357
 Alpha  occ. eigenvalues --   -1.07386  -1.04627  -1.00205  -0.92453  -0.89946
 Alpha  occ. eigenvalues --   -0.81937  -0.80442  -0.77310  -0.69649  -0.63863
 Alpha  occ. eigenvalues --   -0.63285  -0.62176  -0.60543  -0.59824  -0.57389
 Alpha  occ. eigenvalues --   -0.56536  -0.54321  -0.53986  -0.52793  -0.51338
 Alpha  occ. eigenvalues --   -0.50488  -0.48691  -0.47812  -0.47496  -0.47184
 Alpha  occ. eigenvalues --   -0.46812  -0.43632  -0.43034  -0.34217
 Alpha virt. eigenvalues --    0.03150   0.03696   0.03798   0.04095   0.05475
 Alpha virt. eigenvalues --    0.05544   0.05939   0.06293   0.06680   0.07297
 Alpha virt. eigenvalues --    0.07615   0.07876   0.08218   0.08636   0.09344

 Mulliken charges:
               1
     1  N   -0.765030
     2  N   -0.232892
     3  Si   0.637792
     4  C    0.255452
     5  C    0.050976
     6  H   -0.204753
     7  H   -0.154233
     8  C    0.431740
     9  H   -0.204097
    10  H   -0.166260
    11  H   -0.060564
    12  H   -0.075098
    13  H   -0.080021
    14  C    0.710723
    15  C    0.166766
    16  H   -0.181190
    17  H   -0.146879
    18  C    0.215107
    19  H   -0.151943
    20  H   -0.101466
    21  C    0.377399
    22  H   -0.155580
    23  H   -0.159064
    24  H   -0.083350
    25  H   -0.058630
    26  H   -0.062320
    27  H    0.116202
    28  H    0.081214
 Sum of Mulliken charges =   0.00000

 Dipole moment (field-independent basis, Debye):
    X=             -0.2105    Y=              0.8764    Z=              0.5662  Tot=              1.0644

 Test job not archived.
 1\1\GINC-SE419\SP\RHF\Aug-CC-pVDZ\C7H18N2Si1\OHZDE\09-Apr-2025\0\\#t h
 f aug-cc-pvdz iop(5/13=1,5/36=2,99/5=2) pseudo=read geom=check guess=(
 read,tcheck) scf=(maxcycle=1)\\title\\0,1\N,0,0.10437,-1.717276,-0.201
 348\N,0,-0.389509,-0.94177,0.635493\Si,0,1.824944,-1.443261,-0.650272\
 C,0,2.682212,-0.006645,0.202258\C,0,2.175389,1.395603,-0.184104\H,0,3.
 754276,-0.095018,-0.022293\H,0,2.58743,-0.151109,1.285407\C,0,2.950893
 ,2.523311,0.504873\H,0,1.114945,1.472989,0.073175\H,0,2.241524,1.52391
 5,-1.27085\H,0,2.872926,2.445107,1.593618\H,0,2.568796,3.505801,0.2128

 Normal termination of Gaussian 16 at Wed Apr  9 00:03:09 2025.
