 Gaussian 16, Revision C.01,

 ----------------------------------------------------------------------
 #t hf aug-cc-pvdz symm=none int=(grid=ultrafine) guess=(read,tcheck) s
 table=(opt,rrhf)
 ----------------------------------------------------------------------
 -----
 title
 -----
 Symbolic Z-matrix:
 Charge =  0 Multiplicity = 1

 SCF Done:  E(RHF) =  -748.389626363     A.U. after   17 cycles
 Normal termination of Gaussian 16 at Wed Apr  9 00:09:28 2025.
 Gaussian 16:  ES64L-G16RevC.01  3-Jul-2019

 ----------------------------------------------------------------------
 #t hf aug-cc-pvdz iop(5/13=1,5/36=2,99/5=2) pseudo=read geom=check gue
 ss=(read,tcheck) scf=(maxcycle=1)
 ----------------------------------------------------------------------
 -----
 title
 -----
 Structure from the checkpoint file:  "BDE49_nonexpt_2271_mol1.chk"
 Charge =  0 Multiplicity = 1

                         Standard orientation:
 ---------------------------------------------------------------------
 Center     Atomic      Atomic             Coordinates (Angstroms)
 Number     Number       Type             X           Y           Z
 ---------------------------------------------------------------------
      1          6           0        1.108452    1.546154   -0.000005
      2          6           0        0.068692    2.503828   -0.000000
      3          6           0       -1.246090    2.114244    0.000003
      4          6           0       -1.584532    0.734956    0.000001
      5          6           0       -0.544229   -0.245533   -0.000004
      6          6           0        0.811554    0.201766   -0.000006
      7          6           0       -2.931926    0.289273    0.000004
      8          6           0       -3.234469   -1.050715    0.000002
      9          6           0       -2.200936   -2.014601   -0.000003
     10          6           0       -0.883978   -1.621235   -0.000005
     11          1           0       -2.451464   -3.069416   -0.000004
     12          1           0       -0.085740   -2.351602   -0.000009
     13          1           0       -3.723901    1.030815    0.000007
     14          1           0       -4.269498   -1.373897    0.000004
     15          1           0        0.326931    3.556674    0.000001
     16          1           0       -2.041185    2.851450    0.000006
     17          1           0        2.140384    1.879304   -0.000007
     18          8           0        1.772260   -0.772084   -0.000011
     19         14           0        3.430816   -0.654845    0.000009
     20          1           0        3.905460   -2.049312    0.000010
     21          1           0        3.907127    0.060825    1.205138
     22          1           0        3.907157    0.060831   -1.205105
 ---------------------------------------------------------------------

 SCF Done:  E(RHF) =  -748.555410036     A.U. after    2 cycles

 The electronic state is 1-A.
 Alpha  occ. eigenvalues --  -69.10626 -20.59176 -11.32302 -11.25733 -11.25211
 Alpha  occ. eigenvalues --  -11.25187 -11.24841 -11.24601 -11.24576 -11.24416
 Alpha  occ. eigenvalues --  -11.24360 -11.24052  -6.85428  -3.96338  -3.96191
 Alpha  occ. eigenvalues --   -3.96161  -1.35024  -1.16395  -1.10296  -1.03916
 Alpha  occ. eigenvalues --   -1.00853  -0.97729  -0.86564  -0.85018  -0.82481
 Alpha  occ. eigenvalues --   -0.75528  -0.71786  -0.69875  -0.68060  -0.64448
 Alpha  occ. eigenvalues --   -0.63181  -0.62450  -0.60556  -0.60247  -0.57732
 Alpha  occ. eigenvalues --   -0.55175  -0.53912  -0.52942  -0.49863  -0.49231
 Alpha  occ. eigenvalues --   -0.48092  -0.47587  -0.44939  -0.37741  -0.32760
 Alpha  occ. eigenvalues --   -0.28702
 Alpha virt. eigenvalues --    0.03159   0.03676   0.03827   0.04798   0.05267
 Alpha virt. eigenvalues --    0.06146   0.06211   0.06814   0.07740   0.07901
 Alpha virt. eigenvalues --    0.08946   0.09000   0.09518   0.09611   0.10667

 Mulliken charges:
               1
     1  C    1.551765
     2  C    0.233659
     3  C    0.817157
     4  C   -0.016460
     5  C    0.728383
     6  C   -1.022372
     7  C    0.726915
     8  C    0.413723
     9  C    0.487930
    10  C    0.276355
    11  H   -0.453882
    12  H   -0.666671
    13  H   -0.574366
    14  H   -0.452921
    15  H   -0.450153
    16  H   -0.604558
    17  H   -0.616441
    18  O   -0.781305
    19  Si   0.047914
    20  H    0.094544
    21  H    0.130391
    22  H    0.130392
 Sum of Mulliken charges =  -0.00000

 Dipole moment (field-independent basis, Debye):
    X=              0.4212    Y=              0.4551    Z=              0.0000  Tot=              0.6201

 Test job not archived.
 1\1\GINC-SE070\SP\RHF\Aug-CC-pVDZ\C10H10O1Si1\OHZDE\09-Apr-2025\0\\#t
 hf aug-cc-pvdz iop(5/13=1,5/36=2,99/5=2) pseudo=read geom=check guess=
 (read,tcheck) scf=(maxcycle=1)\\title\\0,1\C,0,1.108452,1.546154,-0.00
 0005\C,0,0.068692,2.503828,0.\C,0,-1.24609,2.114244,0.000003\C,0,-1.58
 4532,0.734956,0.000001\C,0,-0.544229,-0.245533,-0.000004\C,0,0.811554,
 0.201766,-0.000006\C,0,-2.931926,0.289273,0.000004\C,0,-3.234469,-1.05
 0715,0.000002\C,0,-2.200936,-2.014601,-0.000003\C,0,-0.883978,-1.62123
 5,-0.000005\H,0,-2.451464,-3.069416,-0.000004\H,0,-0.08574,-2.351602,-

 Normal termination of Gaussian 16 at Wed Apr  9 00:09:45 2025.
