 Gaussian 16, Revision C.01,

 ----------------------------------------------------------------------
 #t hf aug-cc-pvdz symm=none int=(grid=ultrafine) guess=(read,tcheck) s
 table=(opt,rrhf)
 ----------------------------------------------------------------------
 -----
 title
 -----
 Symbolic Z-matrix:
 Charge =  0 Multiplicity = 1

 SCF Done:  E(RHF) =  -1121.10757432     A.U. after   15 cycles
 Normal termination of Gaussian 16 at Tue Apr  8 23:16:54 2025.
 Gaussian 16:  ES64L-G16RevC.01  3-Jul-2019

 ----------------------------------------------------------------------
 #t hf aug-cc-pvdz iop(5/13=1,5/36=2,99/5=2) pseudo=read geom=check gue
 ss=(read,tcheck) scf=(maxcycle=1)
 ----------------------------------------------------------------------
 -----
 title
 -----
 Structure from the checkpoint file:  "BDE49_nonexpt_1064_mol1.chk"
 Charge =  0 Multiplicity = 1

                         Standard orientation:
 ---------------------------------------------------------------------
 Center     Atomic      Atomic             Coordinates (Angstroms)
 Number     Number       Type             X           Y           Z
 ---------------------------------------------------------------------
      1         17           0       -2.089143    0.044016    0.011040
      2          8           0       -0.616969   -0.467081   -0.760801
      3         16           0        0.798732   -0.147249    0.089871
      4          8           0        1.748408   -0.856592   -0.714480
      5          6           0        0.971667    1.608519   -0.173670
      6          8           0        0.601007   -0.407428    1.483017
      7          1           0        1.022546    1.788107   -1.245392
      8          1           0        1.899864    1.901212    0.317185
      9          1           0        0.123740    2.116077    0.282710
 ---------------------------------------------------------------------

 SCF Done:  E(RHF) =  -1121.29281923     A.U. after    2 cycles

 The electronic state is 1-A.
 Alpha  occ. eigenvalues -- -103.75072 -93.84793 -20.69885 -20.59861 -20.59499
 Alpha  occ. eigenvalues --  -11.31461 -10.77698  -9.10959  -8.43463  -8.43019
 Alpha  occ. eigenvalues --   -8.42994  -6.45608  -6.45498  -6.45251  -1.48836
 Alpha  occ. eigenvalues --   -1.38185  -1.35254  -1.14195  -1.06200  -0.86245
 Alpha  occ. eigenvalues --   -0.75917  -0.73255  -0.71461  -0.66182  -0.65298
 Alpha  occ. eigenvalues --   -0.63609  -0.62037  -0.57425  -0.54653  -0.53223
 Alpha  occ. eigenvalues --   -0.52704  -0.49818  -0.49437
 Alpha virt. eigenvalues --    0.02133   0.02863   0.05241   0.05559   0.08314
 Alpha virt. eigenvalues --    0.10506   0.11223   0.12035   0.12832   0.13269
 Alpha virt. eigenvalues --    0.15330   0.15569   0.16136   0.16715   0.18150

 Mulliken charges:
               1
     1  Cl   0.328971
     2  O   -0.917320
     3  S    2.457818
     4  O   -0.920458
     5  C   -0.087380
     6  O   -0.961837
     7  H    0.038994
     8  H    0.058333
     9  H    0.002880
 Sum of Mulliken charges =  -0.00000

 Dipole moment (field-independent basis, Debye):
    X=             -1.0436    Y=              4.5798    Z=             -0.4729  Tot=              4.7209

 Test job not archived.
 1\1\GINC-SE333\SP\RHF\Aug-CC-pVDZ\C1H3Cl1O3S1\OHZDE\08-Apr-2025\0\\#t
 hf aug-cc-pvdz iop(5/13=1,5/36=2,99/5=2) pseudo=read geom=check guess=
 (read,tcheck) scf=(maxcycle=1)\\title\\0,1\Cl,0,-2.089143,0.044016,0.0
 1104\O,0,-0.616969,-0.467081,-0.760801\S,0,0.798732,-0.147249,0.089871
 \O,0,1.748408,-0.856592,-0.71448\C,0,0.971667,1.608519,-0.17367\O,0,0.
 601007,-0.407428,1.483017\H,0,1.022546,1.788107,-1.245392\H,0,1.899864
 ,1.901212,0.317185\H,0,0.12374,2.116077,0.28271\\Version=ES64L-G16RevC
 .01\State=1-A\HF=-1121.2928192\RMSD=4.299e-03\Dipole=-0.4105886,1.8018

 Normal termination of Gaussian 16 at Tue Apr  8 23:16:58 2025.
