 Gaussian 16, Revision C.01,

 ----------------------------------------------------------------------
 #t hf aug-cc-pvdz symm=none int=(grid=ultrafine) guess=(read,tcheck) s
 table=(opt,rrhf)
 ----------------------------------------------------------------------
 -----
 title
 -----
 Symbolic Z-matrix:
 Charge =  0 Multiplicity = 1

 SCF Done:  E(RHF) =  -626.159719111     A.U. after   14 cycles
 Normal termination of Gaussian 16 at Tue Apr  8 22:43:52 2025.
 Gaussian 16:  ES64L-G16RevC.01  3-Jul-2019

 ----------------------------------------------------------------------
 #t hf aug-cc-pvdz iop(5/13=1,5/36=2,99/5=2) pseudo=read geom=check gue
 ss=(read,tcheck) scf=(maxcycle=1)
 ----------------------------------------------------------------------
 -----
 title
 -----
 Structure from the checkpoint file:  "BDE49_expt_150_mol1.chk"
 Charge =  0 Multiplicity = 1

                         Standard orientation:
 ---------------------------------------------------------------------
 Center     Atomic      Atomic             Coordinates (Angstroms)
 Number     Number       Type             X           Y           Z
 ---------------------------------------------------------------------
      1          6           0        0.000000    0.696916   -1.729572
      2          6           0       -0.000000   -0.696916   -1.729572
      3          6           0        0.000000   -1.381851   -0.526570
      4          1           0        0.000000   -1.259915   -2.653452
      5          9           0        0.000000   -2.723674   -0.500730
      6          6           0        0.000000    1.381851   -0.526570
      7          1           0        0.000000    1.259915   -2.653452
      8          6           0        0.000000    0.695005    0.684657
      9          6           0       -0.000000   -0.695005    0.684657
     10          9           0        0.000000   -1.359080    1.843214
     11          9           0        0.000000    2.723674   -0.500730
     12          9           0        0.000000    1.359080    1.843214
 ---------------------------------------------------------------------

 SCF Done:  E(RHF) =  -626.371538664     A.U. after    2 cycles

 The electronic state is 1-A1.
 Alpha  occ. eigenvalues --  -26.17201 -26.17196 -26.16580 -26.16578 -11.38368
 Alpha  occ. eigenvalues --  -11.38255 -11.37663 -11.37658 -11.29372 -11.29260
 Alpha  occ. eigenvalues --   -1.71854  -1.71101  -1.70348  -1.70156  -1.20742
 Alpha  occ. eigenvalues --   -1.07736  -1.07550  -0.93951  -0.93833  -0.85748
 Alpha  occ. eigenvalues --   -0.84439  -0.84296  -0.80360  -0.80255  -0.78553
 Alpha  occ. eigenvalues --   -0.77697  -0.77423  -0.76854  -0.74987  -0.72630
 Alpha  occ. eigenvalues --   -0.71629  -0.63651  -0.62461  -0.58640  -0.54806
 Alpha  occ. eigenvalues --   -0.38824  -0.38068
 Alpha virt. eigenvalues --    0.02895   0.04450   0.06442   0.08038   0.08713
 Alpha virt. eigenvalues --    0.08950   0.09197   0.10764   0.11017   0.13148
 Alpha virt. eigenvalues --    0.13276   0.13445   0.14104   0.14424   0.14733

 Mulliken charges:
               1
     1  C    0.399506
     2  C    0.399506
     3  C    0.243443
     4  H   -0.400426
     5  F   -0.289777
     6  C    0.243443
     7  H   -0.400426
     8  C    0.283076
     9  C    0.283076
    10  F   -0.235821
    11  F   -0.289777
    12  F   -0.235821
 Sum of Mulliken charges =  -0.00000

 Dipole moment (field-independent basis, Debye):
    X=             -0.0000    Y=              0.0000    Z=             -3.4937  Tot=              3.4937

 Test job not archived.
 1\1\GINC-SE044\SP\RHF\Aug-CC-pVDZ\C6H2F4\OHZDE\08-Apr-2025\0\\#t hf au
 g-cc-pvdz iop(5/13=1,5/36=2,99/5=2) pseudo=read geom=check guess=(read
 ,tcheck) scf=(maxcycle=1)\\title\\0,1\C,0,0.,0.696916,-1.729572\C,0,0.
 ,-0.696916,-1.729572\C,0,0.,-1.381851,-0.52657\H,0,0.,-1.259915,-2.653
 452\F,0,0.,-2.723674,-0.50073\C,0,0.,1.381851,-0.52657\H,0,0.,1.259915
 ,-2.653452\C,0,0.,0.695005,0.684657\C,0,0.,-0.695005,0.684657\F,0,0.,-
 1.35908,1.843214\F,0,0.,2.723674,-0.50073\F,0,0.,1.35908,1.843214\\Ver
 sion=ES64L-G16RevC.01\State=1-A1\HF=-626.3715387\RMSD=2.350e-02\Dipole

 Normal termination of Gaussian 16 at Tue Apr  8 22:43:57 2025.
