 Gaussian 16, Revision C.01,

 ----------------------------------------------------------------------
 #t hf aug-cc-pvdz symm=none int=(grid=ultrafine) guess=(read,tcheck) s
 table=(opt,rrhf)
 ----------------------------------------------------------------------
 -----
 title
 -----
 Symbolic Z-matrix:
 Charge =  0 Multiplicity = 1

 SCF Done:  E(RHF) =  -529.459524779     A.U. after   14 cycles
 Normal termination of Gaussian 16 at Tue Apr  8 22:45:40 2025.
 Gaussian 16:  ES64L-G16RevC.01  3-Jul-2019

 ----------------------------------------------------------------------
 #t hf aug-cc-pvdz iop(5/13=1,5/36=2,99/5=2) pseudo=read geom=check gue
 ss=(read,tcheck) scf=(maxcycle=1)
 ----------------------------------------------------------------------
 -----
 title
 -----
 Structure from the checkpoint file:  "BDE49_expt_1605_mol1.chk"
 Charge =  0 Multiplicity = 1

                         Standard orientation:
 ---------------------------------------------------------------------
 Center     Atomic      Atomic             Coordinates (Angstroms)
 Number     Number       Type             X           Y           Z
 ---------------------------------------------------------------------
      1          6           0        1.500691    0.807160   -0.000000
      2         16           0        0.460113   -0.705232   -0.000003
      3          1           0        1.315361    1.393031    0.897716
      4          1           0        1.315351    1.393067   -0.897691
      5          1           0        2.528766    0.443832   -0.000018
      6          6           0       -1.080370    0.005785    0.000085
      7          7           0       -2.149029    0.453731   -0.000066
 ---------------------------------------------------------------------

 SCF Done:  E(RHF) =  -529.522199934     A.U. after    2 cycles

 The electronic state is 1-A.
 Alpha  occ. eigenvalues --  -93.60095 -15.65212 -11.31180 -11.30675  -8.89750
 Alpha  occ. eigenvalues --   -6.23969  -6.23637  -6.23293  -1.20267  -1.08259
 Alpha  occ. eigenvalues --   -0.93493  -0.68201  -0.63305  -0.61110  -0.55837
 Alpha  occ. eigenvalues --   -0.53161  -0.51856  -0.45544  -0.38317
 Alpha virt. eigenvalues --    0.02624   0.05103   0.05397   0.06588   0.09369
 Alpha virt. eigenvalues --    0.10488   0.11764   0.12183   0.12955   0.13026
 Alpha virt. eigenvalues --    0.15855   0.16450   0.16741   0.16972   0.17505

 Mulliken charges:
               1
     1  C    0.071617
     2  S    0.647160
     3  H   -0.030864
     4  H   -0.030860
     5  H   -0.074592
     6  C   -0.399579
     7  N   -0.182882
 Sum of Mulliken charges =  -0.00000

 Dipole moment (field-independent basis, Debye):
    X=              4.3567    Y=              0.3418    Z=              0.0001  Tot=              4.3701

 Test job not archived.
 1\1\GINC-SE165\SP\RHF\Aug-CC-pVDZ\C2H3N1S1\OHZDE\08-Apr-2025\0\\#t hf
 aug-cc-pvdz iop(5/13=1,5/36=2,99/5=2) pseudo=read geom=check guess=(re
 ad,tcheck) scf=(maxcycle=1)\\title\\0,1\C,0,-1.500691,0.80716,0.\S,0,-
 0.460113,-0.705232,0.000003\H,0,-1.315361,1.393031,-0.897716\H,0,-1.31
 5351,1.393067,0.897691\H,0,-2.528766,0.443832,0.000018\C,0,1.08037,0.0
 05785,-0.000085\N,0,2.149029,0.453731,0.000066\\Version=ES64L-G16RevC.
 01\State=1-A\HF=-529.5221999\RMSD=4.379e-03\Dipole=-1.7140572,0.134468
 9,-0.0000511\Quadrupole=-1.9048582,1.3807024,0.5241558,-2.706556,-0.00

 Normal termination of Gaussian 16 at Tue Apr  8 22:45:42 2025.
