 Gaussian 16, Revision C.01,

 ----------------------------------------------------------------------
 #t hf aug-cc-pvdz symm=none int=(grid=ultrafine) guess=(read,tcheck) s
 table=(opt,rrhf)
 ----------------------------------------------------------------------
 -----
 title
 -----
 Symbolic Z-matrix:
 Charge =  0 Multiplicity = 1

 SCF Done:  E(RHF) =  -1209.20800113     A.U. after   10 cycles
 Normal termination of Gaussian 16 at Tue Apr  8 23:46:13 2025.
 Gaussian 16:  ES64L-G16RevC.01  3-Jul-2019

 ----------------------------------------------------------------------
 #t hf aug-cc-pvdz iop(5/13=1,5/36=2,99/5=2) pseudo=read geom=check gue
 ss=(read,tcheck) scf=(maxcycle=1)
 ----------------------------------------------------------------------
 -----
 title
 -----
 Structure from the checkpoint file:  "BDE49_nonexpt_1809_mol1.chk"
 Charge =  0 Multiplicity = 1

                         Standard orientation:
 ---------------------------------------------------------------------
 Center     Atomic      Atomic             Coordinates (Angstroms)
 Number     Number       Type             X           Y           Z
 ---------------------------------------------------------------------
      1         14           0       -0.000000   -0.000000    0.769881
      2         17           0        0.000000    1.694006   -0.409727
      3         17           0       -0.000000   -1.694006   -0.409727
      4          1           0       -1.227147    0.000000    1.576186
      5          1           0        1.227147   -0.000000    1.576186
 ---------------------------------------------------------------------

 SCF Done:  E(RHF) =  -1209.27197549     A.U. after    2 cycles

 The electronic state is 1-A1.
 Alpha  occ. eigenvalues -- -103.66930-103.66930 -69.16925 -10.70421 -10.70407
 Alpha  occ. eigenvalues --   -8.36108  -8.36102  -8.35868  -8.35866  -8.35861
 Alpha  occ. eigenvalues --   -8.35861  -6.91323  -4.02203  -4.02098  -4.01978
 Alpha  occ. eigenvalues --   -1.16521  -1.14378  -0.72995  -0.56940  -0.56837
 Alpha  occ. eigenvalues --   -0.56635  -0.49543  -0.49461  -0.48003  -0.46632
 Alpha virt. eigenvalues --    0.04205   0.05245   0.05280   0.05914   0.08991
 Alpha virt. eigenvalues --    0.10138   0.12608   0.12617   0.14400   0.14667
 Alpha virt. eigenvalues --    0.15103   0.16615   0.17721   0.19337   0.21308

 Mulliken charges:
               1
     1  Si   1.058522
     2  Cl  -0.463180
     3  Cl  -0.463180
     4  H   -0.066081
     5  H   -0.066081
 Sum of Mulliken charges =  -0.00000

 Dipole moment (field-independent basis, Debye):
    X=              0.0000    Y=              0.0000    Z=              1.6381  Tot=              1.6381

 Test job not archived.
 1\1\GINC-SE074\SP\RHF\Aug-CC-pVDZ\Cl2H2Si1\OHZDE\08-Apr-2025\0\\#t hf
 aug-cc-pvdz iop(5/13=1,5/36=2,99/5=2) pseudo=read geom=check guess=(re
 ad,tcheck) scf=(maxcycle=1)\\title\\0,1\Si,0,0.,0.,0.769881\Cl,0,0.,1.
 694006,-0.409727\Cl,0,0.,-1.694006,-0.409727\H,0,-1.227147,0.,1.576186
 \H,0,1.227147,0.,1.576186\\Version=ES64L-G16RevC.01\State=1-A1\HF=-120
 9.2719755\RMSD=4.627e-03\Dipole=0.,0.,0.6444656\Quadrupole=0.390905,-1
 .8281233,1.4372183,0.,0.,0.\PG=C02V [C2(Si1),SGV(Cl2),SGV'(H2)]\\@

 Normal termination of Gaussian 16 at Tue Apr  8 23:46:14 2025.
