 Gaussian 16, Revision C.01,

 ----------------------------------------------------------------------
 #t hf aug-cc-pvdz symm=none int=(grid=ultrafine) guess=(read,tcheck) s
 table=opt
 ----------------------------------------------------------------------
 -----
 title
 -----
 Symbolic Z-matrix:
 Charge =  0 Multiplicity = 2

 SCF Done:  E(UHF) =  -391.532437464     A.U. after   16 cycles
 Normal termination of Gaussian 16 at Wed Apr  9 00:32:42 2025.
 Gaussian 16:  ES64L-G16RevC.01  3-Jul-2019

 ----------------------------------------------------------------------
 #t hf aug-cc-pvdz iop(5/13=1,5/36=2,99/5=2) pseudo=read geom=check gue
 ss=(read,tcheck) scf=(maxcycle=1)
 ----------------------------------------------------------------------
 -----
 title
 -----
 Structure from the checkpoint file:  "BDE49_nonexpt_417_mol2.chk"
 Charge =  0 Multiplicity = 2

                         Standard orientation:
 ---------------------------------------------------------------------
 Center     Atomic      Atomic             Coordinates (Angstroms)
 Number     Number       Type             X           Y           Z
 ---------------------------------------------------------------------
      1          9           0        2.644206    0.075781   -0.025967
      2          5           0        1.509733   -0.545818   -0.243955
      3          6           0        0.146450    0.002919    0.405119
      4          8           0       -0.819794   -0.970648    0.711675
      5          8           0       -0.297887    0.974913   -0.519965
      6          6           0       -1.266823   -1.744463   -0.400923
      7          1           0       -1.944494   -2.496852    0.000957
      8          1           0       -0.423874   -2.237631   -0.899980
      9          1           0       -1.795376   -1.125503   -1.131709
     10          6           0       -1.240645    1.901276    0.019106
     11          1           0       -1.540439    2.556513   -0.798300
     12          1           0       -0.784953    2.502437    0.815979
     13          1           0       -2.118683    1.383424    0.416247
     14          1           0        0.368854    0.472164    1.376789
 ---------------------------------------------------------------------

 SCF Done:  E(UHF) =  -391.669804082     A.U. after    2 cycles

 The electronic state is 2-A.
 Alpha  occ. eigenvalues --  -26.14780 -20.58938 -20.58294 -11.34099 -11.29141
 Alpha  occ. eigenvalues --  -11.28513  -7.70672  -1.69181  -1.37802  -1.31272
 Alpha  occ. eigenvalues --   -0.99439  -0.94134  -0.87221  -0.83699  -0.77685
 Alpha  occ. eigenvalues --   -0.74902  -0.71050  -0.70343  -0.69423  -0.62572
 Alpha  occ. eigenvalues --   -0.61505  -0.58948  -0.54411  -0.53592  -0.49107
 Alpha  occ. eigenvalues --   -0.46930  -0.46759  -0.35705
 Alpha virt. eigenvalues --    0.03433   0.04521   0.04571   0.04889   0.05933
 Alpha virt. eigenvalues --    0.06555   0.06701   0.07036   0.08046   0.09647
 Alpha virt. eigenvalues --    0.10038   0.11181   0.13202   0.14406   0.14721

  Beta  occ. eigenvalues --  -26.14453 -20.58951 -20.58330 -11.33740 -11.29139
  Beta  occ. eigenvalues --  -11.28472  -7.68770  -1.68233  -1.37728  -1.31316
  Beta  occ. eigenvalues --   -0.98895  -0.94022  -0.86147  -0.82766  -0.75013
  Beta  occ. eigenvalues --   -0.74955  -0.70536  -0.69762  -0.69003  -0.62469
  Beta  occ. eigenvalues --   -0.61454  -0.58457  -0.53699  -0.53369  -0.48055
  Beta  occ. eigenvalues --   -0.46874  -0.45217
  Beta virt. eigenvalues --    0.03037   0.04390   0.04650   0.04809   0.06186
  Beta virt. eigenvalues --    0.06597   0.06733   0.07043   0.07572   0.09041
  Beta virt. eigenvalues --    0.09659   0.12174   0.12282   0.14429   0.14832

 Mulliken charges and spin densities:
               1          2
     1  F   -0.335061  -0.045460
     2  B    0.358911   1.062188
     3  C    1.062992   0.018808
     4  O   -0.688959  -0.011602
     5  O   -0.722116   0.011205
     6  C    0.747771   0.004876
     7  H   -0.224932  -0.001132
     8  H   -0.095922  -0.023004
     9  H   -0.065954  -0.000701
    10  C    0.704577  -0.001052
    11  H   -0.240463   0.001016
    12  H   -0.079396   0.001332
    13  H   -0.042419  -0.000785
    14  H   -0.379028  -0.015688
 Sum of Mulliken charges =  -0.00000   1.00000

 Dipole moment (field-independent basis, Debye):
    X=             -1.5961    Y=              0.2265    Z=              0.0738  Tot=              1.6137
                          Isotropic Fermi Contact Couplings
        Atom                 a.u.       MegaHertz       Gauss      10(-4) cm-1
     1  F(19)              0.07114     299.30523     106.79955      99.83748
     2  B(11)              0.34473     494.46951     176.43902     164.93727
     3  C(13)              0.06514      73.22462      26.12837      24.42510
     4  O(17)             -0.00010       0.06295       0.02246       0.02100
     5  O(17)             -0.00503       3.04932       1.08807       1.01715
     6  C(13)              0.00454       5.10214       1.82057       1.70189
     7  H(1)              -0.00004      -0.16395      -0.05850      -0.05469
     8  H(1)               0.00022       0.97234       0.34696       0.32434

 Normal termination of Gaussian 16 at Wed Apr  9 00:32:55 2025.
