 Gaussian 16, Revision C.01,

 ----------------------------------------------------------------------
 #t hf aug-cc-pvdz symm=none int=(grid=ultrafine) guess=(read,tcheck) s
 table=(opt,rrhf)
 ----------------------------------------------------------------------
 -----
 title
 -----
 Symbolic Z-matrix:
 Charge =  0 Multiplicity = 1

 SCF Done:  E(RHF) =  -673.484367235     A.U. after   17 cycles
 Normal termination of Gaussian 16 at Wed Apr  9 00:00:23 2025.
 Gaussian 16:  ES64L-G16RevC.01  3-Jul-2019

 ----------------------------------------------------------------------
 #t hf aug-cc-pvdz iop(5/13=1,5/36=2,99/5=2) pseudo=read geom=check gue
 ss=(read,tcheck) scf=(maxcycle=1)
 ----------------------------------------------------------------------
 -----
 title
 -----
 Structure from the checkpoint file:  "BDE49_nonexpt_2083_mol1.chk"
 Charge =  0 Multiplicity = 1

                         Standard orientation:
 ---------------------------------------------------------------------
 Center     Atomic      Atomic             Coordinates (Angstroms)
 Number     Number       Type             X           Y           Z
 ---------------------------------------------------------------------
      1          6           0        1.251483    0.116358   -0.000001
      2         14           0        2.619563   -1.171292    0.000002
      3          6           0       -0.141821   -0.228001   -0.000001
      4          6           0       -0.596333   -1.573493   -0.000001
      5          1           0        0.128473   -2.380354   -0.000002
      6          6           0       -1.937060   -1.876366   -0.000001
      7          1           0       -2.257752   -2.911999   -0.000002
      8          6           0       -2.902508   -0.845491   -0.000000
      9          1           0       -3.957257   -1.095926   -0.000000
     10          6           0       -2.502658    0.468140   -0.000000
     11          1           0       -3.237971    1.266169    0.000001
     12          6           0       -1.126245    0.812634   -0.000000
     13          6           0       -0.701379    2.166891   -0.000000
     14          1           0       -1.453277    2.949371    0.000001
     15          6           0        0.632843    2.482219   -0.000000
     16          1           0        0.951383    3.518596   -0.000000
     17          6           0        1.603885    1.454557   -0.000001
     18          1           0        2.652047    1.735342   -0.000001
     19          1           0        2.551657   -2.046021   -1.195869
     20          1           0        2.551655   -2.046015    1.195877
     21          1           0        3.915922   -0.455764   -0.000000
 ---------------------------------------------------------------------

 SCF Done:  E(RHF) =  -673.616525353     A.U. after    2 cycles

 The electronic state is 1-A.
 Alpha  occ. eigenvalues --  -69.06390 -11.26107 -11.25723 -11.25543 -11.25449
 Alpha  occ. eigenvalues --  -11.25169 -11.25142 -11.24996 -11.24936 -11.24911
 Alpha  occ. eigenvalues --  -11.24007  -6.81758  -3.92489  -3.92470  -3.92436
 Alpha  occ. eigenvalues --   -1.16932  -1.10632  -1.04735  -1.00829  -0.98167
 Alpha  occ. eigenvalues --   -0.85884  -0.84396  -0.81961  -0.71906  -0.71291
 Alpha  occ. eigenvalues --   -0.69247  -0.67724  -0.62465  -0.61176  -0.59397
 Alpha  occ. eigenvalues --   -0.57490  -0.55926  -0.54312  -0.51801  -0.49731
 Alpha  occ. eigenvalues --   -0.48350  -0.47806  -0.45424  -0.44799  -0.39032
 Alpha  occ. eigenvalues --   -0.32738  -0.29864
 Alpha virt. eigenvalues --    0.03115   0.03611   0.03811   0.04998   0.05257
 Alpha virt. eigenvalues --    0.05924   0.06514   0.06575   0.07213   0.07365
 Alpha virt. eigenvalues --    0.09013   0.09302   0.09552   0.10281   0.10404

 Mulliken charges:
               1
     1  C   -0.870806
     2  Si  -0.287799
     3  C    0.649209
     4  C    0.473711
     5  H   -0.742633
     6  C    0.415670
     7  H   -0.449521
     8  C    0.348072
     9  H   -0.453289
    10  C    0.935976
    11  H   -0.575593
    12  C   -0.026392
    13  C    0.756421
    14  H   -0.597648
    15  C    0.226740
    16  H   -0.458648
    17  C    1.029507
    18  H   -0.653943
    19  H    0.149819
    20  H    0.149819
    21  H   -0.018672
 Sum of Mulliken charges =  -0.00000

 Dipole moment (field-independent basis, Debye):
    X=             -0.8162    Y=              0.6349    Z=              0.0000  Tot=              1.0340

 Test job not archived.
 1\1\GINC-SE284\SP\RHF\Aug-CC-pVDZ\C10H10Si1\OHZDE\09-Apr-2025\0\\#t hf
  aug-cc-pvdz iop(5/13=1,5/36=2,99/5=2) pseudo=read geom=check guess=(r
 ead,tcheck) scf=(maxcycle=1)\\title\\0,1\C,0,1.251483,0.116358,-0.0000
 01\Si,0,2.619563,-1.171292,0.000002\C,0,-0.141821,-0.228001,-0.000001\
 C,0,-0.596333,-1.573493,-0.000001\H,0,0.128473,-2.380354,-0.000002\C,0
 ,-1.93706,-1.876366,-0.000001\H,0,-2.257752,-2.911999,-0.000002\C,0,-2
 .902508,-0.845491,0.\H,0,-3.957257,-1.095927,0.\C,0,-2.502658,0.46814,
 0.\H,0,-3.237971,1.266168,0.000001\C,0,-1.126245,0.812634,0.\C,0,-0.70

 Normal termination of Gaussian 16 at Wed Apr  9 00:00:37 2025.
