 Gaussian 16, Revision C.01,

 ----------------------------------------------------------------------
 #t hf aug-cc-pvdz symm=none int=(grid=ultrafine) guess=(read,tcheck) s
 table=(opt,rrhf)
 ----------------------------------------------------------------------
 -----
 title
 -----
 Symbolic Z-matrix:
 Charge =  0 Multiplicity = 1

 SCF Done:  E(RHF) =  -1000.64032322     A.U. after   19 cycles
 Normal termination of Gaussian 16 at Tue Apr  8 22:53:25 2025.
 Gaussian 16:  ES64L-G16RevC.01  3-Jul-2019

 ----------------------------------------------------------------------
 #t hf aug-cc-pvdz iop(5/13=1,5/36=2,99/5=2) pseudo=read geom=check gue
 ss=(read,tcheck) scf=(maxcycle=1)
 ----------------------------------------------------------------------
 -----
 title
 -----
 Structure from the checkpoint file:  "BDE49_expt_1752_mol1.chk"
 Charge =  0 Multiplicity = 1

                         Standard orientation:
 ---------------------------------------------------------------------
 Center     Atomic      Atomic             Coordinates (Angstroms)
 Number     Number       Type             X           Y           Z
 ---------------------------------------------------------------------
      1          6           0        3.463938    0.670040   -0.441672
      2          6           0        2.943059   -0.435418   -1.111591
      3          6           0        1.670700   -0.906626   -0.797938
      4          6           0        2.720400    1.308808    0.551121
      5          6           0        1.449562    0.848267    0.878892
      6          6           0        0.938400   -0.252974    0.191569
      7          1           0        4.455103    1.032279   -0.689097
      8          1           0        3.527795   -0.936344   -1.873963
      9          1           0        1.255198   -1.774693   -1.292611
     10          1           0        3.132364    2.162849    1.075343
     11          1           0        0.860616    1.324620    1.651547
     12         16           0       -0.685401   -0.853353    0.608562
     13          8           0       -0.864007   -2.156440    0.023146
     14          8           0       -0.942762   -0.572336    1.990099
     15          7           0       -1.743097    0.168446   -0.304927
     16          7           0       -1.881563    1.431216    0.185427
     17          8           0       -2.554234    2.153844   -0.513116
     18          6           0       -2.299145   -0.208944   -1.606470
     19          1           0       -2.115276   -1.267984   -1.758114
     20          1           0       -1.838925    0.385909   -2.399059
     21          1           0       -3.371304   -0.010092   -1.599041
 ---------------------------------------------------------------------

 SCF Done:  E(RHF) =  -1000.90050438     A.U. after    2 cycles

 The electronic state is 1-A.
 Alpha  occ. eigenvalues --  -93.83310 -20.63489 -20.58797 -20.58419 -15.82136
 Alpha  occ. eigenvalues --  -15.72139 -11.30407 -11.29646 -11.28917 -11.28763
 Alpha  occ. eigenvalues --  -11.28396 -11.27762 -11.27704  -9.09539  -6.44223
 Alpha  occ. eigenvalues --   -6.44084  -6.43918  -1.49707  -1.45878  -1.34199
 Alpha  occ. eigenvalues --   -1.24985  -1.18513  -1.06659  -1.04909  -1.01692
 Alpha  occ. eigenvalues --   -0.95291  -0.87372  -0.86861  -0.80605  -0.77639
 Alpha  occ. eigenvalues --   -0.74948  -0.72493  -0.70684  -0.68613  -0.67651
 Alpha  occ. eigenvalues --   -0.65979  -0.65542  -0.65090  -0.63096  -0.59623
 Alpha  occ. eigenvalues --   -0.59184  -0.56876  -0.55052  -0.54792  -0.54509
 Alpha  occ. eigenvalues --   -0.53650  -0.52300  -0.49574  -0.44945  -0.44158
 Alpha  occ. eigenvalues --   -0.38086  -0.37455
 Alpha virt. eigenvalues --    0.02416   0.03347   0.04074   0.04773   0.05508
 Alpha virt. eigenvalues --    0.05798   0.06093   0.06967   0.07763   0.08004
 Alpha virt. eigenvalues --    0.09769   0.10004   0.10244   0.11373   0.12319

 Mulliken charges:
               1
     1  C    0.432984
     2  C    0.680288
     3  C   -0.056597
     4  C    0.767636
     5  C   -0.312600
     6  C    0.663856
     7  H   -0.434820
     8  H   -0.437462
     9  H   -0.568024
    10  H   -0.430170
    11  H   -0.548463
    12  S    2.785204
    13  O   -0.973605
    14  O   -1.011188
    15  N   -0.537188
    16  N   -0.024020
    17  O   -0.472134
    18  C    0.872527
    19  H   -0.206256
    20  H   -0.062892
    21  H   -0.127077
 Sum of Mulliken charges =  -0.00000

 Dipole moment (field-independent basis, Debye):
    X=              4.2261    Y=              0.4363    Z=             -3.3841  Tot=              5.4317

 Test job not archived.
 1\1\GINC-SE398\SP\RHF\Aug-CC-pVDZ\C7H8N2O3S1\OHZDE\08-Apr-2025\0\\#t h
 f aug-cc-pvdz iop(5/13=1,5/36=2,99/5=2) pseudo=read geom=check guess=(
 read,tcheck) scf=(maxcycle=1)\\title\\0,1\C,0,3.463938,0.67004,-0.4416
 72\C,0,2.943059,-0.435418,-1.111591\C,0,1.6707,-0.906626,-0.797938\C,0
 ,2.7204,1.308808,0.551121\C,0,1.449562,0.848267,0.878892\C,0,0.9384,-0
 .252974,0.191569\H,0,4.455103,1.032279,-0.689097\H,0,3.527795,-0.93634
 4,-1.873963\H,0,1.255198,-1.774693,-1.292611\H,0,3.132364,2.162849,1.0
 75343\H,0,0.860616,1.32462,1.651547\S,0,-0.685401,-0.853353,0.608562\O

 Normal termination of Gaussian 16 at Tue Apr  8 22:53:42 2025.
