 Gaussian 16, Revision C.01,

 ----------------------------------------------------------------------
 #t hf aug-cc-pvdz symm=none int=(grid=ultrafine) guess=(read,tcheck) s
 table=(opt,rrhf)
 ----------------------------------------------------------------------
 -----
 title
 -----
 Symbolic Z-matrix:
 Charge =  0 Multiplicity = 1

 SCF Done:  E(RHF) =  -1300.04870475     A.U. after   16 cycles

 1\1\GINC-SE015\Stability\RHF\Aug-CC-pVDZ\C2N6O12\OHZDE\08-Apr-2025\0\\
 #t hf aug-cc-pvdz symm=none int=(grid=ultrafine) guess=(read,tcheck) s
 table=(opt,rrhf)\\title\\0,1\C,0,0.768495,0.047496,0.034522\N,0,1.4257
 52,-0.392057,-1.363158\O,0,1.90923,-1.485014,-1.415904\O,0,1.359879,0.
 461067,-2.216457\C,0,-0.768432,-0.04743,0.034787\N,0,1.243295,1.552155
 ,0.211776\N,0,-1.426353,0.390511,-1.363089\N,0,-1.242938,-1.551934,0.2
 13826\O,0,-2.27267,-1.732314,0.802225\O,0,-0.516793,-2.356784,-0.31745
 6\N,0,-1.4175,0.797106,1.163898\N,0,1.417796,-0.795763,1.164438\O,0,-2

 Normal termination of Gaussian 16 at Tue Apr  8 22:53:21 2025.
 Gaussian 16:  ES64L-G16RevC.01  3-Jul-2019

 ----------------------------------------------------------------------
 #t hf aug-cc-pvdz iop(5/13=1,5/36=2,99/5=2) pseudo=read geom=check gue
 ss=(read,tcheck) scf=(maxcycle=1)
 ----------------------------------------------------------------------
 -----
 title
 -----
 Structure from the checkpoint file:  "BDE49_expt_1221_mol1.chk"
 Charge =  0 Multiplicity = 1

                         Standard orientation:
 ---------------------------------------------------------------------
 Center     Atomic      Atomic             Coordinates (Angstroms)
 Number     Number       Type             X           Y           Z
 ---------------------------------------------------------------------
      1          6           0       -0.768495    0.047496   -0.034522
      2          7           0       -1.425752   -0.392057    1.363158
      3          8           0       -1.909230   -1.485014    1.415904
      4          8           0       -1.359879    0.461067    2.216457
      5          6           0        0.768432   -0.047430   -0.034787
      6          7           0       -1.243295    1.552155   -0.211776
      7          7           0        1.426353    0.390511    1.363089
      8          7           0        1.242938   -1.551934   -0.213826
      9          8           0        2.272670   -1.732314   -0.802225
     10          8           0        0.516793   -2.356784    0.317456
     11          7           0        1.417500    0.797106   -1.163898
     12          7           0       -1.417796   -0.795763   -1.164438
     13          8           0        2.612918    0.912311   -1.103839
     14          8           0        0.658390    1.229643   -2.007381
     15          8           0       -0.517112    2.356573    0.320083
     16          8           0       -2.273275    1.732959   -0.799618
     17          8           0       -2.613185   -0.911165   -1.104198
     18          8           0       -0.658864   -1.227206   -2.008649
     19          8           0        1.908913    1.483820    1.417077
     20          8           0        1.361953   -0.463955    2.215145
 ---------------------------------------------------------------------

 SCF Done:  E(RHF) =  -1300.43629230     A.U. after    2 cycles

 The electronic state is 1-A.
 Alpha  occ. eigenvalues --  -20.71554 -20.71552 -20.71347 -20.71346 -20.71243
 Alpha  occ. eigenvalues --  -20.71243 -20.70694 -20.70693 -20.70688 -20.70687
 Alpha  occ. eigenvalues --  -20.70408 -20.70407 -16.02388 -16.02386 -16.02340
 Alpha  occ. eigenvalues --  -16.02339 -16.01782 -16.01782 -11.55712 -11.55667
 Alpha  occ. eigenvalues --   -1.67408  -1.66128  -1.64842  -1.64803  -1.64051
 Alpha  occ. eigenvalues --   -1.64035  -1.48100  -1.47828  -1.47557  -1.47098
 Alpha  occ. eigenvalues --   -1.46760  -1.46531  -1.29426  -1.18927  -1.04323
 Alpha  occ. eigenvalues --   -1.04194  -1.01407  -1.01365  -0.94920  -0.91001
 Alpha  occ. eigenvalues --   -0.90172  -0.89711  -0.88678  -0.86967  -0.86815
 Alpha  occ. eigenvalues --   -0.83295  -0.82813  -0.82493  -0.82420  -0.82150
 Alpha  occ. eigenvalues --   -0.82136  -0.81817  -0.81676  -0.79681  -0.79638
 Alpha  occ. eigenvalues --   -0.78998  -0.78991  -0.65235  -0.63733  -0.63035
 Alpha  occ. eigenvalues --   -0.61860  -0.60916  -0.60833  -0.60098  -0.59975
 Alpha  occ. eigenvalues --   -0.58590  -0.58204  -0.57432  -0.57064  -0.55873
 Alpha  occ. eigenvalues --   -0.55701  -0.55366  -0.54545  -0.54214  -0.53404
 Alpha virt. eigenvalues --   -0.02571  -0.01847  -0.01753  -0.00402   0.00959
 Alpha virt. eigenvalues --    0.01524   0.06998   0.07276   0.07818   0.07904
 Alpha virt. eigenvalues --    0.10401   0.10598   0.10858   0.10994   0.11678

 Mulliken charges:
               1
     1  C    2.791097
     2  N    0.037246
     3  O   -0.447316
     4  O   -0.527550
     5  C    2.790862
     6  N    0.036737
     7  N    0.037807
     8  N    0.036970
     9  O   -0.455477
    10  O   -0.498578
    11  N   -0.022472
    12  N   -0.022324
    13  O   -0.424980
    14  O   -0.489039
    15  O   -0.498449
    16  O   -0.455477
    17  O   -0.424903
    18  O   -0.489061
    19  O   -0.447489
    20  O   -0.527607
 Sum of Mulliken charges =  -0.00000

 Dipole moment (field-independent basis, Debye):
    X=             -0.0007    Y=              0.0002    Z=             -0.0442  Tot=              0.0442

 Test job not archived.
 1\1\GINC-SE015\SP\RHF\Aug-CC-pVDZ\C2N6O12\OHZDE\08-Apr-2025\0\\#t hf a
 ug-cc-pvdz iop(5/13=1,5/36=2,99/5=2) pseudo=read geom=check guess=(rea
 d,tcheck) scf=(maxcycle=1)\\title\\0,1\C,0,0.768495,0.047496,0.034522\
 N,0,1.425752,-0.392057,-1.363158\O,0,1.90923,-1.485014,-1.415904\O,0,1
 .359879,0.461067,-2.216457\C,0,-0.768432,-0.04743,0.034787\N,0,1.24329
 5,1.552155,0.211776\N,0,-1.426353,0.390511,-1.363089\N,0,-1.242938,-1.
 551934,0.213826\O,0,-2.27267,-1.732314,0.802225\O,0,-0.516793,-2.35678
 4,-0.317456\N,0,-1.4175,0.797106,1.163898\N,0,1.417796,-0.795763,1.164

 Normal termination of Gaussian 16 at Tue Apr  8 22:53:52 2025.
