 Gaussian 16, Revision C.01,

 ----------------------------------------------------------------------
 #t hf aug-cc-pvdz symm=none int=(grid=ultrafine) guess=(read,tcheck) s
 table=opt
 ----------------------------------------------------------------------
 -----
 title
 -----
 Symbolic Z-matrix:
 Charge =  0 Multiplicity = 2

 SCF Done:  E(UHF) =  -103.847213031     A.U. after   13 cycles
 Normal termination of Gaussian 16 at Wed Apr  9 00:25:42 2025.
 Gaussian 16:  ES64L-G16RevC.01  3-Jul-2019

 ----------------------------------------------------------------------
 #t hf aug-cc-pvdz iop(5/13=1,5/36=2,99/5=2) pseudo=read geom=check gue
 ss=(read,tcheck) scf=(maxcycle=1)
 ----------------------------------------------------------------------
 -----
 title
 -----
 Structure from the checkpoint file:  "BDE49_nonexpt_2_mol3.chk"
 Charge =  0 Multiplicity = 2

                         Standard orientation:
 ---------------------------------------------------------------------
 Center     Atomic      Atomic             Coordinates (Angstroms)
 Number     Number       Type             X           Y           Z
 ---------------------------------------------------------------------
      1          5           0       -1.452149   -0.475345   -0.000002
      2          6           0       -0.209375    0.437171    0.000002
      3          6           0        1.188899   -0.201733   -0.000000
      4          1           0       -0.327756    1.112881    0.865763
      5          1           0       -0.327739    1.112931   -0.865720
      6          1           0        1.330076   -0.834081    0.880127
      7          1           0        1.978503    0.555164    0.000029
      8          1           0        1.330096   -0.834033   -0.880159
      9          1           0       -2.599581   -0.148763   -0.000039
 ---------------------------------------------------------------------

 SCF Done:  E(UHF) =  -103.881148033     A.U. after    2 cycles

 The electronic state is 2-A.
 Alpha  occ. eigenvalues --  -11.22821 -11.22238  -7.63305  -1.01959  -0.85940
 Alpha  occ. eigenvalues --   -0.65150  -0.60452  -0.58377  -0.51845  -0.49603
 Alpha  occ. eigenvalues --   -0.47431  -0.31756
 Alpha virt. eigenvalues --    0.03460   0.04195   0.04978   0.05130   0.06552
 Alpha virt. eigenvalues --    0.06866   0.07477   0.07750   0.11540   0.11708
 Alpha virt. eigenvalues --    0.13129   0.14038   0.15950   0.16965   0.17289

  Beta  occ. eigenvalues --  -11.22741 -11.22237  -7.61571  -1.01507  -0.85310
  Beta  occ. eigenvalues --   -0.61417  -0.60390  -0.57384  -0.50733  -0.49525
  Beta  occ. eigenvalues --   -0.46365
  Beta virt. eigenvalues --    0.03156   0.04600   0.04709   0.05174   0.06672
  Beta virt. eigenvalues --    0.07106   0.07245   0.07869   0.10382   0.11940
  Beta virt. eigenvalues --    0.13126   0.13372   0.15320   0.16375   0.17317

 Mulliken charges and spin densities:
               1          2
     1  B   -0.280075   1.058320
     2  C    0.263838  -0.045605
     3  C    0.256192   0.002880
     4  H   -0.181618   0.002899
     5  H   -0.181627   0.002906
     6  H   -0.086967  -0.004756
     7  H   -0.066925   0.001041
     8  H   -0.086965  -0.004756
     9  H    0.364149  -0.012928
 Sum of Mulliken charges =  -0.00000   1.00000

 Dipole moment (field-independent basis, Debye):
    X=              0.3959    Y=              0.9116    Z=             -0.0000  Tot=              0.9938
                          Isotropic Fermi Contact Couplings
        Atom                 a.u.       MegaHertz       Gauss      10(-4) cm-1
     1  B(11)              0.24185     346.90428     123.78407     115.71481
     2  C(13)              0.00525       5.90456       2.10689       1.96955
     3  C(13)              0.02442      27.44754       9.79396       9.15551
     4  H(1)               0.00312      13.92784       4.96980       4.64583
     5  H(1)               0.00312      13.93659       4.97292       4.64875
     6  H(1)              -0.00046      -2.06920      -0.73834      -0.69021
     7  H(1)              -0.00044      -1.94979      -0.69573      -0.65038
     8  H(1)              -0.00046      -2.06912      -0.73831      -0.69018

 Normal termination of Gaussian 16 at Wed Apr  9 00:25:44 2025.
