 Gaussian 16, Revision C.01,

 ----------------------------------------------------------------------
 #t hf aug-cc-pvdz symm=none int=(grid=ultrafine) guess=(read,tcheck) s
 table=(opt,rrhf)
 ----------------------------------------------------------------------
 -----
 title
 -----
 Symbolic Z-matrix:
 Charge =  0 Multiplicity = 1

 SCF Done:  E(RHF) =  -469.549926765     A.U. after   12 cycles
 Normal termination of Gaussian 16 at Tue Apr  8 23:53:32 2025.
 Gaussian 16:  ES64L-G16RevC.01  3-Jul-2019

 ----------------------------------------------------------------------
 #t hf aug-cc-pvdz iop(5/13=1,5/36=2,99/5=2) pseudo=read geom=check gue
 ss=(read,tcheck) scf=(maxcycle=1)
 ----------------------------------------------------------------------
 -----
 title
 -----
 Structure from the checkpoint file:  "BDE49_nonexpt_1961_mol1.chk"
 Charge =  0 Multiplicity = 1

                         Standard orientation:
 ---------------------------------------------------------------------
 Center     Atomic      Atomic             Coordinates (Angstroms)
 Number     Number       Type             X           Y           Z
 ---------------------------------------------------------------------
      1         14           0        1.849015    0.081708   -0.268332
      2          6           0        0.381288   -0.032888    0.912636
      3          5           0       -0.998792   -0.111676    0.166489
      4          1           0        1.940915   -1.126029   -1.121853
      5          1           0        3.118419    0.218815    0.487008
      6          8           0       -1.424884   -1.363769   -0.179124
      7          6           0       -1.849727    1.175471   -0.174904
      8          1           0        1.718083    1.264858   -1.155623
      9          1           0       -2.260415   -1.361095   -0.655850
     10          1           0       -1.227684    1.971851   -0.596679
     11          1           0       -2.275836    1.587423    0.748919
     12          1           0       -2.681682    0.997546   -0.865052
     13          1           0        0.439820    0.843809    1.567146
     14          1           0        0.545838   -0.928051    1.522782
 ---------------------------------------------------------------------

 SCF Done:  E(RHF) =  -469.634153644     A.U. after    2 cycles

 The electronic state is 1-A.
 Alpha  occ. eigenvalues --  -69.05818 -20.58118 -11.21001 -11.19869  -7.62872
 Alpha  occ. eigenvalues --   -6.81079  -3.91849  -3.91842  -3.91838  -1.32394
 Alpha  occ. eigenvalues --   -0.95967  -0.92392  -0.75863  -0.68121  -0.63468
 Alpha  occ. eigenvalues --   -0.59303  -0.57348  -0.54685  -0.53468  -0.52480
 Alpha  occ. eigenvalues --   -0.48137  -0.46381  -0.45298  -0.43002
 Alpha virt. eigenvalues --    0.02778   0.04241   0.04730   0.05177   0.06421
 Alpha virt. eigenvalues --    0.06558   0.07105   0.07731   0.07951   0.09122
 Alpha virt. eigenvalues --    0.09220   0.10131   0.10730   0.11167   0.11857

 Mulliken charges:
               1
     1  Si   0.134133
     2  C    0.298054
     3  B    0.946212
     4  H    0.040414
     5  H   -0.025503
     6  O   -0.526092
     7  C    0.463435
     8  H    0.003393
     9  H    0.197767
    10  H   -0.213885
    11  H   -0.130206
    12  H   -0.361803
    13  H   -0.400369
    14  H   -0.425551
 Sum of Mulliken charges =  -0.00000

 Dipole moment (field-independent basis, Debye):
    X=             -1.6269    Y=              0.8344    Z=              0.0233  Tot=              1.8285

 Test job not archived.
 1\1\GINC-SE393\SP\RHF\Aug-CC-pVDZ\C2H9B1O1Si1\OHZDE\08-Apr-2025\0\\#t
 hf aug-cc-pvdz iop(5/13=1,5/36=2,99/5=2) pseudo=read geom=check guess=
 (read,tcheck) scf=(maxcycle=1)\\title\\0,1\Si,0,1.849015,0.081708,-0.2
 68332\C,0,0.381288,-0.032888,0.912636\B,0,-0.998792,-0.111676,0.166489
 \H,0,1.940915,-1.126029,-1.121853\H,0,3.118419,0.218815,0.487008\O,0,-
 1.424884,-1.363769,-0.179124\C,0,-1.849727,1.175471,-0.174904\H,0,1.71
 8083,1.264858,-1.155623\H,0,-2.260415,-1.361095,-0.65585\H,0,-1.227684
 ,1.971851,-0.596679\H,0,-2.275836,1.587423,0.748919\H,0,-2.681682,0.99

 Normal termination of Gaussian 16 at Tue Apr  8 23:53:37 2025.
