 Gaussian 16, Revision C.01,

 ----------------------------------------------------------------------
 #t hf aug-cc-pvdz symm=none int=(grid=ultrafine) guess=(read,tcheck) s
 table=(opt,rrhf)
 ----------------------------------------------------------------------
 -----
 title
 -----
 Symbolic Z-matrix:
 Charge =  0 Multiplicity = 1

 SCF Done:  E(RHF) =  -721.637090875     A.U. after   15 cycles
 Normal termination of Gaussian 16 at Tue Apr  8 22:49:39 2025.
 Gaussian 16:  ES64L-G16RevC.01  3-Jul-2019

 ----------------------------------------------------------------------
 #t hf aug-cc-pvdz iop(5/13=1,5/36=2,99/5=2) pseudo=read geom=check gue
 ss=(read,tcheck) scf=(maxcycle=1)
 ----------------------------------------------------------------------
 -----
 title
 -----
 Structure from the checkpoint file:  "BDE49_expt_1738_mol1.chk"
 Charge =  0 Multiplicity = 1

                         Standard orientation:
 ---------------------------------------------------------------------
 Center     Atomic      Atomic             Coordinates (Angstroms)
 Number     Number       Type             X           Y           Z
 ---------------------------------------------------------------------
      1          6           0       -1.489424   -1.163237   -0.000006
      2          6           0       -2.187975    0.038951   -0.000001
      3          7           0       -1.555683    1.218241    0.000002
      4          7           0       -0.151237   -1.198760    0.000006
      5          6           0        0.457061   -0.032689    0.000022
      6          6           0       -0.227191    1.188508    0.000008
      7          1           0       -2.003565   -2.118823   -0.000001
      8          1           0       -3.272648    0.059424    0.000003
      9          1           0        0.306513    2.132217   -0.000003
     10         17           0        2.211959   -0.023434   -0.000012
 ---------------------------------------------------------------------

 SCF Done:  E(RHF) =  -721.730260676     A.U. after    2 cycles

 The electronic state is 1-A.
 Alpha  occ. eigenvalues -- -103.68058 -15.67740 -15.67649 -11.36755 -11.31629
 Alpha  occ. eigenvalues --  -11.31452 -11.30853 -10.71344  -8.37080  -8.36758
 Alpha  occ. eigenvalues --   -8.36751  -1.30932  -1.21871  -1.17443  -1.04780
 Alpha  occ. eigenvalues --   -0.91852  -0.88943  -0.74009  -0.73293  -0.68155
 Alpha  occ. eigenvalues --   -0.62213  -0.61060  -0.57233  -0.51316  -0.51009
 Alpha  occ. eigenvalues --   -0.48362  -0.44761  -0.42669  -0.36731
 Alpha virt. eigenvalues --    0.03059   0.04131   0.04905   0.05770   0.08162
 Alpha virt. eigenvalues --    0.08307   0.10133   0.10250   0.11016   0.11561
 Alpha virt. eigenvalues --    0.12183   0.13763   0.14712   0.14887   0.15192

 Mulliken charges:
               1
     1  C    0.790074
     2  C    0.434753
     3  N   -0.460174
     4  N   -0.619000
     5  C    0.278979
     6  C    0.532256
     7  H   -0.270411
     8  H   -0.272893
     9  H   -0.212619
    10  Cl  -0.200965
 Sum of Mulliken charges =  -0.00000

 Dipole moment (field-independent basis, Debye):
    X=             -1.8769    Y=             -0.0682    Z=              0.0000  Tot=              1.8781

 Test job not archived.
 1\1\GINC-SE095\SP\RHF\Aug-CC-pVDZ\C4H3Cl1N2\OHZDE\08-Apr-2025\0\\#t hf
  aug-cc-pvdz iop(5/13=1,5/36=2,99/5=2) pseudo=read geom=check guess=(r
 ead,tcheck) scf=(maxcycle=1)\\title\\0,1\C,0,1.489424,-1.163237,0.0000
 06\C,0,2.187975,0.038951,0.000001\N,0,1.555683,1.218241,-0.000002\N,0,
 0.151237,-1.19876,-0.000006\C,0,-0.457061,-0.032689,-0.000022\C,0,0.22
 7191,1.188508,-0.000008\H,0,2.003565,-2.118823,0.000001\H,0,3.272648,0
 .059424,-0.000003\H,0,-0.306513,2.132217,0.000003\Cl,0,-2.211959,-0.02
 3434,0.000012\\Version=ES64L-G16RevC.01\State=1-A\HF=-721.7302607\RMSD

 Normal termination of Gaussian 16 at Tue Apr  8 22:49:43 2025.
