 Gaussian 16, Revision C.01,

 ----------------------------------------------------------------------
 #t hf aug-cc-pvdz symm=none int=(grid=ultrafine) guess=(read,tcheck) s
 table=(opt,rrhf)
 ----------------------------------------------------------------------
 -----
 title
 -----
 Symbolic Z-matrix:
 Charge =  0 Multiplicity = 1

 SCF Done:  E(RHF) =  -769.526493810     A.U. after   11 cycles
 Normal termination of Gaussian 16 at Wed Apr  9 00:10:03 2025.
 Gaussian 16:  ES64L-G16RevC.01  3-Jul-2019

 ----------------------------------------------------------------------
 #t hf aug-cc-pvdz iop(5/13=1,5/36=2,99/5=2) pseudo=read geom=check gue
 ss=(read,tcheck) scf=(maxcycle=1)
 ----------------------------------------------------------------------
 -----
 title
 -----
 Structure from the checkpoint file:  "BDE49_nonexpt_2378_mol1.chk"
 Charge =  0 Multiplicity = 1

                         Standard orientation:
 ---------------------------------------------------------------------
 Center     Atomic      Atomic             Coordinates (Angstroms)
 Number     Number       Type             X           Y           Z
 ---------------------------------------------------------------------
      1         14           0       -1.180119   -0.972290    0.073148
      2         14           0        1.180119   -0.972290   -0.073148
      3          7           0        1.648528    0.683281    0.123592
      4          1           0        1.672109   -1.423181   -1.401449
      5          1           0        1.767258   -1.927082    0.915515
      6          7           0       -1.648528    0.683281   -0.123593
      7          1           0       -1.672109   -1.423180    1.401449
      8          1           0       -1.767258   -1.927083   -0.915514
      9          6           0        3.020824    1.171613    0.001180
     10          1           0        1.081147    1.237235    0.750956
     11          1           0        3.517081    0.659741   -0.827827
     12          1           0        3.628853    1.010949    0.902535
     13          1           0        3.029155    2.241754   -0.227515
     14          6           0       -3.020824    1.171613   -0.001180
     15          1           0       -1.081148    1.237234   -0.750959
     16          1           0       -3.517079    0.659742    0.827829
     17          1           0       -3.628854    1.010948   -0.902534
     18          1           0       -3.029155    2.241754    0.227515
 ---------------------------------------------------------------------

 SCF Done:  E(RHF) =  -769.641635242     A.U. after    2 cycles

 The electronic state is 1-A.
 Alpha  occ. eigenvalues --  -69.06424 -69.06424 -15.59836 -15.59835 -11.26323
 Alpha  occ. eigenvalues --  -11.26322  -6.81522  -6.81514  -3.92374  -3.92365
 Alpha  occ. eigenvalues --   -3.92304  -3.92253  -3.92235  -3.92216  -1.13351
 Alpha  occ. eigenvalues --   -1.12846  -0.90203  -0.89023  -0.72205  -0.68757
 Alpha  occ. eigenvalues --   -0.63630  -0.60895  -0.59155  -0.58448  -0.57113
 Alpha  occ. eigenvalues --   -0.55642  -0.50559  -0.49880  -0.48367  -0.46240
 Alpha  occ. eigenvalues --   -0.39251  -0.36786  -0.36037
 Alpha virt. eigenvalues --    0.03281   0.03824   0.04464   0.04784   0.06006
 Alpha virt. eigenvalues --    0.06040   0.06574   0.07234   0.08232   0.08759
 Alpha virt. eigenvalues --    0.08915   0.08979   0.09983   0.10234   0.11218

 Mulliken charges:
               1
     1  Si   0.320532
     2  Si   0.320531
     3  N   -0.587384
     4  H    0.081174
     5  H    0.031030
     6  N   -0.587384
     7  H    0.081174
     8  H    0.031030
     9  C    0.778929
    10  H   -0.078200
    11  H   -0.218110
    12  H   -0.123388
    13  H   -0.204582
    14  C    0.778929
    15  H   -0.078200
    16  H   -0.218109
    17  H   -0.123389
    18  H   -0.204582
 Sum of Mulliken charges =  -0.00000

 Dipole moment (field-independent basis, Debye):
    X=             -0.0000    Y=              1.7310    Z=             -0.0000  Tot=              1.7310

 Test job not archived.
 1\1\GINC-SE457\SP\RHF\Aug-CC-pVDZ\C2H12N2Si2\OHZDE\09-Apr-2025\0\\#t h
 f aug-cc-pvdz iop(5/13=1,5/36=2,99/5=2) pseudo=read geom=check guess=(
 read,tcheck) scf=(maxcycle=1)\\title\\0,1\Si,0,-1.180119,-0.97229,0.07
 3148\Si,0,1.180119,-0.97229,-0.073148\N,0,1.648528,0.683281,0.123592\H
 ,0,1.672109,-1.423181,-1.401449\H,0,1.767258,-1.927082,0.915515\N,0,-1
 .648528,0.683281,-0.123593\H,0,-1.672109,-1.42318,1.401449\H,0,-1.7672
 58,-1.927083,-0.915514\C,0,3.020824,1.171613,0.00118\H,0,1.081147,1.23
 7235,0.750956\H,0,3.517081,0.659741,-0.827827\H,0,3.628853,1.010949,0.

 Normal termination of Gaussian 16 at Wed Apr  9 00:10:22 2025.
