 Gaussian 16, Revision C.01,

 ----------------------------------------------------------------------
 #t hf aug-cc-pvdz symm=none int=(grid=ultrafine) guess=(read,tcheck) s
 table=(opt,rrhf)
 ----------------------------------------------------------------------
 -----
 title
 -----
 Symbolic Z-matrix:
 Charge =  0 Multiplicity = 1

 SCF Done:  E(RHF) =  -884.019139711     A.U. after   12 cycles
 Normal termination of Gaussian 16 at Wed Apr  9 00:13:36 2025.
 Gaussian 16:  ES64L-G16RevC.01  3-Jul-2019

 ----------------------------------------------------------------------
 #t hf aug-cc-pvdz iop(5/13=1,5/36=2,99/5=2) pseudo=read geom=check gue
 ss=(read,tcheck) scf=(maxcycle=1)
 ----------------------------------------------------------------------
 -----
 title
 -----
 Structure from the checkpoint file:  "BDE49_nonexpt_2467_mol1.chk"
 Charge =  0 Multiplicity = 1

                         Standard orientation:
 ---------------------------------------------------------------------
 Center     Atomic      Atomic             Coordinates (Angstroms)
 Number     Number       Type             X           Y           Z
 ---------------------------------------------------------------------
      1         16           0        3.018429   -1.101790   -0.204125
      2         14           0        2.149160    0.839115    0.241018
      3          1           0        2.226276   -1.795907    0.632511
      4          6           0        0.387094    1.047154   -0.383988
      5          6           0       -0.657441    0.111026    0.248771
      6          1           0        0.394170    0.923963   -1.473394
      7          1           0        0.111170    2.094298   -0.196407
      8          6           0       -2.083920    0.358213   -0.259672
      9          1           0       -0.642621    0.225124    1.340096
     10          1           0       -0.385135   -0.931758    0.046019
     11          6           0       -3.127348   -0.575710    0.363852
     12          1           0       -2.100819    0.244597   -1.351119
     13          1           0       -2.362834    1.400464   -0.057874
     14          6           0       -4.547964   -0.322431   -0.148833
     15          1           0       -3.107288   -0.462190    1.454572
     16          1           0       -2.846462   -1.616349    0.161421
     17          1           0       -4.871074    0.700124    0.069901
     18          1           0       -5.266903   -1.003595    0.314294
     19          1           0       -4.608176   -0.462857   -1.232540
     20          1           0        3.058970    1.786321   -0.441315
     21          1           0        2.195098    1.069283    1.704801
 ---------------------------------------------------------------------

 SCF Done:  E(RHF) =  -884.123719707     A.U. after    2 cycles

 The electronic state is 1-A.
 Alpha  occ. eigenvalues --  -93.52624 -69.08634 -11.24052 -11.23144 -11.23080
 Alpha  occ. eigenvalues --  -11.22873 -11.22516  -8.82530  -6.83676  -6.16686
 Alpha  occ. eigenvalues --   -6.16465  -6.16194  -3.94491  -3.94416  -3.94377
 Alpha  occ. eigenvalues --   -1.07671  -1.01530  -0.94807  -0.91922  -0.82893
 Alpha  occ. eigenvalues --   -0.79426  -0.67726  -0.65661  -0.60639  -0.59478
 Alpha  occ. eigenvalues --   -0.56922  -0.54954  -0.53669  -0.51863  -0.50207
 Alpha  occ. eigenvalues --   -0.48887  -0.47822  -0.46921  -0.46652  -0.44230
 Alpha  occ. eigenvalues --   -0.42536  -0.36659
 Alpha virt. eigenvalues --    0.03267   0.04003   0.04176   0.04554   0.05562
 Alpha virt. eigenvalues --    0.05946   0.06151   0.06556   0.07670   0.08059
 Alpha virt. eigenvalues --    0.08536   0.08782   0.09356   0.10705   0.10906

 Mulliken charges:
               1
     1  S   -0.495869
     2  Si   0.577921
     3  H    0.067521
     4  C    0.169015
     5  C    0.255009
     6  H   -0.191477
     7  H   -0.178839
     8  C    0.112469
     9  H   -0.213665
    10  H   -0.202308
    11  C    0.295257
    12  H   -0.162895
    13  H   -0.173386
    14  C    0.554468
    15  H   -0.142724
    16  H   -0.146307
    17  H   -0.085792
    18  H   -0.056963
    19  H   -0.083471
    20  H   -0.007391
    21  H    0.109428
 Sum of Mulliken charges =  -0.00000

 Dipole moment (field-independent basis, Debye):
    X=             -1.8681    Y=              0.6482    Z=              0.4405  Tot=              2.0259

 Test job not archived.
 1\1\GINC-SE074\SP\RHF\Aug-CC-pVDZ\C5H14S1Si1\OHZDE\09-Apr-2025\0\\#t h
 f aug-cc-pvdz iop(5/13=1,5/36=2,99/5=2) pseudo=read geom=check guess=(
 read,tcheck) scf=(maxcycle=1)\\title\\0,1\S,0,3.018429,-1.10179,-0.204
 125\Si,0,2.14916,0.839115,0.241018\H,0,2.226276,-1.795907,0.632511\C,0
 ,0.387094,1.047154,-0.383988\C,0,-0.657441,0.111026,0.248771\H,0,0.394
 17,0.923963,-1.473394\H,0,0.11117,2.094298,-0.196407\C,0,-2.08392,0.35
 8213,-0.259672\H,0,-0.642621,0.225124,1.340096\H,0,-0.385135,-0.931758
 ,0.046019\C,0,-3.127348,-0.57571,0.363852\H,0,-2.100819,0.244597,-1.35

 Normal termination of Gaussian 16 at Wed Apr  9 00:13:46 2025.
