 Gaussian 16, Revision C.01,

 ----------------------------------------------------------------------
 #t hf aug-cc-pvdz symm=none int=(grid=ultrafine) guess=(read,tcheck) s
 table=opt
 ----------------------------------------------------------------------
 -----
 title
 -----
 Symbolic Z-matrix:
 Charge =  0 Multiplicity = 2

 SCF Done:  E(UHF) =  -398.092149068     A.U. after   13 cycles
 Normal termination of Gaussian 16 at Tue Apr  8 22:44:25 2025.
 Gaussian 16:  ES64L-G16RevC.01  3-Jul-2019

 ----------------------------------------------------------------------
 #t hf aug-cc-pvdz iop(5/13=1,5/36=2,99/5=2) pseudo=read geom=check gue
 ss=(read,tcheck) scf=(maxcycle=1)
 ----------------------------------------------------------------------
 -----
 title
 -----
 Structure from the checkpoint file:  "BDE49_expt_1545_mol3.chk"
 Charge =  0 Multiplicity = 2

                         Standard orientation:
 ---------------------------------------------------------------------
 Center     Atomic      Atomic             Coordinates (Angstroms)
 Number     Number       Type             X           Y           Z
 ---------------------------------------------------------------------
      1         16           0        0.000000    0.000000    0.079293
      2          1           0        0.000000    0.000000   -1.268684
 ---------------------------------------------------------------------

 SCF Done:  E(UHF) =  -398.110316116     A.U. after    2 cycles

 Unable to determine electronic state:  an orbital has unidentified symmetry.
 Alpha  occ. eigenvalues --  -93.57338  -8.86996  -6.22335  -6.20648  -6.20178
 Alpha  occ. eigenvalues --   -0.97454  -0.54974  -0.46791  -0.40114
 Alpha virt. eigenvalues --    0.03784   0.10978   0.11306   0.12420   0.17983
 Alpha virt. eigenvalues --    0.18465   0.28759   0.30713   0.35052   0.35063
 Alpha virt. eigenvalues --    0.44269   0.51297   0.53145   0.55608   0.79625

  Beta  occ. eigenvalues --  -93.56440  -8.85996  -6.20133  -6.19628  -6.18363
  Beta  occ. eigenvalues --   -0.88168  -0.52905  -0.37691
  Beta virt. eigenvalues --   -0.00456   0.03947   0.11167   0.12594   0.14482
  Beta virt. eigenvalues --    0.18671   0.19742   0.30860   0.31939   0.39319
  Beta virt. eigenvalues --    0.39351   0.45259   0.53353   0.53761   0.56418

 Mulliken charges and spin densities:
               1          2
     1  S   -0.042349   1.093770
     2  H    0.042349  -0.093770
 Sum of Mulliken charges =  -0.00000   1.00000

 Dipole moment (field-independent basis, Debye):
    X=              0.0000    Y=             -0.0000    Z=             -0.8558  Tot=              0.8558
                          Isotropic Fermi Contact Couplings
        Atom                 a.u.       MegaHertz       Gauss      10(-4) cm-1
     1  S(33)              0.17937      61.60786      21.98322      20.55017
     2  H(1)              -0.01437     -64.25287     -22.92702     -21.43245
 --------------------------------------------------------
       Center         ----  Spin Dipole Couplings  ----
                      3XX-RR        3YY-RR        3ZZ-RR
 --------------------------------------------------------
     1   Atom        1.600718      0.745018     -2.345736
     2   Atom       -0.018412     -0.024035      0.042447

 Normal termination of Gaussian 16 at Tue Apr  8 22:44:26 2025.
