 Gaussian 16, Revision C.01,

 ----------------------------------------------------------------------
 #t hf aug-cc-pvdz symm=none int=(grid=ultrafine) guess=(read,tcheck) s
 table=(opt,rrhf)
 ----------------------------------------------------------------------
 -----
 title
 -----
 Symbolic Z-matrix:
 Charge =  0 Multiplicity = 1

 SCF Done:  E(RHF) =  -1658.79154249     A.U. after   15 cycles
 Normal termination of Gaussian 16 at Tue Apr  8 23:28:41 2025.
 Gaussian 16:  ES64L-G16RevC.01  3-Jul-2019

 ----------------------------------------------------------------------
 #t hf aug-cc-pvdz iop(5/13=1,5/36=2,99/5=2) pseudo=read geom=check gue
 ss=(read,tcheck) scf=(maxcycle=1)
 ----------------------------------------------------------------------
 -----
 title
 -----
 Structure from the checkpoint file:  "BDE49_nonexpt_1356_mol1.chk"
 Charge =  0 Multiplicity = 1

                         Standard orientation:
 ---------------------------------------------------------------------
 Center     Atomic      Atomic             Coordinates (Angstroms)
 Number     Number       Type             X           Y           Z
 ---------------------------------------------------------------------
      1          9           0       -0.000001   -1.333372   -1.709825
      2          9           0       -2.591349    1.438985    0.387405
      3          9           0        2.591351    1.438982    0.387405
      4         15           0       -0.000001   -2.081275   -0.217782
      5         15           0       -1.684983    0.607989   -0.652530
      6         15           0        1.684984    0.607986   -0.652530
      7          6           0        1.358237   -0.913905    0.464800
      8          6           0       -1.358238   -0.913903    0.464800
      9          6           0        0.000001    1.401086   -0.167436
     10          8           0        1.958581   -1.127449    1.473693
     11          8           0       -1.958585   -1.127448    1.473691
     12          8           0        0.000002    2.459706    0.388214
 ---------------------------------------------------------------------

 SCF Done:  E(RHF) =  -1659.07684856     A.U. after    2 cycles

 The electronic state is 1-A.
 Alpha  occ. eigenvalues --  -81.40035 -81.38797 -81.38796 -26.18597 -26.15735
 Alpha  occ. eigenvalues --  -26.15735 -20.64902 -20.64901 -20.63705 -11.41508
 Alpha  occ. eigenvalues --  -11.41504 -11.40692  -7.89579  -7.88274  -7.88265
 Alpha  occ. eigenvalues --   -5.03541  -5.03244  -5.03059  -5.02359  -5.02334
 Alpha  occ. eigenvalues --   -5.02022  -5.01978  -5.01777  -5.01764  -1.70499
 Alpha  occ. eigenvalues --   -1.68122  -1.68111  -1.43756  -1.43466  -1.42473
 Alpha  occ. eigenvalues --   -1.01008  -0.93520  -0.93391  -0.84597  -0.83687
 Alpha  occ. eigenvalues --   -0.83008  -0.79491  -0.79249  -0.78476  -0.78311
 Alpha  occ. eigenvalues --   -0.77277  -0.76251  -0.73607  -0.72612  -0.72191
 Alpha  occ. eigenvalues --   -0.68874  -0.67236  -0.67132  -0.63831  -0.60716
 Alpha  occ. eigenvalues --   -0.60285  -0.55253  -0.54204  -0.48091  -0.41181
 Alpha  occ. eigenvalues --   -0.39595  -0.39035
 Alpha virt. eigenvalues --   -0.00722   0.03202   0.03304   0.03605   0.04794
 Alpha virt. eigenvalues --    0.05326   0.05584   0.07742   0.08792   0.08939
 Alpha virt. eigenvalues --    0.09151   0.09449   0.09516   0.10815   0.12317

 Mulliken charges:
               1
     1  F   -0.642925
     2  F   -0.623303
     3  F   -0.623303
     4  P    1.102665
     5  P    1.151846
     6  P    1.151846
     7  C   -0.050950
     8  C   -0.050950
     9  C   -0.075779
    10  O   -0.447836
    11  O   -0.447836
    12  O   -0.443473
 Sum of Mulliken charges =  -0.00000

 Dipole moment (field-independent basis, Debye):
    X=             -0.0000    Y=             -3.3232    Z=             -4.6871  Tot=              5.7457

 Test job not archived.
 1\1\GINC-SE343\SP\RHF\Aug-CC-pVDZ\C3F3O3P3\OHZDE\08-Apr-2025\0\\#t hf
 aug-cc-pvdz iop(5/13=1,5/36=2,99/5=2) pseudo=read geom=check guess=(re
 ad,tcheck) scf=(maxcycle=1)\\title\\0,1\F,0,-0.000001,-1.333372,-1.709
 825\F,0,-2.591349,1.438985,0.387405\F,0,2.591351,1.438982,0.387405\P,0
 ,-0.000001,-2.081275,-0.217782\P,0,-1.684983,0.607989,-0.65253\P,0,1.6
 84984,0.607986,-0.65253\C,0,1.358237,-0.913905,0.4648\C,0,-1.358238,-0
 .913903,0.4648\C,0,0.000001,1.401086,-0.167436\O,0,1.958581,-1.127449,
 1.473693\O,0,-1.958585,-1.127448,1.473691\O,0,0.000002,2.459706,0.3882

 Normal termination of Gaussian 16 at Tue Apr  8 23:28:51 2025.
