 Gaussian 16, Revision C.01,

 ----------------------------------------------------------------------
 #t hf aug-cc-pvdz symm=none int=(grid=ultrafine) guess=(read,tcheck) s
 table=(opt,rrhf)
 ----------------------------------------------------------------------
 -----
 title
 -----
 Symbolic Z-matrix:
 Charge =  0 Multiplicity = 1

 SCF Done:  E(RHF) =  -810.368403760     A.U. after   12 cycles
 Normal termination of Gaussian 16 at Tue Apr  8 22:41:46 2025.
 Gaussian 16:  ES64L-G16RevC.01  3-Jul-2019

 ----------------------------------------------------------------------
 #t hf aug-cc-pvdz iop(5/13=1,5/36=2,99/5=2) pseudo=read geom=check gue
 ss=(read,tcheck) scf=(maxcycle=1)
 ----------------------------------------------------------------------
 -----
 title
 -----
 Structure from the checkpoint file:  "BDE49_expt_144_mol1.chk"
 Charge =  0 Multiplicity = 1

                         Standard orientation:
 ---------------------------------------------------------------------
 Center     Atomic      Atomic             Coordinates (Angstroms)
 Number     Number       Type             X           Y           Z
 ---------------------------------------------------------------------
      1          6           0        1.295926   -0.140716   -0.028461
      2          6           0       -0.000000    0.527379   -0.509885
      3          9           0        1.371356   -1.400915   -0.487105
      4          9           0        1.390213   -0.165844    1.305034
      5          9           0        2.346348    0.543133   -0.509077
      6          6           0       -1.295926   -0.140716   -0.028461
      7          1           0       -0.000000    0.517618   -1.602227
      8          9           0       -0.000000    1.825775   -0.061809
      9          9           0       -1.371353   -1.400917   -0.487100
     10          9           0       -2.346348    0.543130   -0.509082
     11          9           0       -1.390216   -0.165839    1.305034
 ---------------------------------------------------------------------

 SCF Done:  E(RHF) =  -810.658358441     A.U. after    2 cycles

 The electronic state is 1-A.
 Alpha  occ. eigenvalues --  -26.19731 -26.19730 -26.19443 -26.19443 -26.19383
 Alpha  occ. eigenvalues --  -26.19383 -26.17728 -11.56524 -11.56516 -11.41675
 Alpha  occ. eigenvalues --   -1.79553  -1.79070  -1.72526  -1.72139  -1.72103
 Alpha  occ. eigenvalues --   -1.71959  -1.71113  -1.15700  -1.06458  -1.00142
 Alpha  occ. eigenvalues --   -0.92278  -0.92188  -0.91844  -0.90821  -0.89450
 Alpha  occ. eigenvalues --   -0.86748  -0.82637  -0.80382  -0.80093  -0.79252
 Alpha  occ. eigenvalues --   -0.79122  -0.77807  -0.76240  -0.75985  -0.75276
 Alpha  occ. eigenvalues --   -0.74887  -0.74704  -0.74420  -0.74209  -0.62210
 Alpha  occ. eigenvalues --   -0.61561
 Alpha virt. eigenvalues --    0.03550   0.07237   0.07509   0.08240   0.10691
 Alpha virt. eigenvalues --    0.10730   0.11203   0.11455   0.12713   0.14805
 Alpha virt. eigenvalues --    0.15388   0.18329   0.19836   0.20801   0.23262

 Mulliken charges:
               1
     1  C    0.926397
     2  C    0.338472
     3  F   -0.305658
     4  F   -0.285477
     5  F   -0.286569
     6  C    0.926398
     7  H   -0.021977
     8  F   -0.413882
     9  F   -0.305658
    10  F   -0.286569
    11  F   -0.285477
 Sum of Mulliken charges =  -0.00000

 Dipole moment (field-independent basis, Debye):
    X=              0.0000    Y=             -0.0566    Z=             -1.8728  Tot=              1.8737

 Test job not archived.
 1\1\GINC-SE339\SP\RHF\Aug-CC-pVDZ\C3H1F7\OHZDE\08-Apr-2025\0\\#t hf au
 g-cc-pvdz iop(5/13=1,5/36=2,99/5=2) pseudo=read geom=check guess=(read
 ,tcheck) scf=(maxcycle=1)\\title\\0,1\C,0,1.295926,-0.140716,-0.028461
 \C,0,0.,0.527379,-0.509885\F,0,1.371356,-1.400915,-0.487105\F,0,1.3902
 13,-0.165844,1.305034\F,0,2.346348,0.543133,-0.509077\C,0,-1.295926,-0
 .140716,-0.028461\H,0,0.,0.517618,-1.602227\F,0,0.,1.825775,-0.061809\
 F,0,-1.371353,-1.400917,-0.4871\F,0,-2.346348,0.54313,-0.509082\F,0,-1
 .390216,-0.165839,1.305034\\Version=ES64L-G16RevC.01\State=1-A\HF=-810

 Normal termination of Gaussian 16 at Tue Apr  8 22:41:52 2025.
