 Gaussian 16, Revision C.01,

 ----------------------------------------------------------------------
 #t hf aug-cc-pvdz symm=none int=(grid=ultrafine) guess=(read,tcheck) s
 table=(opt,rrhf)
 ----------------------------------------------------------------------
 -----
 title
 -----
 Symbolic Z-matrix:
 Charge =  0 Multiplicity = 1

 SCF Done:  E(RHF) =  -589.497309456     A.U. after   13 cycles
 Normal termination of Gaussian 16 at Tue Apr  8 23:02:43 2025.
 Gaussian 16:  ES64L-G16RevC.01  3-Jul-2019

 ----------------------------------------------------------------------
 #t hf aug-cc-pvdz iop(5/13=1,5/36=2,99/5=2) pseudo=read geom=check gue
 ss=(read,tcheck) scf=(maxcycle=1)
 ----------------------------------------------------------------------
 -----
 title
 -----
 Structure from the checkpoint file:  "BDE49_expt_384_mol1.chk"
 Charge =  0 Multiplicity = 1

                         Standard orientation:
 ---------------------------------------------------------------------
 Center     Atomic      Atomic             Coordinates (Angstroms)
 Number     Number       Type             X           Y           Z
 ---------------------------------------------------------------------
      1          8           0        1.218675   -0.718831   -0.308614
      2          6           0        1.297701    0.590639    0.238123
      3          6           0        0.001843    1.318050   -0.133930
      4          1           0        2.180640    1.063466   -0.193811
      5          1           0        1.408835    0.546154    1.330434
      6         16           0       -1.302039    0.029570    0.016846
      7          1           0        0.032558    1.686480   -1.159374
      8          1           0       -0.213460    2.141111    0.547679
      9          6           0        0.008624   -1.303804    0.089626
     10          1           0        0.058067   -1.682505    1.116515
     11          1           0       -0.232421   -2.106485   -0.604973
 ---------------------------------------------------------------------

 SCF Done:  E(RHF) =  -589.577597436     A.U. after    2 cycles

 The electronic state is 1-A.
 Alpha  occ. eigenvalues --  -93.52673 -20.59283 -11.32409 -11.30601 -11.27481
 Alpha  occ. eigenvalues --   -8.82454  -6.16554  -6.16417  -6.16029  -1.36388
 Alpha  occ. eigenvalues --   -1.05062  -1.00313  -0.83876  -0.81465  -0.70070
 Alpha  occ. eigenvalues --   -0.67906  -0.65204  -0.58937  -0.55891  -0.52909
 Alpha  occ. eigenvalues --   -0.48555  -0.46209  -0.43266  -0.34166
 Alpha virt. eigenvalues --    0.03545   0.04639   0.04972   0.05473   0.06658
 Alpha virt. eigenvalues --    0.07271   0.08596   0.10456   0.11937   0.12646
 Alpha virt. eigenvalues --    0.13799   0.15225   0.15655   0.16204   0.16537

 Mulliken charges:
               1
     1  O   -0.636527
     2  C    0.795999
     3  C   -0.231748
     4  H   -0.200417
     5  H   -0.097478
     6  S    0.406379
     7  H   -0.086011
     8  H   -0.017060
     9  C    0.385984
    10  H   -0.090905
    11  H   -0.228215
 Sum of Mulliken charges =  -0.00000

 Dipole moment (field-independent basis, Debye):
    X=              0.9274    Y=              0.9396    Z=              0.8211  Tot=              1.5548

 Test job not archived.
 1\1\GINC-SE362\SP\RHF\Aug-CC-pVDZ\C3H6O1S1\OHZDE\08-Apr-2025\0\\#t hf
 aug-cc-pvdz iop(5/13=1,5/36=2,99/5=2) pseudo=read geom=check guess=(re
 ad,tcheck) scf=(maxcycle=1)\\title\\0,1\O,0,1.218674,-0.718832,-0.3086
 14\C,0,1.297701,0.590638,0.238123\C,0,0.001844,1.31805,-0.13393\H,0,2.
 180641,1.063464,-0.193811\H,0,1.408835,0.546153,1.330434\S,0,-1.302039
 ,0.029571,0.016846\H,0,0.03256,1.68648,-1.159374\H,0,-0.213458,2.14111
 1,0.547679\C,0,0.008623,-1.303804,0.089626\H,0,0.058065,-1.682505,1.11
 6515\H,0,-0.232423,-2.106485,-0.604973\\Version=ES64L-G16RevC.01\State

 Normal termination of Gaussian 16 at Tue Apr  8 23:02:46 2025.
