 Gaussian 16, Revision C.01,

 ----------------------------------------------------------------------
 #t hf aug-cc-pvdz symm=none int=(grid=ultrafine) guess=(read,tcheck) s
 table=(opt,rrhf)
 ----------------------------------------------------------------------
 -----
 title
 -----
 Symbolic Z-matrix:
 Charge =  0 Multiplicity = 1

 SCF Done:  E(RHF) =  -1013.76294951     A.U. after   14 cycles
 Normal termination of Gaussian 16 at Wed Apr  9 00:16:01 2025.
 Gaussian 16:  ES64L-G16RevC.01  3-Jul-2019

 ----------------------------------------------------------------------
 #t hf aug-cc-pvdz iop(5/13=1,5/36=2,99/5=2) pseudo=read geom=check gue
 ss=(read,tcheck) scf=(maxcycle=1)
 ----------------------------------------------------------------------
 -----
 title
 -----
 Structure from the checkpoint file:  "BDE49_nonexpt_2545_mol1.chk"
 Charge =  0 Multiplicity = 1

                         Standard orientation:
 ---------------------------------------------------------------------
 Center     Atomic      Atomic             Coordinates (Angstroms)
 Number     Number       Type             X           Y           Z
 ---------------------------------------------------------------------
      1         17           0        1.860863   -0.535431   -0.615537
      2         16           0        0.668289   -0.142459    1.050903
      3          6           0       -0.763862    0.743870    0.307271
      4          6           0       -1.599575   -0.114795   -0.652671
      5          6           0       -0.365385    2.092975   -0.291345
      6          1           0        0.265159    1.955169   -1.172673
      7          1           0        0.184086    2.700216    0.429486
      8          1           0       -1.259591    2.642872   -0.600516
      9          1           0       -1.339415    0.911941    1.230738
     10          6           0       -2.215860   -1.371154   -0.036483
     11          1           0       -0.978157   -0.382851   -1.513228
     12          1           0       -2.396956    0.529066   -1.042810
     13          1           0       -1.446702   -2.057875    0.321972
     14          1           0       -2.823935   -1.900949   -0.773832
     15          1           0       -2.863686   -1.121284    0.809910
 ---------------------------------------------------------------------

 SCF Done:  E(RHF) =  -1013.85202651     A.U. after    2 cycles

 The electronic state is 1-A.
 Alpha  occ. eigenvalues -- -103.67003 -93.58549 -11.29412 -11.24621 -11.24109
 Alpha  occ. eigenvalues --  -11.23022 -10.70147  -8.87882  -8.35876  -8.35552
 Alpha  occ. eigenvalues --   -8.35520  -6.21990  -6.21693  -6.21341  -1.16114
 Alpha  occ. eigenvalues --   -1.09218  -0.99987  -0.92310  -0.86630  -0.77539
 Alpha  occ. eigenvalues --   -0.64783  -0.61511  -0.60703  -0.58498  -0.54916
 Alpha  occ. eigenvalues --   -0.52082  -0.51987  -0.50490  -0.49324  -0.48886
 Alpha  occ. eigenvalues --   -0.48437  -0.42985  -0.35880
 Alpha virt. eigenvalues --    0.03285   0.04187   0.04428   0.05591   0.06011
 Alpha virt. eigenvalues --    0.06708   0.07079   0.07226   0.07991   0.09455
 Alpha virt. eigenvalues --    0.10253   0.12036   0.13085   0.14008   0.14666

 Mulliken charges:
               1
     1  Cl  -0.375695
     2  S    0.332632
     3  C   -0.477776
     4  C    0.290222
     5  C    0.543364
     6  H   -0.040009
     7  H   -0.065888
     8  H   -0.051864
     9  H   -0.099911
    10  C    0.352974
    11  H   -0.141377
    12  H   -0.085277
    13  H   -0.060323
    14  H   -0.052388
    15  H   -0.068685
 Sum of Mulliken charges =  -0.00000

 Dipole moment (field-independent basis, Debye):
    X=             -2.5262    Y=              1.2179    Z=              0.0889  Tot=              2.8058

 Test job not archived.
 1\1\GINC-SE345\SP\RHF\Aug-CC-pVDZ\C4H9Cl1S1\OHZDE\09-Apr-2025\0\\#t hf
  aug-cc-pvdz iop(5/13=1,5/36=2,99/5=2) pseudo=read geom=check guess=(r
 ead,tcheck) scf=(maxcycle=1)\\title\\0,1\Cl,0,1.860863,-0.535431,-0.61
 5537\S,0,0.668289,-0.142459,1.050903\C,0,-0.763862,0.74387,0.307271\C,
 0,-1.599575,-0.114795,-0.652671\C,0,-0.365385,2.092975,-0.291345\H,0,0
 .265159,1.955169,-1.172673\H,0,0.184086,2.700216,0.429486\H,0,-1.25959
 1,2.642872,-0.600516\H,0,-1.339415,0.911941,1.230738\C,0,-2.21586,-1.3
 71154,-0.036483\H,0,-0.978157,-0.382851,-1.513228\H,0,-2.396956,0.5290

 Normal termination of Gaussian 16 at Wed Apr  9 00:16:06 2025.
