 Gaussian 16, Revision C.01,

 ----------------------------------------------------------------------
 #t hf aug-cc-pvdz symm=none int=(grid=ultrafine) guess=(read,tcheck) s
 table=(opt,rrhf)
 ----------------------------------------------------------------------
 -----
 title
 -----
 Symbolic Z-matrix:
 Charge =  0 Multiplicity = 1

 SCF Done:  E(RHF) =  -1053.23747508     A.U. after   13 cycles
 Normal termination of Gaussian 16 at Wed Apr  9 00:08:29 2025.
 Gaussian 16:  ES64L-G16RevC.01  3-Jul-2019

 ----------------------------------------------------------------------
 #t hf aug-cc-pvdz iop(5/13=1,5/36=2,99/5=2) pseudo=read geom=check gue
 ss=(read,tcheck) scf=(maxcycle=1)
 ----------------------------------------------------------------------
 -----
 title
 -----
 Structure from the checkpoint file:  "BDE49_nonexpt_233_mol1.chk"
 Charge =  0 Multiplicity = 1

                         Standard orientation:
 ---------------------------------------------------------------------
 Center     Atomic      Atomic             Coordinates (Angstroms)
 Number     Number       Type             X           Y           Z
 ---------------------------------------------------------------------
      1         17           0        0.874498   -1.543703   -0.018843
      2          5           0        0.018900   -0.000016    0.029063
      3         17           0        0.873479    1.544220   -0.018813
      4          7           0       -1.354355   -0.000463    0.275289
      5          7           0       -2.449379   -0.000544   -0.270983
      6          1           0       -3.183973   -0.001668    0.464693
 ---------------------------------------------------------------------

 SCF Done:  E(RHF) =  -1053.31172482     A.U. after    2 cycles

 The electronic state is 1-A.
 Alpha  occ. eigenvalues -- -103.67715-103.67714 -15.74356 -15.71766 -10.71189
 Alpha  occ. eigenvalues --  -10.71153  -8.36876  -8.36867  -8.36631  -8.36629
 Alpha  occ. eigenvalues --   -8.36611  -8.36610  -7.75842  -1.34882  -1.18798
 Alpha  occ. eigenvalues --   -1.15353  -0.98058  -0.76633  -0.66774  -0.64492
 Alpha  occ. eigenvalues --   -0.62292  -0.53306  -0.52990  -0.50549  -0.48929
 Alpha  occ. eigenvalues --   -0.47611  -0.39190
 Alpha virt. eigenvalues --    0.03423   0.05232   0.05368   0.05444   0.06672
 Alpha virt. eigenvalues --    0.07740   0.10547   0.12514   0.13518   0.13800
 Alpha virt. eigenvalues --    0.15289   0.17686   0.18680   0.18815   0.19588

 Mulliken charges:
               1
     1  Cl  -0.287087
     2  B    0.499327
     3  Cl  -0.287095
     4  N   -0.051961
     5  N    0.002788
     6  H    0.124028
 Sum of Mulliken charges =  -0.00000

 Dipole moment (field-independent basis, Debye):
    X=             -1.9027    Y=             -0.0017    Z=              0.8242  Tot=              2.0735

 Test job not archived.
 1\1\GINC-SE453\SP\RHF\Aug-CC-pVDZ\B1Cl2H1N2\OHZDE\09-Apr-2025\0\\#t hf
  aug-cc-pvdz iop(5/13=1,5/36=2,99/5=2) pseudo=read geom=check guess=(r
 ead,tcheck) scf=(maxcycle=1)\\title\\0,1\Cl,0,0.874495,-1.543704,-0.01
 8843\B,0,0.0189,-0.000016,0.029063\Cl,0,0.873482,1.544219,-0.018813\N,
 0,-1.354355,-0.000461,0.275289\N,0,-2.449379,-0.00054,-0.270983\H,0,-3
 .183973,-0.001662,0.464693\\Version=ES64L-G16RevC.01\State=1-A\HF=-105
 3.3117248\RMSD=2.629e-03\Dipole=-0.7485623,-0.0006557,0.3242779\Quadru
 pole=2.8481977,-1.683886,-1.1643117,0.0040828,-2.4496915,-0.0003291\PG

 Normal termination of Gaussian 16 at Wed Apr  9 00:08:31 2025.
