 Gaussian 16, Revision C.01,

 ----------------------------------------------------------------------
 #t hf aug-cc-pvdz symm=none int=(grid=ultrafine) guess=(read,tcheck) s
 table=(opt,rrhf)
 ----------------------------------------------------------------------
 -----
 title
 -----
 Symbolic Z-matrix:
 Charge =  0 Multiplicity = 1

 SCF Done:  E(RHF) =  -1309.69150239     A.U. after   12 cycles
 Normal termination of Gaussian 16 at Tue Apr  8 23:02:53 2025.
 Gaussian 16:  ES64L-G16RevC.01  3-Jul-2019

 ----------------------------------------------------------------------
 #t hf aug-cc-pvdz iop(5/13=1,5/36=2,99/5=2) pseudo=read geom=check gue
 ss=(read,tcheck) scf=(maxcycle=1)
 ----------------------------------------------------------------------
 -----
 title
 -----
 Structure from the checkpoint file:  "BDE49_expt_381_mol1.chk"
 Charge =  0 Multiplicity = 1

                         Standard orientation:
 ---------------------------------------------------------------------
 Center     Atomic      Atomic             Coordinates (Angstroms)
 Number     Number       Type             X           Y           Z
 ---------------------------------------------------------------------
      1          6           0       -0.969329    1.274633    0.402687
      2         16           0        0.692096    1.650840   -0.251677
      3          6           0        1.588463    0.202282    0.402728
      4         16           0        1.083720   -1.424794   -0.251390
      5          1           0        1.533035    0.195306    1.493684
      6          1           0        2.630572    0.334954    0.113393
      7         16           0       -1.775820   -0.226053   -0.251253
      8          1           0       -1.605239    2.110795    0.113279
      9          1           0       -0.935456    1.230336    1.493650
     10          6           0       -0.619125   -1.476897    0.402658
     11          1           0       -0.597658   -1.425724    1.493635
     12          1           0       -1.025243   -2.445656    0.113030
 ---------------------------------------------------------------------

 SCF Done:  E(RHF) =  -1309.78804698     A.U. after    2 cycles

 The electronic state is 1-A.
 Alpha  occ. eigenvalues --  -93.54565 -93.54565 -93.54560 -11.31033 -11.31033
 Alpha  occ. eigenvalues --  -11.31008  -8.84296  -8.84296  -8.84274  -6.18415
 Alpha  occ. eigenvalues --   -6.18407  -6.18407  -6.18236  -6.18236  -6.18170
 Alpha  occ. eigenvalues --   -6.17865  -6.17865  -6.17839  -1.11431  -1.02720
 Alpha  occ. eigenvalues --   -1.02720  -0.85902  -0.85902  -0.76628  -0.66124
 Alpha  occ. eigenvalues --   -0.62036  -0.62036  -0.55237  -0.54020  -0.53081
 Alpha  occ. eigenvalues --   -0.53081  -0.44345  -0.44343  -0.36406  -0.34176
 Alpha  occ. eigenvalues --   -0.34175
 Alpha virt. eigenvalues --    0.03516   0.04499   0.04499   0.05027   0.07105
 Alpha virt. eigenvalues --    0.07106   0.08270   0.08270   0.10079   0.12166
 Alpha virt. eigenvalues --    0.12166   0.13850   0.14048   0.15216   0.15216

 Mulliken charges:
               1
     1  C   -0.370773
     2  S    0.460903
     3  C   -0.370719
     4  S    0.460894
     5  H   -0.021805
     6  H   -0.068342
     7  S    0.460877
     8  H   -0.068335
     9  H   -0.021770
    10  C   -0.370921
    11  H   -0.021767
    12  H   -0.068242
 Sum of Mulliken charges =  -0.00000

 Dipole moment (field-independent basis, Debye):
    X=              0.0002    Y=              0.0002    Z=              2.2956  Tot=              2.2956

 Test job not archived.
 1\1\GINC-SE253\SP\RHF\Aug-CC-pVDZ\C3H6S3\OHZDE\08-Apr-2025\0\\#t hf au
 g-cc-pvdz iop(5/13=1,5/36=2,99/5=2) pseudo=read geom=check guess=(read
 ,tcheck) scf=(maxcycle=1)\\title\\0,1\C,0,0.96622,-1.276991,0.402687\S
 ,0,-0.696117,-1.649149,-0.251677\C,0,-1.588951,-0.19841,0.402728\S,0,-
 1.080245,1.427431,-0.25139\H,0,-1.533506,-0.19157,1.493684\H,0,-2.6313
 8,-0.328542,0.113393\S,0,1.776366,0.221725,-0.251253\H,0,1.60009,-2.11
 4701,0.113279\H,0,0.932455,-1.232612,1.49365\C,0,0.622722,1.475384,0.4
 02658\H,0,0.601131,1.424263,1.493635\H,0,1.0312,2.44315,0.11303\\Versi

 Normal termination of Gaussian 16 at Tue Apr  8 23:02:58 2025.
