 Gaussian 16, Revision C.01,

 ----------------------------------------------------------------------
 #t hf aug-cc-pvdz symm=none int=(grid=ultrafine) guess=(read,tcheck) s
 table=(opt,rrhf)
 ----------------------------------------------------------------------
 -----
 title
 -----
 Symbolic Z-matrix:
 Charge =  0 Multiplicity = 1

 SCF Done:  E(RHF) =  -215.950427054     A.U. after   12 cycles
 Normal termination of Gaussian 16 at Tue Apr  8 22:43:27 2025.
 Gaussian 16:  ES64L-G16RevC.01  3-Jul-2019

 ----------------------------------------------------------------------
 #t hf aug-cc-pvdz iop(5/13=1,5/36=2,99/5=2) pseudo=read geom=check gue
 ss=(read,tcheck) scf=(maxcycle=1)
 ----------------------------------------------------------------------
 -----
 title
 -----
 Structure from the checkpoint file:  "BDE49_expt_1520_mol1.chk"
 Charge =  0 Multiplicity = 1

                         Standard orientation:
 ---------------------------------------------------------------------
 Center     Atomic      Atomic             Coordinates (Angstroms)
 Number     Number       Type             X           Y           Z
 ---------------------------------------------------------------------
      1          6           0       -0.960472   -0.031842    0.000000
      2          6           0        0.000000    0.878743    0.000000
      3          9           0       -0.697935   -1.361651    0.000000
      4          1           0       -2.024208    0.170010    0.000000
      5          6           0        1.470313    0.588047    0.000000
      6          1           0       -0.324465    1.914417    0.000000
      7          1           0        1.660170   -0.485348    0.000000
      8          1           0        1.955436    1.023046    0.879951
      9          1           0        1.955436    1.023046   -0.879951
 ---------------------------------------------------------------------

 SCF Done:  E(RHF) =  -216.025551379     A.U. after    2 cycles

 The electronic state is 1-A'.
 Alpha  occ. eigenvalues --  -26.12583 -11.32748 -11.25121 -11.24012  -1.66280
 Alpha  occ. eigenvalues --   -1.07549  -0.95169  -0.83081  -0.77096  -0.73892
 Alpha  occ. eigenvalues --   -0.68137  -0.62194  -0.57569  -0.54395  -0.52847
 Alpha  occ. eigenvalues --   -0.37462
 Alpha virt. eigenvalues --    0.03413   0.04524   0.05389   0.05854   0.07253
 Alpha virt. eigenvalues --    0.10833   0.11373   0.12280   0.13542   0.14220
 Alpha virt. eigenvalues --    0.15984   0.16368   0.16506   0.16862   0.18539

 Mulliken charges:
               1
     1  C    0.644269
     2  C    0.100640
     3  F   -0.336300
     4  H   -0.236749
     5  C    0.237811
     6  H   -0.342961
     7  H   -0.111503
     8  H    0.022396
     9  H    0.022396
 Sum of Mulliken charges =  -0.00000

 Dipole moment (field-independent basis, Debye):
    X=              0.0947    Y=              1.9525    Z=             -0.0000  Tot=              1.9548

 Test job not archived.
 1\1\GINC-SE334\SP\RHF\Aug-CC-pVDZ\C3H5F1\OHZDE\08-Apr-2025\0\\#t hf au
 g-cc-pvdz iop(5/13=1,5/36=2,99/5=2) pseudo=read geom=check guess=(read
 ,tcheck) scf=(maxcycle=1)\\title\\0,1\C,0,-0.960472,-0.031842,0.\C,0,0
 .,0.878743,0.\F,0,-0.697935,-1.361651,0.\H,0,-2.024208,0.17001,0.\C,0,
 1.470313,0.588047,0.\H,0,-0.324465,1.914417,0.\H,0,1.66017,-0.485348,0
 .\H,0,1.955436,1.023046,0.879951\H,0,1.955436,1.023046,-0.879951\\Vers
 ion=ES64L-G16RevC.01\State=1-A'\HF=-216.0255514\RMSD=7.519e-03\Dipole=
 0.0372417,0.7681858,0.\Quadrupole=2.0561028,-0.9711874,-1.0849155,-0.6

 Normal termination of Gaussian 16 at Tue Apr  8 22:43:29 2025.
