 Gaussian 16, Revision C.01,

 ----------------------------------------------------------------------
 #t hf aug-cc-pvdz symm=none int=(grid=ultrafine) guess=(read,tcheck) s
 table=(opt,rrhf)
 ----------------------------------------------------------------------
 -----
 title
 -----
 Symbolic Z-matrix:
 Charge =  0 Multiplicity = 1

 SCF Done:  E(RHF) =  -620.901137755     A.U. after   15 cycles
 Normal termination of Gaussian 16 at Tue Apr  8 23:46:46 2025.
 Gaussian 16:  ES64L-G16RevC.01  3-Jul-2019

 ----------------------------------------------------------------------
 #t hf aug-cc-pvdz iop(5/13=1,5/36=2,99/5=2) pseudo=read geom=check gue
 ss=(read,tcheck) scf=(maxcycle=1)
 ----------------------------------------------------------------------
 -----
 title
 -----
 Structure from the checkpoint file:  "BDE49_nonexpt_158_mol1.chk"
 Charge =  0 Multiplicity = 1

                         Standard orientation:
 ---------------------------------------------------------------------
 Center     Atomic      Atomic             Coordinates (Angstroms)
 Number     Number       Type             X           Y           Z
 ---------------------------------------------------------------------
      1          5           0        0.673427   -1.813402   -0.483262
      2          5           0       -0.675886   -1.812627    0.487211
      3          6           0       -1.951511   -0.940847    0.355929
      4          6           0       -2.045254    0.076168   -0.613025
      5          6           0       -3.053086   -1.141258    1.213391
      6          6           0       -4.193059   -0.353805    1.093522
      7          6           0       -4.262652    0.645162    0.127623
      8          6           0       -3.185035    0.878795   -0.742492
      9          1           0       -3.003592   -1.917061    1.968479
     10          1           0       -5.038708   -0.511305    1.754439
     11          6           0        1.948128   -0.938520   -0.356997
     12          6           0        2.042163    0.082794    0.607472
     13          6           0        3.050794   -1.144444   -1.211515
     14          6           0        4.191867   -0.358134   -1.093759
     15          6           0        4.260909    0.646247   -0.133489
     16          6           0        3.183522    0.883096    0.735845
     17          1           0        3.001951   -1.924823   -1.961877
     18          1           0        5.038851   -0.521263   -1.751567
     19          7           0       -3.277875    1.842017   -1.748588
     20          7           0        3.229738    1.930918    1.658529
     21          1           0       -1.207466    0.249748   -1.282680
     22          1           0        1.201423    0.264062    1.271524
     23          1           0       -5.159441    1.251225    0.038604
     24          1           0        5.153670    1.259570   -0.054048
     25          1           0       -3.919559    2.599188   -1.564764
     26          1           0       -2.394279    2.174327   -2.106196
     27          1           0        4.156068    2.203711    1.953120
     28          1           0        2.600309    1.836061    2.442232
     29          1           0       -0.687589   -2.625101    1.377586
     30          1           0        0.686891   -2.630259   -1.369205
 ---------------------------------------------------------------------

 SCF Done:  E(RHF) =  -621.079485732     A.U. after    2 cycles

 The electronic state is 1-A.
 Alpha  occ. eigenvalues --  -15.63278 -15.63117 -11.28969 -11.28864 -11.24618
 Alpha  occ. eigenvalues --  -11.24515 -11.24484 -11.24387 -11.24119 -11.24010
 Alpha  occ. eigenvalues --  -11.23621 -11.23539 -11.22311 -11.22224  -7.58026
 Alpha  occ. eigenvalues --   -7.57941  -1.19855  -1.19725  -1.11381  -1.11209
 Alpha  occ. eigenvalues --   -1.00844  -1.00513  -0.98143  -0.98034  -0.83882
 Alpha  occ. eigenvalues --   -0.83566  -0.81879  -0.81358  -0.72993  -0.70893
 Alpha  occ. eigenvalues --   -0.69014  -0.68911  -0.67063  -0.65883  -0.64867
 Alpha  occ. eigenvalues --   -0.61494  -0.60625  -0.59528  -0.59309  -0.58919
 Alpha  occ. eigenvalues --   -0.54762  -0.53611  -0.53590  -0.52655  -0.50462
 Alpha  occ. eigenvalues --   -0.49914  -0.46475  -0.46275  -0.44836  -0.44647
 Alpha  occ. eigenvalues --   -0.40515  -0.34528  -0.34291  -0.29787  -0.29627
 Alpha virt. eigenvalues --    0.02812   0.03308   0.03722   0.03943   0.04389
 Alpha virt. eigenvalues --    0.05124   0.05345   0.05506   0.05982   0.06177
 Alpha virt. eigenvalues --    0.06960   0.07014   0.07606   0.07871   0.08829

 Mulliken charges:
               1
     1  B   -0.702337
     2  B   -0.666886
     3  C   -0.337233
     4  C    1.553868
     5  C    0.545481
     6  C    0.242209
     7  C    1.360290
     8  C   -0.121142
     9  H   -0.708310
    10  H   -0.452068
    11  C   -0.288964
    12  C    1.529943
    13  C    0.558252
    14  C    0.223762
    15  C    1.364032
    16  C   -0.132070
    17  H   -0.706403
    18  H   -0.451286
    19  N   -0.292784
    20  N   -0.298596
    21  H   -0.753810
    22  H   -0.768654
    23  H   -0.574308
    24  H   -0.576796
    25  H   -0.051454
    26  H   -0.041026
    27  H   -0.048958
    28  H   -0.039613
    29  H    0.312074
    30  H    0.322788
 Sum of Mulliken charges =   0.00000

 Dipole moment (field-independent basis, Debye):
    X=              0.7644    Y=              2.8209    Z=              1.2457  Tot=              3.1770

 Test job not archived.
 1\1\GINC-SE054\SP\RHF\Aug-CC-pVDZ\C12H14B2N2\OHZDE\08-Apr-2025\0\\#t h
 f aug-cc-pvdz iop(5/13=1,5/36=2,99/5=2) pseudo=read geom=check guess=(
 read,tcheck) scf=(maxcycle=1)\\title\\0,1\B,0,0.673427,-1.813402,-0.48
 3262\B,0,-0.675886,-1.812627,0.487211\C,0,-1.951511,-0.940847,0.355929
 \C,0,-2.045254,0.076168,-0.613025\C,0,-3.053086,-1.141258,1.213391\C,0
 ,-4.193059,-0.353805,1.093522\C,0,-4.262652,0.645162,0.127623\C,0,-3.1
 85035,0.878795,-0.742492\H,0,-3.003592,-1.917061,1.968479\H,0,-5.03870
 8,-0.511305,1.754439\C,0,1.948128,-0.93852,-0.356997\C,0,2.042163,0.08

 Normal termination of Gaussian 16 at Tue Apr  8 23:47:23 2025.
