 Gaussian 16, Revision C.01,

 ----------------------------------------------------------------------
 #t hf aug-cc-pvdz symm=none int=(grid=ultrafine) guess=(read,tcheck) s
 table=opt
 ----------------------------------------------------------------------
 -----
 title
 -----
 Symbolic Z-matrix:
 Charge =  0 Multiplicity = 2

 SCF Done:  E(UHF) =  -601.869651958     A.U. after   18 cycles
 Normal termination of Gaussian 16 at Tue Apr  8 23:46:27 2025.
 Gaussian 16:  ES64L-G16RevC.01  3-Jul-2019

 ----------------------------------------------------------------------
 #t hf aug-cc-pvdz iop(5/13=1,5/36=2,99/5=2) pseudo=read geom=check gue
 ss=(read,tcheck) scf=(maxcycle=1)
 ----------------------------------------------------------------------
 -----
 title
 -----
 Structure from the checkpoint file:  "BDE49_nonexpt_179_mol2.chk"
 Charge =  0 Multiplicity = 2

                         Standard orientation:
 ---------------------------------------------------------------------
 Center     Atomic      Atomic             Coordinates (Angstroms)
 Number     Number       Type             X           Y           Z
 ---------------------------------------------------------------------
      1         17           0        2.006703   -0.087229    0.031382
      2          5           0        0.403429   -0.783057    0.056067
      3          6           0       -0.929589   -0.066137   -0.320834
      4          6           0       -2.187901   -0.831826    0.133991
      5          1           0       -2.159898   -1.875875   -0.185383
      6          1           0       -3.092499   -0.372624   -0.276223
      7          1           0       -2.276567   -0.822132    1.224252
      8          6           0       -0.992525    1.426439    0.073323
      9          1           0       -0.893108   -0.115689   -1.426095
     10          1           0       -1.001833    1.542429    1.161020
     11          1           0       -1.907039    1.884688   -0.314750
     12          1           0       -0.140067    1.986535   -0.315534
 ---------------------------------------------------------------------

 SCF Done:  E(UHF) =  -601.931758727     A.U. after    2 cycles

 The electronic state is 2-A.
 Alpha  occ. eigenvalues -- -103.66506 -11.23865 -11.23531 -11.23406 -10.69985
 Alpha  occ. eigenvalues --   -8.35732  -8.35464  -8.35414  -7.68529  -1.16225
 Alpha  occ. eigenvalues --   -1.05844  -0.93443  -0.82802  -0.66950  -0.62341
 Alpha  occ. eigenvalues --   -0.60426  -0.57724  -0.54648  -0.51114  -0.50512
 Alpha  occ. eigenvalues --   -0.49531  -0.48329  -0.47018  -0.33385
 Alpha virt. eigenvalues --    0.03259   0.04455   0.04810   0.05024   0.06372
 Alpha virt. eigenvalues --    0.06847   0.06898   0.07273   0.07642   0.09122
 Alpha virt. eigenvalues --    0.09805   0.12226   0.14401   0.15215   0.15391

  Beta  occ. eigenvalues -- -103.66428 -11.23726 -11.23468 -11.23374 -10.69894
  Beta  occ. eigenvalues --   -8.35587  -8.35427  -8.35226  -7.66578  -1.15356
  Beta  occ. eigenvalues --   -1.05422  -0.93258  -0.81958  -0.64883  -0.62042
  Beta  occ. eigenvalues --   -0.59463  -0.56509  -0.54522  -0.50549  -0.49096
  Beta  occ. eigenvalues --   -0.48919  -0.48223  -0.45572
  Beta virt. eigenvalues --    0.02920   0.04521   0.04659   0.04979   0.06845
  Beta virt. eigenvalues --    0.06892   0.07037   0.07299   0.07646   0.08772
  Beta virt. eigenvalues --    0.09815   0.11002   0.14257   0.14908   0.15282

 Mulliken charges and spin densities:
               1          2
     1  Cl  -0.269148   0.007711
     2  B    0.156175   1.043054
     3  C   -0.219897  -0.053827
     4  C    0.434948   0.016532
     5  H   -0.117974  -0.008951
     6  H   -0.066327  -0.001103
     7  H   -0.073377  -0.001765
     8  C    0.416435   0.016506
     9  H   -0.033181  -0.016681
    10  H   -0.057941  -0.003071
    11  H   -0.056605   0.003393
    12  H   -0.113109  -0.001799
 Sum of Mulliken charges =  -0.00000   1.00000

 Dipole moment (field-independent basis, Debye):
    X=             -1.5753    Y=              0.3798    Z=             -0.3229  Tot=              1.6522
                          Isotropic Fermi Contact Couplings
        Atom                 a.u.       MegaHertz       Gauss      10(-4) cm-1
     1  Cl(35)             0.08462      37.10248      13.23909      12.37606
     2  B(11)              0.32773     470.08180     167.73688     156.80241
     3  C(13)              0.03503      39.38322      14.05291      13.13683
     4  C(13)              0.01098      12.34788       4.40603       4.11881
     5  H(1)              -0.00022      -0.98146      -0.35021      -0.32738
     6  H(1)              -0.00028      -1.25748      -0.44870      -0.41945
     7  H(1)              -0.00020      -0.89490      -0.31932      -0.29851
     8  C(13)              0.01188      13.35588       4.76571       4.45504

 Normal termination of Gaussian 16 at Tue Apr  8 23:46:31 2025.
