 Gaussian 16, Revision C.01,

 ----------------------------------------------------------------------
 #t hf aug-cc-pvdz symm=none int=(grid=ultrafine) guess=(read,tcheck) s
 table=(opt,rrhf)
 ----------------------------------------------------------------------
 -----
 title
 -----
 Symbolic Z-matrix:
 Charge =  0 Multiplicity = 1

 SCF Done:  E(RHF) =  -665.477001138     A.U. after   13 cycles
 Normal termination of Gaussian 16 at Tue Apr  8 22:45:51 2025.
 Gaussian 16:  ES64L-G16RevC.01  3-Jul-2019

 ----------------------------------------------------------------------
 #t hf aug-cc-pvdz iop(5/13=1,5/36=2,99/5=2) pseudo=read geom=check gue
 ss=(read,tcheck) scf=(maxcycle=1)
 ----------------------------------------------------------------------
 -----
 title
 -----
 Structure from the checkpoint file:  "BDE49_expt_1598_mol1.chk"
 Charge =  0 Multiplicity = 1

                         Standard orientation:
 ---------------------------------------------------------------------
 Center     Atomic      Atomic             Coordinates (Angstroms)
 Number     Number       Type             X           Y           Z
 ---------------------------------------------------------------------
      1         16           0        0.402218   -0.191120    0.000000
      2          6           0       -1.046102    0.898973    0.000000
      3          6           0        1.790259    0.952402   -0.000001
      4          8           0        0.422273   -0.911241   -1.259599
      5          8           0        0.422274   -0.911240    1.259600
      6          1           0        1.757506    1.562682   -0.901892
      7          1           0        2.685317    0.329447   -0.000001
      8          1           0        1.757506    1.562683    0.901891
      9          6           0       -2.329407    0.070165    0.000000
     10          1           0       -0.963571    1.524613   -0.891582
     11          1           0       -0.963571    1.524613    0.891581
     12          1           0       -2.378496   -0.564835   -0.885702
     13          1           0       -3.196554    0.734154    0.000000
     14          1           0       -2.378496   -0.564834    0.885703
 ---------------------------------------------------------------------

 SCF Done:  E(RHF) =  -665.636856760     A.U. after    2 cycles

 The electronic state is 1-A.
 Alpha  occ. eigenvalues --  -93.77413 -20.55144 -20.55143 -11.29084 -11.28759
 Alpha  occ. eigenvalues --  -11.25150  -9.04221  -6.38863  -6.38638  -6.38559
 Alpha  occ. eigenvalues --   -1.41297  -1.29839  -1.07856  -1.02817  -0.90589
 Alpha  occ. eigenvalues --   -0.80048  -0.69966  -0.67834  -0.67064  -0.64056
 Alpha  occ. eigenvalues --   -0.61443  -0.60851  -0.56730  -0.55270  -0.53318
 Alpha  occ. eigenvalues --   -0.51282  -0.50130  -0.48502  -0.44305
 Alpha virt. eigenvalues --    0.02697   0.03924   0.04692   0.05175   0.06526
 Alpha virt. eigenvalues --    0.06613   0.07387   0.08418   0.10825   0.11590
 Alpha virt. eigenvalues --    0.13212   0.13800   0.14315   0.15106   0.15788

 Mulliken charges:
               1
     1  S    2.206665
     2  C   -0.153309
     3  C    0.073128
     4  O   -1.119825
     5  O   -1.119825
     6  H   -0.006366
     7  H    0.051091
     8  H   -0.006362
     9  C    0.313455
    10  H   -0.083643
    11  H   -0.083646
    12  H   -0.022504
    13  H   -0.026354
    14  H   -0.022504
 Sum of Mulliken charges =  -0.00000

 Dipole moment (field-independent basis, Debye):
    X=             -0.4892    Y=              5.2280    Z=             -0.0000  Tot=              5.2509

 Test job not archived.
 1\1\GINC-SE082\SP\RHF\Aug-CC-pVDZ\C3H8O2S1\OHZDE\08-Apr-2025\0\\#t hf
 aug-cc-pvdz iop(5/13=1,5/36=2,99/5=2) pseudo=read geom=check guess=(re
 ad,tcheck) scf=(maxcycle=1)\\title\\0,1\S,0,0.402218,-0.19112,0.\C,0,-
 1.046102,0.898973,0.\C,0,1.790259,0.952401,-0.000001\O,0,0.422273,-0.9
 11241,-1.259599\O,0,0.422274,-0.91124,1.2596\H,0,1.757506,1.562681,-0.
 901892\H,0,2.685317,0.329446,-0.000001\H,0,1.757506,1.562682,0.901891\
 C,0,-2.329407,0.070165,0.\H,0,-0.963571,1.524613,-0.891582\H,0,-0.9635
 71,1.524613,0.891581\H,0,-2.378496,-0.564835,-0.885702\H,0,-3.196554,0

 Normal termination of Gaussian 16 at Tue Apr  8 22:45:55 2025.
