 Gaussian 16, Revision C.01,

 ----------------------------------------------------------------------
 #t hf aug-cc-pvdz symm=none int=(grid=ultrafine) guess=(read,tcheck) s
 table=(opt,rrhf)
 ----------------------------------------------------------------------
 -----
 title
 -----
 Symbolic Z-matrix:
 Charge =  0 Multiplicity = 1

 SCF Done:  E(RHF) =  -305.601646251     A.U. after   14 cycles
 Normal termination of Gaussian 16 at Tue Apr  8 22:39:45 2025.
 Gaussian 16:  ES64L-G16RevC.01  3-Jul-2019

 ----------------------------------------------------------------------
 #t hf aug-cc-pvdz iop(5/13=1,5/36=2,99/5=2) pseudo=read geom=check gue
 ss=(read,tcheck) scf=(maxcycle=1)
 ----------------------------------------------------------------------
 -----
 title
 -----
 Structure from the checkpoint file:  "BDE49_expt_1340_mol1.chk"
 Charge =  0 Multiplicity = 1

                         Standard orientation:
 ---------------------------------------------------------------------
 Center     Atomic      Atomic             Coordinates (Angstroms)
 Number     Number       Type             X           Y           Z
 ---------------------------------------------------------------------
      1          6           0        1.854544    0.027319   -0.000001
      2          6           0        1.169393   -1.188282    0.000000
      3          6           0       -0.220292   -1.221064    0.000000
      4          6           0        1.130698    1.216584    0.000000
      5          6           0       -0.262526    1.196860    0.000000
      6          6           0       -0.940299   -0.024158    0.000000
      7          1           0        2.937752    0.045722   -0.000001
      8          1           0        1.721690   -2.121452   -0.000001
      9          1           0       -0.764844   -2.157488    0.000000
     10          1           0        1.648305    2.169358    0.000000
     11          1           0       -0.822797    2.127754    0.000000
     12          8           0       -2.304034   -0.110540    0.000000
     13          1           0       -2.676939    0.776871    0.000002
 ---------------------------------------------------------------------

 SCF Done:  E(RHF) =  -305.694374589     A.U. after    2 cycles

 The electronic state is 1-A.
 Alpha  occ. eigenvalues --  -20.60701 -11.31601 -11.25341 -11.25144 -11.24539
 Alpha  occ. eigenvalues --  -11.23936 -11.23817  -1.36973  -1.14014  -1.01666
 Alpha  occ. eigenvalues --   -1.00289  -0.85338  -0.82885  -0.74561  -0.69311
 Alpha  occ. eigenvalues --   -0.66209  -0.61693  -0.60772  -0.59748  -0.58227
 Alpha  occ. eigenvalues --   -0.52347  -0.49939  -0.49085  -0.34719  -0.32170
 Alpha virt. eigenvalues --    0.03195   0.03940   0.04338   0.05670   0.06080
 Alpha virt. eigenvalues --    0.07800   0.10147   0.11343   0.11935   0.12706
 Alpha virt. eigenvalues --    0.13502   0.14137   0.14405   0.14564   0.14686

 Mulliken charges:
               1
     1  C    0.343064
     2  C    0.639651
     3  C    0.383520
     4  C    0.482443
     5  C    0.405581
     6  C    0.517207
     7  H   -0.438237
     8  H   -0.432671
     9  H   -0.448435
    10  H   -0.429197
    11  H   -0.570978
    12  O   -0.579858
    13  H    0.127908
 Sum of Mulliken charges =   0.00000

 Dipole moment (field-independent basis, Debye):
    X=              0.2835    Y=              1.4133    Z=              0.0000  Tot=              1.4414

 Test job not archived.
 1\1\GINC-SE329\SP\RHF\Aug-CC-pVDZ\C6H6O1\OHZDE\08-Apr-2025\0\\#t hf au
 g-cc-pvdz iop(5/13=1,5/36=2,99/5=2) pseudo=read geom=check guess=(read
 ,tcheck) scf=(maxcycle=1)\\title\\0,1\C,0,-1.854544,0.027319,0.000001\
 C,0,-1.169393,-1.188282,0.\C,0,0.220292,-1.221064,0.\C,0,-1.130698,1.2
 16584,0.\C,0,0.262526,1.19686,0.\C,0,0.940299,-0.024158,0.\H,0,-2.9377
 52,0.045722,0.000001\H,0,-1.72169,-2.121452,0.000001\H,0,0.764844,-2.1
 57488,0.\H,0,-1.648305,2.169358,0.\H,0,0.822797,2.127754,0.\O,0,2.3040
 34,-0.11054,0.\H,0,2.676939,0.776871,-0.000002\\Version=ES64L-G16RevC.

 Normal termination of Gaussian 16 at Tue Apr  8 22:39:49 2025.
