 Gaussian 16, Revision C.01,

 ----------------------------------------------------------------------
 #t hf aug-cc-pvdz symm=none int=(grid=ultrafine) guess=(read,tcheck) s
 table=(opt,rrhf)
 ----------------------------------------------------------------------
 -----
 title
 -----
 Symbolic Z-matrix:
 Charge =  0 Multiplicity = 1

 SCF Done:  E(RHF) =  -405.147808474     A.U. after   11 cycles
 Normal termination of Gaussian 16 at Tue Apr  8 23:48:59 2025.
 Gaussian 16:  ES64L-G16RevC.01  3-Jul-2019

 ----------------------------------------------------------------------
 #t hf aug-cc-pvdz iop(5/13=1,5/36=2,99/5=2) pseudo=read geom=check gue
 ss=(read,tcheck) scf=(maxcycle=1)
 ----------------------------------------------------------------------
 -----
 title
 -----
 Structure from the checkpoint file:  "BDE49_nonexpt_1865_mol1.chk"
 Charge =  0 Multiplicity = 1

                         Standard orientation:
 ---------------------------------------------------------------------
 Center     Atomic      Atomic             Coordinates (Angstroms)
 Number     Number       Type             X           Y           Z
 ---------------------------------------------------------------------
      1          6           0       -0.640241    0.641467   -0.039458
      2         14           0        1.104557   -0.104839    0.008588
      3          8           0       -1.642472   -0.378238    0.112592
      4          1           0       -1.595360   -0.953610   -0.657213
      5          1           0        2.139689    0.921497   -0.271919
      6          1           0        1.183917   -1.160526   -1.033348
      7          1           0        1.366291   -0.721956    1.328126
      8          1           0       -0.799398    1.233860   -0.951556
      9          1           0       -0.777723    1.325584    0.801699
 ---------------------------------------------------------------------

 SCF Done:  E(RHF) =  -405.209085528     A.U. after    2 cycles

 The electronic state is 1-A.
 Alpha  occ. eigenvalues --  -69.06458 -20.58071 -11.28190  -6.81827  -3.92608
 Alpha  occ. eigenvalues --   -3.92593  -3.92581  -1.32127  -0.92409  -0.72253
 Alpha  occ. eigenvalues --   -0.68355  -0.61255  -0.58874  -0.51560  -0.48338
 Alpha  occ. eigenvalues --   -0.47515  -0.42237
 Alpha virt. eigenvalues --    0.03270   0.04755   0.05020   0.05459   0.07451
 Alpha virt. eigenvalues --    0.07910   0.08506   0.09197   0.09559   0.12849
 Alpha virt. eigenvalues --    0.15425   0.15815   0.16638   0.16912   0.18870

 Mulliken charges:
               1
     1  C    0.465125
     2  Si   0.575554
     3  O   -0.526722
     4  H    0.125288
     5  H   -0.064636
     6  H   -0.093758
     7  H   -0.049184
     8  H   -0.183875
     9  H   -0.247791
 Sum of Mulliken charges =  -0.00000

 Dipole moment (field-independent basis, Debye):
    X=              0.7837    Y=              0.4874    Z=             -1.2815  Tot=              1.5792

 Test job not archived.
 1\1\GINC-SE105\SP\RHF\Aug-CC-pVDZ\C1H6O1Si1\OHZDE\08-Apr-2025\0\\#t hf
  aug-cc-pvdz iop(5/13=1,5/36=2,99/5=2) pseudo=read geom=check guess=(r
 ead,tcheck) scf=(maxcycle=1)\\title\\0,1\C,0,-0.640241,0.641467,-0.039
 458\Si,0,1.104557,-0.104839,0.008588\O,0,-1.642472,-0.378238,0.112592\
 H,0,-1.59536,-0.95361,-0.657213\H,0,2.139688,0.921498,-0.271919\H,0,1.
 183917,-1.160526,-1.033348\H,0,1.366291,-0.721956,1.328126\H,0,-0.7993
 99,1.23386,-0.951556\H,0,-0.777724,1.325584,0.801699\\Version=ES64L-G1
 6RevC.01\State=1-A\HF=-405.2090855\RMSD=4.299e-03\Dipole=0.3083159,0.1

 Normal termination of Gaussian 16 at Tue Apr  8 23:49:01 2025.
