 Gaussian 16, Revision C.01,

 ----------------------------------------------------------------------
 #t hf aug-cc-pvdz symm=none int=(grid=ultrafine) guess=(read,tcheck) s
 table=opt
 ----------------------------------------------------------------------
 -----
 title
 -----
 Symbolic Z-matrix:
 Charge =  0 Multiplicity = 2

 SCF Done:  E(UHF) =  -736.919974739     A.U. after   15 cycles
 Normal termination of Gaussian 16 at Tue Apr  8 23:10:54 2025.
 Gaussian 16:  ES64L-G16RevC.01  3-Jul-2019

 ----------------------------------------------------------------------
 #t hf aug-cc-pvdz iop(5/13=1,5/36=2,99/5=2) pseudo=read geom=check gue
 ss=(read,tcheck) scf=(maxcycle=1)
 ----------------------------------------------------------------------
 -----
 title
 -----
 Structure from the checkpoint file:  "BDE49_expt_802_mol2.chk"
 Charge =  0 Multiplicity = 2

                         Standard orientation:
 ---------------------------------------------------------------------
 Center     Atomic      Atomic             Coordinates (Angstroms)
 Number     Number       Type             X           Y           Z
 ---------------------------------------------------------------------
      1         14           0        1.122362   -0.000000    0.386138
      2         14           0       -1.109999    0.000000   -0.383104
      3          6           0        2.021696   -1.551170   -0.208903
      4          1           0        1.153643   -0.000000    1.880325
      5          6           0        2.021696    1.551170   -0.208903
      6          6           0       -2.089753    1.548446    0.108096
      7          6           0       -2.089754   -1.548446    0.108097
      8          1           0        2.041871    1.600510   -1.301212
      9          1           0        3.055862    1.557715    0.148968
     10          1           0        1.537021    2.459397    0.159648
     11          1           0        1.537021   -2.459397    0.159647
     12          1           0        3.055862   -1.557716    0.148968
     13          1           0        2.041872   -1.600510   -1.301212
     14          1           0       -2.251459   -1.580386    1.192014
     15          1           0       -1.566666   -2.463061   -0.181619
     16          1           0       -3.071651   -1.556747   -0.374361
     17          1           0       -2.251459    1.580386    1.192014
     18          1           0       -3.071651    1.556748   -0.374361
     19          1           0       -1.566666    2.463061   -0.181619
 ---------------------------------------------------------------------

 SCF Done:  E(UHF) =  -737.016485046     A.U. after    2 cycles

 The electronic state is 2-A.
 Alpha  occ. eigenvalues --  -69.04781 -69.04691 -11.21603 -11.21600 -11.21268
 Alpha  occ. eigenvalues --  -11.21264  -6.80153  -6.79939  -3.91495  -3.90718
 Alpha  occ. eigenvalues --   -3.90692  -3.90667  -3.90627  -3.90559  -0.95281
 Alpha  occ. eigenvalues --   -0.94302  -0.92038  -0.91843  -0.67023  -0.60033
 Alpha  occ. eigenvalues --   -0.57109  -0.56726  -0.56493  -0.55302  -0.55198
 Alpha  occ. eigenvalues --   -0.54767  -0.54511  -0.53939  -0.44786  -0.44514
 Alpha  occ. eigenvalues --   -0.42811  -0.37850  -0.28396
 Alpha virt. eigenvalues --    0.03433   0.04105   0.04436   0.04767   0.06136
 Alpha virt. eigenvalues --    0.06159   0.06623   0.06670   0.07330   0.08070
 Alpha virt. eigenvalues --    0.08377   0.08777   0.08823   0.09830   0.10155

  Beta  occ. eigenvalues --  -69.04672 -69.04265 -11.21608 -11.21605 -11.21284
  Beta  occ. eigenvalues --  -11.21280  -6.79907  -6.79401  -3.90697  -3.90668
  Beta  occ. eigenvalues --   -3.90611  -3.90265  -3.90228  -3.89417  -0.94996
  Beta  occ. eigenvalues --   -0.94057  -0.91960  -0.91767  -0.65346  -0.57872
  Beta  occ. eigenvalues --   -0.56996  -0.56547  -0.55621  -0.55106  -0.54662
  Beta  occ. eigenvalues --   -0.54557  -0.54142  -0.53899  -0.44318  -0.44300
  Beta  occ. eigenvalues --   -0.42602  -0.36448
  Beta virt. eigenvalues --    0.02936   0.04153   0.04479   0.04710   0.06088
  Beta virt. eigenvalues --    0.06157   0.06420   0.06638   0.06694   0.08070
  Beta virt. eigenvalues --    0.08073   0.08577   0.08831   0.08963   0.09948

 Mulliken charges and spin densities:
               1          2
     1  Si   1.026490  -0.102693
     2  Si   1.020315   1.129580
     3  C    0.297937  -0.004606
     4  H   -0.039725   0.026396
     5  C    0.297936  -0.004606
     6  C    0.202077  -0.017025
     7  C    0.202079  -0.017025
     8  H   -0.177070   0.000740
     9  H   -0.297395  -0.002943
    10  H   -0.294340   0.002925
    11  H   -0.294342   0.002925
    12  H   -0.297395  -0.002943
    13  H   -0.177071   0.000740
    14  H   -0.203331   0.010398
    15  H   -0.276693  -0.006509
    16  H   -0.254724  -0.009623
    17  H   -0.203328   0.010398
    18  H   -0.254724  -0.009623
    19  H   -0.276696  -0.006509
 Sum of Mulliken charges =  -0.00000   1.00000

 Dipole moment (field-independent basis, Debye):
    X=             -0.0951    Y=              0.0000    Z=             -0.0023  Tot=              0.0952
                          Isotropic Fermi Contact Couplings
        Atom                 a.u.       MegaHertz       Gauss      10(-4) cm-1
     1  Si(29)             0.02745     -24.39781      -8.70575      -8.13823
     2  Si(29)             0.41214    -366.27662    -130.69660    -122.17673
     3  C(13)             -0.00371      -4.16597      -1.48652      -1.38962
     4  H(1)               0.00773      34.56421      12.33337      11.52938
     5  C(13)             -0.00371      -4.16597      -1.48652      -1.38962
     6  C(13)              0.00099       1.10976       0.39599       0.37018
     7  C(13)              0.00099       1.10976       0.39599       0.37017
     8  H(1)              -0.00011      -0.47341      -0.16893      -0.15791

 Normal termination of Gaussian 16 at Tue Apr  8 23:11:03 2025.
