 Gaussian 16, Revision C.01,

 ----------------------------------------------------------------------
 #t hf aug-cc-pvdz symm=none int=(grid=ultrafine) guess=(read,tcheck) s
 table=opt
 ----------------------------------------------------------------------
 -----
 title
 -----
 Symbolic Z-matrix:
 Charge =  0 Multiplicity = 2

 SCF Done:  E(UHF) =  -365.544937132     A.U. after   14 cycles

 1\1\GINC-SE097\Stability\UHF\Aug-CC-pVDZ\H3O1Si1\OHZDE\08-Apr-2025\0\\
 #t hf aug-cc-pvdz symm=none int=(grid=ultrafine) guess=(read,tcheck) s
 table=opt\\title\\0,2\Si,0,-0.570755,0.018785,-0.107593\O,0,1.074688,-
 0.111703,0.067357\H,0,-1.122097,-1.230864,0.472851\H,0,-1.101996,1.206
 635,0.628171\H,0,1.617155,0.65487,-0.13357\\Version=ES64L-G16RevC.01\H
 F=-365.5449371\S2=0.75409\S2-1=0.\S2A=0.750008\RMSD=6.225e-09\Dipole=0
 .0503233,0.5168824,-0.1596554\Quadrupole=0.6525436,0.1752806,-0.827824
 2,2.1202261,-0.6117594,-0.1706734\PG=Unknown\\@

 Normal termination of Gaussian 16 at Tue Apr  8 23:48:58 2025.
 Gaussian 16:  ES64L-G16RevC.01  3-Jul-2019

 ----------------------------------------------------------------------
 #t hf aug-cc-pvdz iop(5/13=1,5/36=2,99/5=2) pseudo=read geom=check gue
 ss=(read,tcheck) scf=(maxcycle=1)
 ----------------------------------------------------------------------
 -----
 title
 -----
 Structure from the checkpoint file:  "BDE49_nonexpt_1866_mol3.chk"
 Charge =  0 Multiplicity = 2

                         Standard orientation:
 ---------------------------------------------------------------------
 Center     Atomic      Atomic             Coordinates (Angstroms)
 Number     Number       Type             X           Y           Z
 ---------------------------------------------------------------------
      1         14           0       -0.570755    0.018785   -0.107593
      2          8           0        1.074688   -0.111703    0.067357
      3          1           0       -1.122097   -1.230864    0.472851
      4          1           0       -1.101996    1.206635    0.628171
      5          1           0        1.617155    0.654870   -0.133570
 ---------------------------------------------------------------------

 SCF Done:  E(UHF) =  -365.599462790     A.U. after    2 cycles

 The electronic state is 2-A.
 Alpha  occ. eigenvalues --  -69.10432 -20.58288  -6.85297  -3.96547  -3.95856
 Alpha  occ. eigenvalues --   -3.95719  -1.31281  -0.76706  -0.64887  -0.58305
 Alpha  occ. eigenvalues --   -0.56373  -0.48156  -0.32931
 Alpha virt. eigenvalues --    0.03358   0.05060   0.06228   0.06916   0.07701
 Alpha virt. eigenvalues --    0.09191   0.13619   0.15712   0.18028   0.19160
 Alpha virt. eigenvalues --    0.20908   0.22562   0.22851   0.27175   0.27966

  Beta  occ. eigenvalues --  -69.09903 -20.57852  -6.84472  -3.95537  -3.95385
  Beta  occ. eigenvalues --   -3.94565  -1.30064  -0.75290  -0.62329  -0.55747
  Beta  occ. eigenvalues --   -0.53896  -0.46656
  Beta virt. eigenvalues --    0.02926   0.04260   0.05342   0.06381   0.07712
  Beta virt. eigenvalues --    0.09379   0.09828   0.15205   0.16774   0.20592
  Beta virt. eigenvalues --    0.21085   0.21846   0.23254   0.23551   0.27599

 Mulliken charges and spin densities:
               1          2
     1  Si   0.830068   0.869382
     2  O   -0.771345   0.048633
     3  H   -0.095754   0.036814
     4  H   -0.094023   0.054237
     5  H    0.131055  -0.009066
 Sum of Mulliken charges =   0.00000   1.00000

 Dipole moment (field-independent basis, Debye):
    X=              0.0928    Y=              1.3766    Z=             -0.4774  Tot=              1.4600
                          Isotropic Fermi Contact Couplings
        Atom                 a.u.       MegaHertz       Gauss      10(-4) cm-1
     1  Si(29)             0.60742    -539.83208    -192.62551    -180.06860
     2  O(17)              0.04888     -29.63092     -10.57305      -9.88381
     3  H(1)               0.01226      54.80491      19.55576      18.28095
     4  H(1)               0.01707      76.31607      27.23147      25.45630
     5  H(1)              -0.00205      -9.15275      -3.26593      -3.05303
 --------------------------------------------------------
       Center         ----  Spin Dipole Couplings  ----
                      3XX-RR        3YY-RR        3ZZ-RR

 Normal termination of Gaussian 16 at Tue Apr  8 23:48:59 2025.
