 Gaussian 16, Revision C.01,

 ----------------------------------------------------------------------
 #t hf aug-cc-pvdz symm=none int=(grid=ultrafine) guess=(read,tcheck) s
 table=(opt,rrhf)
 ----------------------------------------------------------------------
 -----
 title
 -----
 Symbolic Z-matrix:
 Charge =  0 Multiplicity = 1

 SCF Done:  E(RHF) =  -311.411408392     A.U. after   13 cycles
 Normal termination of Gaussian 16 at Wed Apr  9 00:36:22 2025.
 Gaussian 16:  ES64L-G16RevC.01  3-Jul-2019

 ----------------------------------------------------------------------
 #t hf aug-cc-pvdz iop(5/13=1,5/36=2,99/5=2) pseudo=read geom=check gue
 ss=(read,tcheck) scf=(maxcycle=1)
 ----------------------------------------------------------------------
 -----
 title
 -----
 Structure from the checkpoint file:  "BDE49_nonexpt_553_mol1.chk"
 Charge =  0 Multiplicity = 1

                         Standard orientation:
 ---------------------------------------------------------------------
 Center     Atomic      Atomic             Coordinates (Angstroms)
 Number     Number       Type             X           Y           Z
 ---------------------------------------------------------------------
      1          6           0        1.301897    0.092950    0.000004
      2          5           0       -1.259447   -0.087198   -0.000008
      3          6           0       -2.425783   -1.151411    0.000003
      4          1           0       -3.073951   -0.997549   -0.871568
      5          1           0       -3.073945   -0.997540    0.871576
      6          1           0       -2.108107   -2.199330    0.000007
      7          8           0        1.377737    1.300035   -0.000003
      8          6           0        2.530735   -0.803311    0.000002
      9          6           0       -1.560184    1.454056   -0.000001
     10          1           0       -1.101822    1.944328   -0.865198
     11          1           0       -1.101816    1.944322    0.865197
     12          1           0       -2.631634    1.671532    0.000003
     13          1           0        2.537993   -1.448832   -0.883509
     14          1           0        2.537994   -1.448835    0.883510
     15          1           0        3.422710   -0.180904    0.000003
     16          7           0        0.085194   -0.599868   -0.000001
     17          1           0        0.191571   -1.606111    0.000001
 ---------------------------------------------------------------------

 SCF Done:  E(RHF) =  -311.511615444     A.U. after    2 cycles

 The electronic state is 1-A.
 Alpha  occ. eigenvalues --  -20.54740 -15.63908 -11.37234 -11.25302 -11.20684
 Alpha  occ. eigenvalues --  -11.18924  -7.61341  -1.35687  -1.17316  -1.00469
 Alpha  occ. eigenvalues --   -0.95004  -0.91346  -0.79537  -0.71369  -0.68535
 Alpha  occ. eigenvalues --   -0.62459  -0.60858  -0.58175  -0.56937  -0.55880
 Alpha  occ. eigenvalues --   -0.53533  -0.52990  -0.51782  -0.50824  -0.45952
 Alpha  occ. eigenvalues --   -0.43297  -0.42940
 Alpha virt. eigenvalues --    0.02585   0.03970   0.04346   0.04781   0.06287
 Alpha virt. eigenvalues --    0.06400   0.06665   0.07649   0.08504   0.08997
 Alpha virt. eigenvalues --    0.09428   0.09804   0.10042   0.10833   0.13074

 Mulliken charges:
               1
     1  C    0.401831
     2  B    0.441244
     3  C    0.555136
     4  H   -0.101592
     5  H   -0.101602
     6  H   -0.389879
     7  O   -0.445192
     8  C    0.289081
     9  C    0.475977
    10  H   -0.096783
    11  H   -0.096788
    12  H   -0.308492
    13  H    0.027943
    14  H    0.027939
    15  H   -0.077346
    16  N   -0.536388
    17  H   -0.065089
 Sum of Mulliken charges =  -0.00000

 Dipole moment (field-independent basis, Debye):
    X=              0.0664    Y=             -3.9075    Z=              0.0000  Tot=              3.9081

 Test job not archived.
 1\1\GINC-SE339\SP\RHF\Aug-CC-pVDZ\C4H10B1N1O1\OHZDE\09-Apr-2025\0\\#t
 hf aug-cc-pvdz iop(5/13=1,5/36=2,99/5=2) pseudo=read geom=check guess=
 (read,tcheck) scf=(maxcycle=1)\\title\\0,1\C,0,1.301897,0.09295,0.0000
 04\B,0,-1.259447,-0.087198,-0.000008\C,0,-2.425783,-1.151411,0.000003\
 H,0,-3.073951,-0.997549,-0.871568\H,0,-3.073945,-0.99754,0.871576\H,0,
 -2.108107,-2.19933,0.000007\O,0,1.377737,1.300035,-0.000003\C,0,2.5307
 35,-0.803311,0.000002\C,0,-1.560184,1.454056,-0.000001\H,0,-1.101822,1
 .944328,-0.865198\H,0,-1.101816,1.944322,0.865197\H,0,-2.631634,1.6715

 Normal termination of Gaussian 16 at Wed Apr  9 00:36:28 2025.
