 Gaussian 16, Revision C.01,

 ----------------------------------------------------------------------
 #t hf aug-cc-pvdz symm=none int=(grid=ultrafine) guess=(read,tcheck) s
 table=opt
 ----------------------------------------------------------------------
 -----
 title
 -----
 Symbolic Z-matrix:
 Charge =  0 Multiplicity = 2

 SCF Done:  E(UHF) =  -576.572580172     A.U. after   17 cycles

 1\1\GINC-SE454\Stability\UHF\Aug-CC-pVDZ\C3H6Cl1\OHZDE\08-Apr-2025\0\\
 #t hf aug-cc-pvdz symm=none int=(grid=ultrafine) guess=(read,tcheck) s
 table=opt\\title\\0,2\C,0,1.82757,-0.77326,0.159573\C,0,1.222388,0.498
 92,-0.322308\C,0,-0.106616,0.865094,0.32926\H,0,-0.468024,1.831536,-0.
 017086\H,0,-0.037092,0.867822,1.415913\Cl,0,-1.425522,-0.323897,-0.079
 705\H,0,1.200697,-1.607438,0.447152\H,0,2.893049,-0.939437,0.066475\H,
 0,1.074562,0.473028,-1.414525\H,0,1.910627,1.336205,-0.142098\\Version
 =ES64L-G16RevC.01\HF=-576.5725802\S2=0.762773\S2-1=0.\S2A=0.750107\RMS

 Normal termination of Gaussian 16 at Tue Apr  8 22:46:36 2025.
 Gaussian 16:  ES64L-G16RevC.01  3-Jul-2019

 ----------------------------------------------------------------------
 #t hf aug-cc-pvdz iop(5/13=1,5/36=2,99/5=2) pseudo=read geom=check gue
 ss=(read,tcheck) scf=(maxcycle=1)
 ----------------------------------------------------------------------
 -----
 title
 -----
 Structure from the checkpoint file:  "BDE49_expt_1647_mol2.chk"
 Charge =  0 Multiplicity = 2

                         Standard orientation:
 ---------------------------------------------------------------------
 Center     Atomic      Atomic             Coordinates (Angstroms)
 Number     Number       Type             X           Y           Z
 ---------------------------------------------------------------------
      1          6           0        1.827570   -0.773260    0.159573
      2          6           0        1.222388    0.498920   -0.322308
      3          6           0       -0.106616    0.865094    0.329260
      4          1           0       -0.468023    1.831536   -0.017086
      5          1           0       -0.037092    0.867822    1.415913
      6         17           0       -1.425522   -0.323896   -0.079705
      7          1           0        1.200697   -1.607438    0.447152
      8          1           0        2.893049   -0.939438    0.066475
      9          1           0        1.074562    0.473028   -1.414525
     10          1           0        1.910627    1.336205   -0.142098
 ---------------------------------------------------------------------

 SCF Done:  E(UHF) =  -576.627927345     A.U. after    2 cycles

 The electronic state is 2-A.
 Alpha  occ. eigenvalues -- -103.64513 -11.30829 -11.25585 -11.24768 -10.67792
 Alpha  occ. eigenvalues --   -8.33501  -8.33230  -8.33221  -1.15948  -1.05445
 Alpha  occ. eigenvalues --   -0.92798  -0.81260  -0.65493  -0.64729  -0.58583
 Alpha  occ. eigenvalues --   -0.55053  -0.54324  -0.50827  -0.44520  -0.44279
 Alpha  occ. eigenvalues --   -0.36439
 Alpha virt. eigenvalues --    0.03369   0.04500   0.04982   0.05623   0.07101
 Alpha virt. eigenvalues --    0.07288   0.09563   0.12198   0.13034   0.14381
 Alpha virt. eigenvalues --    0.14719   0.15285   0.16256   0.16629   0.18093

  Beta  occ. eigenvalues -- -103.64516 -11.30758 -11.25909 -11.22314 -10.67796
  Beta  occ. eigenvalues --   -8.33515  -8.33230  -8.33223  -1.15833  -1.03415
  Beta  occ. eigenvalues --   -0.88971  -0.78181  -0.64822  -0.63793  -0.57398
  Beta  occ. eigenvalues --   -0.53896  -0.52997  -0.50289  -0.44413  -0.44243
  Beta virt. eigenvalues --    0.03364   0.04540   0.04883   0.05655   0.07098
  Beta virt. eigenvalues --    0.07304   0.08612   0.09594   0.12666   0.14458
  Beta virt. eigenvalues --    0.14713   0.14847   0.15934   0.16737   0.17932

 Mulliken charges and spin densities:
               1          2
     1  C    0.512417   1.384719
     2  C    0.147688  -0.224166
     3  C    0.002494   0.013319
     4  H    0.018259   0.000399
     5  H    0.024254  -0.001535
     6  Cl  -0.172478  -0.001218
     7  H   -0.238643  -0.111950
     8  H   -0.242968  -0.112095
     9  H   -0.025758   0.042277
    10  H   -0.025264   0.010249
 Sum of Mulliken charges =  -0.00000   1.00000

 Dipole moment (field-independent basis, Debye):
    X=              1.9084    Y=              1.5357    Z=              0.2520  Tot=              2.4625
                          Isotropic Fermi Contact Couplings
        Atom                 a.u.       MegaHertz       Gauss      10(-4) cm-1
     1  C(13)              0.21697     243.91775      87.03592      81.36220
     2  C(13)             -0.06160     -69.24516     -24.70839     -23.09770
     3  C(13)              0.01673      18.81308       6.71297       6.27537
     4  H(1)              -0.00041      -1.82287      -0.65045      -0.60805
     5  H(1)              -0.00077      -3.41987      -1.22029      -1.14074
     6  Cl(35)            -0.00128      -0.56290      -0.20085      -0.18776
     7  H(1)              -0.02512    -112.28407     -40.06575     -37.45393
     8  H(1)              -0.02529    -113.03017     -40.33198     -37.70281

 Normal termination of Gaussian 16 at Tue Apr  8 22:46:39 2025.
