 Gaussian 16, Revision C.01,

 ----------------------------------------------------------------------
 #t hf aug-cc-pvdz symm=none int=(grid=ultrafine) guess=(read,tcheck) s
 table=(opt,rrhf)
 ----------------------------------------------------------------------
 -----
 title
 -----
 Symbolic Z-matrix:
 Charge =  0 Multiplicity = 1

 SCF Done:  E(RHF) =  -647.689418245     A.U. after   13 cycles
 Normal termination of Gaussian 16 at Tue Apr  8 23:36:40 2025.
 Gaussian 16:  ES64L-G16RevC.01  3-Jul-2019

 ----------------------------------------------------------------------
 #t hf aug-cc-pvdz iop(5/13=1,5/36=2,99/5=2) pseudo=read geom=check gue
 ss=(read,tcheck) scf=(maxcycle=1)
 ----------------------------------------------------------------------
 -----
 title
 -----
 Structure from the checkpoint file:  "BDE49_nonexpt_1527_mol1.chk"
 Charge =  0 Multiplicity = 1

                         Standard orientation:
 ---------------------------------------------------------------------
 Center     Atomic      Atomic             Coordinates (Angstroms)
 Number     Number       Type             X           Y           Z
 ---------------------------------------------------------------------
      1          6           0        0.991827   -0.840006    1.700420
      2          7           0        0.301845   -0.162587    0.604625
      3          1           0        1.805863   -0.224290    2.099058
      4          1           0        1.409316   -1.814709    1.413589
      5          1           0        0.274336   -1.006062    2.504291
      6         15           0       -1.413167   -0.172310    0.512147
      7          7           0        1.061983    0.255023   -0.518682
      8          6           0        1.793932   -0.829398   -1.170795
      9          1           0        1.111669   -1.652340   -1.385272
     10          1           0        2.636321   -1.217286   -0.573901
     11          1           0        2.196623   -0.460757   -2.117824
     12          6           0        1.919155    1.398946   -0.215750
     13          1           0        2.347837    1.775564   -1.148421
     14          1           0        1.317598    2.188566    0.234425
     15          1           0        2.752743    1.158957    0.465777
     16          6           0       -1.780036   -1.064746   -1.075111
     17          1           0       -1.215870   -0.650413   -1.914745
     18          1           0       -2.849443   -0.976285   -1.288268
     19          1           0       -1.547581   -2.126752   -0.966373
     20          6           0       -1.765331    1.546150   -0.078298
     21          1           0       -2.825088    1.622650   -0.337641
     22          1           0       -1.558677    2.258495    0.723254
     23          1           0       -1.162219    1.796584   -0.954539
 ---------------------------------------------------------------------

 SCF Done:  E(RHF) =  -647.817100518     A.U. after    2 cycles

 The electronic state is 1-A.
 Alpha  occ. eigenvalues --  -81.25887 -15.64287 -15.62622 -11.25653 -11.25575
 Alpha  occ. eigenvalues --  -11.25423 -11.21874 -11.21776  -7.75775  -4.89958
 Alpha  occ. eigenvalues --   -4.89678  -4.89475  -1.24641  -1.07527  -0.97260
 Alpha  occ. eigenvalues --   -0.95342  -0.91827  -0.91008  -0.80758  -0.70291
 Alpha  occ. eigenvalues --   -0.64767  -0.63502  -0.63037  -0.58141  -0.57741
 Alpha  occ. eigenvalues --   -0.57452  -0.56005  -0.54635  -0.54328  -0.54134
 Alpha  occ. eigenvalues --   -0.53684  -0.51555  -0.48917  -0.45882  -0.36252
 Alpha  occ. eigenvalues --   -0.34667  -0.31639
 Alpha virt. eigenvalues --    0.03415   0.04088   0.04109   0.04424   0.06432
 Alpha virt. eigenvalues --    0.06448   0.06911   0.06963   0.07313   0.08205
 Alpha virt. eigenvalues --    0.08853   0.09001   0.09482   0.09657   0.10192

 Mulliken charges:
               1
     1  C    0.972182
     2  N   -0.338015
     3  H   -0.132358
     4  H   -0.091119
     5  H   -0.300031
     6  P    0.497968
     7  N   -0.970522
     8  C    0.867674
     9  H   -0.287772
    10  H   -0.059239
    11  H   -0.203730
    12  C    0.949633
    13  H   -0.160675
    14  H   -0.282758
    15  H   -0.105572
    16  C    0.372431
    17  H   -0.127495
    18  H   -0.213633
    19  H   -0.205326
    20  C    0.377680
    21  H   -0.201525
    22  H   -0.205217
    23  H   -0.152581
 Sum of Mulliken charges =   0.00000

 Dipole moment (field-independent basis, Debye):
    X=              1.5435    Y=              0.0399    Z=             -0.7037  Tot=              1.6968

 Test job not archived.
 1\1\GINC-SE402\SP\RHF\Aug-CC-pVDZ\C5H15N2P1\OHZDE\08-Apr-2025\0\\#t hf
  aug-cc-pvdz iop(5/13=1,5/36=2,99/5=2) pseudo=read geom=check guess=(r
 ead,tcheck) scf=(maxcycle=1)\\title\\0,1\C,0,0.991827,-0.840006,1.7004
 2\N,0,0.301845,-0.162587,0.604625\H,0,1.805863,-0.22429,2.099058\H,0,1
 .409316,-1.814709,1.413589\H,0,0.274336,-1.006062,2.504291\P,0,-1.4131
 67,-0.17231,0.512147\N,0,1.061983,0.255023,-0.518682\C,0,1.793932,-0.8
 29398,-1.170795\H,0,1.111669,-1.65234,-1.385272\H,0,2.636321,-1.217286
 ,-0.573901\H,0,2.196623,-0.460757,-2.117824\C,0,1.919155,1.398946,-0.2

 Normal termination of Gaussian 16 at Tue Apr  8 23:36:53 2025.
