 Gaussian 16, Revision C.01,

 ----------------------------------------------------------------------
 #t hf aug-cc-pvdz symm=none int=(grid=ultrafine) guess=(read,tcheck) s
 table=(opt,rrhf)
 ----------------------------------------------------------------------
 -----
 title
 -----
 Symbolic Z-matrix:
 Charge =  0 Multiplicity = 1

 SCF Done:  E(RHF) =  -780.440412842     A.U. after   16 cycles
 Normal termination of Gaussian 16 at Tue Apr  8 23:18:09 2025.
 Gaussian 16:  ES64L-G16RevC.01  3-Jul-2019

 ----------------------------------------------------------------------
 #t hf aug-cc-pvdz iop(5/13=1,5/36=2,99/5=2) pseudo=read geom=check gue
 ss=(read,tcheck) scf=(maxcycle=1)
 ----------------------------------------------------------------------
 -----
 title
 -----
 Structure from the checkpoint file:  "BDE49_nonexpt_1084_mol1.chk"
 Charge =  0 Multiplicity = 1

                         Standard orientation:
 ---------------------------------------------------------------------
 Center     Atomic      Atomic             Coordinates (Angstroms)
 Number     Number       Type             X           Y           Z
 ---------------------------------------------------------------------
      1         17           0        2.621890    0.244031   -0.000004
      2          8           0        1.299806   -0.876618   -0.000002
      3          6           0        0.035085   -0.335183    0.000000
      4          6           0       -0.983840   -1.290592    0.000004
      5          6           0       -0.294186    1.012896   -0.000002
      6          6           0       -1.649554    1.344548    0.000000
      7          6           0       -2.295278   -0.834076    0.000006
      8          7           0       -2.644447    0.457658    0.000004
      9          1           0       -0.747383   -2.346514    0.000006
     10          1           0       -3.109918   -1.552550    0.000009
     11          1           0        0.463697    1.782806   -0.000005
     12          1           0       -1.939208    2.391513   -0.000002
 ---------------------------------------------------------------------

 SCF Done:  E(RHF) =  -780.554053150     A.U. after    2 cycles

 The electronic state is 1-A.
 Alpha  occ. eigenvalues -- -103.74129 -20.68852 -15.63400 -11.35396 -11.30102
 Alpha  occ. eigenvalues --  -11.29890 -11.26106 -11.25987 -10.76760  -8.42527
 Alpha  occ. eigenvalues --   -8.42102  -8.42068  -1.41816  -1.24099  -1.15553
 Alpha  occ. eigenvalues --   -1.06565  -1.04181  -0.87881  -0.85889  -0.75687
 Alpha  occ. eigenvalues --   -0.71113  -0.67992  -0.67663  -0.64247  -0.61781
 Alpha  occ. eigenvalues --   -0.60810  -0.55019  -0.53322  -0.50093  -0.49345
 Alpha  occ. eigenvalues --   -0.42562  -0.37750  -0.36436
 Alpha virt. eigenvalues --    0.02974   0.03591   0.04076   0.05056   0.06580
 Alpha virt. eigenvalues --    0.08390   0.08761   0.09576   0.11445   0.11457
 Alpha virt. eigenvalues --    0.11900   0.12432   0.13445   0.13681   0.13784

 Mulliken charges:
               1
     1  Cl   0.303434
     2  O   -0.721394
     3  C   -0.464362
     4  C    0.868767
     5  C    1.358332
     6  C    0.254777
     7  C    0.364105
     8  N   -0.407525
     9  H   -0.443045
    10  H   -0.315010
    11  H   -0.484404
    12  H   -0.313674
 Sum of Mulliken charges =  -0.00000

 Dipole moment (field-independent basis, Debye):
    X=              1.1961    Y=              0.3293    Z=             -0.0000  Tot=              1.2406

 Test job not archived.
 1\1\GINC-SE125\SP\RHF\Aug-CC-pVDZ\C5H4Cl1N1O1\OHZDE\08-Apr-2025\0\\#t
 hf aug-cc-pvdz iop(5/13=1,5/36=2,99/5=2) pseudo=read geom=check guess=
 (read,tcheck) scf=(maxcycle=1)\\title\\0,1\Cl,0,2.62189,0.244031,-0.00
 0004\O,0,1.299806,-0.876618,-0.000002\C,0,0.035085,-0.335183,0.\C,0,-0
 .98384,-1.290592,0.000004\C,0,-0.294186,1.012896,-0.000002\C,0,-1.6495
 54,1.344548,0.\C,0,-2.295278,-0.834076,0.000006\N,0,-2.644447,0.457658
 ,0.000004\H,0,-0.747383,-2.346514,0.000006\H,0,-3.109918,-1.55255,0.00
 0009\H,0,0.463697,1.782806,-0.000005\H,0,-1.939208,2.391513,-0.000002\

 Normal termination of Gaussian 16 at Tue Apr  8 23:18:15 2025.
