 Gaussian 16, Revision C.01,

 ----------------------------------------------------------------------
 #t hf aug-cc-pvdz symm=none int=(grid=ultrafine) guess=(read,tcheck) s
 table=(opt,rrhf)
 ----------------------------------------------------------------------
 -----
 title
 -----
 Symbolic Z-matrix:
 Charge =  0 Multiplicity = 1

 SCF Done:  E(RHF) =  -722.837722480     A.U. after   12 cycles
 Normal termination of Gaussian 16 at Tue Apr  8 23:39:08 2025.
 Gaussian 16:  ES64L-G16RevC.01  3-Jul-2019

 ----------------------------------------------------------------------
 #t hf aug-cc-pvdz iop(5/13=1,5/36=2,99/5=2) pseudo=read geom=check gue
 ss=(read,tcheck) scf=(maxcycle=1)
 ----------------------------------------------------------------------
 -----
 title
 -----
 Structure from the checkpoint file:  "BDE49_nonexpt_1625_mol1.chk"
 Charge =  0 Multiplicity = 1

                         Standard orientation:
 ---------------------------------------------------------------------
 Center     Atomic      Atomic             Coordinates (Angstroms)
 Number     Number       Type             X           Y           Z
 ---------------------------------------------------------------------
      1         15           0       -1.417833    0.331441   -0.096874
      2         15           0        0.562684   -0.733394    0.126841
      3          6           0        1.700168    0.740779   -0.036498
      4          1           0        1.430844    1.411617   -0.853482
      5          1           0        2.717797    0.374715   -0.193116
      6          1           0        1.690690    1.300814    0.901362
      7          1           0        0.587337   -1.116571   -1.241432
      8          1           0       -1.630139    0.486765    1.299545
      9          1           0       -2.170306   -0.872724   -0.143385
 ---------------------------------------------------------------------

 SCF Done:  E(RHF) =  -722.891968682     A.U. after    2 cycles

 The electronic state is 1-A.
 Alpha  occ. eigenvalues --  -81.26305 -81.26072 -11.24472  -7.76579  -7.76464
 Alpha  occ. eigenvalues --   -4.90455  -4.90427  -4.90334  -4.90295  -4.90145
 Alpha  occ. eigenvalues --   -4.90031  -0.96776  -0.81719  -0.70917  -0.58470
 Alpha  occ. eigenvalues --   -0.58144  -0.52660  -0.47694  -0.43256  -0.41097
 Alpha  occ. eigenvalues --   -0.31573
 Alpha virt. eigenvalues --    0.03570   0.04697   0.05216   0.06183   0.06973
 Alpha virt. eigenvalues --    0.07991   0.08883   0.10167   0.11263   0.11870
 Alpha virt. eigenvalues --    0.12671   0.13496   0.15690   0.16737   0.16777

 Mulliken charges:
               1
     1  P   -0.292965
     2  P    0.029860
     3  C    0.193200
     4  H   -0.150838
     5  H   -0.164398
     6  H   -0.114780
     7  H    0.190911
     8  H    0.170724
     9  H    0.138286
 Sum of Mulliken charges =  -0.00000

 Dipole moment (field-independent basis, Debye):
    X=              0.5821    Y=              0.3917    Z=             -0.1199  Tot=              0.7118

 Test job not archived.
 1\1\GINC-SE186\SP\RHF\Aug-CC-pVDZ\C1H6P2\OHZDE\08-Apr-2025\0\\#t hf au
 g-cc-pvdz iop(5/13=1,5/36=2,99/5=2) pseudo=read geom=check guess=(read
 ,tcheck) scf=(maxcycle=1)\\title\\0,1\P,0,-1.417833,0.331441,-0.096874
 \P,0,0.562684,-0.733394,0.126841\C,0,1.700168,0.740779,-0.036498\H,0,1
 .430844,1.411617,-0.853482\H,0,2.717797,0.374715,-0.193116\H,0,1.69069
 ,1.300814,0.901362\H,0,0.587337,-1.116571,-1.241432\H,0,-1.630139,0.48
 6765,1.299545\H,0,-2.170306,-0.872724,-0.143385\\Version=ES64L-G16RevC
 .01\State=1-A\HF=-722.8919687\RMSD=1.153e-02\Dipole=0.229003,0.1541025

 Normal termination of Gaussian 16 at Tue Apr  8 23:39:11 2025.
