 Gaussian 16, Revision C.01,

 ----------------------------------------------------------------------
 #t hf aug-cc-pvdz symm=none int=(grid=ultrafine) guess=(read,tcheck) s
 table=(opt,rrhf)
 ----------------------------------------------------------------------
 -----
 title
 -----
 Symbolic Z-matrix:
 Charge =  0 Multiplicity = 1

 SCF Done:  E(RHF) =  -271.219912313     A.U. after   12 cycles

 1\1\GINC-SE074\Stability\RHF\Aug-CC-pVDZ\C5H12O1\OHZDE\08-Apr-2025\0\\
 #t hf aug-cc-pvdz symm=none int=(grid=ultrafine) guess=(read,tcheck) s
 table=(opt,rrhf)\\title\\0,1\C,0,2.229983,-0.838166,-0.166316\C,0,0.82
 8051,-0.67804,0.429769\C,0,-0.044899,0.386544,-0.257367\H,0,0.907045,-
 0.431144,1.496666\H,0,0.298483,-1.633125,0.37527\C,0,-1.510028,0.26494
 7,0.186123\O,0,-2.087047,-1.009814,-0.087241\H,0,-2.103403,1.066574,-0
 .276717\H,0,-1.582143,0.390256,1.270807\H,0,-2.092723,-1.128729,-1.042
 357\H,0,2.826223,0.073659,-0.073185\H,0,2.178913,-1.093437,-1.229903\H

 Normal termination of Gaussian 16 at Tue Apr  8 22:30:51 2025.
 Gaussian 16:  ES64L-G16RevC.01  3-Jul-2019

 ----------------------------------------------------------------------
 #t hf aug-cc-pvdz iop(5/13=1,5/36=2,99/5=2) pseudo=read geom=check gue
 ss=(read,tcheck) scf=(maxcycle=1)
 ----------------------------------------------------------------------
 -----
 title
 -----
 Structure from the checkpoint file:  "BDE49_expt_1060_mol1.chk"
 Charge =  0 Multiplicity = 1

                         Standard orientation:
 ---------------------------------------------------------------------
 Center     Atomic      Atomic             Coordinates (Angstroms)
 Number     Number       Type             X           Y           Z
 ---------------------------------------------------------------------
      1          6           0        2.229983   -0.838166   -0.166316
      2          6           0        0.828051   -0.678040    0.429769
      3          6           0       -0.044899    0.386544   -0.257367
      4          1           0        0.907045   -0.431144    1.496666
      5          1           0        0.298483   -1.633125    0.375270
      6          6           0       -1.510028    0.264947    0.186123
      7          8           0       -2.087047   -1.009814   -0.087241
      8          1           0       -2.103403    1.066574   -0.276717
      9          1           0       -1.582143    0.390256    1.270807
     10          1           0       -2.092723   -1.128729   -1.042357
     11          1           0        2.826223    0.073659   -0.073185
     12          1           0        2.178913   -1.093437   -1.229903
     13          1           0        2.778512   -1.638574    0.337592
     14          6           0        0.456067    1.817219   -0.018481
     15          1           0       -0.020048    0.194672   -1.341981
     16          1           0        0.444813    2.059463    1.049780
     17          1           0       -0.172545    2.550588   -0.532626
     18          1           0        1.478201    1.953283   -0.377791
 ---------------------------------------------------------------------

 SCF Done:  E(RHF) =  -271.307173041     A.U. after    2 cycles

 The electronic state is 1-A.
 Alpha  occ. eigenvalues --  -20.56941 -11.28186 -11.23676 -11.22705 -11.22345
 Alpha  occ. eigenvalues --  -11.22198  -1.31759  -1.07800  -0.98585  -0.91589
 Alpha  occ. eigenvalues --   -0.85632  -0.77823  -0.68905  -0.64264  -0.62809
 Alpha  occ. eigenvalues --   -0.60057  -0.58593  -0.55454  -0.53946  -0.51038
 Alpha  occ. eigenvalues --   -0.50819  -0.49413  -0.46511  -0.45429  -0.43595
 Alpha virt. eigenvalues --    0.03415   0.04275   0.04402   0.04892   0.06431
 Alpha virt. eigenvalues --    0.06721   0.06805   0.07099   0.07524   0.09154
 Alpha virt. eigenvalues --    0.09504   0.09890   0.13247   0.13871   0.14128

 Mulliken charges:
               1
     1  C    0.390252
     2  C    0.620040
     3  C   -1.454248
     4  H   -0.113710
     5  H   -0.112810
     6  C    1.247045
     7  O   -0.579187
     8  H   -0.095319
     9  H   -0.118995
    10  H    0.156043
    11  H   -0.118211
    12  H   -0.061132
    13  H   -0.061054
    14  C    0.681915
    15  H   -0.209458
    16  H   -0.009826
    17  H   -0.060534
    18  H   -0.100810
 Sum of Mulliken charges =   0.00000

 Dipole moment (field-independent basis, Debye):
    X=              0.7627    Y=              1.1455    Z=             -1.1937  Tot=              1.8218

 Test job not archived.
 1\1\GINC-SE074\SP\RHF\Aug-CC-pVDZ\C5H12O1\OHZDE\08-Apr-2025\0\\#t hf a
 ug-cc-pvdz iop(5/13=1,5/36=2,99/5=2) pseudo=read geom=check guess=(rea
 d,tcheck) scf=(maxcycle=1)\\title\\0,1\C,0,2.229983,-0.838166,-0.16631
 6\C,0,0.828051,-0.67804,0.429769\C,0,-0.044899,0.386544,-0.257367\H,0,
 0.907045,-0.431144,1.496666\H,0,0.298483,-1.633125,0.37527\C,0,-1.5100
 28,0.264947,0.186123\O,0,-2.087047,-1.009814,-0.087241\H,0,-2.103403,1
 .066574,-0.276717\H,0,-1.582143,0.390256,1.270807\H,0,-2.092723,-1.128
 729,-1.042357\H,0,2.826223,0.073659,-0.073185\H,0,2.178913,-1.093437,-

 Normal termination of Gaussian 16 at Tue Apr  8 22:30:57 2025.
