 Gaussian 16, Revision C.01,

 ----------------------------------------------------------------------
 #t hf aug-cc-pvdz symm=none int=(grid=ultrafine) guess=(read,tcheck) s
 table=(opt,rrhf)
 ----------------------------------------------------------------------
 -----
 title
 -----
 Symbolic Z-matrix:
 Charge =  0 Multiplicity = 1

 SCF Done:  E(RHF) =  -1148.57119956     A.U. after   14 cycles

 1\1\GINC-SE184\Stability\RHF\Aug-CC-pVDZ\C6H4Cl2\OHZDE\08-Apr-2025\0\\
 #t hf aug-cc-pvdz symm=none int=(grid=ultrafine) guess=(read,tcheck) s
 table=(opt,rrhf)\\title\\0,1\C,0,0.,1.193368,-0.00081\C,0,0.,1.211747,
 1.390258\C,0,0.,0.,2.076225\C,0,0.,-1.211747,1.390258\C,0,0.,-1.193368
 ,-0.00081\C,0,0.,0.,-0.715888\Cl,0,0.,2.708947,-0.883524\H,0,0.,0.,3.1
 59841\H,0,0.,-2.15453,1.920617\H,0,0.,2.15453,1.920617\Cl,0,0.,-2.7089
 47,-0.883524\H,0,0.,0.,-1.796643\\Version=ES64L-G16RevC.01\HF=-1148.57
 11996\RMSD=9.457e-09\Dipole=0.,0.,0.7598921\Quadrupole=-2.7040909,-2.3

 Normal termination of Gaussian 16 at Tue Apr  8 22:47:46 2025.
 Gaussian 16:  ES64L-G16RevC.01  3-Jul-2019

 ----------------------------------------------------------------------
 #t hf aug-cc-pvdz iop(5/13=1,5/36=2,99/5=2) pseudo=read geom=check gue
 ss=(read,tcheck) scf=(maxcycle=1)
 ----------------------------------------------------------------------
 -----
 title
 -----
 Structure from the checkpoint file:  "BDE49_expt_1673_mol1.chk"
 Charge =  0 Multiplicity = 1

                         Standard orientation:
 ---------------------------------------------------------------------
 Center     Atomic      Atomic             Coordinates (Angstroms)
 Number     Number       Type             X           Y           Z
 ---------------------------------------------------------------------
      1          6           0        0.000000    1.193368   -0.000810
      2          6           0        0.000000    1.211747    1.390258
      3          6           0        0.000000   -0.000000    2.076225
      4          6           0       -0.000000   -1.211747    1.390258
      5          6           0       -0.000000   -1.193368   -0.000810
      6          6           0       -0.000000    0.000000   -0.715888
      7         17           0        0.000000    2.708947   -0.883524
      8          1           0        0.000000   -0.000000    3.159841
      9          1           0        0.000000   -2.154530    1.920617
     10          1           0        0.000000    2.154530    1.920617
     11         17           0       -0.000000   -2.708947   -0.883524
     12          1           0       -0.000000    0.000000   -1.796643
 ---------------------------------------------------------------------

 SCF Done:  E(RHF) =  -1148.67545719     A.U. after    2 cycles

 The electronic state is 1-A1.
 Alpha  occ. eigenvalues -- -103.67690-103.67689 -11.33081 -11.33081 -11.27765
 Alpha  occ. eigenvalues --  -11.27686 -11.27299 -11.27281 -10.70960 -10.70959
 Alpha  occ. eigenvalues --   -8.36697  -8.36696  -8.36388  -8.36386  -8.36370
 Alpha  occ. eigenvalues --   -8.36370  -1.22203  -1.19256  -1.13192  -1.03421
 Alpha  occ. eigenvalues --   -1.01310  -0.86099  -0.83413  -0.72727  -0.68380
 Alpha  occ. eigenvalues --   -0.65691  -0.61872  -0.61083  -0.57657  -0.54366
 Alpha  occ. eigenvalues --   -0.53755  -0.52268  -0.48240  -0.47499  -0.47281
 Alpha  occ. eigenvalues --   -0.36548  -0.35379
 Alpha virt. eigenvalues --    0.03163   0.04474   0.04664   0.06000   0.07983
 Alpha virt. eigenvalues --    0.08154   0.08397   0.09421   0.10703   0.10995
 Alpha virt. eigenvalues --    0.12946   0.13221   0.13504   0.13534   0.14970

 Mulliken charges:
               1
     1  C   -0.073985
     2  C    0.384156
     3  C    0.841586
     4  C    0.384156
     5  C   -0.073985
     6  C    0.894804
     7  Cl  -0.374851
     8  H   -0.407751
     9  H   -0.419888
    10  H   -0.419888
    11  Cl  -0.374851
    12  H   -0.359502
 Sum of Mulliken charges =  -0.00000

 Dipole moment (field-independent basis, Debye):
    X=             -0.0000    Y=              0.0000    Z=              2.0119  Tot=              2.0119

 Test job not archived.
 1\1\GINC-SE184\SP\RHF\Aug-CC-pVDZ\C6H4Cl2\OHZDE\08-Apr-2025\0\\#t hf a
 ug-cc-pvdz iop(5/13=1,5/36=2,99/5=2) pseudo=read geom=check guess=(rea
 d,tcheck) scf=(maxcycle=1)\\title\\0,1\C,0,0.,1.193368,-0.00081\C,0,0.
 ,1.211747,1.390258\C,0,0.,0.,2.076225\C,0,0.,-1.211747,1.390258\C,0,0.
 ,-1.193368,-0.00081\C,0,0.,0.,-0.715888\Cl,0,0.,2.708947,-0.883524\H,0
 ,0.,0.,3.159841\H,0,0.,-2.15453,1.920617\H,0,0.,2.15453,1.920617\Cl,0,
 0.,-2.708947,-0.883524\H,0,0.,0.,-1.796643\\Version=ES64L-G16RevC.01\S
 tate=1-A1\HF=-1148.6754572\RMSD=1.369e-02\Dipole=0.,0.,0.7915588\Quadr

 Normal termination of Gaussian 16 at Tue Apr  8 22:47:51 2025.
