 Gaussian 16, Revision C.01,

 ----------------------------------------------------------------------
 #t hf aug-cc-pvdz symm=none int=(grid=ultrafine) guess=(read,tcheck) s
 table=(opt,rrhf)
 ----------------------------------------------------------------------
 -----
 title
 -----
 Symbolic Z-matrix:
 Charge =  0 Multiplicity = 1

 SCF Done:  E(RHF) =  -632.575685624     A.U. after   11 cycles

 1\1\GINC-SE159\Stability\RHF\Aug-CC-pVDZ\H5P1Si1\OHZDE\08-Apr-2025\0\\
 #t hf aug-cc-pvdz symm=none int=(grid=ultrafine) guess=(read,tcheck) s
 table=(opt,rrhf)\\title\\0,1\Si,0,1.103335,0.,0.006962\P,0,-1.173519,0
 .,-0.118657\H,0,-1.332541,1.035897,0.839568\H,0,-1.332541,-1.035897,0.
 839568\H,0,1.598425,1.206316,-0.695219\H,0,1.598425,-1.206316,-0.69521
 9\H,0,1.62432,0.,1.393686\\Version=ES64L-G16RevC.01\HF=-632.5756856\RM
 SD=5.756e-09\Dipole=0.1619303,0.,0.281282\Quadrupole=-0.7324874,1.0266
 73,-0.2941856,0.,-1.2124313,0.\PG=Unknown\\@

 Normal termination of Gaussian 16 at Tue Apr  8 23:41:08 2025.
 Gaussian 16:  ES64L-G16RevC.01  3-Jul-2019

 ----------------------------------------------------------------------
 #t hf aug-cc-pvdz iop(5/13=1,5/36=2,99/5=2) pseudo=read geom=check gue
 ss=(read,tcheck) scf=(maxcycle=1)
 ----------------------------------------------------------------------
 -----
 title
 -----
 Structure from the checkpoint file:  "BDE49_nonexpt_1670_mol1.chk"
 Charge =  0 Multiplicity = 1

                         Standard orientation:
 ---------------------------------------------------------------------
 Center     Atomic      Atomic             Coordinates (Angstroms)
 Number     Number       Type             X           Y           Z
 ---------------------------------------------------------------------
      1         14           0       -0.053829    1.102043    0.000000
      2         15           0       -0.053829   -1.178273    0.000000
      3          1           0        0.911701   -1.284267    1.035897
      4          1           0        0.911701   -1.284267   -1.035897
      5          1           0       -0.782218    1.557699    1.206316
      6          1           0       -0.782218    1.557699   -1.206316
      7          1           0        1.302089    1.698630    0.000000
 ---------------------------------------------------------------------

 SCF Done:  E(RHF) =  -632.617133119     A.U. after    2 cycles

 The electronic state is 1-A'.
 Alpha  occ. eigenvalues --  -81.25308 -69.07738  -7.75853  -6.82989  -4.89757
 Alpha  occ. eigenvalues --   -4.89681  -4.89471  -3.93748  -3.93731  -3.93717
 Alpha  occ. eigenvalues --   -0.80858  -0.68602  -0.53020  -0.49799  -0.48102
 Alpha  occ. eigenvalues --   -0.43649  -0.35860
 Alpha virt. eigenvalues --    0.03480   0.04627   0.06080   0.06506   0.07843
 Alpha virt. eigenvalues --    0.08656   0.09065   0.09384   0.10981   0.11172
 Alpha virt. eigenvalues --    0.12509   0.15479   0.16042   0.17959   0.18498

 Mulliken charges:
               1
     1  Si   0.393562
     2  P   -0.502984
     3  H    0.147062
     4  H    0.147062
     5  H   -0.070130
     6  H   -0.070130
     7  H   -0.044444
 Sum of Mulliken charges =   0.00000

 Dipole moment (field-independent basis, Debye):
    X=              0.5717    Y=              0.3200    Z=             -0.0000  Tot=              0.6552

 Test job not archived.
 1\1\GINC-SE159\SP\RHF\Aug-CC-pVDZ\H5P1Si1\OHZDE\08-Apr-2025\0\\#t hf a
 ug-cc-pvdz iop(5/13=1,5/36=2,99/5=2) pseudo=read geom=check guess=(rea
 d,tcheck) scf=(maxcycle=1)\\title\\0,1\Si,0,1.103335,0.,0.006962\P,0,-
 1.173519,0.,-0.118657\H,0,-1.332541,1.035897,0.839568\H,0,-1.332541,-1
 .035897,0.839568\H,0,1.598425,1.206316,-0.695219\H,0,1.598425,-1.20631
 6,-0.695219\H,0,1.62432,0.,1.393686\\Version=ES64L-G16RevC.01\State=1-
 A'\HF=-632.6171331\RMSD=1.122e-02\Dipole=0.113311,0.,0.2315212\Quadrup
 ole=-0.7153823,1.0303478,-0.3149655,0.,-1.1192615,0.\PG=CS [SG(H1P1Si1

 Normal termination of Gaussian 16 at Tue Apr  8 23:41:10 2025.
