 Gaussian 16, Revision C.01,

 ----------------------------------------------------------------------
 #t hf aug-cc-pvdz symm=none int=(grid=ultrafine) guess=(read,tcheck) s
 table=opt
 ----------------------------------------------------------------------
 -----
 title
 -----
 Symbolic Z-matrix:
 Charge =  0 Multiplicity = 2

 SCF Done:  E(UHF) =  -423.340847415     A.U. after   15 cycles
 Normal termination of Gaussian 16 at Wed Apr  9 00:33:14 2025.
 Gaussian 16:  ES64L-G16RevC.01  3-Jul-2019

 ----------------------------------------------------------------------
 #t hf aug-cc-pvdz iop(5/13=1,5/36=2,99/5=2) pseudo=read geom=check gue
 ss=(read,tcheck) scf=(maxcycle=1)
 ----------------------------------------------------------------------
 -----
 title
 -----
 Structure from the checkpoint file:  "BDE49_nonexpt_449_mol2.chk"
 Charge =  0 Multiplicity = 2

                         Standard orientation:
 ---------------------------------------------------------------------
 Center     Atomic      Atomic             Coordinates (Angstroms)
 Number     Number       Type             X           Y           Z
 ---------------------------------------------------------------------
      1          1           0       -2.114194    0.654688    0.000003
      2         16           0        0.482037   -0.069581   -0.000002
      3          5           0       -1.259912   -0.163097    0.000004
      4          1           0        0.701168    1.274084    0.000000
 ---------------------------------------------------------------------

 SCF Done:  E(UHF) =  -423.368136144     A.U. after    2 cycles

 The electronic state is 2-A.
 Alpha  occ. eigenvalues --  -93.55575  -8.85569  -7.66797  -6.19652  -6.19425
 Alpha  occ. eigenvalues --   -6.19194  -0.98960  -0.67657  -0.59052  -0.47377
 Alpha  occ. eigenvalues --   -0.40996  -0.34693
 Alpha virt. eigenvalues --    0.03882   0.04617   0.05557   0.05721   0.08885
 Alpha virt. eigenvalues --    0.09357   0.11430   0.11935   0.15087   0.16830
 Alpha virt. eigenvalues --    0.17744   0.21643   0.23129   0.26217   0.28780

  Beta  occ. eigenvalues --  -93.55635  -8.85605  -7.64851  -6.19833  -6.19500
  Beta  occ. eigenvalues --   -6.19354  -0.98140  -0.62963  -0.57327  -0.46598
  Beta  occ. eigenvalues --   -0.41176
  Beta virt. eigenvalues --    0.03570   0.04805   0.05305   0.05703   0.08150
  Beta virt. eigenvalues --    0.09928   0.11355   0.11696   0.14060   0.15382
  Beta virt. eigenvalues --    0.17317   0.18865   0.22332   0.24082   0.27585

 Mulliken charges and spin densities:
               1          2
     1  H    0.311651  -0.028760
     2  S   -0.081078  -0.136104
     3  B   -0.261473   1.082577
     4  H    0.030900   0.082287
 Sum of Mulliken charges =  -0.00000   1.00000

 Dipole moment (field-independent basis, Debye):
    X=              0.0831    Y=              1.3052    Z=              0.0000  Tot=              1.3079
                          Isotropic Fermi Contact Couplings
        Atom                 a.u.       MegaHertz       Gauss      10(-4) cm-1
     1  H(1)               0.00110       4.91427       1.75353       1.63922
     2  S(33)              0.12461      42.79983      15.27204      14.27649
     3  B(11)              0.28447     408.03979     145.59874     136.10742
     4  H(1)               0.02812     125.67989      44.84571      41.92230
 --------------------------------------------------------
       Center         ----  Spin Dipole Couplings  ----
                      3XX-RR        3YY-RR        3ZZ-RR
 --------------------------------------------------------

 Normal termination of Gaussian 16 at Wed Apr  9 00:33:15 2025.
