 Gaussian 16, Revision C.01,

 ----------------------------------------------------------------------
 #t hf aug-cc-pvdz symm=none int=(grid=ultrafine) guess=(read,tcheck) s
 table=(opt,rrhf)
 ----------------------------------------------------------------------
 -----
 title
 -----
 Symbolic Z-matrix:
 Charge =  0 Multiplicity = 1

 SCF Done:  E(RHF) =  -645.270075483     A.U. after   13 cycles
 Normal termination of Gaussian 16 at Tue Apr  8 23:27:08 2025.
 Gaussian 16:  ES64L-G16RevC.01  3-Jul-2019

 ----------------------------------------------------------------------
 #t hf aug-cc-pvdz iop(5/13=1,5/36=2,99/5=2) pseudo=read geom=check gue
 ss=(read,tcheck) scf=(maxcycle=1)
 ----------------------------------------------------------------------
 -----
 title
 -----
 Structure from the checkpoint file:  "BDE49_nonexpt_1328_mol1.chk"
 Charge =  0 Multiplicity = 1

                         Standard orientation:
 ---------------------------------------------------------------------
 Center     Atomic      Atomic             Coordinates (Angstroms)
 Number     Number       Type             X           Y           Z
 ---------------------------------------------------------------------
      1          6           0       -1.125310    0.823028   -0.162657
      2         15           0        0.436306   -0.032571    0.099976
      3          8           0        0.708094   -0.650061    1.408420
      4          8           0        0.454279   -1.091967   -1.118019
      5          6           0       -2.343758   -0.073174    0.092906
      6          1           0       -1.116974    1.208263   -1.186485
      7          1           0       -1.119101    1.687113    0.507503
      8          1           0       -2.356669   -0.919028   -0.597115
      9          1           0       -3.267969    0.492055   -0.045265
     10          1           0       -2.332369   -0.465439    1.111685
     11          8           0        1.500798    1.102445   -0.319128
     12          1           0        2.310241    1.032033    0.201226
     13          1           0        0.847296   -1.928898   -0.842866
 ---------------------------------------------------------------------

 SCF Done:  E(RHF) =  -645.433478602     A.U. after    2 cycles

 The electronic state is 1-A.
 Alpha  occ. eigenvalues --  -81.41013 -20.61122 -20.61025 -20.52278 -11.25725
 Alpha  occ. eigenvalues --  -11.24370  -7.89445  -5.04086  -5.03997  -5.03678
 Alpha  occ. eigenvalues --   -1.37326  -1.34351  -1.25461  -1.04769  -0.89453
 Alpha  occ. eigenvalues --   -0.81439  -0.75239  -0.68562  -0.66140  -0.64558
 Alpha  occ. eigenvalues --   -0.63005  -0.59382  -0.56737  -0.55549  -0.53502
 Alpha  occ. eigenvalues --   -0.51994  -0.51551  -0.48397  -0.46172
 Alpha virt. eigenvalues --    0.03169   0.04291   0.04677   0.05664   0.06285
 Alpha virt. eigenvalues --    0.07338   0.07846   0.10234   0.11729   0.12259
 Alpha virt. eigenvalues --    0.13347   0.14254   0.15248   0.15661   0.16728

 Mulliken charges:
               1
     1  C   -0.154048
     2  P    2.319360
     3  O   -0.914213
     4  O   -0.751530
     5  C    0.274080
     6  H   -0.084474
     7  H   -0.095860
     8  H   -0.065702
     9  H   -0.061138
    10  H   -0.066480
    11  O   -0.720170
    12  H    0.151109
    13  H    0.169068
 Sum of Mulliken charges =  -0.00000

 Dipole moment (field-independent basis, Debye):
    X=             -0.3919    Y=              0.5776    Z=             -1.5258  Tot=              1.6779

 Test job not archived.
 1\1\GINC-SE127\SP\RHF\Aug-CC-pVDZ\C2H7O3P1\OHZDE\08-Apr-2025\0\\#t hf
 aug-cc-pvdz iop(5/13=1,5/36=2,99/5=2) pseudo=read geom=check guess=(re
 ad,tcheck) scf=(maxcycle=1)\\title\\0,1\C,0,1.12531,-0.823028,-0.16265
 7\P,0,-0.436306,0.032571,0.099976\O,0,-0.708094,0.650061,1.40842\O,0,-
 0.454279,1.091967,-1.118019\C,0,2.343758,0.073173,0.092906\H,0,1.11697
 4,-1.208263,-1.186485\H,0,1.119101,-1.687113,0.507503\H,0,2.356669,0.9
 19027,-0.597115\H,0,3.267969,-0.492056,-0.045265\H,0,2.332369,0.465438
 ,1.111685\O,0,-1.500798,-1.102445,-0.319128\H,0,-2.310241,-1.032033,0.

 Normal termination of Gaussian 16 at Tue Apr  8 23:27:12 2025.
