 Gaussian 16, Revision C.01,

 ----------------------------------------------------------------------
 #t hf aug-cc-pvdz symm=none int=(grid=ultrafine) guess=(read,tcheck) s
 table=(opt,rrhf)
 ----------------------------------------------------------------------
 -----
 title
 -----
 Symbolic Z-matrix:
 Charge =  0 Multiplicity = 1

 SCF Done:  E(RHF) =  -520.208424294     A.U. after   13 cycles
 Normal termination of Gaussian 16 at Tue Apr  8 22:50:22 2025.
 Gaussian 16:  ES64L-G16RevC.01  3-Jul-2019

 ----------------------------------------------------------------------
 #t hf aug-cc-pvdz iop(5/13=1,5/36=2,99/5=2) pseudo=read geom=check gue
 ss=(read,tcheck) scf=(maxcycle=1)
 ----------------------------------------------------------------------
 -----
 title
 -----
 Structure from the checkpoint file:  "BDE49_expt_1439_mol1.chk"
 Charge =  0 Multiplicity = 1

                         Standard orientation:
 ---------------------------------------------------------------------
 Center     Atomic      Atomic             Coordinates (Angstroms)
 Number     Number       Type             X           Y           Z
 ---------------------------------------------------------------------
      1          7           0        0.000082    0.482989   -0.271120
      2          6           0        1.292469   -0.214858    0.022919
      3          6           0        1.247214   -1.582755   -0.692340
      4          6           0       -0.000412   -2.401069   -0.363061
      5          1           0        2.157625   -2.133223   -0.434278
      6          1           0        1.276839   -1.406086   -1.773525
      7          6           0       -1.247757   -1.582328   -0.692342
      8          1           0       -0.000464   -2.699570    0.690125
      9          1           0       -0.000570   -3.329844   -0.942446
     10          6           0       -1.292545   -0.214416    0.022918
     11          1           0       -2.158356   -2.132485   -0.434282
     12          1           0       -1.277320   -1.405649   -1.773527
     13          6           0       -1.619833   -0.377822    1.524807
     14          1           0       -2.670456   -0.659481    1.639682
     15          1           0       -1.462253    0.566453    2.046989
     16          1           0       -1.021296   -1.145772    2.013001
     17          6           0       -2.418764    0.619809   -0.615175
     18          1           0       -2.195283    0.827102   -1.663917
     19          1           0       -2.556777    1.566206   -0.089399
     20          1           0       -3.362062    0.068857   -0.563914
     21          6           0        2.418971    0.618982   -0.615174
     22          1           0        3.362083    0.067713   -0.563905
     23          1           0        2.557302    1.565336   -0.089403
     24          1           0        2.195565    0.826345   -1.663918
     25          6           0        1.619698   -0.378374    1.524809
     26          1           0        1.020900   -1.146119    2.013003
     27          1           0        1.462442    0.565956    2.046989
     28          1           0        2.670226   -0.660392    1.639685
     29          8           0        0.000296    1.731375    0.454160
     30          6           0        0.000500    2.844332   -0.434774
     31          1           0       -0.889399    2.859105   -1.069368
     32          1           0        0.890387    2.858758   -1.069393
     33          1           0        0.000680    3.725863    0.210824
 ---------------------------------------------------------------------

 SCF Done:  E(RHF) =  -520.366813316     A.U. after    2 cycles

 The electronic state is 1-A.
 Alpha  occ. eigenvalues --  -20.58590 -15.65627 -11.27305 -11.26915 -11.26906
 Alpha  occ. eigenvalues --  -11.22635 -11.22529 -11.22510 -11.21480 -11.21478
 Alpha  occ. eigenvalues --  -11.21192 -11.21191  -1.34643  -1.15324  -1.07394
 Alpha  occ. eigenvalues --   -1.03507  -0.97351  -0.93219  -0.91555  -0.91259
 Alpha  occ. eigenvalues --   -0.89176  -0.81708  -0.78269  -0.71129  -0.66425
 Alpha  occ. eigenvalues --   -0.66075  -0.64393  -0.62489  -0.60606  -0.59281
 Alpha  occ. eigenvalues --   -0.58025  -0.57095  -0.56436  -0.56308  -0.54729
 Alpha  occ. eigenvalues --   -0.52808  -0.52568  -0.51472  -0.51283  -0.50631
 Alpha  occ. eigenvalues --   -0.49878  -0.48306  -0.46031  -0.46023  -0.45151
 Alpha  occ. eigenvalues --   -0.42908  -0.42456  -0.35774
 Alpha virt. eigenvalues --    0.03442   0.03941   0.03944   0.04247   0.05681
 Alpha virt. eigenvalues --    0.05917   0.06033   0.06071   0.06474   0.07768
 Alpha virt. eigenvalues --    0.07932   0.08139   0.08348   0.08502   0.08624

 Mulliken charges:
               1
     1  N   -0.179110
     2  C   -3.663891
     3  C    1.305522
     4  C    0.276163
     5  H   -0.087092
     6  H   -0.049212
     7  C    1.305520
     8  H   -0.082641
     9  H   -0.078827
    10  C   -3.663892
    11  H   -0.087095
    12  H   -0.049211
    13  C    1.138762
    14  H   -0.009209
    15  H    0.108793
    16  H   -0.037526
    17  C    1.610126
    18  H   -0.024061
    19  H    0.078215
    20  H   -0.073987
    21  C    1.610127
    22  H   -0.073994
    23  H    0.078217
    24  H   -0.024064
    25  C    1.138754
    26  H   -0.037530
    27  H    0.108796
    28  H   -0.009206
    29  O   -0.823672
    30  C    0.937962
    31  H   -0.217229
    32  H   -0.217235
    33  H   -0.208274
 Sum of Mulliken charges =   0.00000

 Dipole moment (field-independent basis, Debye):
    X=             -0.0001    Y=             -0.4911    Z=             -0.6012  Tot=              0.7763

 Test job not archived.
 1\1\GINC-SE058\SP\RHF\Aug-CC-pVDZ\C10H21N1O1\OHZDE\08-Apr-2025\0\\#t h
 f aug-cc-pvdz iop(5/13=1,5/36=2,99/5=2) pseudo=read geom=check guess=(
 read,tcheck) scf=(maxcycle=1)\\title\\0,1\N,0,0.000086,0.482989,-0.271
 12\C,0,1.292467,-0.21487,0.022919\C,0,1.247199,-1.582766,-0.69234\C,0,
 -0.000434,-2.401069,-0.363061\H,0,2.157605,-2.133243,-0.434278\H,0,1.2
 76826,-1.406098,-1.773525\C,0,-1.247772,-1.582316,-0.692342\H,0,-0.000
 489,-2.69957,0.690125\H,0,-0.000601,-3.329844,-0.942446\C,0,-1.292547,
 -0.214404,0.022918\H,0,-2.158376,-2.132465,-0.434282\H,0,-1.277333,-1.

 Normal termination of Gaussian 16 at Tue Apr  8 22:51:02 2025.
