 Gaussian 16, Revision C.01,

 ----------------------------------------------------------------------
 #t hf aug-cc-pvdz symm=none int=(grid=ultrafine) guess=(read,tcheck) s
 table=(opt,rrhf)
 ----------------------------------------------------------------------
 -----
 title
 -----
 Symbolic Z-matrix:
 Charge =  0 Multiplicity = 1

 SCF Done:  E(RHF) =  -725.828152407     A.U. after   11 cycles
 Normal termination of Gaussian 16 at Tue Apr  8 23:48:17 2025.
 Gaussian 16:  ES64L-G16RevC.01  3-Jul-2019

 ----------------------------------------------------------------------
 #t hf aug-cc-pvdz iop(5/13=1,5/36=2,99/5=2) pseudo=read geom=check gue
 ss=(read,tcheck) scf=(maxcycle=1)
 ----------------------------------------------------------------------
 -----
 title
 -----
 Structure from the checkpoint file:  "BDE49_nonexpt_1838_mol1.chk"
 Charge =  0 Multiplicity = 1

                         Standard orientation:
 ---------------------------------------------------------------------
 Center     Atomic      Atomic             Coordinates (Angstroms)
 Number     Number       Type             X           Y           Z
 ---------------------------------------------------------------------
      1         14           0        1.097222    0.598547   -0.000001
      2          6           0       -0.715359   -0.033590   -0.000001
      3          9           0       -1.565784    1.027452   -0.000005
      4          9           0        2.062394   -0.680739    0.000004
      5          9           0       -1.009004   -0.780316    1.089486
      6          1           0        1.311797    1.373606    1.231275
      7          9           0       -1.009001   -0.780322   -1.089483
      8          1           0        1.311800    1.373598   -1.231280
 ---------------------------------------------------------------------

 SCF Done:  E(RHF) =  -726.018532429     A.U. after    2 cycles

 The electronic state is 1-A.
 Alpha  occ. eigenvalues --  -69.15875 -26.17229 -26.17087 -26.17077 -26.13828
 Alpha  occ. eigenvalues --  -11.51447  -6.90581  -4.01516  -4.01357  -4.01294
 Alpha  occ. eigenvalues --   -1.76133  -1.69332  -1.69308  -1.66517  -1.03091
 Alpha  occ. eigenvalues --   -0.88527  -0.87810  -0.87794  -0.82020  -0.77640
 Alpha  occ. eigenvalues --   -0.77635  -0.75069  -0.74896  -0.73315  -0.73242
 Alpha  occ. eigenvalues --   -0.72197  -0.66862  -0.53316  -0.52962
 Alpha virt. eigenvalues --    0.03723   0.04848   0.05420   0.05805   0.08554
 Alpha virt. eigenvalues --    0.09438   0.11207   0.11806   0.13393   0.14402
 Alpha virt. eigenvalues --    0.16117   0.18708   0.20685   0.21290   0.24426

 Mulliken charges:
               1
     1  Si   1.197867
     2  C    0.727245
     3  F   -0.357652
     4  F   -0.748897
     5  F   -0.350173
     6  H   -0.059109
     7  F   -0.350171
     8  H   -0.059109
 Sum of Mulliken charges =   0.00000

 Dipole moment (field-independent basis, Debye):
    X=              1.5774    Y=              2.1484    Z=             -0.0000  Tot=              2.6653

 Test job not archived.
 1\1\GINC-SE331\SP\RHF\Aug-CC-pVDZ\C1H2F4Si1\OHZDE\08-Apr-2025\0\\#t hf
  aug-cc-pvdz iop(5/13=1,5/36=2,99/5=2) pseudo=read geom=check guess=(r
 ead,tcheck) scf=(maxcycle=1)\\title\\0,1\Si,0,1.097222,0.598547,-0.000
 001\C,0,-0.715359,-0.03359,-0.000001\F,0,-1.565784,1.027452,-0.000005\
 F,0,2.062394,-0.680739,0.000004\F,0,-1.009004,-0.780316,1.089486\H,0,1
 .311797,1.373606,1.231275\F,0,-1.009001,-0.780322,-1.089483\H,0,1.3118
 ,1.373598,-1.23128\\Version=ES64L-G16RevC.01\State=1-A\HF=-726.0185324
 \RMSD=5.908e-03\Dipole=0.6205993,0.8452386,-0.000005\Quadrupole=-1.495

 Normal termination of Gaussian 16 at Tue Apr  8 23:48:19 2025.
