 Gaussian 16, Revision C.01,

 ----------------------------------------------------------------------
 #t hf aug-cc-pvdz symm=none int=(grid=ultrafine) guess=(read,tcheck) s
 table=opt
 ----------------------------------------------------------------------
 -----
 title
 -----
 Symbolic Z-matrix:
 Charge =  0 Multiplicity = 2

 SCF Done:  E(UHF) =  -420.329245321     A.U. after   16 cycles

 1\1\GINC-SE364\Stability\UHF\Aug-CC-pVDZ\C5H11O3\OHZDE\08-Apr-2025\0\\
 #t hf aug-cc-pvdz symm=none int=(grid=ultrafine) guess=(read,tcheck) s
 table=opt\\title\\0,2\C,0,-0.257573,-1.240053,-0.796507\C,0,-0.762649,
 -0.001114,-0.013519\C,0,-2.256064,-0.005069,-0.007641\H,0,-2.815156,0.
 921063,0.05753\H,0,-2.810229,-0.934784,0.046422\C,0,-0.264571,1.305223
 ,-0.68361\O,0,1.162782,-1.404597,-0.762982\H,0,-0.612329,-1.180818,-1.
 833682\H,0,-0.676807,-2.14808,-0.354683\H,0,1.527454,-0.591436,-1.1463
 53\C,0,-0.263345,-0.066091,1.466121\O,0,1.155814,1.378569,-0.819341\H,

 Normal termination of Gaussian 16 at Tue Apr  8 22:41:10 2025.
 Gaussian 16:  ES64L-G16RevC.01  3-Jul-2019

 ----------------------------------------------------------------------
 #t hf aug-cc-pvdz iop(5/13=1,5/36=2,99/5=2) pseudo=read geom=check gue
 ss=(read,tcheck) scf=(maxcycle=1)
 ----------------------------------------------------------------------
 -----
 title
 -----
 Structure from the checkpoint file:  "BDE49_expt_1354_mol2.chk"
 Charge =  0 Multiplicity = 2

                         Standard orientation:
 ---------------------------------------------------------------------
 Center     Atomic      Atomic             Coordinates (Angstroms)
 Number     Number       Type             X           Y           Z
 ---------------------------------------------------------------------
      1          6           0       -0.257573   -1.240053   -0.796507
      2          6           0       -0.762649   -0.001114   -0.013519
      3          6           0       -2.256064   -0.005069   -0.007641
      4          1           0       -2.815156    0.921064    0.057530
      5          1           0       -2.810229   -0.934783    0.046422
      6          6           0       -0.264571    1.305223   -0.683610
      7          8           0        1.162782   -1.404597   -0.762982
      8          1           0       -0.612329   -1.180818   -1.833682
      9          1           0       -0.676807   -2.148080   -0.354683
     10          1           0        1.527454   -0.591436   -1.146353
     11          6           0       -0.263345   -0.066091    1.466121
     12          8           0        1.155814    1.378569   -0.819341
     13          1           0       -0.641377    2.167782   -0.116146
     14          1           0       -0.670415    1.373075   -1.695791
     15          1           0        1.509093    1.292130    0.080351
     16          8           0        1.157104    0.034582    1.599290
     17          1           0       -0.627707   -0.993276    1.926662
     18          1           0       -0.681607    0.771668    2.028316
     19          1           0        1.518690   -0.703137    1.082571
 ---------------------------------------------------------------------

 SCF Done:  E(UHF) =  -420.458078141     A.U. after    2 cycles

 The electronic state is 2-A.
 Alpha  occ. eigenvalues --  -20.57765 -20.57688 -20.57635 -11.29932 -11.29854
 Alpha  occ. eigenvalues --  -11.29806 -11.26230 -11.26119  -1.34749  -1.31855
 Alpha  occ. eigenvalues --   -1.31800  -1.10560  -0.93267  -0.92723  -0.92681
 Alpha  occ. eigenvalues --   -0.79635  -0.73013  -0.72898  -0.66912  -0.65013
 Alpha  occ. eigenvalues --   -0.64184  -0.62903  -0.59996  -0.59437  -0.58928
 Alpha  occ. eigenvalues --   -0.57852  -0.54350  -0.53161  -0.51367  -0.47725
 Alpha  occ. eigenvalues --   -0.45612  -0.43748  -0.37460
 Alpha virt. eigenvalues --    0.03096   0.04343   0.04617   0.04695   0.06415
 Alpha virt. eigenvalues --    0.06437   0.06829   0.06922   0.08169   0.08886
 Alpha virt. eigenvalues --    0.09343   0.12263   0.12601   0.12744   0.13983

  Beta  occ. eigenvalues --  -20.57758 -20.57629 -20.57619 -11.29776 -11.29736
  Beta  occ. eigenvalues --  -11.29704 -11.26543 -11.23681  -1.34643  -1.31809
  Beta  occ. eigenvalues --   -1.31646  -1.08787  -0.92585  -0.92132  -0.87323
  Beta  occ. eigenvalues --   -0.78515  -0.72910  -0.72624  -0.66751  -0.64539
  Beta  occ. eigenvalues --   -0.63677  -0.62286  -0.59507  -0.59213  -0.58790
  Beta  occ. eigenvalues --   -0.57135  -0.53852  -0.52981  -0.50505  -0.47584
  Beta  occ. eigenvalues --   -0.43869  -0.43707
  Beta virt. eigenvalues --    0.03191   0.04174   0.04366   0.04688   0.06400
  Beta virt. eigenvalues --    0.06452   0.06837   0.06936   0.07337   0.08889
  Beta virt. eigenvalues --    0.09338   0.09551   0.12294   0.12848   0.13481

 Mulliken charges and spin densities:
               1          2
     1  C    1.164874   0.031382
     2  C   -2.357365  -0.272933
     3  C    1.663220   1.414223
     4  H   -0.373801  -0.107750
     5  H   -0.376802  -0.111570
     6  C    1.156152   0.031618
     7  O   -0.648527   0.001711
     8  H   -0.093714  -0.001420
     9  H   -0.151332  -0.007148
    10  H    0.241060   0.000586
    11  C    1.085987   0.032792
    12  O   -0.647175   0.000766
    13  H   -0.101376  -0.006813
    14  H   -0.140649  -0.002735
    15  H    0.240334   0.000409
    16  O   -0.640628   0.015053
    17  H   -0.106543  -0.005736
    18  H   -0.154557  -0.011587
    19  H    0.240843  -0.000849
 Sum of Mulliken charges =  -0.00000   1.00000

 Dipole moment (field-independent basis, Debye):
    X=             -3.0414    Y=             -0.0431    Z=              0.0463  Tot=              3.0420
                          Isotropic Fermi Contact Couplings
        Atom                 a.u.       MegaHertz       Gauss      10(-4) cm-1
     1  C(13)              0.02031      22.83421       8.14782       7.61667
     2  C(13)             -0.05949     -66.87300     -23.86195     -22.30643
     3  C(13)              0.21634     243.20361      86.78110      81.12399
     4  H(1)              -0.02545    -113.75249     -40.58972     -37.94375
     5  H(1)              -0.02546    -113.80908     -40.60991     -37.96262
     6  C(13)              0.01737      19.52236       6.96606       6.51196
     7  O(17)             -0.00080       0.48500       0.17306       0.16178
     8  H(1)              -0.00074      -3.31037      -1.18122      -1.10422

 Normal termination of Gaussian 16 at Tue Apr  8 22:41:20 2025.
