 Gaussian 16, Revision C.01,

 ----------------------------------------------------------------------
 #t hf aug-cc-pvdz symm=none int=(grid=ultrafine) guess=(read,tcheck) s
 table=(opt,rrhf)
 ----------------------------------------------------------------------
 -----
 title
 -----
 Symbolic Z-matrix:
 Charge =  0 Multiplicity = 1

 SCF Done:  E(RHF) =  -450.726469060     A.U. after   11 cycles
 Normal termination of Gaussian 16 at Tue Apr  8 22:39:27 2025.
 Gaussian 16:  ES64L-G16RevC.01  3-Jul-2019

 ----------------------------------------------------------------------
 #t hf aug-cc-pvdz iop(5/13=1,5/36=2,99/5=2) pseudo=read geom=check gue
 ss=(read,tcheck) scf=(maxcycle=1)
 ----------------------------------------------------------------------
 -----
 title
 -----
 Structure from the checkpoint file:  "BDE49_expt_1331_mol1.chk"
 Charge =  0 Multiplicity = 1

                         Standard orientation:
 ---------------------------------------------------------------------
 Center     Atomic      Atomic             Coordinates (Angstroms)
 Number     Number       Type             X           Y           Z
 ---------------------------------------------------------------------
      1          6           0        0.909004    0.740061   -0.000001
      2          8           0        1.939433   -0.221891    0.000000
      3          1           0        2.782459    0.239037    0.000009
      4          6           0       -0.417862    0.006498    0.000000
      5          1           0        0.919718    1.377817   -0.892639
      6          1           0        0.919718    1.377820    0.892635
      7          9           0       -1.426384    0.910151   -0.000003
      8          9           0       -0.569265   -0.771678    1.085653
      9          9           0       -0.569264   -0.771684   -1.085650
 ---------------------------------------------------------------------

 SCF Done:  E(RHF) =  -450.885490956     A.U. after    2 cycles

 The electronic state is 1-A.
 Alpha  occ. eigenvalues --  -26.16466 -26.16159 -26.16148 -20.60894 -11.52391
 Alpha  occ. eigenvalues --  -11.33542  -1.75746  -1.68762  -1.68652  -1.36330
 Alpha  occ. eigenvalues --   -1.07540  -0.95853  -0.87821  -0.87791  -0.81910
 Alpha  occ. eigenvalues --   -0.77419  -0.77081  -0.74267  -0.72720  -0.71962
 Alpha  occ. eigenvalues --   -0.71363  -0.66734  -0.63013  -0.55870  -0.50535
 Alpha virt. eigenvalues --    0.02620   0.05013   0.05054   0.08047   0.11121
 Alpha virt. eigenvalues --    0.11321   0.11566   0.12919   0.15642   0.15881
 Alpha virt. eigenvalues --    0.19813   0.20727   0.22162   0.22480   0.26738

 Mulliken charges:
               1
     1  C    0.586134
     2  O   -0.526819
     3  H    0.145358
     4  C    0.840333
     5  H   -0.055931
     6  H   -0.055931
     7  F   -0.326808
     8  F   -0.303167
     9  F   -0.303168
 Sum of Mulliken charges =  -0.00000

 Dipole moment (field-independent basis, Debye):
    X=              2.7414    Y=              2.9203    Z=              0.0000  Tot=              4.0054

 Test job not archived.
 1\1\GINC-SE094\SP\RHF\Aug-CC-pVDZ\C2H3F3O1\OHZDE\08-Apr-2025\0\\#t hf
 aug-cc-pvdz iop(5/13=1,5/36=2,99/5=2) pseudo=read geom=check guess=(re
 ad,tcheck) scf=(maxcycle=1)\\title\\0,1\C,0,0.909004,0.740061,-0.00000
 1\O,0,1.939433,-0.221891,0.\H,0,2.782459,0.239037,0.000009\C,0,-0.4178
 62,0.006498,0.\H,0,0.919718,1.377817,-0.892639\H,0,0.919718,1.37782,0.
 892635\F,0,-1.426384,0.910151,-0.000003\F,0,-0.569265,-0.771678,1.0856
 53\F,0,-0.569264,-0.771684,-1.08565\\Version=ES64L-G16RevC.01\State=1-
 A\HF=-450.885491\RMSD=6.414e-03\Dipole=1.0785303,1.1489194,0.0000068\Q

 Normal termination of Gaussian 16 at Tue Apr  8 22:39:30 2025.
