 Gaussian 16, Revision C.01,

 ----------------------------------------------------------------------
 #t hf aug-cc-pvdz symm=none int=(grid=ultrafine) guess=(read,tcheck) s
 table=(opt,rrhf)
 ----------------------------------------------------------------------
 -----
 title
 -----
 Symbolic Z-matrix:
 Charge =  0 Multiplicity = 1

 SCF Done:  E(RHF) =  -948.194553166     A.U. after   17 cycles
 Normal termination of Gaussian 16 at Tue Apr  8 23:07:16 2025.
 Gaussian 16:  ES64L-G16RevC.01  3-Jul-2019

 ----------------------------------------------------------------------
 #t hf aug-cc-pvdz iop(5/13=1,5/36=2,99/5=2) pseudo=read geom=check gue
 ss=(read,tcheck) scf=(maxcycle=1)
 ----------------------------------------------------------------------
 -----
 title
 -----
 Structure from the checkpoint file:  "BDE49_expt_478_mol1.chk"
 Charge =  0 Multiplicity = 1

                         Standard orientation:
 ---------------------------------------------------------------------
 Center     Atomic      Atomic             Coordinates (Angstroms)
 Number     Number       Type             X           Y           Z
 ---------------------------------------------------------------------
      1          6           0        1.481524    1.446382   -0.000034
      2          6           0        0.223425    2.004382   -0.000009
      3          6           0       -0.954755    1.214784    0.000089
      4          6           0        1.630772    0.052603    0.000035
      5          6           0        0.521027   -0.759344    0.000131
      6          6           0       -0.761106   -0.192680    0.000168
      7          1           0        0.117493    3.083561   -0.000068
      8          7           0       -2.165149    1.821217    0.000091
      9          1           0       -2.220167    2.824449    0.000098
     10          1           0       -2.997809    1.253059    0.000214
     11          1           0        2.358204    2.081496   -0.000109
     12          1           0        0.604466   -1.835856    0.000189
     13          7           0       -1.882798   -1.123785    0.000280
     14          8           0       -3.032292   -0.661811   -0.000339
     15          8           0       -1.646831   -2.324097   -0.000312
     16         17           0        3.238889   -0.646955    0.000000
 ---------------------------------------------------------------------

 SCF Done:  E(RHF) =  -948.357136863     A.U. after    2 cycles

 The electronic state is 1-A.
 Alpha  occ. eigenvalues -- -103.67627 -20.62258 -20.61992 -15.92803 -15.66340
 Alpha  occ. eigenvalues --  -11.35495 -11.32022 -11.31980 -11.29750 -11.29495
 Alpha  occ. eigenvalues --  -11.27606 -10.70876  -8.36616  -8.36310  -8.36286
 Alpha  occ. eigenvalues --   -1.55213  -1.36594  -1.24870  -1.20622  -1.14563
 Alpha  occ. eigenvalues --   -1.09130  -1.01736  -0.95870  -0.87315  -0.84757
 Alpha  occ. eigenvalues --   -0.77824  -0.74947  -0.74216  -0.73812  -0.73231
 Alpha  occ. eigenvalues --   -0.66161  -0.64943  -0.64326  -0.58455  -0.58183
 Alpha  occ. eigenvalues --   -0.55233  -0.53232  -0.52087  -0.51610  -0.48454
 Alpha  occ. eigenvalues --   -0.47947  -0.45645  -0.39484  -0.32257
 Alpha virt. eigenvalues --    0.02168   0.02665   0.03665   0.04768   0.05724
 Alpha virt. eigenvalues --    0.07336   0.08544   0.09372   0.10253   0.10781
 Alpha virt. eigenvalues --    0.12194   0.12413   0.12544   0.13385   0.13543

 Mulliken charges:
               1
     1  C    0.302497
     2  C    1.545821
     3  C   -0.207470
     4  C   -0.326460
     5  C    0.444302
     6  C    1.421129
     7  H   -0.594261
     8  N   -0.206025
     9  H   -0.066926
    10  H    0.045124
    11  H   -0.421295
    12  H   -0.412068
    13  N    0.072383
    14  O   -0.652759
    15  O   -0.558768
    16  Cl  -0.385223
 Sum of Mulliken charges =   0.00000

 Dipole moment (field-independent basis, Debye):
    X=              0.7033    Y=              5.3390    Z=              0.0019  Tot=              5.3851

 Test job not archived.
 1\1\GINC-SE404\SP\RHF\Aug-CC-pVDZ\C6H5Cl1N2O2\OHZDE\08-Apr-2025\0\\#t
 hf aug-cc-pvdz iop(5/13=1,5/36=2,99/5=2) pseudo=read geom=check guess=
 (read,tcheck) scf=(maxcycle=1)\\title\\0,1\C,0,1.481524,1.446382,-0.00
 0034\C,0,0.223425,2.004382,-0.000009\C,0,-0.954755,1.214784,0.000089\C
 ,0,1.630772,0.052603,0.000035\C,0,0.521027,-0.759344,0.000131\C,0,-0.7
 61106,-0.19268,0.000168\H,0,0.117493,3.083561,-0.000068\N,0,-2.165149,
 1.821217,0.000091\H,0,-2.220167,2.824449,0.000098\H,0,-2.997809,1.2530
 59,0.000214\H,0,2.358204,2.081496,-0.000109\H,0,0.604466,-1.835856,0.0

 Normal termination of Gaussian 16 at Tue Apr  8 23:07:25 2025.
