 Gaussian 16, Revision C.01,

 ----------------------------------------------------------------------
 #t hf aug-cc-pvdz symm=none int=(grid=ultrafine) guess=(read,tcheck) s
 table=opt
 ----------------------------------------------------------------------
 -----
 title
 -----
 Symbolic Z-matrix:
 Charge =  0 Multiplicity = 2

 SCF Done:  E(UHF) =  -331.537849145     A.U. after   21 cycles
 Normal termination of Gaussian 16 at Wed Apr  9 00:30:55 2025.
 Gaussian 16:  ES64L-G16RevC.01  3-Jul-2019

 ----------------------------------------------------------------------
 #t hf aug-cc-pvdz iop(5/13=1,5/36=2,99/5=2) pseudo=read geom=check gue
 ss=(read,tcheck) scf=(maxcycle=1)
 ----------------------------------------------------------------------
 -----
 title
 -----
 Structure from the checkpoint file:  "BDE49_nonexpt_390_mol2.chk"
 Charge =  0 Multiplicity = 2

                         Standard orientation:
 ---------------------------------------------------------------------
 Center     Atomic      Atomic             Coordinates (Angstroms)
 Number     Number       Type             X           Y           Z
 ---------------------------------------------------------------------
      1          9           0       -2.516023   -0.320319    0.309321
      2          5           0       -1.499599   -0.345572   -0.513456
      3          6           0       -0.049866    0.174473   -0.146051
      4          8           0        0.007901    1.396731   -0.024468
      5          7           0        1.016517   -0.661095   -0.075918
      6          6           0        2.375411   -0.192902    0.161084
      7          1           0        0.859282   -1.642618   -0.245515
      8          1           0        2.331744    0.885881    0.299101
      9          1           0        3.022026   -0.416209   -0.692221
     10          1           0        2.797052   -0.651934    1.059000
 ---------------------------------------------------------------------

 SCF Done:  E(UHF) =  -331.653616659     A.U. after    2 cycles

 The electronic state is 2-A.
 Alpha  occ. eigenvalues --  -26.16073 -20.55225 -15.66905 -11.36423 -11.28288
 Alpha  occ. eigenvalues --   -7.72757  -1.70453  -1.35476  -1.21077  -0.97209
 Alpha  occ. eigenvalues --   -0.87739  -0.81905  -0.79363  -0.76107  -0.74662
 Alpha  occ. eigenvalues --   -0.66202  -0.63706  -0.60919  -0.56241  -0.56178
 Alpha  occ. eigenvalues --   -0.46732  -0.41277  -0.36936
 Alpha virt. eigenvalues --    0.02443   0.03674   0.04573   0.05562   0.06593
 Alpha virt. eigenvalues --    0.06862   0.07127   0.08692   0.09435   0.12290
 Alpha virt. eigenvalues --    0.13588   0.14087   0.15002   0.15802   0.17329

  Beta  occ. eigenvalues --  -26.15737 -20.55047 -15.66884 -11.36126 -11.28290
  Beta  occ. eigenvalues --   -7.70865  -1.69492  -1.35029  -1.20921  -0.96879
  Beta  occ. eigenvalues --   -0.86401  -0.80877  -0.77177  -0.76112  -0.72785
  Beta  occ. eigenvalues --   -0.65941  -0.63447  -0.60017  -0.56155  -0.55163
  Beta  occ. eigenvalues --   -0.44433  -0.40527
  Beta virt. eigenvalues --    0.02135   0.03571   0.04260   0.05162   0.06662
  Beta virt. eigenvalues --    0.06800   0.07211   0.08115   0.10281   0.11177
  Beta virt. eigenvalues --    0.12658   0.13922   0.14215   0.15374   0.17381

 Mulliken charges and spin densities:
               1          2
     1  F   -0.310957  -0.037461
     2  B    0.272924   0.977082
     3  C    0.591242   0.011509
     4  O   -0.530526   0.040154
     5  N   -0.340444   0.012130
     6  C    0.762251  -0.002863
     7  H   -0.079947  -0.000422
     8  H   -0.152708  -0.000808
     9  H   -0.105090   0.000556
    10  H   -0.106746   0.000123
 Sum of Mulliken charges =  -0.00000   1.00000

 Dipole moment (field-independent basis, Debye):
    X=              2.3599    Y=             -3.9473    Z=             -0.4825  Tot=              4.6242
                          Isotropic Fermi Contact Couplings
        Atom                 a.u.       MegaHertz       Gauss      10(-4) cm-1
     1  F(19)              0.06860     288.63419     102.99186      96.27800
     2  B(11)              0.33857     485.63012     173.28490     161.98877
     3  C(13)              0.07779      87.45621      31.20655      29.17225
     4  O(17)              0.01498      -9.08094      -3.24031      -3.02908
     5  N(14)             -0.00043      -0.14036      -0.05008      -0.04682
     6  C(13)             -0.00049      -0.55535      -0.19816      -0.18524
     7  H(1)              -0.00028      -1.23464      -0.44055      -0.41183
     8  H(1)               0.00005       0.23823       0.08501       0.07947

 Normal termination of Gaussian 16 at Wed Apr  9 00:30:58 2025.
