 Gaussian 16, Revision C.01,

 ----------------------------------------------------------------------
 #t hf aug-cc-pvdz symm=none int=(grid=ultrafine) guess=(read,tcheck) s
 table=(opt,rrhf)
 ----------------------------------------------------------------------
 -----
 title
 -----
 Symbolic Z-matrix:
 Charge =  0 Multiplicity = 1

 SCF Done:  E(RHF) =  -626.648523366     A.U. after   14 cycles
 Normal termination of Gaussian 16 at Tue Apr  8 22:52:31 2025.
 Gaussian 16:  ES64L-G16RevC.01  3-Jul-2019

 ----------------------------------------------------------------------
 #t hf aug-cc-pvdz iop(5/13=1,5/36=2,99/5=2) pseudo=read geom=check gue
 ss=(read,tcheck) scf=(maxcycle=1)
 ----------------------------------------------------------------------
 -----
 title
 -----
 Structure from the checkpoint file:  "BDE49_expt_1837_mol1.chk"
 Charge =  0 Multiplicity = 1

                         Standard orientation:
 ---------------------------------------------------------------------
 Center     Atomic      Atomic             Coordinates (Angstroms)
 Number     Number       Type             X           Y           Z
 ---------------------------------------------------------------------
      1          7           0        0.000000    0.697191    0.000000
      2         17           0       -1.433649   -0.264500    0.000000
      3          6           0        1.106867    0.167669    0.000000
      4          8           0        2.216354   -0.173732    0.000000
 ---------------------------------------------------------------------

 SCF Done:  E(RHF) =  -626.721782197     A.U. after    2 cycles

 The electronic state is 1-A'.
 Alpha  occ. eigenvalues -- -103.73617 -20.67419 -15.71746 -11.45921 -10.76421
 Alpha  occ. eigenvalues --   -8.42195  -8.41745  -8.41733  -1.47539  -1.30481
 Alpha  occ. eigenvalues --   -1.13488  -0.79414  -0.72106  -0.70514  -0.69073
 Alpha  occ. eigenvalues --   -0.56832  -0.56301  -0.46840  -0.43795
 Alpha virt. eigenvalues --    0.03567   0.06022   0.08529   0.08656   0.09309
 Alpha virt. eigenvalues --    0.11372   0.14668   0.15374   0.18567   0.19092
 Alpha virt. eigenvalues --    0.21135   0.21470   0.22420   0.25850   0.28414

 Mulliken charges:
               1
     1  N   -0.435202
     2  Cl   0.357314
     3  C    0.243599
     4  O   -0.165711
 Sum of Mulliken charges =  -0.00000

 Dipole moment (field-independent basis, Debye):
    X=             -0.8231    Y=             -0.4578    Z=              0.0000  Tot=              0.9419

 Test job not archived.
 1\1\GINC-SE404\SP\RHF\Aug-CC-pVDZ\C1Cl1N1O1\OHZDE\08-Apr-2025\0\\#t hf
  aug-cc-pvdz iop(5/13=1,5/36=2,99/5=2) pseudo=read geom=check guess=(r
 ead,tcheck) scf=(maxcycle=1)\\title\\0,1\N,0,0.,0.697191,0.\Cl,0,-1.43
 3649,-0.2645,0.\C,0,1.106867,0.167669,0.\O,0,2.216354,-0.173732,0.\\Ve
 rsion=ES64L-G16RevC.01\State=1-A'\HF=-626.7217822\RMSD=2.781e-03\Dipol
 e=-0.3238515,-0.1801087,0.\Quadrupole=-1.3652892,0.4743883,0.8909009,1
 .4359488,0.,0.\PG=CS [SG(C1Cl1N1O1)]\\@

 Normal termination of Gaussian 16 at Tue Apr  8 22:52:33 2025.
