 Gaussian 16, Revision C.01,

 ----------------------------------------------------------------------
 #t hf aug-cc-pvdz symm=none int=(grid=ultrafine) guess=(read,tcheck) s
 table=opt
 ----------------------------------------------------------------------
 -----
 title
 -----
 Symbolic Z-matrix:
 Charge =  0 Multiplicity = 2

 SCF Done:  E(UHF) =  -407.748127682     A.U. after   14 cycles

 1\1\GINC-SE393\Stability\UHF\Aug-CC-pVDZ\C3H9Si1\OHZDE\08-Apr-2025\0\\
 #t hf aug-cc-pvdz symm=none int=(grid=ultrafine) guess=(read,tcheck) s
 table=opt\\title\\0,2\Si,0,-1.858476,-0.001436,0.000001\C,0,2.427697,0
 .035687,-0.000002\C,0,-0.069337,0.616912,-0.000006\C,0,0.992531,-0.504
 361,0.000004\H,0,0.070913,1.2613,0.875883\H,0,0.070912,1.261283,-0.875
 909\H,0,0.84608,-1.146296,-0.875527\H,0,0.846081,-1.146279,0.875549\H,
 0,2.616045,0.653417,0.883334\H,0,2.616044,0.653399,-0.88335\H,0,3.1572
 53,-0.779347,0.000006\H,0,-2.155007,-0.813415,-1.21152\H,0,-2.155007,-

 Normal termination of Gaussian 16 at Tue Apr  8 23:39:21 2025.
 Gaussian 16:  ES64L-G16RevC.01  3-Jul-2019

 ----------------------------------------------------------------------
 #t hf aug-cc-pvdz iop(5/13=1,5/36=2,99/5=2) pseudo=read geom=check gue
 ss=(read,tcheck) scf=(maxcycle=1)
 ----------------------------------------------------------------------
 -----
 title
 -----
 Structure from the checkpoint file:  "BDE49_nonexpt_1632_mol2.chk"
 Charge =  0 Multiplicity = 2

                         Standard orientation:
 ---------------------------------------------------------------------
 Center     Atomic      Atomic             Coordinates (Angstroms)
 Number     Number       Type             X           Y           Z
 ---------------------------------------------------------------------
      1         14           0       -1.858476   -0.001436    0.000001
      2          6           0        2.427697    0.035687   -0.000002
      3          6           0       -0.069337    0.616912   -0.000006
      4          6           0        0.992531   -0.504361    0.000004
      5          1           0        0.070913    1.261300    0.875883
      6          1           0        0.070912    1.261283   -0.875909
      7          1           0        0.846080   -1.146296   -0.875527
      8          1           0        0.846081   -1.146279    0.875549
      9          1           0        2.616045    0.653417    0.883334
     10          1           0        2.616044    0.653399   -0.883350
     11          1           0        3.157253   -0.779347    0.000006
     12          1           0       -2.155007   -0.813415   -1.211520
     13          1           0       -2.155007   -0.813385    1.211542
 ---------------------------------------------------------------------

 SCF Done:  E(UHF) =  -407.807347929     A.U. after    2 cycles

 The electronic state is 2-A.
 Alpha  occ. eigenvalues --  -69.06355 -11.23956 -11.22691 -11.22643  -6.81728
 Alpha  occ. eigenvalues --   -3.93076  -3.92177  -3.92170  -1.05005  -0.92634
 Alpha  occ. eigenvalues --   -0.80944  -0.68369  -0.63577  -0.58049  -0.54747
 Alpha  occ. eigenvalues --   -0.54114  -0.48811  -0.48229  -0.46954  -0.43516
 Alpha  occ. eigenvalues --   -0.31529
 Alpha virt. eigenvalues --    0.03468   0.04458   0.04744   0.04897   0.06335
 Alpha virt. eigenvalues --    0.06860   0.07286   0.07922   0.08950   0.09610
 Alpha virt. eigenvalues --    0.10219   0.10745   0.11897   0.14212   0.15793

  Beta  occ. eigenvalues --  -69.05795 -11.23858 -11.22655 -11.22614  -6.80889
  Beta  occ. eigenvalues --   -3.91787  -3.91782  -3.90921  -1.04719  -0.92287
  Beta  occ. eigenvalues --   -0.80667  -0.64683  -0.63482  -0.57732  -0.54616
  Beta  occ. eigenvalues --   -0.53373  -0.48443  -0.48072  -0.46262  -0.42655
  Beta virt. eigenvalues --    0.03148   0.03830   0.04646   0.04920   0.05600
  Beta virt. eigenvalues --    0.06585   0.06993   0.07936   0.08728   0.09176
  Beta virt. eigenvalues --    0.10118   0.10238   0.11013   0.12194   0.14678

 Mulliken charges and spin densities:
               1          2
     1  Si   0.228169   0.991883
     2  C    0.373591   0.005830
     3  C    0.030748  -0.012059
     4  C    0.026813   0.004263
     5  H   -0.113804  -0.001722
     6  H   -0.113801  -0.001722
     7  H   -0.130889  -0.005216
     8  H   -0.130886  -0.005217
     9  H   -0.060914  -0.000010
    10  H   -0.060915  -0.000010
    11  H   -0.071311   0.000970
    12  H    0.011600   0.011505
    13  H    0.011601   0.011505
 Sum of Mulliken charges =  -0.00000   1.00000

 Dipole moment (field-independent basis, Debye):
    X=              0.8833    Y=              0.2466    Z=             -0.0000  Tot=              0.9171
                          Isotropic Fermi Contact Couplings
        Atom                 a.u.       MegaHertz       Gauss      10(-4) cm-1
     1  Si(29)             0.51625    -458.80891    -163.71443    -153.04218
     2  C(13)              0.00541       6.07760       2.16864       2.02727
     3  C(13)              0.01003      11.27434       4.02297       3.76072
     4  C(13)              0.02436      27.38020       9.76994       9.13305
     5  H(1)               0.00031       1.38573       0.49446       0.46223
     6  H(1)               0.00031       1.38583       0.49450       0.46226
     7  H(1)              -0.00035      -1.54675      -0.55192      -0.51594
     8  H(1)              -0.00035      -1.54676      -0.55192      -0.51594

 Normal termination of Gaussian 16 at Tue Apr  8 23:39:25 2025.
