 Gaussian 16, Revision C.01,

 ----------------------------------------------------------------------
 #t hf aug-cc-pvdz symm=none int=(grid=ultrafine) guess=(read,tcheck) s
 table=(opt,rrhf)
 ----------------------------------------------------------------------
 -----
 title
 -----
 Symbolic Z-matrix:
 Charge =  0 Multiplicity = 1

 SCF Done:  E(RHF) =  -430.476586120     A.U. after   12 cycles
 Normal termination of Gaussian 16 at Wed Apr  9 00:45:26 2025.
 Gaussian 16:  ES64L-G16RevC.01  3-Jul-2019

 ----------------------------------------------------------------------
 #t hf aug-cc-pvdz iop(5/13=1,5/36=2,99/5=2) pseudo=read geom=check gue
 ss=(read,tcheck) scf=(maxcycle=1)
 ----------------------------------------------------------------------
 -----
 title
 -----
 Structure from the checkpoint file:  "BDE49_nonexpt_839_mol1.chk"
 Charge =  0 Multiplicity = 1

                         Standard orientation:
 ---------------------------------------------------------------------
 Center     Atomic      Atomic             Coordinates (Angstroms)
 Number     Number       Type             X           Y           Z
 ---------------------------------------------------------------------
      1         14           0       -0.694757   -0.668372   -0.000003
      2          5           0        1.332186   -0.527848   -0.000087
      3          8           0        1.890047    0.708344    0.000027
      4          6           0       -1.575994    1.000001    0.000010
      5          1           0       -1.299045    1.583177    0.882331
      6          1           0       -2.662135    0.877724    0.000048
      7          1           0       -1.299104    1.583160   -0.882340
      8          1           0        2.853869    0.700412    0.000092
      9          1           0        2.047057   -1.494164    0.000033
     10          1           0       -1.119655   -1.460302    1.189025
     11          1           0       -1.119729   -1.460319   -1.188993
 ---------------------------------------------------------------------

 SCF Done:  E(RHF) =  -430.549037239     A.U. after    2 cycles

 The electronic state is 1-A.
 Alpha  occ. eigenvalues --  -69.03670 -20.60037 -11.21053  -7.63954  -6.79131
 Alpha  occ. eigenvalues --   -3.89915  -3.89901  -3.89850  -1.33990  -0.93129
 Alpha  occ. eigenvalues --   -0.78650  -0.67540  -0.65580  -0.56813  -0.55753
 Alpha  occ. eigenvalues --   -0.55281  -0.53846  -0.45470  -0.44414  -0.39109
 Alpha virt. eigenvalues --    0.03001   0.04466   0.05240   0.05242   0.06532
 Alpha virt. eigenvalues --    0.06723   0.06735   0.08040   0.09261   0.09863
 Alpha virt. eigenvalues --    0.10253   0.10676   0.11335   0.13343   0.13746

 Mulliken charges:
               1
     1  Si   0.194134
     2  B    0.225885
     3  O   -0.468582
     4  C    0.232794
     5  H   -0.148350
     6  H   -0.278694
     7  H   -0.148359
     8  H    0.181799
     9  H    0.209334
    10  H    0.000020
    11  H    0.000019
 Sum of Mulliken charges =  -0.00000

 Dipole moment (field-independent basis, Debye):
    X=              1.7023    Y=              0.2926    Z=             -0.0000  Tot=              1.7273

 Test job not archived.
 1\1\GINC-SE162\SP\RHF\Aug-CC-pVDZ\C1H7B1O1Si1\OHZDE\09-Apr-2025\0\\#t
 hf aug-cc-pvdz iop(5/13=1,5/36=2,99/5=2) pseudo=read geom=check guess=
 (read,tcheck) scf=(maxcycle=1)\\title\\0,1\Si,0,0.694757,-0.668372,0.0
 00003\B,0,-1.332186,-0.527848,0.000087\O,0,-1.890047,0.708345,-0.00002
 7\C,0,1.575995,1.,-0.00001\H,0,1.299046,1.583176,-0.882331\H,0,2.66213
 5,0.877723,-0.000048\H,0,1.299105,1.583159,0.88234\H,0,-2.853869,0.700
 413,-0.000092\H,0,-2.047057,-1.494163,-0.000033\H,0,1.119655,-1.460302
 ,-1.189025\H,0,1.119729,-1.460319,1.188993\\Version=ES64L-G16RevC.01\S

 Normal termination of Gaussian 16 at Wed Apr  9 00:45:29 2025.
