 Gaussian 16, Revision C.01,

 ----------------------------------------------------------------------
 #t hf aug-cc-pvdz symm=none int=(grid=ultrafine) guess=(read,tcheck) s
 table=(opt,rrhf)
 ----------------------------------------------------------------------
 -----
 title
 -----
 Symbolic Z-matrix:
 Charge =  0 Multiplicity = 1

 SCF Done:  E(RHF) =  -370.303931409     A.U. after   12 cycles
 Normal termination of Gaussian 16 at Wed Apr  9 00:36:18 2025.
 Gaussian 16:  ES64L-G16RevC.01  3-Jul-2019

 ----------------------------------------------------------------------
 #t hf aug-cc-pvdz iop(5/13=1,5/36=2,99/5=2) pseudo=read geom=check gue
 ss=(read,tcheck) scf=(maxcycle=1)
 ----------------------------------------------------------------------
 -----
 title
 -----
 Structure from the checkpoint file:  "BDE49_nonexpt_537_mol1.chk"
 Charge =  0 Multiplicity = 1

                         Standard orientation:
 ---------------------------------------------------------------------
 Center     Atomic      Atomic             Coordinates (Angstroms)
 Number     Number       Type             X           Y           Z
 ---------------------------------------------------------------------
      1          5           0        1.343175    1.109698   -0.000000
      2          1           0        2.377038    1.698334   -0.000000
      3          8           0        0.784764    0.790079    1.200595
      4          8           0        0.784764    0.790079   -1.200595
      5          6           0       -0.636703   -0.783833    0.000000
      6          6           0       -0.459940    0.063387   -1.260229
      7          6           0       -0.459940    0.063387    1.260229
      8          6           0       -0.459940   -0.750635    2.544529
      9          1           0        0.341600   -1.493596    2.523962
     10          1           0       -1.414372   -1.268250    2.675040
     11          1           0       -0.297469   -0.096804    3.403534
     12          1           0       -1.263718    0.809185    1.306519
     13          1           0        0.105516   -1.591507   -0.000000
     14          1           0       -1.627981   -1.247673    0.000000
     15          6           0       -0.459940   -0.750635   -2.544529
     16          1           0       -1.263718    0.809185   -1.306519
     17          1           0        0.341600   -1.493596   -2.523962
     18          1           0       -0.297469   -0.096804   -3.403534
     19          1           0       -1.414372   -1.268250   -2.675040
 ---------------------------------------------------------------------

 SCF Done:  E(RHF) =  -370.426721635     A.U. after    2 cycles

 The electronic state is 1-A'.
 Alpha  occ. eigenvalues --  -20.57013 -20.57013 -11.30398 -11.30394 -11.24446
 Alpha  occ. eigenvalues --  -11.23187 -11.23187  -7.64477  -1.34847  -1.30546
 Alpha  occ. eigenvalues --   -1.07520  -1.01696  -0.94539  -0.83801  -0.82898
 Alpha  occ. eigenvalues --   -0.73024  -0.68879  -0.68162  -0.65135  -0.61369
 Alpha  occ. eigenvalues --   -0.57242  -0.56330  -0.55861  -0.55611  -0.54418
 Alpha  occ. eigenvalues --   -0.53423  -0.53339  -0.48052  -0.46818  -0.45701
 Alpha  occ. eigenvalues --   -0.45281
 Alpha virt. eigenvalues --    0.03090   0.04202   0.04235   0.04366   0.05802
 Alpha virt. eigenvalues --    0.06150   0.06345   0.06345   0.07212   0.08699
 Alpha virt. eigenvalues --    0.08786   0.09183   0.09436   0.11472   0.13527

 Mulliken charges:
               1
     1  B   -0.073791
     2  H    0.403537
     3  O   -0.614290
     4  O   -0.614290
     5  C   -0.018520
     6  C    0.334081
     7  C    0.334081
     8  C    0.561172
     9  H   -0.010091
    10  H   -0.014657
    11  H   -0.019075
    12  H   -0.271928
    13  H   -0.088679
    14  H   -0.152972
    15  C    0.561172
    16  H   -0.271928
    17  H   -0.010091
    18  H   -0.019075
    19  H   -0.014657
 Sum of Mulliken charges =  -0.00000

 Dipole moment (field-independent basis, Debye):
    X=             -2.7129    Y=             -1.7297    Z=              0.0000  Tot=              3.2174

 Test job not archived.
 1\1\GINC-SE106\SP\RHF\Aug-CC-pVDZ\C5H11B1O2\OHZDE\09-Apr-2025\0\\#t hf
  aug-cc-pvdz iop(5/13=1,5/36=2,99/5=2) pseudo=read geom=check guess=(r
 ead,tcheck) scf=(maxcycle=1)\\title\\0,1\B,0,1.343175,1.109698,0.\H,0,
 2.377038,1.698334,0.\O,0,0.784764,0.790079,1.200595\O,0,0.784764,0.790
 079,-1.200595\C,0,-0.636703,-0.783833,0.\C,0,-0.45994,0.063387,-1.2602
 29\C,0,-0.45994,0.063387,1.260229\C,0,-0.45994,-0.750635,2.544529\H,0,
 0.3416,-1.493596,2.523962\H,0,-1.414372,-1.26825,2.67504\H,0,-0.297469
 ,-0.096804,3.403534\H,0,-1.263718,0.809185,1.306519\H,0,0.105516,-1.59

 Normal termination of Gaussian 16 at Wed Apr  9 00:36:23 2025.
