 Gaussian 16, Revision C.01,

 ----------------------------------------------------------------------
 #t hf aug-cc-pvdz symm=none int=(grid=ultrafine) guess=(read,tcheck) s
 table=(opt,rrhf)
 ----------------------------------------------------------------------
 -----
 title
 -----
 Symbolic Z-matrix:
 Charge =  0 Multiplicity = 1

 SCF Done:  E(RHF) =  -714.239055358     A.U. after   13 cycles
 Normal termination of Gaussian 16 at Tue Apr  8 22:58:08 2025.
 Gaussian 16:  ES64L-G16RevC.01  3-Jul-2019

 ----------------------------------------------------------------------
 #t hf aug-cc-pvdz iop(5/13=1,5/36=2,99/5=2) pseudo=read geom=check gue
 ss=(read,tcheck) scf=(maxcycle=1)
 ----------------------------------------------------------------------
 -----
 title
 -----
 Structure from the checkpoint file:  "BDE49_expt_1869_mol1.chk"
 Charge =  0 Multiplicity = 1

                         Standard orientation:
 ---------------------------------------------------------------------
 Center     Atomic      Atomic             Coordinates (Angstroms)
 Number     Number       Type             X           Y           Z
 ---------------------------------------------------------------------
      1          6           0        2.348467    0.867412   -1.265111
      2          6           0        2.111813    0.038257    0.000041
      3          1           0        3.381791    1.223321   -1.299388
      4          1           0        1.682610    1.730399   -1.285054
      5          1           0        2.159622    0.262819   -2.155402
      6          6           0        2.346309    0.857923    1.271740
      7          1           0        3.379597    1.213490    1.310463
      8          1           0        2.155902    0.246743    2.157192
      9          1           0        1.680485    1.720793    1.296945
     10          6           0        2.958334   -1.238741   -0.004045
     11          1           0        4.019223   -0.977620   -0.002321
     12          1           0        2.749435   -1.837148   -0.893384
     13          1           0        2.748164   -1.843706    0.880547
     14          8           0        0.769839   -0.502777   -0.003185
     15          8           0       -0.183124    0.620060    0.000173
     16         14           0       -1.752104   -0.024581   -0.000018
     17          6           0       -2.796214    1.529928    0.003953
     18          1           0       -2.597601    2.139434    0.889414
     19          1           0       -3.860190    1.272002    0.005238
     20          1           0       -2.600352    2.142005   -0.880350
     21          6           0       -2.030938   -1.048058   -1.542963
     22          1           0       -1.872129   -0.449376   -2.444286
     23          1           0       -3.051670   -1.442662   -1.574564
     24          1           0       -1.340804   -1.894888   -1.575957
     25          6           0       -2.028348   -1.054764    1.538924
     26          1           0       -1.871584   -0.459213    2.442677
     27          1           0       -1.335492   -1.899497    1.568597
     28          1           0       -3.047805   -1.452769    1.568743
 ---------------------------------------------------------------------

 SCF Done:  E(RHF) =  -714.407733655     A.U. after    2 cycles

 The electronic state is 1-A.
 Alpha  occ. eigenvalues --  -69.07057 -20.62348 -20.59642 -11.29829 -11.22632
 Alpha  occ. eigenvalues --  -11.21889 -11.21881 -11.20771 -11.20508 -11.20504
 Alpha  occ. eigenvalues --   -6.81914  -3.92830  -3.92682  -3.92639  -1.38698
 Alpha  occ. eigenvalues --   -1.18390  -1.03912  -0.95534  -0.93465  -0.93271
 Alpha  occ. eigenvalues --   -0.91875  -0.91690  -0.76503  -0.69427  -0.65712
 Alpha  occ. eigenvalues --   -0.65541  -0.59920  -0.59520  -0.57873  -0.56474
 Alpha  occ. eigenvalues --   -0.56271  -0.56018  -0.54658  -0.54211  -0.53566
 Alpha  occ. eigenvalues --   -0.53036  -0.52872  -0.52600  -0.51680  -0.49841
 Alpha  occ. eigenvalues --   -0.49263  -0.46621  -0.44126  -0.42972  -0.41660
 Alpha virt. eigenvalues --    0.03045   0.04103   0.04554   0.04572   0.05516
 Alpha virt. eigenvalues --    0.05698   0.05700   0.06368   0.06504   0.07643
 Alpha virt. eigenvalues --    0.07846   0.08151   0.08697   0.08752   0.09280

 Mulliken charges:
               1
     1  C    0.980145
     2  C   -2.445310
     3  H    0.001147
     4  H   -0.023046
     5  H   -0.003236
     6  C    0.980136
     7  H    0.001102
     8  H   -0.003289
     9  H   -0.022583
    10  C    0.934154
    11  H    0.041276
    12  H   -0.033016
    13  H   -0.032781
    14  O   -0.291484
    15  O   -0.846069
    16  Si   1.955870
    17  C    0.430764
    18  H   -0.271535
    19  H   -0.311919
    20  H   -0.271738
    21  C    0.489439
    22  H   -0.300070
    23  H   -0.273355
    24  H   -0.300365
    25  C    0.489361
    26  H   -0.300576
    27  H   -0.299891
    28  H   -0.273131
 Sum of Mulliken charges =  -0.00000

 Dipole moment (field-independent basis, Debye):
    X=              0.2367    Y=             -0.1095    Z=              0.0033  Tot=              0.2609

 Test job not archived.
 1\1\GINC-SE364\SP\RHF\Aug-CC-pVDZ\C7H18O2Si1\OHZDE\08-Apr-2025\0\\#t h
 f aug-cc-pvdz iop(5/13=1,5/36=2,99/5=2) pseudo=read geom=check guess=(
 read,tcheck) scf=(maxcycle=1)\\title\\0,1\C,0,2.348467,-0.867412,1.265
 111\C,0,2.111813,-0.038257,-0.000041\H,0,3.381791,-1.223321,1.299388\H
 ,0,1.68261,-1.730399,1.285054\H,0,2.159622,-0.262819,2.155402\C,0,2.34
 6309,-0.857923,-1.27174\H,0,3.379597,-1.21349,-1.310463\H,0,2.155902,-
 0.246743,-2.157192\H,0,1.680485,-1.720793,-1.296945\C,0,2.958334,1.238
 741,0.004045\H,0,4.019223,0.97762,0.002321\H,0,2.749435,1.837148,0.893

 Normal termination of Gaussian 16 at Tue Apr  8 22:58:30 2025.
