 Gaussian 16, Revision C.01,

 ----------------------------------------------------------------------
 #t hf aug-cc-pvdz symm=none int=(grid=ultrafine) guess=(read,tcheck) s
 table=(opt,rrhf)
 ----------------------------------------------------------------------
 -----
 title
 -----
 Symbolic Z-matrix:
 Charge =  0 Multiplicity = 1

 SCF Done:  E(RHF) =  -905.695990270     A.U. after   15 cycles
 Normal termination of Gaussian 16 at Wed Apr  9 00:08:41 2025.
 Gaussian 16:  ES64L-G16RevC.01  3-Jul-2019

 ----------------------------------------------------------------------
 #t hf aug-cc-pvdz iop(5/13=1,5/36=2,99/5=2) pseudo=read geom=check gue
 ss=(read,tcheck) scf=(maxcycle=1)
 ----------------------------------------------------------------------
 -----
 title
 -----
 Structure from the checkpoint file:  "BDE49_nonexpt_2352_mol1.chk"
 Charge =  0 Multiplicity = 1

                         Standard orientation:
 ---------------------------------------------------------------------
 Center     Atomic      Atomic             Coordinates (Angstroms)
 Number     Number       Type             X           Y           Z
 ---------------------------------------------------------------------
      1         14           0        0.485480   -1.134664   -0.620562
      2         14           0       -1.628552   -0.772305    0.351566
      3          6           0        1.704680    0.183097    0.063122
      4          8           0        2.545818    0.803924   -0.482311
      5          1           0        0.486500   -1.029889   -2.092071
      6          1           0        1.037779   -2.442746   -0.199909
      7          9           0        1.502713    0.343810    1.429781
      8          6           0       -2.032164    1.086877   -0.003378
      9          1           0       -1.633671   -1.016206    1.813668
     10          1           0       -2.685508   -1.612314   -0.266483
     11          8           0       -1.269329    1.764132   -0.655589
     12          1           0       -2.973528    1.540139    0.387442
 ---------------------------------------------------------------------

 SCF Done:  E(RHF) =  -905.844921588     A.U. after    2 cycles

 The electronic state is 1-A.
 Alpha  occ. eigenvalues --  -69.10448 -69.09781 -26.14261 -20.60808 -20.60576
 Alpha  occ. eigenvalues --  -11.42429 -11.35542  -6.85809  -6.85221  -3.96612
 Alpha  occ. eigenvalues --   -3.96537  -3.96520  -3.95978  -3.95949  -3.95930
 Alpha  occ. eigenvalues --   -1.67826  -1.40628  -1.38186  -0.90832  -0.86427
 Alpha  occ. eigenvalues --   -0.80635  -0.75603  -0.74860  -0.73635  -0.69143
 Alpha  occ. eigenvalues --   -0.68381  -0.62165  -0.60010  -0.57344  -0.57074
 Alpha  occ. eigenvalues --   -0.52056  -0.50573  -0.48702  -0.44299  -0.41620
 Alpha virt. eigenvalues --    0.02771   0.03520   0.04482   0.05264   0.05598
 Alpha virt. eigenvalues --    0.06442   0.06779   0.07318   0.07535   0.08322
 Alpha virt. eigenvalues --    0.08986   0.09823   0.10197   0.10713   0.12392

 Mulliken charges:
               1
     1  Si   0.241084
     2  Si   0.376219
     3  C    0.460507
     4  O   -0.405930
     5  H    0.072756
     6  H    0.037188
     7  F   -0.411521
     8  C    0.242485
     9  H    0.034121
    10  H   -0.009771
    11  O   -0.377520
    12  H   -0.259618
 Sum of Mulliken charges =  -0.00000

 Dipole moment (field-independent basis, Debye):
    X=             -4.1516    Y=             -3.8231    Z=              0.4032  Tot=              5.6581

 Test job not archived.
 1\1\GINC-SE069\SP\RHF\Aug-CC-pVDZ\C2H5F1O2Si2\OHZDE\09-Apr-2025\0\\#t
 hf aug-cc-pvdz iop(5/13=1,5/36=2,99/5=2) pseudo=read geom=check guess=
 (read,tcheck) scf=(maxcycle=1)\\title\\0,1\Si,0,0.48548,-1.134664,-0.6
 20562\Si,0,-1.628552,-0.772305,0.351566\C,0,1.70468,0.183097,0.063122\
 O,0,2.545818,0.803924,-0.482311\H,0,0.4865,-1.029889,-2.092071\H,0,1.0
 37779,-2.442746,-0.199909\F,0,1.502713,0.34381,1.429781\C,0,-2.032164,
 1.086877,-0.003378\H,0,-1.633671,-1.016206,1.813668\H,0,-2.685508,-1.6
 12314,-0.266483\O,0,-1.269329,1.764132,-0.655589\H,0,-2.973528,1.54013

 Normal termination of Gaussian 16 at Wed Apr  9 00:08:46 2025.
