 Gaussian 16, Revision C.01,

 ----------------------------------------------------------------------
 #t hf aug-cc-pvdz symm=none int=(grid=ultrafine) guess=(read,tcheck) s
 table=(opt,rrhf)
 ----------------------------------------------------------------------
 -----
 title
 -----
 Symbolic Z-matrix:
 Charge =  0 Multiplicity = 1

 SCF Done:  E(RHF) =  -1423.33130702     A.U. after   15 cycles
 Normal termination of Gaussian 16 at Tue Apr  8 22:58:39 2025.
 Gaussian 16:  ES64L-G16RevC.01  3-Jul-2019

 ----------------------------------------------------------------------
 #t hf aug-cc-pvdz iop(5/13=1,5/36=2,99/5=2) pseudo=read geom=check gue
 ss=(read,tcheck) scf=(maxcycle=1)
 ----------------------------------------------------------------------
 -----
 title
 -----
 Structure from the checkpoint file:  "BDE49_expt_1965_mol1.chk"
 Charge =  0 Multiplicity = 1

                         Standard orientation:
 ---------------------------------------------------------------------
 Center     Atomic      Atomic             Coordinates (Angstroms)
 Number     Number       Type             X           Y           Z
 ---------------------------------------------------------------------
      1         16           0        0.648294   -1.090097    1.008199
      2         16           0        2.024220   -0.701595   -0.528097
      3         16           0        2.732617    1.259459   -0.290997
      4          1           0        1.798960    1.881922   -1.037694
      5          6           0       -0.885954   -0.396347    0.398415
      6          6           0       -1.333309    0.824033    0.914801
      7          6           0       -2.547221    1.355836    0.484092
      8          6           0       -3.312158    0.675731   -0.460752
      9          6           0       -2.866592   -0.542542   -0.974201
     10          6           0       -1.658985   -1.082864   -0.544193
     11          1           0       -1.311296   -2.032450   -0.932224
     12          1           0       -4.256148    1.091113   -0.794652
     13          1           0       -3.463956   -1.075400   -1.705235
     14          1           0       -0.731590    1.346112    1.648785
     15          1           0       -2.892753    2.301348    0.886356
 ---------------------------------------------------------------------

 SCF Done:  E(RHF) =  -1423.45855239     A.U. after    2 cycles

 The electronic state is 1-A.
 Alpha  occ. eigenvalues --  -93.58951 -93.57155 -93.57140 -11.28744 -11.26541
 Alpha  occ. eigenvalues --  -11.26509 -11.26409 -11.26039 -11.26023  -8.88297
 Alpha  occ. eigenvalues --   -8.86738  -8.86673  -6.22362  -6.22080  -6.21739
 Alpha  occ. eigenvalues --   -6.20841  -6.20796  -6.20618  -6.20559  -6.20261
 Alpha  occ. eigenvalues --   -6.20243  -1.16479  -1.07322  -1.02851  -1.02769
 Alpha  occ. eigenvalues --   -0.94891  -0.85108  -0.84633  -0.79241  -0.71217
 Alpha  occ. eigenvalues --   -0.65153  -0.64711  -0.60972  -0.58878  -0.57237
 Alpha  occ. eigenvalues --   -0.53606  -0.51855  -0.51571  -0.48501  -0.47503
 Alpha  occ. eigenvalues --   -0.39386  -0.37920  -0.36545  -0.35641  -0.34443
 Alpha virt. eigenvalues --    0.03081   0.03891   0.04554   0.05043   0.05676
 Alpha virt. eigenvalues --    0.06300   0.06484   0.07869   0.08899   0.09400
 Alpha virt. eigenvalues --    0.09707   0.11360   0.12011   0.12401   0.12851

 Mulliken charges:
               1
     1  S   -0.064655
     2  S   -0.081768
     3  S   -0.101412
     4  H    0.132088
     5  C    0.873227
     6  C    0.010244
     7  C    0.589734
     8  C    0.298867
     9  C    0.655357
    10  C   -0.087852
    11  H   -0.442564
    12  H   -0.431186
    13  H   -0.431481
    14  H   -0.483402
    15  H   -0.435197
 Sum of Mulliken charges =  -0.00000

 Dipole moment (field-independent basis, Debye):
    X=             -2.6712    Y=              1.3294    Z=             -0.8604  Tot=              3.1053

 Test job not archived.
 1\1\GINC-SE073\SP\RHF\Aug-CC-pVDZ\C6H6S3\OHZDE\08-Apr-2025\0\\#t hf au
 g-cc-pvdz iop(5/13=1,5/36=2,99/5=2) pseudo=read geom=check guess=(read
 ,tcheck) scf=(maxcycle=1)\\title\\0,1\S,0,0.648294,-1.090097,1.008199\
 S,0,2.02422,-0.701595,-0.528097\S,0,2.732617,1.259459,-0.290997\H,0,1.
 79896,1.881922,-1.037694\C,0,-0.885954,-0.396347,0.398415\C,0,-1.33330
 9,0.824033,0.914801\C,0,-2.547221,1.355836,0.484092\C,0,-3.312158,0.67
 5731,-0.460752\C,0,-2.866592,-0.542542,-0.974201\C,0,-1.658985,-1.0828
 64,-0.544193\H,0,-1.311296,-2.03245,-0.932224\H,0,-4.256148,1.091113,-

 Normal termination of Gaussian 16 at Tue Apr  8 22:58:47 2025.
