 Gaussian 16, Revision C.01,

 ----------------------------------------------------------------------
 #t hf aug-cc-pvdz symm=none int=(grid=ultrafine) guess=(read,tcheck) s
 table=(opt,rrhf)
 ----------------------------------------------------------------------
 -----
 title
 -----
 Symbolic Z-matrix:
 Charge =  0 Multiplicity = 1

 SCF Done:  E(RHF) =  -154.987784352     A.U. after   12 cycles
 Normal termination of Gaussian 16 at Tue Apr  8 22:51:30 2025.
 Gaussian 16:  ES64L-G16RevC.01  3-Jul-2019

 ----------------------------------------------------------------------
 #t hf aug-cc-pvdz iop(5/13=1,5/36=2,99/5=2) pseudo=read geom=check gue
 ss=(read,tcheck) scf=(maxcycle=1)
 ----------------------------------------------------------------------
 -----
 title
 -----
 Structure from the checkpoint file:  "BDE49_expt_1812_mol1.chk"
 Charge =  0 Multiplicity = 1

                         Standard orientation:
 ---------------------------------------------------------------------
 Center     Atomic      Atomic             Coordinates (Angstroms)
 Number     Number       Type             X           Y           Z
 ---------------------------------------------------------------------
      1          7           0        0.680597   -0.000002   -0.142110
      2          9           0       -0.740414   -0.000014    0.017603
      3          1           0        0.949640    0.811373    0.418137
      4          1           0        0.949907   -0.811234    0.418208
 ---------------------------------------------------------------------

 SCF Done:  E(RHF) =  -155.040185013     A.U. after    2 cycles

 The electronic state is 1-A.
 Alpha  occ. eigenvalues --  -26.12816 -15.72771  -1.64188  -1.12505  -0.77129
 Alpha  occ. eigenvalues --   -0.74707  -0.70594  -0.62166  -0.47630
 Alpha virt. eigenvalues --    0.03385   0.05124   0.10280   0.13513   0.19208
 Alpha virt. eigenvalues --    0.19765   0.25680   0.26415   0.27394   0.28979
 Alpha virt. eigenvalues --    0.29987   0.31639   0.41565   0.43809   0.48414

 Mulliken charges:
               1
     1  N    0.176424
     2  F   -0.415659
     3  H    0.119619
     4  H    0.119616
 Sum of Mulliken charges =   0.00000

 Dipole moment (field-independent basis, Debye):
    X=              2.2327    Y=              0.0001    Z=              1.6626  Tot=              2.7837

 Test job not archived.
 1\1\GINC-SE096\SP\RHF\Aug-CC-pVDZ\F1H2N1\OHZDE\08-Apr-2025\0\\#t hf au
 g-cc-pvdz iop(5/13=1,5/36=2,99/5=2) pseudo=read geom=check guess=(read
 ,tcheck) scf=(maxcycle=1)\\title\\0,1\N,0,-0.680597,0.000002,-0.14211\
 F,0,0.740414,0.000014,0.017603\H,0,-0.94964,-0.811373,0.418137\H,0,-0.
 949907,0.811234,0.418208\\Version=ES64L-G16RevC.01\State=1-A\HF=-155.0
 40185\RMSD=5.051e-03\Dipole=-0.8784037,-0.000051,0.6540987\Quadrupole=
 -0.0745676,0.9688824,-0.8943148,-0.000178,-1.3853353,-0.0000066\PG=C01
  [X(F1H2N1)]\\@

 Normal termination of Gaussian 16 at Tue Apr  8 22:51:32 2025.
