 Gaussian 16, Revision C.01,

 ----------------------------------------------------------------------
 #t hf aug-cc-pvdz symm=none int=(grid=ultrafine) guess=(read,tcheck) s
 table=opt
 ----------------------------------------------------------------------
 -----
 title
 -----
 Symbolic Z-matrix:
 Charge =  0 Multiplicity = 2

 SCF Done:  E(UHF) =  -606.415558447     A.U. after   21 cycles
 Normal termination of Gaussian 16 at Tue Apr  8 23:30:17 2025.
 Gaussian 16:  ES64L-G16RevC.01  3-Jul-2019

 ----------------------------------------------------------------------
 #t hf aug-cc-pvdz iop(5/13=1,5/36=2,99/5=2) pseudo=read geom=check gue
 ss=(read,tcheck) scf=(maxcycle=1)
 ----------------------------------------------------------------------
 -----
 title
 -----
 Structure from the checkpoint file:  "BDE49_nonexpt_1400_mol2.chk"
 Charge =  0 Multiplicity = 2

                         Standard orientation:
 ---------------------------------------------------------------------
 Center     Atomic      Atomic             Coordinates (Angstroms)
 Number     Number       Type             X           Y           Z
 ---------------------------------------------------------------------
      1         15           0        0.137695    1.355337   -0.099785
      2          6           0       -0.984259   -0.142944    0.011191
      3          8           0       -0.278076   -1.312465    0.059792
      4          6           0        1.130945   -1.166757   -0.183657
      5          6           0        1.582869    0.241080    0.232133
      6          1           0        1.314071   -1.334426   -1.249177
      7          1           0        1.625054   -1.953728    0.385784
      8          8           0       -2.180605   -0.120802    0.065463
      9          1           0        2.479809    0.556863   -0.304395
     10          1           0        1.807754    0.279112    1.304519
 ---------------------------------------------------------------------

 SCF Done:  E(UHF) =  -606.516864116     A.U. after    2 cycles

 The electronic state is 2-A.
 Alpha  occ. eigenvalues --  -81.29449 -20.62464 -20.57843 -11.39778 -11.32890
 Alpha  occ. eigenvalues --  -11.27557  -7.79927  -4.94594  -4.93528  -4.93316
 Alpha  occ. eigenvalues --   -1.42294  -1.34810  -1.05562  -0.94634  -0.82752
 Alpha  occ. eigenvalues --   -0.76462  -0.70995  -0.69677  -0.64992  -0.61829
 Alpha  occ. eigenvalues --   -0.59315  -0.57670  -0.54423  -0.48974  -0.44788
 Alpha  occ. eigenvalues --   -0.41734  -0.37075
 Alpha virt. eigenvalues --    0.02678   0.04278   0.04593   0.05843   0.07092
 Alpha virt. eigenvalues --    0.08688   0.09527   0.10321   0.11357   0.12357
 Alpha virt. eigenvalues --    0.12840   0.14272   0.14753   0.15184   0.15771

  Beta  occ. eigenvalues --  -81.28755 -20.62531 -20.57137 -11.40202 -11.32859
  Beta  occ. eigenvalues --  -11.27699  -7.79096  -4.93008  -4.92942  -4.91459
  Beta  occ. eigenvalues --   -1.42066  -1.33791  -1.05220  -0.93550  -0.81391
  Beta  occ. eigenvalues --   -0.75220  -0.70521  -0.69121  -0.62976  -0.60873
  Beta  occ. eigenvalues --   -0.58480  -0.55230  -0.54288  -0.46841  -0.43866
  Beta  occ. eigenvalues --   -0.40045
  Beta virt. eigenvalues --    0.01144   0.02769   0.04483   0.04628   0.05911
  Beta virt. eigenvalues --    0.07284   0.08808   0.09628   0.10925   0.11995
  Beta virt. eigenvalues --    0.12804   0.13340   0.14436   0.14872   0.15675

 Mulliken charges and spin densities:
               1          2
     1  P    0.571273   1.164788
     2  C    0.372361  -0.220262
     3  O   -0.642236  -0.005458
     4  C    0.785707   0.006169
     5  C   -0.115983  -0.135738
     6  H   -0.162898   0.001301
     7  H   -0.173293   0.000540
     8  O   -0.450135   0.165861
     9  H   -0.071850   0.006036
    10  H   -0.112947   0.016763
 Sum of Mulliken charges =  -0.00000   1.00000

 Dipole moment (field-independent basis, Debye):
    X=              5.4694    Y=              0.4995    Z=             -0.2017  Tot=              5.4958
                          Isotropic Fermi Contact Couplings
        Atom                 a.u.       MegaHertz       Gauss      10(-4) cm-1
     1  P(31)              0.22681     410.77629     146.57520     137.02022
     2  C(13)             -0.06310     -70.93169     -25.31019     -23.66026
     3  O(17)             -0.00985       5.97080       2.13053       1.99164
     4  C(13)              0.00694       7.80414       2.78471       2.60318
     5  C(13)             -0.02797     -31.43901     -11.21822     -10.48692
     6  H(1)              -0.00044      -1.98405      -0.70796      -0.66181
     7  H(1)              -0.00046      -2.04849      -0.73095      -0.68330
     8  O(17)              0.05800     -35.15826     -12.54534     -11.72753

 Normal termination of Gaussian 16 at Tue Apr  8 23:30:22 2025.
