 Gaussian 16, Revision C.01,

 ----------------------------------------------------------------------
 #t hf aug-cc-pvdz symm=none int=(grid=ultrafine) guess=(read,tcheck) s
 table=opt
 ----------------------------------------------------------------------
 -----
 title
 -----
 Symbolic Z-matrix:
 Charge =  0 Multiplicity = 2

 SCF Done:  E(UHF) =  -974.066343075     A.U. after   21 cycles
 Normal termination of Gaussian 16 at Tue Apr  8 23:57:23 2025.
 Gaussian 16:  ES64L-G16RevC.01  3-Jul-2019

 ----------------------------------------------------------------------
 #t hf aug-cc-pvdz iop(5/13=1,5/36=2,99/5=2) pseudo=read geom=check gue
 ss=(read,tcheck) scf=(maxcycle=1)
 ----------------------------------------------------------------------
 -----
 title
 -----
 Structure from the checkpoint file:  "BDE49_nonexpt_205_mol2.chk"
 Charge =  0 Multiplicity = 2

                         Standard orientation:
 ---------------------------------------------------------------------
 Center     Atomic      Atomic             Coordinates (Angstroms)
 Number     Number       Type             X           Y           Z
 ---------------------------------------------------------------------
      1         17           0       -2.723382   -0.204545   -0.000001
      2          5           0       -1.238553    0.703494   -0.000019
      3          7           0        0.047077    0.222567    0.000019
      4          6           0        1.241863    0.077390    0.000007
      5         16           0        2.794346   -0.128907   -0.000004
 ---------------------------------------------------------------------

 SCF Done:  E(UHF) =  -974.139767914     A.U. after    2 cycles

 The electronic state is 2-A.
 Alpha  occ. eigenvalues -- -103.68494 -93.56706 -15.69041 -11.42703 -10.71966
 Alpha  occ. eigenvalues --   -8.86623  -8.37742  -8.37410  -8.37373  -7.74438
 Alpha  occ. eigenvalues --   -6.20891  -6.20344  -6.20213  -1.27209  -1.18104
 Alpha  occ. eigenvalues --   -1.06010  -0.88989  -0.64703  -0.62540  -0.61308
 Alpha  occ. eigenvalues --   -0.60178  -0.52363  -0.51284  -0.42444  -0.39738
 Alpha  occ. eigenvalues --   -0.33577
 Alpha virt. eigenvalues --    0.01891   0.04484   0.05048   0.05292   0.05630
 Alpha virt. eigenvalues --    0.07622   0.09770   0.11912   0.12483   0.13312
 Alpha virt. eigenvalues --    0.14227   0.14979   0.15857   0.16266   0.16880

  Beta  occ. eigenvalues -- -103.68402 -93.56642 -15.69506 -11.42310 -10.71857
  Beta  occ. eigenvalues --   -8.86553  -8.37539  -8.37371  -8.37185  -7.72300
  Beta  occ. eigenvalues --   -6.20892  -6.20216  -6.19992  -1.27298  -1.17195
  Beta  occ. eigenvalues --   -1.05888  -0.87549  -0.63277  -0.61779  -0.60368
  Beta  occ. eigenvalues --   -0.59047  -0.51246  -0.50330  -0.40097  -0.39651
  Beta virt. eigenvalues --    0.02928   0.03859   0.04790   0.05292   0.06084
  Beta virt. eigenvalues --    0.07034   0.07890   0.11686   0.12902   0.13025
  Beta virt. eigenvalues --    0.13548   0.14376   0.15230   0.16184   0.16969

 Mulliken charges and spin densities:
               1          2
     1  Cl  -0.211582   0.026520
     2  B    0.160499   1.001202
     3  N    0.026354  -0.247005
     4  C   -0.289882   0.141671
     5  S    0.314610   0.077611
 Sum of Mulliken charges =  -0.00000   1.00000

 Dipole moment (field-independent basis, Debye):
    X=              0.2256    Y=              0.1710    Z=             -0.0000  Tot=              0.2831
                          Isotropic Fermi Contact Couplings
        Atom                 a.u.       MegaHertz       Gauss      10(-4) cm-1
     1  Cl(35)             0.10649      46.69162      16.66073      15.57465
     2  B(11)              0.40459     580.33098     207.07652     193.57758
     3  N(14)             -0.00719      -2.32236      -0.82868      -0.77466
     4  C(13)              0.03312      37.23707      13.28711      12.42095
     5  S(33)              0.02073       7.12027       2.54069       2.37507
 --------------------------------------------------------
       Center         ----  Spin Dipole Couplings  ----
                      3XX-RR        3YY-RR        3ZZ-RR

 1\1\GINC-SE396\SP\UHF\Aug-CC-pVDZ\C1B1Cl1N1S1(2)\OHZDE\08-Apr-2025\0\\
 #t hf aug-cc-pvdz iop(5/13=1,5/36=2,99/5=2) pseudo=read geom=check gue
 ss=(read,tcheck) scf=(maxcycle=1)\\title\\0,2\Cl,0,-2.723382,-0.204545
 ,-0.000001\B,0,-1.238553,0.703494,-0.000019\N,0,0.047077,0.222567,0.00
 0019\C,0,1.241863,0.07739,0.000007\S,0,2.794346,-0.128907,-0.000004\\V
 ersion=ES64L-G16RevC.01\State=2-A\HF=-974.1397679\S2=0.778063\S2-1=0.\
 S2A=0.750306\RMSD=8.225e-03\Dipole=0.0887531,0.0672671,-0.0000017\Quad
 rupole=-1.1090869,-0.2623135,1.3714003,0.0939979,-0.0000265,0.0000699\

 Normal termination of Gaussian 16 at Tue Apr  8 23:57:25 2025.
