 Gaussian 16, Revision C.01,

 ----------------------------------------------------------------------
 #t hf aug-cc-pvdz symm=none int=(grid=ultrafine) guess=(read,tcheck) s
 table=opt
 ----------------------------------------------------------------------
 -----
 title
 -----
 Symbolic Z-matrix:
 Charge =  0 Multiplicity = 2

 SCF Done:  E(UHF) =  -278.934681694     A.U. after   19 cycles
 Normal termination of Gaussian 16 at Tue Apr  8 23:32:26 2025.
 Gaussian 16:  ES64L-G16RevC.01  3-Jul-2019

 ----------------------------------------------------------------------
 #t hf aug-cc-pvdz iop(5/13=1,5/36=2,99/5=2) pseudo=read geom=check gue
 ss=(read,tcheck) scf=(maxcycle=1)
 ----------------------------------------------------------------------
 -----
 title
 -----
 Structure from the checkpoint file:  "BDE49_nonexpt_145_mol2.chk"
 Charge =  0 Multiplicity = 2

                         Standard orientation:
 ---------------------------------------------------------------------
 Center     Atomic      Atomic             Coordinates (Angstroms)
 Number     Number       Type             X           Y           Z
 ---------------------------------------------------------------------
      1          5           0        0.802483    1.964898   -0.078045
      2          5           0        0.027155    0.514246   -0.002640
      3          8           0       -1.340142    0.556766    0.003381
      4          8           0        0.650172   -0.709944   -0.000050
      5          6           0       -2.115314   -0.642395    0.005545
      6          1           0       -3.165096   -0.348477   -0.009067
      7          1           0       -1.916368   -1.237914    0.900977
      8          1           0       -1.895814   -1.254730   -0.873542
      9          6           0        2.067525   -0.812872    0.005359
     10          1           0        2.331276   -1.843033   -0.237146
     11          1           0        2.475890   -0.569915    0.992099
     12          1           0        2.522035   -0.152702   -0.743824
     13          1           0        1.306383    2.968076    0.281859
 ---------------------------------------------------------------------

 SCF Done:  E(UHF) =  -279.031389175     A.U. after    2 cycles

 The electronic state is 2-A.
 Alpha  occ. eigenvalues --  -20.57359 -20.56470 -11.29731 -11.28147  -7.64433
 Alpha  occ. eigenvalues --   -7.63156  -1.34059  -1.30659  -0.94631  -0.93129
 Alpha  occ. eigenvalues --   -0.74721  -0.69367  -0.68508  -0.65782  -0.62661
 Alpha  occ. eigenvalues --   -0.62586  -0.60137  -0.53156  -0.50223  -0.50055
 Alpha  occ. eigenvalues --   -0.47338  -0.46620  -0.30468
 Alpha virt. eigenvalues --    0.03116   0.04157   0.04263   0.05248   0.05643
 Alpha virt. eigenvalues --    0.06397   0.07011   0.07089   0.07917   0.08786
 Alpha virt. eigenvalues --    0.09719   0.10343   0.10581   0.11050   0.13266

  Beta  occ. eigenvalues --  -20.57277 -20.56307 -11.29732 -11.28164  -7.64520
  Beta  occ. eigenvalues --   -7.61736  -1.33807  -1.30329  -0.94611  -0.93086
  Beta  occ. eigenvalues --   -0.73739  -0.68728  -0.67046  -0.65192  -0.62139
  Beta  occ. eigenvalues --   -0.60254  -0.59814  -0.52908  -0.50082  -0.49448
  Beta  occ. eigenvalues --   -0.46283  -0.45673
  Beta virt. eigenvalues --    0.03203   0.04273   0.04431   0.04643   0.05643
  Beta virt. eigenvalues --    0.06394   0.06594   0.07108   0.07628   0.09391
  Beta virt. eigenvalues --    0.09681   0.10179   0.10927   0.11055   0.11646

 Mulliken charges and spin densities:
               1          2
     1  B   -0.669847   1.009048
     2  B    0.842047  -0.033523
     3  O   -0.585173   0.068381
     4  O   -0.572921   0.014320
     5  C    0.859079  -0.003495
     6  H   -0.282124   0.000472
     7  H   -0.144968   0.000466
     8  H   -0.130829   0.001095
     9  C    0.885773   0.011215
    10  H   -0.250312  -0.000534
    11  H   -0.129601  -0.004596
    12  H   -0.181676  -0.007592
    13  H    0.360552  -0.055257
 Sum of Mulliken charges =  -0.00000   1.00000

 Dipole moment (field-independent basis, Debye):
    X=              1.3163    Y=             -0.8562    Z=              0.3097  Tot=              1.6005
                          Isotropic Fermi Contact Couplings
        Atom                 a.u.       MegaHertz       Gauss      10(-4) cm-1
     1  B(11)              0.11827     169.64137      60.53226      56.58627
     2  B(11)             -0.02496     -35.79832     -12.77373     -11.94103
     3  O(17)              0.01243      -7.53636      -2.68916      -2.51386
     4  O(17)              0.00832      -5.04359      -1.79968      -1.68236
     5  C(13)             -0.00279      -3.13296      -1.11792      -1.04504
     6  H(1)               0.00005       0.23372       0.08340       0.07796
     7  H(1)               0.00042       1.87279       0.66826       0.62470
     8  H(1)               0.00055       2.45579       0.87629       0.81916

 Normal termination of Gaussian 16 at Tue Apr  8 23:32:30 2025.
