 Gaussian 16, Revision C.01,

 ----------------------------------------------------------------------
 #t hf aug-cc-pvdz symm=none int=(grid=ultrafine) guess=(read,tcheck) s
 table=opt
 ----------------------------------------------------------------------
 -----
 title
 -----
 Symbolic Z-matrix:
 Charge =  0 Multiplicity = 2

 SCF Done:  E(UHF) =  -457.260804848     A.U. after   19 cycles
 Normal termination of Gaussian 16 at Tue Apr  8 23:50:55 2025.
 Gaussian 16:  ES64L-G16RevC.01  3-Jul-2019

 ----------------------------------------------------------------------
 #t hf aug-cc-pvdz iop(5/13=1,5/36=2,99/5=2) pseudo=read geom=check gue
 ss=(read,tcheck) scf=(maxcycle=1)
 ----------------------------------------------------------------------
 -----
 title
 -----
 Structure from the checkpoint file:  "BDE49_nonexpt_1914_mol2.chk"
 Charge =  0 Multiplicity = 2

                         Standard orientation:
 ---------------------------------------------------------------------
 Center     Atomic      Atomic             Coordinates (Angstroms)
 Number     Number       Type             X           Y           Z
 ---------------------------------------------------------------------
      1         14           0       -1.446913    0.194384   -0.111424
      2          8           0        0.054935   -0.607891    0.067720
      3          1           0       -2.403493   -0.812166    0.397627
      4          1           0       -1.396431    1.423222    0.719546
      5          6           0        1.236116   -0.107825    0.015030
      6          7           0        2.314360    0.311092   -0.027026
 ---------------------------------------------------------------------

 SCF Done:  E(UHF) =  -457.340808057     A.U. after    2 cycles

 The electronic state is 2-A.
 Alpha  occ. eigenvalues --  -69.15933 -20.67134 -15.63502 -11.35759  -6.90721
 Alpha  occ. eigenvalues --   -4.01942  -4.01255  -4.01050  -1.43678  -1.18764
 Alpha  occ. eigenvalues --   -0.89038  -0.72901  -0.69691  -0.66231  -0.55181
 Alpha  occ. eigenvalues --   -0.53443  -0.45889  -0.45210  -0.37985
 Alpha virt. eigenvalues --    0.02900   0.03610   0.05337   0.05798   0.07726
 Alpha virt. eigenvalues --    0.09591   0.10939   0.11074   0.11261   0.12588
 Alpha virt. eigenvalues --    0.15375   0.16015   0.18033   0.19901   0.20261

  Beta  occ. eigenvalues --  -69.15351 -20.66845 -15.63459 -11.35804  -6.89806
  Beta  occ. eigenvalues --   -4.00888  -4.00683  -3.99812  -1.42941  -1.18677
  Beta  occ. eigenvalues --   -0.88069  -0.71589  -0.67864  -0.63274  -0.55062
  Beta  occ. eigenvalues --   -0.51867  -0.45287  -0.44707
  Beta virt. eigenvalues --    0.00234   0.03272   0.04084   0.05540   0.07557
  Beta virt. eigenvalues --    0.08171   0.10020   0.11045   0.11398   0.12208
  Beta virt. eigenvalues --    0.13506   0.16980   0.18469   0.19243   0.20204

 Mulliken charges and spin densities:
               1          2
     1  Si   0.698978   0.884719
     2  O   -0.507564  -0.006472
     3  H   -0.008299   0.048439
     4  H   -0.013363   0.066813
     5  C   -0.087085  -0.009928
     6  N   -0.082667   0.016430
 Sum of Mulliken charges =  -0.00000   1.00000

 Dipole moment (field-independent basis, Debye):
    X=             -4.8396    Y=             -0.0767    Z=             -0.1394  Tot=              4.8423
                          Isotropic Fermi Contact Couplings
        Atom                 a.u.       MegaHertz       Gauss      10(-4) cm-1
     1  Si(29)             0.69118    -614.27438    -219.18837    -204.89988
     2  O(17)              0.04093     -24.81453      -8.85444      -8.27724
     3  H(1)               0.01517      67.82971      24.20333      22.62555
     4  H(1)               0.01724      77.04639      27.49207      25.69991
     5  C(13)             -0.00631      -7.09344      -2.53112      -2.36612
     6  N(14)              0.00332       1.07239       0.38266       0.35771
 --------------------------------------------------------
       Center         ----  Spin Dipole Couplings  ----

 1\1\GINC-SE099\SP\UHF\Aug-CC-pVDZ\C1H2N1O1Si1(2)\OHZDE\08-Apr-2025\0\\
 #t hf aug-cc-pvdz iop(5/13=1,5/36=2,99/5=2) pseudo=read geom=check gue
 ss=(read,tcheck) scf=(maxcycle=1)\\title\\0,2\Si,0,-1.446913,0.194384,
 -0.111424\O,0,0.054935,-0.607891,0.06772\H,0,-2.403493,-0.812166,0.397
 627\H,0,-1.396431,1.423222,0.719546\C,0,1.236116,-0.107825,0.01503\N,0
 ,2.31436,0.311092,-0.027026\\Version=ES64L-G16RevC.01\State=2-A\HF=-45
 7.3408081\S2=0.753608\S2-1=0.\S2A=0.750005\RMSD=4.819e-03\Dipole=-1.90
 40599,-0.0301738,-0.0548579\Quadrupole=-3.2051547,1.3763056,1.8288492,

 Normal termination of Gaussian 16 at Tue Apr  8 23:50:57 2025.
