 Gaussian 16, Revision C.01,

 ----------------------------------------------------------------------
 #t hf aug-cc-pvdz symm=none int=(grid=ultrafine) guess=(read,tcheck) s
 table=opt
 ----------------------------------------------------------------------
 -----
 title
 -----
 Symbolic Z-matrix:
 Charge =  0 Multiplicity = 2

 SCF Done:  E(UHF) =  -931.598118526     A.U. after   15 cycles
 Normal termination of Gaussian 16 at Tue Apr  8 23:56:33 2025.
 Gaussian 16:  ES64L-G16RevC.01  3-Jul-2019

 ----------------------------------------------------------------------
 #t hf aug-cc-pvdz iop(5/13=1,5/36=2,99/5=2) pseudo=read geom=check gue
 ss=(read,tcheck) scf=(maxcycle=1)
 ----------------------------------------------------------------------
 -----
 title
 -----
 Structure from the checkpoint file:  "BDE49_nonexpt_2040_mol2.chk"
 Charge =  0 Multiplicity = 2

                         Standard orientation:
 ---------------------------------------------------------------------
 Center     Atomic      Atomic             Coordinates (Angstroms)
 Number     Number       Type             X           Y           Z
 ---------------------------------------------------------------------
      1         14           0        2.275307   -0.093358    0.057868
      2         15           0       -0.720424    0.006121    0.106279
      3          8           0       -0.811017    0.020626    1.567583
      4          8           0       -1.674856   -1.059626   -0.607125
      5          1           0       -1.893462   -1.783944   -0.009075
      6          8           0       -1.074923    1.357815   -0.659183
      7          1           0       -1.841806    1.799307   -0.275399
      8          8           0        0.704044   -0.294484   -0.504171
      9          1           0        2.416315    1.261440    0.649201
     10          1           0        3.125024   -0.256256   -1.145891
 ---------------------------------------------------------------------

 SCF Done:  E(UHF) =  -931.801772994     A.U. after    2 cycles

 The electronic state is 2-A.
 Alpha  occ. eigenvalues --  -81.45739 -69.12782 -20.62458 -20.62286 -20.60982
 Alpha  occ. eigenvalues --  -20.53489  -7.93590  -6.87557  -5.08298  -5.08194
 Alpha  occ. eigenvalues --   -5.08169  -3.98804  -3.98115  -3.97922  -1.40237
 Alpha  occ. eigenvalues --   -1.35863  -1.34642  -1.26992  -0.88254  -0.78204
 Alpha  occ. eigenvalues --   -0.77567  -0.70095  -0.66964  -0.66211  -0.62695
 Alpha  occ. eigenvalues --   -0.61898  -0.60465  -0.57643  -0.56217  -0.50595
 Alpha  occ. eigenvalues --   -0.49895  -0.49186  -0.34999
 Alpha virt. eigenvalues --    0.03158   0.04265   0.04718   0.06163   0.07262
 Alpha virt. eigenvalues --    0.07552   0.09072   0.10108   0.11079   0.12347
 Alpha virt. eigenvalues --    0.13185   0.13844   0.16450   0.18081   0.18358

  Beta  occ. eigenvalues --  -81.45742 -69.12210 -20.62454 -20.62291 -20.60690
  Beta  occ. eigenvalues --  -20.53497  -7.93594  -6.86659  -5.08300  -5.08200
  Beta  occ. eigenvalues --   -5.08170  -3.97755  -3.97558  -3.96709  -1.40094
  Beta  occ. eigenvalues --   -1.35862  -1.33970  -1.26990  -0.87833  -0.77759
  Beta  occ. eigenvalues --   -0.77063  -0.69692  -0.66182  -0.65450  -0.61438
  Beta  occ. eigenvalues --   -0.60469  -0.59660  -0.57413  -0.55616  -0.50081
  Beta  occ. eigenvalues --   -0.49897  -0.48114
  Beta virt. eigenvalues --    0.02625   0.03388   0.04550   0.04918   0.06370
  Beta virt. eigenvalues --    0.07749   0.09227   0.09412   0.10423   0.11147
  Beta virt. eigenvalues --    0.12742   0.13524   0.14896   0.17719   0.18889

 Mulliken charges and spin densities:
               1          2
     1  Si   0.493540   0.921782
     2  P    2.335664   0.000657
     3  O   -0.855796  -0.000550
     4  O   -0.634637   0.000877
     5  H    0.163156  -0.000401
     6  O   -0.621163   0.001799
     7  H    0.151521   0.000584
     8  O   -1.049708  -0.023236
     9  H   -0.012221   0.057023
    10  H    0.029643   0.041463
 Sum of Mulliken charges =  -0.00000   1.00000

 Dipole moment (field-independent basis, Debye):
    X=             -0.0796    Y=             -0.3485    Z=             -0.8341  Tot=              0.9075
                          Isotropic Fermi Contact Couplings
        Atom                 a.u.       MegaHertz       Gauss      10(-4) cm-1
     1  Si(29)             0.67403    -599.02561    -213.74723    -199.81344
     2  P(31)             -0.00432      -7.82099      -2.79072      -2.60880
     3  O(17)             -0.00105       0.63420       0.22630       0.21155
     4  O(17)             -0.00076       0.46195       0.16483       0.15409
     5  H(1)               0.00003       0.12473       0.04451       0.04160
     6  O(17)              0.00168      -1.01946      -0.36377      -0.34005
     7  H(1)               0.00013       0.57211       0.20414       0.19083
     8  O(17)              0.04241     -25.70853      -9.17344      -8.57544

 Normal termination of Gaussian 16 at Tue Apr  8 23:56:37 2025.
