 Gaussian 16, Revision C.01,

 ----------------------------------------------------------------------
 #t hf aug-cc-pvdz symm=none int=(grid=ultrafine) guess=(read,tcheck) s
 table=opt
 ----------------------------------------------------------------------
 -----
 title
 -----
 Symbolic Z-matrix:
 Charge =  0 Multiplicity = 2

 SCF Done:  E(UHF) =  -306.428281671     A.U. after   17 cycles
 Normal termination of Gaussian 16 at Tue Apr  8 22:48:00 2025.
 Gaussian 16:  ES64L-G16RevC.01  3-Jul-2019

 ----------------------------------------------------------------------
 #t hf aug-cc-pvdz iop(5/13=1,5/36=2,99/5=2) pseudo=read geom=check gue
 ss=(read,tcheck) scf=(maxcycle=1)
 ----------------------------------------------------------------------
 -----
 title
 -----
 Structure from the checkpoint file:  "BDE49_expt_168_mol2.chk"
 Charge =  0 Multiplicity = 2

                         Standard orientation:
 ---------------------------------------------------------------------
 Center     Atomic      Atomic             Coordinates (Angstroms)
 Number     Number       Type             X           Y           Z
 ---------------------------------------------------------------------
      1          6           0       -1.662675    0.153501    0.193386
      2          6           0       -0.652941    1.143114   -0.368300
      3          8           0       -1.248189   -1.189755   -0.116310
      4          1           0       -2.647281    0.338466   -0.252075
      5          1           0       -1.745796    0.281712    1.280890
      6          1           0       -1.834007   -1.809874    0.328124
      7          6           0        0.745717    1.140145    0.298872
      8          1           0       -0.550722    0.977687   -1.445761
      9          1           0       -1.094809    2.137765   -0.240675
     10          6           0        1.722172    0.103030   -0.164245
     11          1           0        0.597935    1.081209    1.394882
     12          1           0        1.208891    2.113977    0.113193
     13          8           0        1.479985   -1.224943    0.017953
     14          1           0        2.782238    0.330492   -0.136909
     15          1           0        0.515552   -1.372588   -0.013088
 ---------------------------------------------------------------------

 SCF Done:  E(UHF) =  -306.525075712     A.U. after    2 cycles

 The electronic state is 2-A.
 Alpha  occ. eigenvalues --  -20.59805 -20.56056 -11.30409 -11.26896 -11.24271
 Alpha  occ. eigenvalues --  -11.23673  -1.34697  -1.32498  -1.06474  -0.97122
 Alpha  occ. eigenvalues --   -0.87125  -0.79574  -0.74313  -0.67441  -0.66882
 Alpha  occ. eigenvalues --   -0.63361  -0.62540  -0.59631  -0.56234  -0.53952
 Alpha  occ. eigenvalues --   -0.51824  -0.49099  -0.47526  -0.47281  -0.30751
 Alpha virt. eigenvalues --    0.02875   0.04113   0.04601   0.04956   0.06210
 Alpha virt. eigenvalues --    0.06842   0.07218   0.07535   0.09562   0.12025
 Alpha virt. eigenvalues --    0.12891   0.13745   0.14240   0.15118   0.15298

  Beta  occ. eigenvalues --  -20.59809 -20.55440 -11.30414 -11.24438 -11.24156
  Beta  occ. eigenvalues --  -11.23932  -1.34568  -1.30568  -1.05917  -0.95414
  Beta  occ. eigenvalues --   -0.84656  -0.78334  -0.74038  -0.66762  -0.65685
  Beta  occ. eigenvalues --   -0.62374  -0.61473  -0.56509  -0.54523  -0.52100
  Beta  occ. eigenvalues --   -0.50095  -0.48636  -0.47129  -0.46351
  Beta virt. eigenvalues --    0.02854   0.04091   0.04616   0.04992   0.06224
  Beta virt. eigenvalues --    0.06723   0.07218   0.07543   0.09558   0.11803
  Beta virt. eigenvalues --    0.12733   0.13089   0.13888   0.14645   0.15234

 Mulliken charges and spin densities:
               1          2
     1  C    0.776703  -0.001706
     2  C    0.042156   0.005001
     3  O   -0.643222   0.000857
     4  H   -0.137738   0.000397
     5  H   -0.133567  -0.003316
     6  H    0.150150   0.000238
     7  C    0.106610  -0.211863
     8  H   -0.091568  -0.005788
     9  H   -0.053112  -0.000558
    10  C    0.697867   1.203021
    11  H   -0.050075   0.051570
    12  H   -0.081829   0.000858
    13  O   -0.504599   0.060478
    14  H   -0.286799  -0.091577
    15  H    0.209024  -0.007611
 Sum of Mulliken charges =  -0.00000   1.00000

 Dipole moment (field-independent basis, Debye):
    X=             -3.4857    Y=              1.6384    Z=              1.2223  Tot=              4.0408
                          Isotropic Fermi Contact Couplings
        Atom                 a.u.       MegaHertz       Gauss      10(-4) cm-1
     1  C(13)             -0.00135      -1.51406      -0.54025      -0.50504
     2  C(13)              0.03010      33.84059      12.07517      11.28801
     3  O(17)             -0.00130       0.78824       0.28126       0.26293
     4  H(1)               0.00007       0.33274       0.11873       0.11099
     5  H(1)              -0.00001      -0.05569      -0.01987      -0.01858
     6  H(1)              -0.00002      -0.10024      -0.03577      -0.03344
     7  C(13)             -0.04302     -48.35799     -17.25533     -16.13049
     8  H(1)              -0.00092      -4.12910      -1.47337      -1.37732

 Normal termination of Gaussian 16 at Tue Apr  8 22:48:05 2025.
