 Gaussian 16, Revision C.01,

 ----------------------------------------------------------------------
 #t hf aug-cc-pvdz symm=none int=(grid=ultrafine) guess=(read,tcheck) s
 table=(opt,rrhf)
 ----------------------------------------------------------------------
 -----
 title
 -----
 Symbolic Z-matrix:
 Charge =  0 Multiplicity = 1

 SCF Done:  E(RHF) =  -1898.69685221     A.U. after   13 cycles
 Normal termination of Gaussian 16 at Tue Apr  8 23:23:42 2025.
 Gaussian 16:  ES64L-G16RevC.01  3-Jul-2019

 ----------------------------------------------------------------------
 #t hf aug-cc-pvdz iop(5/13=1,5/36=2,99/5=2) pseudo=read geom=check gue
 ss=(read,tcheck) scf=(maxcycle=1)
 ----------------------------------------------------------------------
 -----
 title
 -----
 Structure from the checkpoint file:  "BDE49_nonexpt_1233_mol1.chk"
 Charge =  0 Multiplicity = 1

                         Standard orientation:
 ---------------------------------------------------------------------
 Center     Atomic      Atomic             Coordinates (Angstroms)
 Number     Number       Type             X           Y           Z
 ---------------------------------------------------------------------
      1         17           0       -1.827680   -1.657849   -0.593227
      2          7           0       -0.344744    1.299394    0.513016
      3          7           0       -2.292647    1.590657   -1.074279
      4         15           0       -2.592167   -0.315407    0.842268
      5          6           0       -1.807620    1.295901    0.244960
      6         17           0        1.827690   -1.657845    0.593227
      7          7           0        0.344739    1.299398   -0.513015
      8          7           0        2.292641    1.590656    1.074282
      9         15           0        2.592165   -0.315400   -0.842272
     10          6           0        1.807615    1.295905   -0.244959
     11          1           0        2.003207    2.521960    1.357633
     12          1           0        1.891403    0.942856    1.745455
     13          1           0       -1.891409    0.942859   -1.745455
     14          1           0       -2.003214    2.521962   -1.357627
     15          1           0        1.604416   -0.579897   -1.824924
     16          1           0        2.214787    2.023755   -0.957777
     17          1           0       -1.604424   -0.579901    1.824926
     18          1           0       -2.214792    2.023748    0.957781
 ---------------------------------------------------------------------

 SCF Done:  E(RHF) =  -1898.85871707     A.U. after    2 cycles

 The electronic state is 1-A.
 Alpha  occ. eigenvalues -- -103.65672-103.65672 -81.32053 -81.32053 -15.70966
 Alpha  occ. eigenvalues --  -15.70837 -15.63254 -15.63253 -11.32948 -11.32948
 Alpha  occ. eigenvalues --  -10.68995 -10.68994  -8.34699  -8.34699  -8.34434
 Alpha  occ. eigenvalues --   -8.34433  -8.34407  -8.34406  -7.81946  -7.81946
 Alpha  occ. eigenvalues --   -4.95809  -4.95793  -4.95744  -4.95742  -4.95432
 Alpha  occ. eigenvalues --   -4.95432  -1.34592  -1.19972  -1.16247  -1.13643
 Alpha  occ. eigenvalues --   -1.13323  -1.02084  -0.93204  -0.81443  -0.77258
 Alpha  occ. eigenvalues --   -0.74913  -0.70378  -0.69657  -0.68285  -0.65638
 Alpha  occ. eigenvalues --   -0.59255  -0.58687  -0.57266  -0.54887  -0.54356
 Alpha  occ. eigenvalues --   -0.52262  -0.49433  -0.48433  -0.48349  -0.45978
 Alpha  occ. eigenvalues --   -0.45456  -0.44332  -0.42041  -0.39239  -0.38054
 Alpha  occ. eigenvalues --   -0.35715
 Alpha virt. eigenvalues --    0.02450   0.02750   0.04427   0.05018   0.05730
 Alpha virt. eigenvalues --    0.06568   0.07481   0.07525   0.08424   0.08495
 Alpha virt. eigenvalues --    0.09615   0.09745   0.10860   0.11711   0.12076

 Mulliken charges:
               1
     1  Cl  -0.489381
     2  N   -0.496679
     3  N   -0.327444
     4  P    0.439371
     5  C    0.778616
     6  Cl  -0.489381
     7  N   -0.496683
     8  N   -0.327443
     9  P    0.439371
    10  C    0.778615
    11  H    0.000634
    12  H    0.085988
    13  H    0.085989
    14  H    0.000634
    15  H    0.270913
    16  H   -0.262016
    17  H    0.270912
    18  H   -0.262016
 Sum of Mulliken charges =  -0.00000

 Dipole moment (field-independent basis, Debye):
    X=             -0.0000    Y=              3.8427    Z=              0.0000  Tot=              3.8427

 Test job not archived.
 1\1\GINC-SE126\SP\RHF\Aug-CC-pVDZ\C2H8Cl2N4P2\OHZDE\08-Apr-2025\0\\#t
 hf aug-cc-pvdz iop(5/13=1,5/36=2,99/5=2) pseudo=read geom=check guess=
 (read,tcheck) scf=(maxcycle=1)\\title\\0,1\Cl,0,1.82768,-1.657849,0.59
 3227\N,0,0.344744,1.299394,-0.513016\N,0,2.292647,1.590657,1.074279\P,
 0,2.592167,-0.315407,-0.842268\C,0,1.80762,1.295901,-0.24496\Cl,0,-1.8
 2769,-1.657845,-0.593227\N,0,-0.344739,1.299398,0.513015\N,0,-2.292641
 ,1.590656,-1.074282\P,0,-2.592165,-0.3154,0.842272\C,0,-1.807615,1.295
 905,0.244959\H,0,-2.003207,2.52196,-1.357633\H,0,-1.891403,0.942856,-1

 Normal termination of Gaussian 16 at Tue Apr  8 23:23:54 2025.
