 Gaussian 16, Revision C.01,

 ----------------------------------------------------------------------
 #t hf aug-cc-pvdz symm=none int=(grid=ultrafine) guess=(read,tcheck) s
 table=(opt,rrhf)
 ----------------------------------------------------------------------
 -----
 title
 -----
 Symbolic Z-matrix:
 Charge =  0 Multiplicity = 1

 SCF Done:  E(RHF) =  -362.054363820     A.U. after   12 cycles
 Normal termination of Gaussian 16 at Wed Apr  9 00:35:48 2025.
 Gaussian 16:  ES64L-G16RevC.01  3-Jul-2019

 ----------------------------------------------------------------------
 #t hf aug-cc-pvdz iop(5/13=1,5/36=2,99/5=2) pseudo=read geom=check gue
 ss=(read,tcheck) scf=(maxcycle=1)
 ----------------------------------------------------------------------
 -----
 title
 -----
 Structure from the checkpoint file:  "BDE49_nonexpt_545_mol1.chk"
 Charge =  0 Multiplicity = 1

                         Standard orientation:
 ---------------------------------------------------------------------
 Center     Atomic      Atomic             Coordinates (Angstroms)
 Number     Number       Type             X           Y           Z
 ---------------------------------------------------------------------
      1          1           0       -0.562202    2.112676    1.040566
      2          1           0       -0.562202    2.112676   -1.040566
      3          9           0        1.319096    0.010876    0.000000
      4          9           0       -0.454211   -0.679254    1.084503
      5          9           0       -0.454211   -0.679254   -1.084503
      6          6           0       -0.050101    0.018636   -0.000000
      7          5           0       -0.454211    1.558305   -0.000000
 ---------------------------------------------------------------------

 SCF Done:  E(RHF) =  -362.185453950     A.U. after    2 cycles

 The electronic state is 1-A'.
 Alpha  occ. eigenvalues --  -26.16451 -26.16267 -26.16257 -11.50525  -7.67203
 Alpha  occ. eigenvalues --   -1.75273  -1.68495  -1.68471  -1.02908  -0.88240
 Alpha  occ. eigenvalues --   -0.86998  -0.86877  -0.76903  -0.76789  -0.72562
 Alpha  occ. eigenvalues --   -0.72519  -0.71421  -0.70391  -0.55162  -0.54466
 Alpha virt. eigenvalues --    0.01901   0.04361   0.04564   0.05565   0.07764
 Alpha virt. eigenvalues --    0.09669   0.09767   0.12058   0.13271   0.15854
 Alpha virt. eigenvalues --    0.19180   0.21696   0.23505   0.24715   0.24799

 Mulliken charges:
               1
     1  H    0.196190
     2  H    0.196190
     3  F   -0.387377
     4  F   -0.344184
     5  F   -0.344184
     6  C    0.876720
     7  B   -0.193355
 Sum of Mulliken charges =  -0.00000

 Dipole moment (field-independent basis, Debye):
    X=             -0.9573    Y=              2.3653    Z=              0.0000  Tot=              2.5517

 Test job not archived.
 1\1\GINC-SE058\SP\RHF\Aug-CC-pVDZ\C1H2B1F3\OHZDE\09-Apr-2025\0\\#t hf
 aug-cc-pvdz iop(5/13=1,5/36=2,99/5=2) pseudo=read geom=check guess=(re
 ad,tcheck) scf=(maxcycle=1)\\title\\0,1\H,0,-0.562202,2.112676,1.04056
 6\H,0,-0.562202,2.112676,-1.040566\F,0,1.319096,0.010876,0.\F,0,-0.454
 211,-0.679254,1.084503\F,0,-0.454211,-0.679254,-1.084503\C,0,-0.050101
 ,0.018636,0.\B,0,-0.454211,1.558305,0.\\Version=ES64L-G16RevC.01\State
 =1-A'\HF=-362.1854539\RMSD=5.717e-03\Dipole=-0.3766453,0.9305917,0.\Qu
 adrupole=0.2392555,1.044938,-1.2841936,-0.6845096,0.,0.\PG=CS [SG(C1B1

 Normal termination of Gaussian 16 at Wed Apr  9 00:35:50 2025.
