 Gaussian 16, Revision C.01,

 ----------------------------------------------------------------------
 #t hf aug-cc-pvdz symm=none int=(grid=ultrafine) guess=(read,tcheck) s
 table=opt
 ----------------------------------------------------------------------
 -----
 title
 -----
 Symbolic Z-matrix:
 Charge =  0 Multiplicity = 2

 SCF Done:  E(UHF) =  -479.328561158     A.U. after   22 cycles
 Normal termination of Gaussian 16 at Tue Apr  8 23:50:23 2025.
 Gaussian 16:  ES64L-G16RevC.01  3-Jul-2019

 ----------------------------------------------------------------------
 #t hf aug-cc-pvdz iop(5/13=1,5/36=2,99/5=2) pseudo=read geom=check gue
 ss=(read,tcheck) scf=(maxcycle=1)
 ----------------------------------------------------------------------
 -----
 title
 -----
 Structure from the checkpoint file:  "BDE49_nonexpt_1890_mol2.chk"
 Charge =  0 Multiplicity = 2

                         Standard orientation:
 ---------------------------------------------------------------------
 Center     Atomic      Atomic             Coordinates (Angstroms)
 Number     Number       Type             X           Y           Z
 ---------------------------------------------------------------------
      1         14           0       -1.547177    0.147731   -0.083111
      2          8           0       -0.116496   -0.691478   -0.300414
      3          1           0       -2.148929   -0.092770    1.252539
      4          1           0       -1.367935    1.600236   -0.334717
      5          8           0        0.894319   -0.072413    0.617657
      6          6           0        2.007707    0.252037   -0.195236
      7          1           0        2.747718    0.646701    0.506470
      8          1           0        1.758736    1.016870   -0.938100
      9          1           0        2.402060   -0.640372   -0.689164
 ---------------------------------------------------------------------

 SCF Done:  E(UHF) =  -479.419142297     A.U. after    2 cycles

 The electronic state is 2-A.
 Alpha  occ. eigenvalues --  -69.10981 -20.65376 -20.61965 -11.29770  -6.85882
 Alpha  occ. eigenvalues --   -3.97211  -3.96450  -3.96261  -1.41103  -1.20111
 Alpha  occ. eigenvalues --   -0.92473  -0.74652  -0.68878  -0.66806  -0.64697
 Alpha  occ. eigenvalues --   -0.57209  -0.55074  -0.53168  -0.48880  -0.46559
 Alpha  occ. eigenvalues --   -0.33990
 Alpha virt. eigenvalues --    0.03587   0.04683   0.05512   0.05969   0.06622
 Alpha virt. eigenvalues --    0.07584   0.07997   0.09236   0.11733   0.13839
 Alpha virt. eigenvalues --    0.14308   0.15649   0.16329   0.17279   0.18893

  Beta  occ. eigenvalues --  -69.10410 -20.64238 -20.62828 -11.29824  -6.85005
  Beta  occ. eigenvalues --   -3.96062  -3.95880  -3.95087  -1.40043  -1.20346
  Beta  occ. eigenvalues --   -0.92009  -0.72799  -0.67491  -0.66936  -0.62399
  Beta  occ. eigenvalues --   -0.56969  -0.55071  -0.53004  -0.47995  -0.46010
  Beta virt. eigenvalues --    0.02895   0.03741   0.05068   0.05803   0.06134
  Beta virt. eigenvalues --    0.06877   0.07885   0.09399   0.10129   0.12177
  Beta virt. eigenvalues --    0.14324   0.15616   0.16235   0.16807   0.17870

 Mulliken charges and spin densities:
               1          2
     1  Si   0.779402   1.003788
     2  O   -0.672345  -0.324092
     3  H   -0.049475   0.035122
     4  H   -0.073039   0.027983
     5  O   -0.443841   0.270310
     6  C    0.817391  -0.027664
     7  H   -0.166281   0.011823
     8  H   -0.104234   0.002126
     9  H   -0.087577   0.000604
 Sum of Mulliken charges =   0.00000   1.00000

 Dipole moment (field-independent basis, Debye):
    X=              0.6518    Y=              1.2688    Z=             -0.6496  Tot=              1.5674
                          Isotropic Fermi Contact Couplings
        Atom                 a.u.       MegaHertz       Gauss      10(-4) cm-1
     1  Si(29)             0.60597    -538.54291    -192.16550    -179.63858
     2  O(17)              0.04978     -30.17782     -10.76820     -10.06624
     3  H(1)               0.01072      47.93408      17.10407      15.98909
     4  H(1)               0.00849      37.95347      13.54274      12.65991
     5  O(17)              0.05212     -31.59504     -11.27390     -10.53897
     6  C(13)             -0.00931     -10.46609      -3.73456      -3.49111
     7  H(1)               0.00537      24.01548       8.56932       8.01070
     8  H(1)               0.00066       2.93496       1.04727       0.97900

 Normal termination of Gaussian 16 at Tue Apr  8 23:50:26 2025.
