 Gaussian 16, Revision C.01,

 ----------------------------------------------------------------------
 #t hf aug-cc-pvdz symm=none int=(grid=ultrafine) guess=(read,tcheck) s
 table=(opt,rrhf)
 ----------------------------------------------------------------------
 -----
 title
 -----
 Symbolic Z-matrix:
 Charge =  0 Multiplicity = 1

 SCF Done:  E(RHF) =  -1277.02501666     A.U. after   14 cycles
 Normal termination of Gaussian 16 at Wed Apr  9 00:15:40 2025.
 Gaussian 16:  ES64L-G16RevC.01  3-Jul-2019

 ----------------------------------------------------------------------
 #t hf aug-cc-pvdz iop(5/13=1,5/36=2,99/5=2) pseudo=read geom=check gue
 ss=(read,tcheck) scf=(maxcycle=1)
 ----------------------------------------------------------------------
 -----
 title
 -----
 Structure from the checkpoint file:  "BDE49_nonexpt_2536_mol1.chk"
 Charge =  0 Multiplicity = 1

                         Standard orientation:
 ---------------------------------------------------------------------
 Center     Atomic      Atomic             Coordinates (Angstroms)
 Number     Number       Type             X           Y           Z
 ---------------------------------------------------------------------
      1         17           0        1.960515    0.000095   -0.669866
      2         16           0        0.740380   -0.000162    1.076174
      3         15           0       -1.271668   -0.000065    0.494825
      4          6           0       -1.434181   -1.430986   -0.661528
      5          6           0       -1.434160    1.431181   -0.661127
      6          1           0       -1.260536   -2.357116   -0.112402
      7          1           0       -0.729579   -1.364257   -1.493044
      8          1           0       -2.454801   -1.443772   -1.054030
      9          1           0       -1.260500    2.357155   -0.111742
     10          1           0       -2.454780    1.444093   -1.053626
     11          1           0       -0.729560    1.364675   -1.492662
 ---------------------------------------------------------------------

 SCF Done:  E(RHF) =  -1277.11382757     A.U. after    2 cycles

 The electronic state is 1-A.
 Alpha  occ. eigenvalues -- -103.67108 -93.59191 -81.29631 -11.25367 -11.25365
 Alpha  occ. eigenvalues --  -10.70203  -8.88603  -8.35925  -8.35602  -8.35576
 Alpha  occ. eigenvalues --   -7.79801  -6.22664  -6.22338  -6.22007  -4.93766
 Alpha  occ. eigenvalues --   -4.93650  -4.93370  -1.14893  -1.00991  -0.95365
 Alpha  occ. eigenvalues --   -0.92287  -0.70243  -0.61014  -0.60776  -0.58237
 Alpha  occ. eigenvalues --   -0.57631  -0.54414  -0.51219  -0.50391  -0.48401
 Alpha  occ. eigenvalues --   -0.43194  -0.37480  -0.35322
 Alpha virt. eigenvalues --    0.02715   0.04018   0.04616   0.05808   0.05967
 Alpha virt. eigenvalues --    0.07204   0.07882   0.08345   0.09004   0.11725
 Alpha virt. eigenvalues --    0.12269   0.13324   0.14093   0.14982   0.16014

 Mulliken charges:
               1
     1  Cl  -0.372343
     2  S    0.051839
     3  P    0.478411
     4  C    0.263089
     5  C    0.263090
     6  H   -0.127786
     7  H   -0.115580
     8  H   -0.098677
     9  H   -0.127785
    10  H   -0.098676
    11  H   -0.115583
 Sum of Mulliken charges =   0.00000

 Dipole moment (field-independent basis, Debye):
    X=             -2.7703    Y=              0.0002    Z=             -1.0342  Tot=              2.9570

 Test job not archived.
 1\1\GINC-SE054\SP\RHF\Aug-CC-pVDZ\C2H6Cl1P1S1\OHZDE\09-Apr-2025\0\\#t
 hf aug-cc-pvdz iop(5/13=1,5/36=2,99/5=2) pseudo=read geom=check guess=
 (read,tcheck) scf=(maxcycle=1)\\title\\0,1\Cl,0,1.960515,0.000095,-0.6
 69866\S,0,0.74038,-0.000162,1.076174\P,0,-1.271668,-0.000065,0.494825\
 C,0,-1.434181,-1.430986,-0.661528\C,0,-1.43416,1.431181,-0.661127\H,0,
 -1.260536,-2.357116,-0.112402\H,0,-0.729579,-1.364257,-1.493044\H,0,-2
 .454801,-1.443772,-1.05403\H,0,-1.2605,2.357155,-0.111742\H,0,-2.45478
 ,1.444093,-1.053626\H,0,-0.72956,1.364675,-1.492662\\Version=ES64L-G16

 Normal termination of Gaussian 16 at Wed Apr  9 00:15:44 2025.
