 Gaussian 16, Revision C.01,

 ----------------------------------------------------------------------
 #t hf aug-cc-pvdz symm=none int=(grid=ultrafine) guess=(read,tcheck) s
 table=(opt,rrhf)
 ----------------------------------------------------------------------
 -----
 title
 -----
 Symbolic Z-matrix:
 Charge =  0 Multiplicity = 1

 SCF Done:  E(RHF) =  -1861.71143272     A.U. after   15 cycles
 Normal termination of Gaussian 16 at Wed Apr  9 00:50:20 2025.
 Gaussian 16:  ES64L-G16RevC.01  3-Jul-2019

 ----------------------------------------------------------------------
 #t hf aug-cc-pvdz iop(5/13=1,5/36=2,99/5=2) pseudo=read geom=check gue
 ss=(read,tcheck) scf=(maxcycle=1)
 ----------------------------------------------------------------------
 -----
 title
 -----
 Structure from the checkpoint file:  "BDE49_nonexpt_879_mol1.chk"
 Charge =  0 Multiplicity = 1

                         Standard orientation:
 ---------------------------------------------------------------------
 Center     Atomic      Atomic             Coordinates (Angstroms)
 Number     Number       Type             X           Y           Z
 ---------------------------------------------------------------------
      1         17           0        4.100888   -0.679990    0.192122
      2          9           0       -1.877867    1.877426    1.067773
      3          9           0       -2.200263    1.105990   -0.937138
      4          9           0       -1.212266    3.020383   -0.652035
      5         16           0       -2.118291   -1.581170    1.521977
      6         16           0       -1.458850   -2.438246   -1.350058
      7          7           0        2.405705    1.312996   -0.034411
      8          6           0       -1.316461    1.770391   -0.161600
      9          6           0        2.488616    0.003948    0.071466
     10          6           0        1.397574   -0.864385    0.087887
     11          1           0        1.558884   -1.931337    0.167698
     12          6           0        0.107612   -0.331171    0.005006
     13          6           0        0.015219    1.071287   -0.101433
     14          6           0        1.179467    1.834894   -0.122998
     15          1           0        1.125994    2.912827   -0.220712
     16          5           0       -1.104206   -1.339045    0.044693
     17          1           0       -1.556904   -0.618947    2.272756
     18          1           0       -0.546312   -1.931763   -2.196476
 ---------------------------------------------------------------------

 SCF Done:  E(RHF) =  -1861.96017394     A.U. after    2 cycles

 The electronic state is 1-A.
 Alpha  occ. eigenvalues -- -103.68684 -93.56105 -93.56015 -26.18337 -26.18278
 Alpha  occ. eigenvalues --  -26.17756 -15.67230 -11.54968 -11.38377 -11.33408
 Alpha  occ. eigenvalues --  -11.30829 -11.30502 -11.29443 -10.71974  -8.86060
 Alpha  occ. eigenvalues --   -8.85957  -8.37708  -8.37384  -8.37382  -7.70389
 Alpha  occ. eigenvalues --   -6.20240  -6.20156  -6.19997  -6.19921  -6.19771
 Alpha  occ. eigenvalues --   -6.19680  -1.77601  -1.70787  -1.70254  -1.29561
 Alpha  occ. eigenvalues --   -1.18989  -1.14183  -1.08667  -1.02173  -1.01426
 Alpha  occ. eigenvalues --   -0.96973  -0.92188  -0.91175  -0.89290  -0.88349
 Alpha  occ. eigenvalues --   -0.84177  -0.79010  -0.78838  -0.74900  -0.74204
 Alpha  occ. eigenvalues --   -0.73270  -0.73164  -0.71436  -0.68385  -0.66725
 Alpha  occ. eigenvalues --   -0.62756  -0.61267  -0.60994  -0.57157  -0.54549
 Alpha  occ. eigenvalues --   -0.52011  -0.49619  -0.49350  -0.47833  -0.45248
 Alpha  occ. eigenvalues --   -0.44528  -0.41461  -0.39034  -0.38090
 Alpha virt. eigenvalues --    0.03075   0.04174   0.04506   0.04712   0.05379
 Alpha virt. eigenvalues --    0.05767   0.06406   0.06936   0.07659   0.08304
 Alpha virt. eigenvalues --    0.08898   0.09261   0.09636   0.09691   0.10472

 Mulliken charges:
               1
     1  Cl  -0.244499
     2  F   -0.364941
     3  F   -0.377388
     4  F   -0.296187
     5  S   -0.273839
     6  S   -0.272161
     7  N   -0.449348
     8  C    0.776759
     9  C   -0.090744
    10  C    1.265518
    11  H   -0.549530
    12  C   -0.899305
    13  C    0.810427
    14  C    0.768430
    15  H   -0.377887
    16  B    0.531464
    17  H    0.047623
    18  H   -0.004392
 Sum of Mulliken charges =  -0.00000

 Dipole moment (field-independent basis, Debye):
    X=              0.4513    Y=             -0.6667    Z=             -0.0637  Tot=              0.8076

 Test job not archived.
 1\1\GINC-SE460\SP\RHF\Aug-CC-pVDZ\C6H4B1Cl1F3N1S2\OHZDE\09-Apr-2025\0\
 \#t hf aug-cc-pvdz iop(5/13=1,5/36=2,99/5=2) pseudo=read geom=check gu
 ess=(read,tcheck) scf=(maxcycle=1)\\title\\0,1\Cl,0,4.100888,-0.67999,
 0.192122\F,0,-1.877867,1.877426,1.067773\F,0,-2.200263,1.10599,-0.9371
 38\F,0,-1.212266,3.020383,-0.652035\S,0,-2.118291,-1.58117,1.521977\S,
 0,-1.45885,-2.438246,-1.350058\N,0,2.405705,1.312996,-0.034411\C,0,-1.
 316461,1.770391,-0.1616\C,0,2.488616,0.003948,0.071466\C,0,1.397574,-0
 .864385,0.087887\H,0,1.558884,-1.931337,0.167698\C,0,0.107612,-0.33117

 Normal termination of Gaussian 16 at Wed Apr  9 00:50:36 2025.
