 Gaussian 16, Revision C.01,

 ----------------------------------------------------------------------
 #t hf aug-cc-pvdz symm=none int=(grid=ultrafine) guess=(read,tcheck) s
 table=(opt,rrhf)
 ----------------------------------------------------------------------
 -----
 title
 -----
 Symbolic Z-matrix:
 Charge =  0 Multiplicity = 1

 SCF Done:  E(RHF) =  -922.673337939     A.U. after   11 cycles

 1\1\GINC-SE059\Stability\RHF\Aug-CC-pVDZ\H7P1Si2\OHZDE\09-Apr-2025\0\\
 #t hf aug-cc-pvdz symm=none int=(grid=ultrafine) guess=(read,tcheck) s
 table=(opt,rrhf)\\title\\0,1\Si,0,-1.922865,-0.3872,-0.005206\Si,0,0.0
 70401,0.872384,0.014173\H,0,-1.997169,-1.214533,-1.233057\H,0,-3.09852
 8,0.515915,0.035473\H,0,-1.973661,-1.284089,1.175008\P,0,1.882461,-0.5
 18207,-0.107629\H,0,0.099733,1.747073,1.213658\H,0,0.115839,1.741336,-
 1.188388\H,0,1.733483,-1.0068,1.217239\H,0,2.817878,0.481627,0.268963\
 \Version=ES64L-G16RevC.01\HF=-922.6733379\RMSD=5.236e-09\Dipole=-0.060

 Normal termination of Gaussian 16 at Wed Apr  9 00:11:57 2025.
 Gaussian 16:  ES64L-G16RevC.01  3-Jul-2019

 ----------------------------------------------------------------------
 #t hf aug-cc-pvdz iop(5/13=1,5/36=2,99/5=2) pseudo=read geom=check gue
 ss=(read,tcheck) scf=(maxcycle=1)
 ----------------------------------------------------------------------
 -----
 title
 -----
 Structure from the checkpoint file:  "BDE49_nonexpt_2443_mol1.chk"
 Charge =  0 Multiplicity = 1

                         Standard orientation:
 ---------------------------------------------------------------------
 Center     Atomic      Atomic             Coordinates (Angstroms)
 Number     Number       Type             X           Y           Z
 ---------------------------------------------------------------------
      1         14           0       -1.922865   -0.387200   -0.005206
      2         14           0        0.070401    0.872384    0.014173
      3          1           0       -1.997169   -1.214533   -1.233057
      4          1           0       -3.098528    0.515915    0.035473
      5          1           0       -1.973661   -1.284089    1.175008
      6         15           0        1.882461   -0.518207   -0.107629
      7          1           0        0.099733    1.747073    1.213658
      8          1           0        0.115839    1.741336   -1.188388
      9          1           0        1.733483   -1.006800    1.217239
     10          1           0        2.817878    0.481627    0.268963
 ---------------------------------------------------------------------

 SCF Done:  E(RHF) =  -922.732701066     A.U. after    2 cycles

 The electronic state is 1-A.
 Alpha  occ. eigenvalues --  -81.25439 -69.07399 -69.06550  -7.75954  -6.82718
 Alpha  occ. eigenvalues --   -6.81973  -4.89870  -4.89794  -4.89579  -3.93458
 Alpha  occ. eigenvalues --   -3.93436  -3.93416  -3.92730  -3.92729  -3.92702
 Alpha  occ. eigenvalues --   -0.80953  -0.72454  -0.64987  -0.52702  -0.50466
 Alpha  occ. eigenvalues --   -0.48993  -0.47817  -0.44567  -0.39393  -0.35726
 Alpha virt. eigenvalues --    0.03572   0.04298   0.04926   0.06563   0.06856
 Alpha virt. eigenvalues --    0.07129   0.07685   0.08466   0.08755   0.09703
 Alpha virt. eigenvalues --    0.09834   0.10271   0.10761   0.11399   0.12048

 Mulliken charges:
               1
     1  Si  -0.030233
     2  Si   0.130560
     3  H    0.011584
     4  H    0.020954
     5  H    0.003041
     6  P   -0.522694
     7  H    0.034900
     8  H    0.010506
     9  H    0.176598
    10  H    0.164784
 Sum of Mulliken charges =  -0.00000

 Dipole moment (field-independent basis, Debye):
    X=             -0.0753    Y=              0.3942    Z=              0.4943  Tot=              0.6367

 Test job not archived.
 1\1\GINC-SE059\SP\RHF\Aug-CC-pVDZ\H7P1Si2\OHZDE\09-Apr-2025\0\\#t hf a
 ug-cc-pvdz iop(5/13=1,5/36=2,99/5=2) pseudo=read geom=check guess=(rea
 d,tcheck) scf=(maxcycle=1)\\title\\0,1\Si,0,-1.922865,-0.3872,-0.00520
 6\Si,0,0.070401,0.872384,0.014173\H,0,-1.997169,-1.214533,-1.233057\H,
 0,-3.098528,0.515915,0.035473\H,0,-1.973661,-1.284089,1.175008\P,0,1.8
 82461,-0.518207,-0.107629\H,0,0.099733,1.747073,1.213658\H,0,0.115839,
 1.741336,-1.188388\H,0,1.733483,-1.0068,1.217239\H,0,2.817878,0.481627
 ,0.268963\\Version=ES64L-G16RevC.01\State=1-A\HF=-922.7327011\RMSD=9.0

 Normal termination of Gaussian 16 at Wed Apr  9 00:12:00 2025.
