 Gaussian 16, Revision C.01,

 ----------------------------------------------------------------------
 #t hf aug-cc-pvdz symm=none int=(grid=ultrafine) guess=(read,tcheck) s
 table=(opt,rrhf)
 ----------------------------------------------------------------------
 -----
 title
 -----
 Symbolic Z-matrix:
 Charge =  0 Multiplicity = 1

 SCF Done:  E(RHF) =  -1255.35989117     A.U. after   16 cycles
 Normal termination of Gaussian 16 at Tue Apr  8 23:03:49 2025.
 Gaussian 16:  ES64L-G16RevC.01  3-Jul-2019

 ----------------------------------------------------------------------
 #t hf aug-cc-pvdz iop(5/13=1,5/36=2,99/5=2) pseudo=read geom=check gue
 ss=(read,tcheck) scf=(maxcycle=1)
 ----------------------------------------------------------------------
 -----
 title
 -----
 Structure from the checkpoint file:  "BDE49_expt_1961_mol1.chk"
 Charge =  0 Multiplicity = 1

                         Standard orientation:
 ---------------------------------------------------------------------
 Center     Atomic      Atomic             Coordinates (Angstroms)
 Number     Number       Type             X           Y           Z
 ---------------------------------------------------------------------
      1         16           0        0.685382   -1.704002    0.804303
      2         16           0       -0.685382   -1.704002   -0.804303
      3          6           0       -1.837114   -0.392934   -0.398180
      4          6           0       -1.700950    0.857566   -1.009649
      5          6           0       -2.900279   -0.626442    0.481018
      6          6           0       -3.813313    0.387956    0.751299
      7          6           0       -2.622382    1.867495   -0.739704
      8          6           0       -3.676284    1.635030    0.141169
      9          1           0       -4.392223    2.421914    0.350112
     10          1           0       -4.635837    0.203868    1.433246
     11          1           0       -3.004063   -1.599475    0.945451
     12          1           0       -0.877492    1.030572   -1.691518
     13          1           0       -2.514787    2.835115   -1.216800
     14          6           0        1.837114   -0.392934    0.398180
     15          6           0        2.900279   -0.626442   -0.481018
     16          6           0        3.813313    0.387956   -0.751300
     17          6           0        3.676284    1.635030   -0.141169
     18          6           0        2.622382    1.867495    0.739704
     19          6           0        1.700950    0.857566    1.009649
     20          1           0        0.877492    1.030572    1.691518
     21          1           0        4.392223    2.421914   -0.350112
     22          1           0        2.514787    2.835115    1.216800
     23          1           0        3.004063   -1.599475   -0.945451
     24          1           0        4.635836    0.203868   -1.433246
 ---------------------------------------------------------------------

 SCF Done:  E(RHF) =  -1255.53246664     A.U. after    2 cycles

 The electronic state is 1-A.
 Alpha  occ. eigenvalues --  -93.55999 -93.55999 -11.27948 -11.27948 -11.25816
 Alpha  occ. eigenvalues --  -11.25816 -11.25798 -11.25798 -11.25780 -11.25780
 Alpha  occ. eigenvalues --  -11.25406 -11.25406 -11.25392 -11.25392  -8.85482
 Alpha  occ. eigenvalues --   -8.85468  -6.19690  -6.19591  -6.19389  -6.19372
 Alpha  occ. eigenvalues --   -6.19069  -6.19059  -1.15942  -1.15546  -1.06462
 Alpha  occ. eigenvalues --   -1.03491  -1.02164  -1.02144  -0.97001  -0.88459
 Alpha  occ. eigenvalues --   -0.84048  -0.84011  -0.81743  -0.78531  -0.71221
 Alpha  occ. eigenvalues --   -0.70076  -0.64620  -0.64483  -0.64266  -0.63593
 Alpha  occ. eigenvalues --   -0.60286  -0.60279  -0.58502  -0.55969  -0.53863
 Alpha  occ. eigenvalues --   -0.51957  -0.51115  -0.51107  -0.50228  -0.48139
 Alpha  occ. eigenvalues --   -0.45901  -0.37178  -0.35888  -0.35790  -0.35164
 Alpha  occ. eigenvalues --   -0.34775  -0.33004
 Alpha virt. eigenvalues --    0.03064   0.03575   0.04180   0.04558   0.05064
 Alpha virt. eigenvalues --    0.05176   0.06038   0.06427   0.06604   0.07029
 Alpha virt. eigenvalues --    0.07318   0.09196   0.09239   0.09800   0.10281

 Mulliken charges:
               1
     1  S   -0.130154
     2  S   -0.130154
     3  C    0.511411
     4  C    0.447455
     5  C    0.098990
     6  C    0.611032
     7  C    0.384029
     8  C    0.473033
     9  H   -0.442684
    10  H   -0.443533
    11  H   -0.482441
    12  H   -0.558310
    13  H   -0.468827
    14  C    0.511409
    15  C    0.098990
    16  C    0.611038
    17  C    0.473034
    18  C    0.384026
    19  C    0.447457
    20  H   -0.558310
    21  H   -0.442684
    22  H   -0.468827
    23  H   -0.482442
    24  H   -0.443536
 Sum of Mulliken charges =  -0.00000

 Dipole moment (field-independent basis, Debye):
    X=              0.0000    Y=              2.7974    Z=             -0.0000  Tot=              2.7974

 Test job not archived.
 1\1\GINC-SE454\SP\RHF\Aug-CC-pVDZ\C12H10S2\OHZDE\08-Apr-2025\0\\#t hf
 aug-cc-pvdz iop(5/13=1,5/36=2,99/5=2) pseudo=read geom=check guess=(re
 ad,tcheck) scf=(maxcycle=1)\\title\\0,1\S,0,0.685382,-1.704002,0.80430
 3\S,0,-0.685382,-1.704002,-0.804303\C,0,-1.837114,-0.392934,-0.39818\C
 ,0,-1.70095,0.857566,-1.009649\C,0,-2.900279,-0.626442,0.481018\C,0,-3
 .813313,0.387956,0.751299\C,0,-2.622382,1.867495,-0.739704\C,0,-3.6762
 84,1.63503,0.141169\H,0,-4.392223,2.421914,0.350112\H,0,-4.635837,0.20
 3868,1.433246\H,0,-3.004063,-1.599475,0.945451\H,0,-0.877492,1.030572,

 Normal termination of Gaussian 16 at Tue Apr  8 23:04:12 2025.
