 Gaussian 16, Revision C.01,

 ----------------------------------------------------------------------
 #t hf aug-cc-pvdz symm=none int=(grid=ultrafine) guess=(read,tcheck) s
 table=(opt,rrhf)
 ----------------------------------------------------------------------
 -----
 title
 -----
 Symbolic Z-matrix:
 Charge =  0 Multiplicity = 1

 SCF Done:  E(RHF) =  -1132.00287874     A.U. after   13 cycles
 Normal termination of Gaussian 16 at Tue Apr  8 23:49:19 2025.
 Gaussian 16:  ES64L-G16RevC.01  3-Jul-2019

 ----------------------------------------------------------------------
 #t hf aug-cc-pvdz iop(5/13=1,5/36=2,99/5=2) pseudo=read geom=check gue
 ss=(read,tcheck) scf=(maxcycle=1)
 ----------------------------------------------------------------------
 -----
 title
 -----
 Structure from the checkpoint file:  "BDE49_nonexpt_187_mol1.chk"
 Charge =  0 Multiplicity = 1

                         Standard orientation:
 ---------------------------------------------------------------------
 Center     Atomic      Atomic             Coordinates (Angstroms)
 Number     Number       Type             X           Y           Z
 ---------------------------------------------------------------------
      1         17           0       -1.157357   -1.521641   -0.020571
      2         17           0       -1.157249    1.521698   -0.020578
      3          5           0       -0.298662   -0.000002   -0.006648
      4          6           0        1.286332   -0.000060    0.110874
      5          8           0        1.837891   -0.000022    1.184296
      6          8           0        1.940856   -0.000048   -1.066865
      7          1           0        2.893644   -0.000047   -0.871918
 ---------------------------------------------------------------------

 SCF Done:  E(RHF) =  -1132.10561514     A.U. after    2 cycles

 The electronic state is 1-A.
 Alpha  occ. eigenvalues -- -103.69441-103.69441 -20.64960 -20.59265 -11.41178
 Alpha  occ. eigenvalues --  -10.72938 -10.72904  -8.38619  -8.38613  -8.38383
 Alpha  occ. eigenvalues --   -8.38381  -8.38346  -8.38345  -7.76648  -1.44655
 Alpha  occ. eigenvalues --   -1.35119  -1.20738  -1.17152  -0.91503  -0.76790
 Alpha  occ. eigenvalues --   -0.73941  -0.68122  -0.67241  -0.62152  -0.60538
 Alpha  occ. eigenvalues --   -0.55129  -0.53334  -0.52570  -0.50104  -0.49277
 Alpha  occ. eigenvalues --   -0.46827
 Alpha virt. eigenvalues --    0.03447   0.05040   0.05569   0.05685   0.06042
 Alpha virt. eigenvalues --    0.07406   0.10808   0.11406   0.12657   0.12738
 Alpha virt. eigenvalues --    0.14219   0.14577   0.16021   0.17467   0.18327

 Mulliken charges:
               1
     1  Cl  -0.248018
     2  Cl  -0.248020
     3  B    0.616512
     4  C    0.593678
     5  O   -0.445896
     6  O   -0.423126
     7  H    0.154869
 Sum of Mulliken charges =   0.00000

 Dipole moment (field-independent basis, Debye):
    X=              0.3367    Y=             -0.0001    Z=             -1.6495  Tot=              1.6835

 Test job not archived.
 1\1\GINC-SE335\SP\RHF\Aug-CC-pVDZ\C1H1B1Cl2O2\OHZDE\08-Apr-2025\0\\#t
 hf aug-cc-pvdz iop(5/13=1,5/36=2,99/5=2) pseudo=read geom=check guess=
 (read,tcheck) scf=(maxcycle=1)\\title\\0,1\Cl,0,-1.157358,-1.52164,-0.
 020571\Cl,0,-1.157248,1.521699,-0.020578\B,0,-0.298662,-0.000002,-0.00
 6648\C,0,1.286332,-0.000061,0.110874\O,0,1.837891,-0.000023,1.184296\O
 ,0,1.940856,-0.000049,-1.066865\H,0,2.893644,-0.000048,-0.871918\\Vers
 ion=ES64L-G16RevC.01\State=1-A\HF=-1132.1056151\RMSD=2.480e-03\Dipole=
 0.1324822,-0.0000275,-0.6489457\Quadrupole=2.6341171,0.1885725,-2.8226

 Normal termination of Gaussian 16 at Tue Apr  8 23:49:21 2025.
