 Gaussian 16, Revision C.01,

 ----------------------------------------------------------------------
 #t hf aug-cc-pvdz symm=none int=(grid=ultrafine) guess=(read,tcheck) s
 table=(opt,rrhf)
 ----------------------------------------------------------------------
 -----
 title
 -----
 Symbolic Z-matrix:
 Charge =  0 Multiplicity = 1

 SCF Done:  E(RHF) =  -800.458936596     A.U. after   16 cycles

 1\1\GINC-SE096\Stability\RHF\Aug-CC-pVDZ\C12H9P1\OHZDE\08-Apr-2025\0\\
 #t hf aug-cc-pvdz symm=none int=(grid=ultrafine) guess=(read,tcheck) s
 table=(opt,rrhf)\\title\\0,1\C,0,-0.919185,-0.00243,2.674367\C,0,0.196
 858,0.012402,3.508609\C,0,1.482192,0.008767,2.961785\C,0,1.66419,-0.00
 403,1.58266\C,0,0.551908,-0.003163,0.734956\C,0,-0.744652,0.002313,1.2
 92432\P,0,-2.04493,-0.096003,0.\C,0,-0.744652,0.002313,-1.292432\H,0,2
 .345679,0.011369,3.617443\H,0,0.066935,0.01863,4.584876\H,0,2.667556,-
 0.011966,1.171621\C,0,0.551908,-0.003163,-0.734956\H,0,-1.915487,-0.01

 Normal termination of Gaussian 16 at Tue Apr  8 23:36:38 2025.
 Gaussian 16:  ES64L-G16RevC.01  3-Jul-2019

 ----------------------------------------------------------------------
 #t hf aug-cc-pvdz iop(5/13=1,5/36=2,99/5=2) pseudo=read geom=check gue
 ss=(read,tcheck) scf=(maxcycle=1)
 ----------------------------------------------------------------------
 -----
 title
 -----
 Structure from the checkpoint file:  "BDE49_nonexpt_1446_mol1.chk"
 Charge =  0 Multiplicity = 1

                         Standard orientation:
 ---------------------------------------------------------------------
 Center     Atomic      Atomic             Coordinates (Angstroms)
 Number     Number       Type             X           Y           Z
 ---------------------------------------------------------------------
      1          6           0       -0.919185   -0.002430    2.674367
      2          6           0        0.196858    0.012402    3.508609
      3          6           0        1.482192    0.008767    2.961785
      4          6           0        1.664190   -0.004030    1.582660
      5          6           0        0.551908   -0.003163    0.734956
      6          6           0       -0.744652    0.002313    1.292432
      7         15           0       -2.044930   -0.096003   -0.000000
      8          6           0       -0.744652    0.002313   -1.292432
      9          1           0        2.345679    0.011369    3.617443
     10          1           0        0.066935    0.018630    4.584876
     11          1           0        2.667556   -0.011966    1.171621
     12          6           0        0.551908   -0.003163   -0.734956
     13          1           0       -1.915487   -0.017223    3.103251
     14          6           0       -0.919185   -0.002430   -2.674367
     15          6           0        0.196858    0.012402   -3.508609
     16          6           0        1.482192    0.008767   -2.961785
     17          6           0        1.664190   -0.004030   -1.582660
     18          1           0       -1.915487   -0.017223   -3.103251
     19          1           0        2.667556   -0.011966   -1.171621
     20          1           0        0.066935    0.018630   -4.584876
     21          1           0        2.345679    0.011369   -3.617443
     22          1           0       -2.431149    1.272109   -0.000000
 ---------------------------------------------------------------------

 SCF Done:  E(RHF) =  -800.609479568     A.U. after    2 cycles

 The electronic state is 1-A'.
 Alpha  occ. eigenvalues --  -81.26262 -11.26078 -11.26009 -11.25440 -11.25440
 Alpha  occ. eigenvalues --  -11.25310 -11.25308 -11.25259 -11.25256 -11.25122
 Alpha  occ. eigenvalues --  -11.25118 -11.24981 -11.24980  -7.76629  -4.90767
 Alpha  occ. eigenvalues --   -4.90714  -4.90360  -1.17254  -1.13741  -1.06051
 Alpha  occ. eigenvalues --   -1.02815  -1.01171  -0.97995  -0.87686  -0.86510
 Alpha  occ. eigenvalues --   -0.80725  -0.79741  -0.76706  -0.70371  -0.67935
 Alpha  occ. eigenvalues --   -0.66201  -0.63714  -0.61812  -0.61031  -0.59901
 Alpha  occ. eigenvalues --   -0.57170  -0.56582  -0.54373  -0.51496  -0.49948
 Alpha  occ. eigenvalues --   -0.49944  -0.48823  -0.46087  -0.39831  -0.38264
 Alpha  occ. eigenvalues --   -0.34908  -0.31619  -0.30012
 Alpha virt. eigenvalues --    0.03248   0.03424   0.03957   0.04724   0.05062
 Alpha virt. eigenvalues --    0.06282   0.06284   0.06814   0.07027   0.08429
 Alpha virt. eigenvalues --    0.08993   0.09328   0.10178   0.10794   0.11215

 Mulliken charges:
               1
     1  C    0.792306
     2  C    0.607697
     3  C    0.180264
     4  C    0.759657
     5  C   -0.509655
     6  C    0.023870
     7  P    0.041395
     8  C    0.023870
     9  H   -0.477010
    10  H   -0.450615
    11  H   -0.553117
    12  C   -0.509655
    13  H   -0.490855
    14  C    0.792306
    15  C    0.607697
    16  C    0.180264
    17  C    0.759657
    18  H   -0.490855
    19  H   -0.553117
    20  H   -0.450615
    21  H   -0.477010
    22  H    0.193522
 Sum of Mulliken charges =  -0.00000

 Dipole moment (field-independent basis, Debye):
    X=              0.9473    Y=              0.4956    Z=              0.0000  Tot=              1.0691

 Test job not archived.
 1\1\GINC-SE096\SP\RHF\Aug-CC-pVDZ\C12H9P1\OHZDE\08-Apr-2025\0\\#t hf a
 ug-cc-pvdz iop(5/13=1,5/36=2,99/5=2) pseudo=read geom=check guess=(rea
 d,tcheck) scf=(maxcycle=1)\\title\\0,1\C,0,-0.919185,-0.00243,2.674367
 \C,0,0.196858,0.012402,3.508609\C,0,1.482192,0.008767,2.961785\C,0,1.6
 6419,-0.00403,1.58266\C,0,0.551908,-0.003163,0.734956\C,0,-0.744652,0.
 002313,1.292432\P,0,-2.04493,-0.096003,0.\C,0,-0.744652,0.002313,-1.29
 2432\H,0,2.345679,0.011369,3.617443\H,0,0.066935,0.01863,4.584876\H,0,
 2.667556,-0.011966,1.171621\C,0,0.551908,-0.003163,-0.734956\H,0,-1.91

 Normal termination of Gaussian 16 at Tue Apr  8 23:36:50 2025.
