 Gaussian 16, Revision C.01,

 ----------------------------------------------------------------------
 #t hf aug-cc-pvdz symm=none int=(grid=ultrafine) guess=(read,tcheck) s
 table=opt
 ----------------------------------------------------------------------
 -----
 title
 -----
 Symbolic Z-matrix:
 Charge =  0 Multiplicity = 2

 SCF Done:  E(UHF) =  -1855.91793772     A.U. after   23 cycles
 Normal termination of Gaussian 16 at Wed Apr  9 00:53:31 2025.
 Gaussian 16:  ES64L-G16RevC.01  3-Jul-2019

 ----------------------------------------------------------------------
 #t hf aug-cc-pvdz iop(5/13=1,5/36=2,99/5=2) pseudo=read geom=check gue
 ss=(read,tcheck) scf=(maxcycle=1)
 ----------------------------------------------------------------------
 -----
 title
 -----
 Structure from the checkpoint file:  "BDE49_nonexpt_966_mol2.chk"
 Charge =  0 Multiplicity = 2

                         Standard orientation:
 ---------------------------------------------------------------------
 Center     Atomic      Atomic             Coordinates (Angstroms)
 Number     Number       Type             X           Y           Z
 ---------------------------------------------------------------------
      1         17           0        1.557618    1.964043   -0.466899
      2          7           0       -0.775598    0.873981    0.637437
      3          6           0        0.599927    1.123306    0.949424
      4          9           0       -1.345062    2.089623    0.223767
      5          7           0        1.357059   -0.037283    1.241821
      6          6           0       -0.960245   -0.136555   -0.402416
      7          6           0        0.964466   -1.246580    0.588713
      8         17           0       -2.678376   -0.308771   -0.816866
      9          7           0       -0.414593   -1.387666    0.098554
     10         17           0        2.079988   -1.526579   -0.825855
     11          9           0       -1.152916   -1.717450    1.278763
     12          1           0        0.668511    1.862428    1.740675
     13          1           0        1.134526   -2.080256    1.265081
     14          1           0       -0.421121    0.096263   -1.323997
 ---------------------------------------------------------------------

 SCF Done:  E(UHF) =  -1856.11779908     A.U. after    2 cycles

 The electronic state is 2-A.
 Alpha  occ. eigenvalues -- -103.69788-103.69086-103.68110 -26.18335 -26.17376
 Alpha  occ. eigenvalues --  -15.78868 -15.78346 -15.73748 -11.42662 -11.42538
 Alpha  occ. eigenvalues --  -11.42515 -10.73031 -10.72390 -10.71334  -8.38971
 Alpha  occ. eigenvalues --   -8.38402  -8.38391  -8.38125  -8.37786  -8.37778
 Alpha  occ. eigenvalues --   -8.37362  -8.36698  -8.36691  -1.70246  -1.69031
 Alpha  occ. eigenvalues --   -1.36294  -1.26460  -1.23911  -1.16669  -1.16264
 Alpha  occ. eigenvalues --   -1.14819  -0.97308  -0.97126  -0.85198  -0.82112
 Alpha  occ. eigenvalues --   -0.81108  -0.79660  -0.77159  -0.76736  -0.76005
 Alpha  occ. eigenvalues --   -0.70485  -0.70081  -0.68225  -0.64869  -0.62386
 Alpha  occ. eigenvalues --   -0.60728  -0.56172  -0.53234  -0.51136  -0.50497
 Alpha  occ. eigenvalues --   -0.49466  -0.48869  -0.48227  -0.47849  -0.47311
 Alpha  occ. eigenvalues --   -0.46347
 Alpha virt. eigenvalues --    0.03322   0.04063   0.04823   0.06446   0.08424
 Alpha virt. eigenvalues --    0.08744   0.09813   0.10245   0.10975   0.12192
 Alpha virt. eigenvalues --    0.12871   0.13290   0.13709   0.13856   0.14802

  Beta  occ. eigenvalues -- -103.69640-103.69085-103.67887 -26.18354 -26.17409
  Beta  occ. eigenvalues --  -15.78841 -15.78336 -15.70594 -11.42998 -11.42916
  Beta  occ. eigenvalues --  -11.42674 -10.72878 -10.72389 -10.71102  -8.38432
  Beta  occ. eigenvalues --   -8.38309  -8.38238  -8.38121  -8.37786  -8.37778
  Beta  occ. eigenvalues --   -8.36619  -8.36563  -8.36390  -1.70306  -1.69125
  Beta  occ. eigenvalues --   -1.34113  -1.23912  -1.23481  -1.15828  -1.13960
  Beta  occ. eigenvalues --   -1.11890  -0.97027  -0.96221  -0.84760  -0.81837
  Beta  occ. eigenvalues --   -0.80820  -0.79651  -0.76681  -0.76582  -0.75764
  Beta  occ. eigenvalues --   -0.69741  -0.68651  -0.65094  -0.62671  -0.61709
  Beta  occ. eigenvalues --   -0.59640  -0.53959  -0.51195  -0.50515  -0.50020
  Beta  occ. eigenvalues --   -0.49007  -0.48302  -0.47055  -0.46884  -0.45694
  Beta virt. eigenvalues --   -0.00054   0.03362   0.04063   0.05098   0.06893
  Beta virt. eigenvalues --    0.08466   0.09280   0.09953   0.10367   0.11000
  Beta virt. eigenvalues --    0.12362   0.13310   0.13362   0.13732   0.14202

 Mulliken charges and spin densities:
               1          2
     1  Cl  -0.078068   0.164739
     2  N   -0.328172   0.006954
     3  C    0.780684  -0.266826
     4  F   -0.460919  -0.000885
     5  N   -0.527563   1.168554
     6  C    1.007199   0.007376
     7  C    0.640106  -0.235798
     8  Cl  -0.011588   0.000818
     9  N   -0.354371   0.015857
    10  Cl   0.018608   0.104128
    11  F   -0.468349  -0.003455
    12  H   -0.144711   0.015546
    13  H   -0.072405   0.023988
    14  H   -0.000450  -0.000994
 Sum of Mulliken charges =  -0.00000   1.00000

 Dipole moment (field-independent basis, Debye):
    X=              1.2908    Y=             -0.5581    Z=              0.7770  Tot=              1.6066
                          Isotropic Fermi Contact Couplings
        Atom                 a.u.       MegaHertz       Gauss      10(-4) cm-1
     1  Cl(35)             0.05025      22.03227       7.86166       7.34918
     2  N(14)              0.00223       0.72193       0.25760       0.24081
     3  C(13)             -0.06436     -72.35697     -25.81876     -24.13569
     4  F(19)             -0.00282     -11.87088      -4.23583      -3.95970
     5  N(14)              0.28875      93.29580      33.29026      31.12013
     6  C(13)             -0.00277      -3.11794      -1.11256      -1.04003
     7  C(13)             -0.06274     -70.53390     -25.16825     -23.52758
     8  Cl(35)             0.00003       0.01468       0.00524       0.00490

 1\1\GINC-SE159\SP\UHF\Aug-CC-pVDZ\C3H3Cl3F2N3(2)\OHZDE\09-Apr-2025\0\\
 #t hf aug-cc-pvdz iop(5/13=1,5/36=2,99/5=2) pseudo=read geom=check gue
 ss=(read,tcheck) scf=(maxcycle=1)\\title\\0,2\Cl,0,1.557618,1.964043,-
 0.466899\N,0,-0.775598,0.873981,0.637437\C,0,0.599927,1.123306,0.94942
 4\F,0,-1.345062,2.089623,0.223767\N,0,1.357059,-0.037283,1.241821\C,0,
 -0.960245,-0.136555,-0.402416\C,0,0.964466,-1.24658,0.588713\Cl,0,-2.6
 78376,-0.308771,-0.816866\N,0,-0.414593,-1.387666,0.098554\Cl,0,2.0799
 88,-1.526579,-0.825855\F,0,-1.152916,-1.71745,1.278763\H,0,0.668511,1.

 Normal termination of Gaussian 16 at Wed Apr  9 00:53:45 2025.
