 Gaussian 16, Revision C.01,

 ----------------------------------------------------------------------
 #t hf aug-cc-pvdz symm=none int=(grid=ultrafine) guess=(read,tcheck) s
 table=opt
 ----------------------------------------------------------------------
 -----
 title
 -----
 Symbolic Z-matrix:
 Charge =  0 Multiplicity = 2

 SCF Done:  E(UHF) =  -655.646539235     A.U. after   15 cycles

 1\1\GINC-SE419\Stability\UHF\Aug-CC-pVDZ\H5O1Si2\OHZDE\09-Apr-2025\0\\
 #t hf aug-cc-pvdz symm=none int=(grid=ultrafine) guess=(read,tcheck) s
 table=opt\\title\\0,2\Si,0,0.659733,-0.527325,0.010869\O,0,1.74291,0.7
 28209,-0.079426\H,0,1.674243,1.443483,0.557282\Si,0,-1.606605,0.086001
 ,-0.014296\H,0,-2.059851,0.894528,-1.174894\H,0,-2.117276,0.700712,1.2
 39077\H,0,0.866435,-1.333993,1.240802\H,0,0.94939,-1.351876,-1.178883\
 \Version=ES64L-G16RevC.01\HF=-655.6465392\S2=0.759969\S2-1=0.\S2A=0.75
 0038\RMSD=4.625e-09\Dipole=-0.1822983,0.2213239,0.4046077\Quadrupole=-

 Normal termination of Gaussian 16 at Wed Apr  9 00:06:00 2025.
 Gaussian 16:  ES64L-G16RevC.01  3-Jul-2019

 ----------------------------------------------------------------------
 #t hf aug-cc-pvdz iop(5/13=1,5/36=2,99/5=2) pseudo=read geom=check gue
 ss=(read,tcheck) scf=(maxcycle=1)
 ----------------------------------------------------------------------
 -----
 title
 -----
 Structure from the checkpoint file:  "BDE49_nonexpt_2274_mol2.chk"
 Charge =  0 Multiplicity = 2

                         Standard orientation:
 ---------------------------------------------------------------------
 Center     Atomic      Atomic             Coordinates (Angstroms)
 Number     Number       Type             X           Y           Z
 ---------------------------------------------------------------------
      1         14           0        0.659733   -0.527325    0.010869
      2          8           0        1.742910    0.728209   -0.079426
      3          1           0        1.674243    1.443483    0.557282
      4         14           0       -1.606605    0.086001   -0.014296
      5          1           0       -2.059851    0.894528   -1.174894
      6          1           0       -2.117276    0.700712    1.239077
      7          1           0        0.866435   -1.333993    1.240802
      8          1           0        0.949390   -1.351876   -1.178883
 ---------------------------------------------------------------------

 SCF Done:  E(UHF) =  -655.719226164     A.U. after    2 cycles

 The electronic state is 2-A.
 Alpha  occ. eigenvalues --  -69.10096 -69.06943 -20.57823  -6.84877  -6.82492
 Alpha  occ. eigenvalues --   -3.95752  -3.95647  -3.95611  -3.93859  -3.92949
 Alpha  occ. eigenvalues --   -3.92901  -1.30752  -0.77024  -0.71056  -0.62860
 Alpha  occ. eigenvalues --   -0.57548  -0.56211  -0.49479  -0.46901  -0.41336
 Alpha  occ. eigenvalues --   -0.31991
 Alpha virt. eigenvalues --    0.03321   0.04430   0.05557   0.06596   0.07200
 Alpha virt. eigenvalues --    0.07434   0.07657   0.08246   0.08969   0.10085
 Alpha virt. eigenvalues --    0.10372   0.13000   0.15021   0.15469   0.15711

  Beta  occ. eigenvalues --  -69.10096 -69.06395 -20.57679  -6.84870  -6.81701
  Beta  occ. eigenvalues --   -3.95796  -3.95628  -3.95604  -3.92545  -3.92512
  Beta  occ. eigenvalues --   -3.91681  -1.30308  -0.76516  -0.67714  -0.61906
  Beta  occ. eigenvalues --   -0.56777  -0.55942  -0.49121  -0.46909  -0.40023
  Beta virt. eigenvalues --    0.01791   0.03553   0.04612   0.06401   0.06822
  Beta virt. eigenvalues --    0.07348   0.07723   0.07852   0.09091   0.09945
  Beta virt. eigenvalues --    0.10438   0.10548   0.14596   0.15660   0.16196

 Mulliken charges and spin densities:
               1          2
     1  Si   0.729523  -0.042939
     2  O   -0.786678  -0.001548
     3  H    0.130823  -0.013662
     4  Si   0.038778   1.136924
     5  H   -0.057828  -0.031327
     6  H   -0.056053  -0.040568
     7  H    0.001185  -0.003584
     8  H    0.000250  -0.003298
 Sum of Mulliken charges =  -0.00000   1.00000

 Dipole moment (field-independent basis, Debye):
    X=             -0.5459    Y=              0.5408    Z=              1.0735  Tot=              1.3202
                          Isotropic Fermi Contact Couplings
        Atom                 a.u.       MegaHertz       Gauss      10(-4) cm-1
     1  Si(29)             0.01576     -14.00970      -4.99901      -4.67313
     2  O(17)              0.02161     -13.09771      -4.67359      -4.36893
     3  H(1)              -0.00065      -2.92005      -1.04195      -0.97402
     4  Si(29)             0.41857    -371.99832    -132.73825    -124.08528
     5  H(1)              -0.00636     -28.42795     -10.14380      -9.48254
     6  H(1)              -0.00722     -32.27781     -11.51753     -10.76672
     7  H(1)              -0.00128      -5.71151      -2.03801      -1.90516
     8  H(1)              -0.00164      -7.33092      -2.61585      -2.44533

 Normal termination of Gaussian 16 at Wed Apr  9 00:06:02 2025.
