 Gaussian 16, Revision C.01,

 ----------------------------------------------------------------------
 #t hf aug-cc-pvdz symm=none int=(grid=ultrafine) guess=(read,tcheck) s
 table=(opt,rrhf)
 ----------------------------------------------------------------------
 -----
 title
 -----
 Symbolic Z-matrix:
 Charge =  0 Multiplicity = 1

 SCF Done:  E(RHF) =  -1239.83697513     A.U. after   18 cycles
 Normal termination of Gaussian 16 at Wed Apr  9 00:21:35 2025.
 Gaussian 16:  ES64L-G16RevC.01  3-Jul-2019

 ----------------------------------------------------------------------
 #t hf aug-cc-pvdz iop(5/13=1,5/36=2,99/5=2) pseudo=read geom=check gue
 ss=(read,tcheck) scf=(maxcycle=1)
 ----------------------------------------------------------------------
 -----
 title
 -----
 Structure from the checkpoint file:  "BDE49_nonexpt_2605_mol1.chk"
 Charge =  0 Multiplicity = 1

                         Standard orientation:
 ---------------------------------------------------------------------
 Center     Atomic      Atomic             Coordinates (Angstroms)
 Number     Number       Type             X           Y           Z
 ---------------------------------------------------------------------
      1         17           0       -2.904539   -0.844847    0.898147
      2          6           0       -0.588709    0.698375   -0.342768
      3         16           0       -2.143431    0.039169   -0.868413
      4          6           0        0.579432   -0.125066   -0.207208
      5          6           0        0.572321   -1.529487   -0.388828
      6          1           0       -0.357323   -2.017931   -0.649085
      7          6           0        1.724595   -2.264433   -0.237445
      8          1           0        1.698663   -3.338687   -0.380406
      9          6           0        2.942396   -1.635775    0.102751
     10          1           0        3.841313   -2.230203    0.218853
     11          6           0        2.984449   -0.275645    0.284292
     12          1           0        3.915225    0.217242    0.544099
     13          6           0        1.814738    0.513688    0.136942
     14          6           0        1.846395    1.920644    0.319017
     15          1           0        2.791130    2.388688    0.575343
     16          6           0        0.712256    2.682406    0.179319
     17          1           0        0.749061    3.755652    0.323728
     18          6           0       -0.513333    2.065382   -0.141513
     19          1           0       -1.413247    2.660393   -0.233776
 ---------------------------------------------------------------------

 SCF Done:  E(RHF) =  -1239.98417909     A.U. after    2 cycles

 The electronic state is 1-A.
 Alpha  occ. eigenvalues -- -103.66683 -93.59722 -11.29209 -11.27598 -11.27558
 Alpha  occ. eigenvalues --  -11.27265 -11.26934 -11.26219 -11.26033 -11.25874
 Alpha  occ. eigenvalues --  -11.25705 -11.25374 -10.69785  -8.88965  -8.35511
 Alpha  occ. eigenvalues --   -8.35178  -8.35155  -6.23088  -6.22847  -6.22463
 Alpha  occ. eigenvalues --   -1.18802  -1.15013  -1.12040  -1.06897  -1.02235
 Alpha  occ. eigenvalues --   -1.00562  -0.92485  -0.86424  -0.85844  -0.80103
 Alpha  occ. eigenvalues --   -0.72765  -0.71048  -0.69874  -0.63850  -0.62558
 Alpha  occ. eigenvalues --   -0.60983  -0.59355  -0.58424  -0.56541  -0.54528
 Alpha  occ. eigenvalues --   -0.51885  -0.51408  -0.50367  -0.49634  -0.46547
 Alpha  occ. eigenvalues --   -0.44485  -0.40471  -0.36779  -0.33916  -0.31090
 Alpha virt. eigenvalues --    0.02579   0.02998   0.03423   0.04214   0.05161
 Alpha virt. eigenvalues --    0.05643   0.06561   0.07205   0.07880   0.08506
 Alpha virt. eigenvalues --    0.09491   0.09998   0.10939   0.11225   0.11763

 Mulliken charges:
               1
     1  Cl  -0.308520
     2  C    0.166616
     3  S    0.067578
     4  C    0.874165
     5  C    0.073646
     6  H   -0.545489
     7  C    0.417238
     8  H   -0.427591
     9  C    0.504891
    10  H   -0.445686
    11  C    0.461900
    12  H   -0.580229
    13  C    0.090198
    14  C    0.497374
    15  H   -0.570150
    16  C    0.432708
    17  H   -0.443444
    18  C    0.227307
    19  H   -0.492511
 Sum of Mulliken charges =  -0.00000

 Dipole moment (field-independent basis, Debye):
    X=              3.1864    Y=              1.3828    Z=             -0.3976  Tot=              3.4962

 Test job not archived.
 1\1\GINC-SE126\SP\RHF\Aug-CC-pVDZ\C10H7Cl1S1\OHZDE\09-Apr-2025\0\\#t h
 f aug-cc-pvdz iop(5/13=1,5/36=2,99/5=2) pseudo=read geom=check guess=(
 read,tcheck) scf=(maxcycle=1)\\title\\0,1\Cl,0,-2.904539,-0.844847,0.8
 98147\C,0,-0.588709,0.698375,-0.342768\S,0,-2.143431,0.039169,-0.86841
 3\C,0,0.579432,-0.125066,-0.207208\C,0,0.572321,-1.529487,-0.388828\H,
 0,-0.357323,-2.017931,-0.649085\C,0,1.724595,-2.264433,-0.237445\H,0,1
 .698663,-3.338687,-0.380406\C,0,2.942396,-1.635775,0.102751\H,0,3.8413
 13,-2.230203,0.218853\C,0,2.984449,-0.275645,0.284292\H,0,3.915225,0.2

 Normal termination of Gaussian 16 at Wed Apr  9 00:21:50 2025.
