 Gaussian 16, Revision C.01,

 ----------------------------------------------------------------------
 #t hf aug-cc-pvdz symm=none int=(grid=ultrafine) guess=(read,tcheck) s
 table=(opt,rrhf)
 ----------------------------------------------------------------------
 -----
 title
 -----
 Symbolic Z-matrix:
 Charge =  0 Multiplicity = 1

 SCF Done:  E(RHF) =  -639.435641164     A.U. after   12 cycles
 Normal termination of Gaussian 16 at Wed Apr  9 00:08:50 2025.
 Gaussian 16:  ES64L-G16RevC.01  3-Jul-2019

 ----------------------------------------------------------------------
 #t hf aug-cc-pvdz iop(5/13=1,5/36=2,99/5=2) pseudo=read geom=check gue
 ss=(read,tcheck) scf=(maxcycle=1)
 ----------------------------------------------------------------------
 -----
 title
 -----
 Structure from the checkpoint file:  "BDE49_nonexpt_2256_mol1.chk"
 Charge =  0 Multiplicity = 1

                         Standard orientation:
 ---------------------------------------------------------------------
 Center     Atomic      Atomic             Coordinates (Angstroms)
 Number     Number       Type             X           Y           Z
 ---------------------------------------------------------------------
      1          8           0       -0.387923   -0.028898    0.191254
      2          6           0       -1.828497    0.067074    0.168268
      3          6           0       -2.227890    1.348221   -0.574219
      4          1           0       -1.902867    1.313936   -1.617039
      5          1           0       -1.766798    2.217505   -0.099808
      6          6           0       -2.431800   -1.169915   -0.508581
      7          1           0       -3.523865   -1.132220   -0.472959
      8          1           0       -2.102672   -2.081589   -0.004425
      9          1           0       -2.134678   -1.231744   -1.559560
     10          6           0       -2.254177    0.138100    1.637084
     11          1           0       -1.783654    0.996027    2.122216
     12          1           0       -1.941638   -0.765983    2.164434
     13          1           0       -3.339390    0.237683    1.725786
     14          1           0       -3.313186    1.481632   -0.560881
     15         14           0        0.734871   -0.421024   -0.952470
     16          6           0        2.424964   -0.061894   -0.204173
     17          6           0        2.703023   -0.935193    1.033856
     18          1           0        1.988697   -0.717925    1.833005
     19          1           0        3.708516   -0.747396    1.426286
     20          1           0        2.630993   -2.002483    0.804890
     21          6           0        2.611533    1.434358    0.109076
     22          1           0        3.144789   -0.340552   -0.988300
     23          1           0        1.893314    1.766950    0.863889
     24          1           0        2.473224    2.057907   -0.779107
     25          1           0        3.616850    1.629901    0.498090
     26          1           0        0.543050    0.377133   -2.194309
     27          1           0        0.641570   -1.857774   -1.325519
 ---------------------------------------------------------------------

 SCF Done:  E(RHF) =  -639.580390598     A.U. after    2 cycles

 The electronic state is 1-A.
 Alpha  occ. eigenvalues --  -69.07322 -20.54759 -11.30357 -11.22734 -11.22417
 Alpha  occ. eigenvalues --  -11.22220 -11.22186 -11.22142 -11.21914  -6.82190
 Alpha  occ. eigenvalues --   -3.93076  -3.92929  -3.92922  -1.29597  -1.05873
 Alpha  occ. eigenvalues --   -1.03799  -0.93820  -0.93515  -0.92054  -0.80670
 Alpha  occ. eigenvalues --   -0.77912  -0.67870  -0.64015  -0.63014  -0.62157
 Alpha  occ. eigenvalues --   -0.60711  -0.58062  -0.57023  -0.55557  -0.55418
 Alpha  occ. eigenvalues --   -0.53419  -0.53298  -0.51979  -0.51548  -0.51489
 Alpha  occ. eigenvalues --   -0.48120  -0.47514  -0.46799  -0.45182  -0.42672
 Alpha  occ. eigenvalues --   -0.40268
 Alpha virt. eigenvalues --    0.03212   0.04199   0.04615   0.04644   0.05647
 Alpha virt. eigenvalues --    0.05739   0.05761   0.06449   0.06840   0.07741
 Alpha virt. eigenvalues --    0.07816   0.08154   0.08715   0.08984   0.09444

 Mulliken charges:
               1
     1  O   -0.578470
     2  C   -2.707990
     3  C    1.050781
     4  H   -0.078365
     5  H   -0.008892
     6  C    1.095730
     7  H   -0.013768
     8  H   -0.001664
     9  H   -0.074961
    10  C    0.954437
    11  H   -0.017477
    12  H   -0.034321
    13  H    0.029951
    14  H    0.004861
    15  Si   0.230798
    16  C   -0.501513
    17  C    0.606827
    18  H   -0.106819
    19  H   -0.101873
    20  H   -0.120062
    21  C    0.523297
    22  H   -0.257955
    23  H   -0.096346
    24  H   -0.124477
    25  H   -0.094405
    26  H    0.164849
    27  H    0.257831
 Sum of Mulliken charges =   0.00000

 Dipole moment (field-independent basis, Debye):
    X=             -0.8597    Y=              0.0682    Z=             -0.1634  Tot=              0.8777

 Test job not archived.
 1\1\GINC-SE253\SP\RHF\Aug-CC-pVDZ\C7H18O1Si1\OHZDE\09-Apr-2025\0\\#t h
 f aug-cc-pvdz iop(5/13=1,5/36=2,99/5=2) pseudo=read geom=check guess=(
 read,tcheck) scf=(maxcycle=1)\\title\\0,1\O,0,-0.387923,-0.028898,0.19
 1254\C,0,-1.828497,0.067074,0.168268\C,0,-2.22789,1.348221,-0.574219\H
 ,0,-1.902867,1.313936,-1.617039\H,0,-1.766798,2.217505,-0.099808\C,0,-
 2.4318,-1.169915,-0.508581\H,0,-3.523865,-1.13222,-0.472959\H,0,-2.102
 672,-2.081589,-0.004425\H,0,-2.134678,-1.231744,-1.55956\C,0,-2.254177
 ,0.1381,1.637084\H,0,-1.783654,0.996027,2.122216\H,0,-1.941638,-0.7659

 Normal termination of Gaussian 16 at Wed Apr  9 00:09:08 2025.
