 Gaussian 16, Revision C.01,

 ----------------------------------------------------------------------
 #t hf aug-cc-pvdz symm=none int=(grid=ultrafine) guess=(read,tcheck) s
 table=(opt,rrhf)
 ----------------------------------------------------------------------
 -----
 title
 -----
 Symbolic Z-matrix:
 Charge =  0 Multiplicity = 1

 SCF Done:  E(RHF) =  -484.840796026     A.U. after   14 cycles
 Normal termination of Gaussian 16 at Wed Apr  9 00:42:11 2025.
 Gaussian 16:  ES64L-G16RevC.01  3-Jul-2019

 ----------------------------------------------------------------------
 #t hf aug-cc-pvdz iop(5/13=1,5/36=2,99/5=2) pseudo=read geom=check gue
 ss=(read,tcheck) scf=(maxcycle=1)
 ----------------------------------------------------------------------
 -----
 title
 -----
 Structure from the checkpoint file:  "BDE49_nonexpt_730_mol1.chk"
 Charge =  0 Multiplicity = 1

                         Standard orientation:
 ---------------------------------------------------------------------
 Center     Atomic      Atomic             Coordinates (Angstroms)
 Number     Number       Type             X           Y           Z
 ---------------------------------------------------------------------
      1          5           0        2.371515    0.380718   -0.332506
      2         15           0        0.912457   -0.600778    0.212981
      3          6           0       -0.717109    0.109805   -0.367294
      4          6           0       -1.857563   -0.895916   -0.145978
      5          1           0       -2.010242   -1.091466    0.920194
      6          1           0       -1.655387   -1.850906   -0.635558
      7          6           0       -1.041949    1.477174    0.250193
      8          1           0       -2.796771   -0.499841   -0.544786
      9          1           0       -0.568046    0.235426   -1.445928
     10          1           0       -1.997330    1.852109   -0.133634
     11          1           0       -1.128119    1.406306    1.338789
     12          1           0       -0.269594    2.214366    0.022981
     13          1           0        3.367660    0.337539    0.315890
     14          1           0        2.369506    0.885985   -1.410816
     15          1           0        0.843613   -0.527813    1.619151
 ---------------------------------------------------------------------

 SCF Done:  E(RHF) =  -484.907807389     A.U. after    2 cycles

 The electronic state is 1-A.
 Alpha  occ. eigenvalues --  -81.23398 -11.25892 -11.23504 -11.23446  -7.74206
 Alpha  occ. eigenvalues --   -7.61860  -4.88296  -4.88277  -4.87977  -1.06250
 Alpha  occ. eigenvalues --   -0.93579  -0.83872  -0.75997  -0.66426  -0.61941
 Alpha  occ. eigenvalues --   -0.59300  -0.57189  -0.54643  -0.52050  -0.49515
 Alpha  occ. eigenvalues --   -0.49226  -0.46548  -0.42994  -0.32182
 Alpha virt. eigenvalues --    0.03311   0.04274   0.04595   0.04911   0.05468
 Alpha virt. eigenvalues --    0.06370   0.06408   0.07213   0.07573   0.08683
 Alpha virt. eigenvalues --    0.09157   0.09605   0.10210   0.11932   0.12579

 Mulliken charges:
               1
     1  B   -0.545480
     2  P    0.253881
     3  C   -0.937766
     4  C    0.620840
     5  H   -0.044561
     6  H   -0.101918
     7  C    0.541691
     8  H   -0.073106
     9  H   -0.138526
    10  H   -0.053683
    11  H   -0.071785
    12  H   -0.131289
    13  H    0.341202
    14  H    0.257248
    15  H    0.083253
 Sum of Mulliken charges =   0.00000

 Dipole moment (field-independent basis, Debye):
    X=             -1.4243    Y=              0.7962    Z=              0.1123  Tot=              1.6356

 Test job not archived.
 1\1\GINC-SE141\SP\RHF\Aug-CC-pVDZ\C3H10B1P1\OHZDE\09-Apr-2025\0\\#t hf
  aug-cc-pvdz iop(5/13=1,5/36=2,99/5=2) pseudo=read geom=check guess=(r
 ead,tcheck) scf=(maxcycle=1)\\title\\0,1\B,0,2.371515,0.380718,-0.3325
 06\P,0,0.912457,-0.600778,0.212981\C,0,-0.717109,0.109805,-0.367294\C,
 0,-1.857563,-0.895916,-0.145978\H,0,-2.010242,-1.091466,0.920194\H,0,-
 1.655387,-1.850906,-0.635558\C,0,-1.041949,1.477174,0.250193\H,0,-2.79
 6771,-0.499841,-0.544786\H,0,-0.568046,0.235426,-1.445928\H,0,-1.99733
 ,1.852109,-0.133634\H,0,-1.128119,1.406306,1.338789\H,0,-0.269594,2.21

 Normal termination of Gaussian 16 at Wed Apr  9 00:42:17 2025.
