 Gaussian 16, Revision C.01,

 ----------------------------------------------------------------------
 #t hf aug-cc-pvdz symm=none int=(grid=ultrafine) guess=(read,tcheck) s
 table=(opt,rrhf)
 ----------------------------------------------------------------------
 -----
 title
 -----
 Symbolic Z-matrix:
 Charge =  0 Multiplicity = 1

 SCF Done:  E(RHF) =  -766.898130412     A.U. after   12 cycles
 Normal termination of Gaussian 16 at Wed Apr  9 00:13:36 2025.
 Gaussian 16:  ES64L-G16RevC.01  3-Jul-2019

 ----------------------------------------------------------------------
 #t hf aug-cc-pvdz iop(5/13=1,5/36=2,99/5=2) pseudo=read geom=check gue
 ss=(read,tcheck) scf=(maxcycle=1)
 ----------------------------------------------------------------------
 -----
 title
 -----
 Structure from the checkpoint file:  "BDE49_nonexpt_2494_mol1.chk"
 Charge =  0 Multiplicity = 1

                         Standard orientation:
 ---------------------------------------------------------------------
 Center     Atomic      Atomic             Coordinates (Angstroms)
 Number     Number       Type             X           Y           Z
 ---------------------------------------------------------------------
      1         16           0       -0.860650   -0.756024   -0.000010
      2          6           0       -2.270976    0.425424   -0.000001
      3          1           0       -2.259829    1.049983    0.893689
      4          1           0       -3.180426   -0.175528   -0.000011
      5          1           0       -2.259824    1.050003   -0.893677
      6         14           0        0.800493    0.619921    0.000009
      7          6           0        2.383419   -0.383046    0.000000
      8          1           0        2.445192   -1.019969    0.886037
      9          1           0        3.250364    0.284092    0.000015
     10          1           0        2.445199   -1.019941   -0.886056
     11          1           0        0.724075    1.497276    1.195594
     12          1           0        0.724079    1.497305   -1.195555
 ---------------------------------------------------------------------

 SCF Done:  E(RHF) =  -766.969212543     A.U. after    2 cycles

 The electronic state is 1-A.
 Alpha  occ. eigenvalues --  -93.51557 -69.08205 -11.27036 -11.22503  -8.81481
 Alpha  occ. eigenvalues --   -6.83240  -6.15598  -6.15405  -6.15129  -3.94062
 Alpha  occ. eigenvalues --   -3.93988  -3.93962  -1.01637  -0.94800  -0.84725
 Alpha  occ. eigenvalues --   -0.66904  -0.59352  -0.58984  -0.57044  -0.56847
 Alpha  occ. eigenvalues --   -0.49736  -0.47804  -0.45338  -0.41171  -0.34872
 Alpha virt. eigenvalues --    0.03544   0.04144   0.05215   0.05674   0.06386
 Alpha virt. eigenvalues --    0.06990   0.07416   0.08298   0.09416   0.09619
 Alpha virt. eigenvalues --    0.10833   0.11647   0.14162   0.15202   0.15629

 Mulliken charges:
               1
     1  S   -0.203905
     2  C    0.102525
     3  H   -0.109818
     4  H   -0.109795
     5  H   -0.109818
     6  Si   0.874866
     7  C    0.227028
     8  H   -0.174495
     9  H   -0.273806
    10  H   -0.174496
    11  H   -0.024143
    12  H   -0.024144
 Sum of Mulliken charges =  -0.00000

 Dipole moment (field-independent basis, Debye):
    X=              0.1067    Y=              1.1038    Z=              0.0000  Tot=              1.1089

 Test job not archived.
 1\1\GINC-SE361\SP\RHF\Aug-CC-pVDZ\C2H8S1Si1\OHZDE\09-Apr-2025\0\\#t hf
  aug-cc-pvdz iop(5/13=1,5/36=2,99/5=2) pseudo=read geom=check guess=(r
 ead,tcheck) scf=(maxcycle=1)\\title\\0,1\S,0,-0.86065,-0.756024,-0.000
 01\C,0,-2.270976,0.425424,-0.000001\H,0,-2.259829,1.049983,0.893689\H,
 0,-3.180426,-0.175528,-0.000011\H,0,-2.259824,1.050003,-0.893677\Si,0,
 0.800493,0.619921,0.000009\C,0,2.383419,-0.383046,0.\H,0,2.445192,-1.0
 19969,0.886037\H,0,3.250364,0.284092,0.000015\H,0,2.445199,-1.019941,-
 0.886056\H,0,0.724075,1.497276,1.195594\H,0,0.724079,1.497305,-1.19555

 Normal termination of Gaussian 16 at Wed Apr  9 00:13:40 2025.
