 Gaussian 16, Revision C.01,

 ----------------------------------------------------------------------
 #t hf aug-cc-pvdz symm=none int=(grid=ultrafine) guess=(read,tcheck) s
 table=(opt,rrhf)
 ----------------------------------------------------------------------
 -----
 title
 -----
 Symbolic Z-matrix:
 Charge =  0 Multiplicity = 1

 SCF Done:  E(RHF) =  -764.320630008     A.U. after   14 cycles
 Normal termination of Gaussian 16 at Tue Apr  8 23:09:28 2025.
 Gaussian 16:  ES64L-G16RevC.01  3-Jul-2019

 ----------------------------------------------------------------------
 #t hf aug-cc-pvdz iop(5/13=1,5/36=2,99/5=2) pseudo=read geom=check gue
 ss=(read,tcheck) scf=(maxcycle=1)
 ----------------------------------------------------------------------
 -----
 title
 -----
 Structure from the checkpoint file:  "BDE49_expt_1882_mol1.chk"
 Charge =  0 Multiplicity = 1

                         Standard orientation:
 ---------------------------------------------------------------------
 Center     Atomic      Atomic             Coordinates (Angstroms)
 Number     Number       Type             X           Y           Z
 ---------------------------------------------------------------------
      1          8           0        0.713441   -0.106929    1.618598
      2          8           0       -0.713368    0.105862    1.618633
      3          6           0       -1.095848    1.027651    0.659695
      4          6           0        1.095950   -1.028221    0.659194
      5          8           0        0.344055   -1.573431   -0.090441
      6          8           0       -0.343921    1.573304   -0.089587
      7          6           0        2.600234   -1.165630    0.713658
      8          6           0        3.244025   -0.476382   -0.494284
      9          1           0        2.820143   -2.237278    0.696967
     10          1           0        2.986896   -0.744607    1.644239
     11          6           0        3.248611    1.075942   -0.571019
     12          6           0        4.794560   -0.445927   -0.586888
     13          1           0        2.819112   -0.897672   -1.409595
     14          6           0        4.686344    0.996860   -1.151831
     15          1           0        5.278960   -1.207284   -1.201693
     16          1           0        5.253445   -0.453327    0.406318
     17          1           0        5.414348    1.730222   -0.801352
     18          1           0        4.683285    1.003198   -2.244237
     19          1           0        3.241427    1.520322    0.428210
     20          1           0        2.467760    1.553304   -1.162698
     21          6           0       -2.600115    1.165182    0.714314
     22          6           0       -3.244035    0.476706   -0.494000
     23          1           0       -2.819918    2.236862    0.698259
     24          1           0       -2.986776    0.743655    1.644667
     25          6           0       -3.248791   -1.075572   -0.571641
     26          6           0       -4.794578    0.446469   -0.586545
     27          1           0       -2.819122    0.898486   -1.409085
     28          6           0       -4.686543   -0.995997   -1.152339
     29          1           0       -5.278927    1.208239   -1.200880
     30          1           0       -5.253413    0.453336    0.406688
     31          1           0       -5.414608   -1.729486   -0.802255
     32          1           0       -4.683536   -1.001696   -2.244749
     33          1           0       -3.241606   -1.520537    0.427328
     34          1           0       -2.468018   -1.552671   -1.163635
 ---------------------------------------------------------------------

 SCF Done:  E(RHF) =  -764.554066638     A.U. after    2 cycles

 The electronic state is 1-A.
 Alpha  occ. eigenvalues --  -20.69032 -20.69002 -20.57780 -20.57779 -11.40889
 Alpha  occ. eigenvalues --  -11.40888 -11.26054 -11.26053 -11.24780 -11.24780
 Alpha  occ. eigenvalues --  -11.23440 -11.23439 -11.23050 -11.23050 -11.22661
 Alpha  occ. eigenvalues --  -11.22661  -1.49907  -1.39578  -1.36578  -1.26802
 Alpha  occ. eigenvalues --   -1.13061  -1.12892  -1.03751  -1.01663  -0.89979
 Alpha  occ. eigenvalues --   -0.89690  -0.89293  -0.86627  -0.83789  -0.78738
 Alpha  occ. eigenvalues --   -0.75727  -0.75381  -0.72958  -0.72485  -0.71805
 Alpha  occ. eigenvalues --   -0.66466  -0.66406  -0.65037  -0.65025  -0.64707
 Alpha  occ. eigenvalues --   -0.62012  -0.61797  -0.60538  -0.58169  -0.56909
 Alpha  occ. eigenvalues --   -0.54315  -0.54280  -0.52978  -0.52555  -0.52104
 Alpha  occ. eigenvalues --   -0.51701  -0.50014  -0.49666  -0.47482  -0.46902
 Alpha  occ. eigenvalues --   -0.45993  -0.45819  -0.44028  -0.44024  -0.43756
 Alpha  occ. eigenvalues --   -0.43646
 Alpha virt. eigenvalues --    0.03488   0.03838   0.04407   0.04472   0.04716
 Alpha virt. eigenvalues --    0.04801   0.05297   0.06322   0.06379   0.06897
 Alpha virt. eigenvalues --    0.07245   0.07266   0.07543   0.07652   0.08744

 Mulliken charges:
               1
     1  O   -0.413737
     2  O   -0.413749
     3  C    0.712365
     4  C    0.712388
     5  O   -0.458652
     6  O   -0.458638
     7  C    0.366978
     8  C   -0.443310
     9  H    0.101302
    10  H   -0.074074
    11  C    0.565906
    12  C    0.645884
    13  H   -0.330226
    14  C    0.534995
    15  H   -0.152394
    16  H   -0.201981
    17  H   -0.192463
    18  H   -0.218245
    19  H   -0.259290
    20  H   -0.183052
    21  C    0.366995
    22  C   -0.443364
    23  H    0.101304
    24  H   -0.074073
    25  C    0.565899
    26  C    0.645843
    27  H   -0.330212
    28  C    0.535007
    29  H   -0.152386
    30  H   -0.201979
    31  H   -0.192469
    32  H   -0.218247
    33  H   -0.259279
    34  H   -0.183046
 Sum of Mulliken charges =  -0.00000

 Dipole moment (field-independent basis, Debye):
    X=             -0.0002    Y=             -0.0002    Z=              0.9153  Tot=              0.9153

 Test job not archived.
 1\1\GINC-SE227\SP\RHF\Aug-CC-pVDZ\C12H18O4\OHZDE\08-Apr-2025\0\\#t hf
 aug-cc-pvdz iop(5/13=1,5/36=2,99/5=2) pseudo=read geom=check guess=(re
 ad,tcheck) scf=(maxcycle=1)\\title\\0,1\O,0,-0.713441,0.106929,1.61859
 8\O,0,0.713368,-0.105862,1.618633\C,0,1.095848,-1.027651,0.659695\C,0,
 -1.09595,1.028221,0.659194\O,0,-0.344055,1.573431,-0.090441\O,0,0.3439
 21,-1.573304,-0.089587\C,0,-2.600234,1.16563,0.713658\C,0,-3.244025,0.
 476382,-0.494284\H,0,-2.820143,2.237278,0.696967\H,0,-2.986896,0.74460
 7,1.644239\C,0,-3.248611,-1.075942,-0.571019\C,0,-4.79456,0.445927,-0.

 Normal termination of Gaussian 16 at Tue Apr  8 23:10:12 2025.
