 Gaussian 16, Revision C.01,

 ----------------------------------------------------------------------
 #t hf aug-cc-pvdz symm=none int=(grid=ultrafine) guess=(read,tcheck) s
 table=(opt,rrhf)
 ----------------------------------------------------------------------
 -----
 title
 -----
 Symbolic Z-matrix:
 Charge =  0 Multiplicity = 1

 SCF Done:  E(RHF) =  -535.971647861     A.U. after   15 cycles
 Normal termination of Gaussian 16 at Wed Apr  9 00:26:19 2025.
 Gaussian 16:  ES64L-G16RevC.01  3-Jul-2019

 ----------------------------------------------------------------------
 #t hf aug-cc-pvdz iop(5/13=1,5/36=2,99/5=2) pseudo=read geom=check gue
 ss=(read,tcheck) scf=(maxcycle=1)
 ----------------------------------------------------------------------
 -----
 title
 -----
 Structure from the checkpoint file:  "BDE49_nonexpt_285_mol1.chk"
 Charge =  0 Multiplicity = 1

                         Standard orientation:
 ---------------------------------------------------------------------
 Center     Atomic      Atomic             Coordinates (Angstroms)
 Number     Number       Type             X           Y           Z
 ---------------------------------------------------------------------
      1          6           0        0.151101   -0.190410   -0.296910
      2          7           0       -0.004619    1.311137   -0.259602
      3          5           0        1.683897   -0.632396   -0.150276
      4          8           0        0.544989    1.916566    0.665391
      5          8           0       -0.677174    1.845920   -1.120525
      6          8           0        1.997325   -1.837487   -0.697506
      7          8           0        2.611898    0.092686    0.516891
      8          1           0       -0.252946   -0.485429   -1.263598
      9          6           0       -0.690818   -0.802090    0.849858
     10          6           0       -2.191666   -0.474124    0.818833
     11          1           0       -0.263888   -0.480769    1.804219
     12          1           0       -0.547489   -1.885680    0.785763
     13          6           0       -2.925546   -0.959688   -0.434736
     14          1           0       -2.335940    0.605499    0.935469
     15          1           0       -2.642532   -0.932823    1.705253
     16          1           0       -2.587592   -0.433822   -1.330661
     17          1           0       -4.000295   -0.784477   -0.343591
     18          1           0       -2.776194   -2.032645   -0.592250
     19          1           0        2.230294    0.913994    0.865171
     20          1           0        2.914687   -2.083431   -0.533461
 ---------------------------------------------------------------------

 SCF Done:  E(RHF) =  -536.142469378     A.U. after    2 cycles

 The electronic state is 1-A.
 Alpha  occ. eigenvalues --  -20.63393 -20.62311 -20.60003 -20.59282 -15.91958
 Alpha  occ. eigenvalues --  -11.30018 -11.26916 -11.24860 -11.23441  -7.68351
 Alpha  occ. eigenvalues --   -1.55646  -1.37424  -1.36027  -1.32528  -1.12097
 Alpha  occ. eigenvalues --   -1.04090  -0.94597  -0.86985  -0.81654  -0.80411
 Alpha  occ. eigenvalues --   -0.77158  -0.75269  -0.73796  -0.72201  -0.67258
 Alpha  occ. eigenvalues --   -0.63589  -0.61892  -0.61033  -0.60376  -0.57492
 Alpha  occ. eigenvalues --   -0.57054  -0.53786  -0.53628  -0.52134  -0.51229
 Alpha  occ. eigenvalues --   -0.49788  -0.48855  -0.48423  -0.47422
 Alpha virt. eigenvalues --    0.02776   0.03738   0.04159   0.04975   0.05863
 Alpha virt. eigenvalues --    0.06245   0.06319   0.07039   0.07395   0.07897
 Alpha virt. eigenvalues --    0.08511   0.08907   0.09127   0.09662   0.12323

 Mulliken charges:
               1
     1  C    0.798592
     2  N    0.364397
     3  B    0.863947
     4  O   -0.670583
     5  O   -0.552757
     6  O   -0.520782
     7  O   -0.447737
     8  H   -0.385210
     9  C    0.197352
    10  C    0.215503
    11  H   -0.133579
    12  H   -0.211175
    13  C    0.410439
    14  H   -0.097824
    15  H   -0.052207
    16  H   -0.105079
    17  H   -0.092150
    18  H   -0.081374
    19  H    0.298467
    20  H    0.201758
 Sum of Mulliken charges =  -0.00000

 Dipole moment (field-independent basis, Debye):
    X=             -0.1685    Y=             -3.2234    Z=              0.7800  Tot=              3.3207

 Test job not archived.
 1\1\GINC-SE102\SP\RHF\Aug-CC-pVDZ\C4H10B1N1O4\OHZDE\09-Apr-2025\0\\#t
 hf aug-cc-pvdz iop(5/13=1,5/36=2,99/5=2) pseudo=read geom=check guess=
 (read,tcheck) scf=(maxcycle=1)\\title\\0,1\C,0,0.151101,-0.19041,-0.29
 691\N,0,-0.004619,1.311137,-0.259602\B,0,1.683897,-0.632396,-0.150276\
 O,0,0.544989,1.916566,0.665391\O,0,-0.677174,1.84592,-1.120525\O,0,1.9
 97325,-1.837487,-0.697506\O,0,2.611898,0.092686,0.516891\H,0,-0.252946
 ,-0.485429,-1.263598\C,0,-0.690818,-0.80209,0.849858\C,0,-2.191666,-0.
 474124,0.818833\H,0,-0.263888,-0.480769,1.804219\H,0,-0.547489,-1.8856

 Normal termination of Gaussian 16 at Wed Apr  9 00:26:30 2025.
