 Gaussian 16, Revision C.01,

 ----------------------------------------------------------------------
 #t hf aug-cc-pvdz symm=none int=(grid=ultrafine) guess=(read,tcheck) s
 table=(opt,rrhf)
 ----------------------------------------------------------------------
 -----
 title
 -----
 Symbolic Z-matrix:
 Charge =  0 Multiplicity = 1

 SCF Done:  E(RHF) =  -1124.43584627     A.U. after   15 cycles
 Normal termination of Gaussian 16 at Wed Apr  9 00:17:38 2025.
 Gaussian 16:  ES64L-G16RevC.01  3-Jul-2019

 ----------------------------------------------------------------------
 #t hf aug-cc-pvdz iop(5/13=1,5/36=2,99/5=2) pseudo=read geom=check gue
 ss=(read,tcheck) scf=(maxcycle=1)
 ----------------------------------------------------------------------
 -----
 title
 -----
 Structure from the checkpoint file:  "BDE49_nonexpt_2586_mol1.chk"
 Charge =  0 Multiplicity = 1

                         Standard orientation:
 ---------------------------------------------------------------------
 Center     Atomic      Atomic             Coordinates (Angstroms)
 Number     Number       Type             X           Y           Z
 ---------------------------------------------------------------------
      1         17           0        2.435608   -0.093387   -0.380417
      2         16           0        0.791006   -0.850124    0.642631
      3          6           0       -0.596608   -0.143249   -0.387683
      4          8           0       -0.562095    1.212331   -0.615897
      5          8           0       -1.680717   -0.578383    0.380729
      6          6           0       -0.578406    2.063928    0.538962
      7          1           0       -0.733532    3.071291    0.157234
      8          1           0        0.375280    2.013094    1.069351
      9          1           0       -1.390216    1.790736    1.215650
     10          6           0       -2.869286   -0.829653   -0.375479
     11          1           0       -3.639573   -1.102443    0.343871
     12          1           0       -2.717973   -1.657443   -1.077069
     13          1           0       -3.178092    0.065910   -0.922590
     14          1           0       -0.569017   -0.609319   -1.374908
 ---------------------------------------------------------------------

 SCF Done:  E(RHF) =  -1124.56314473     A.U. after    2 cycles

 The electronic state is 1-A.
 Alpha  occ. eigenvalues -- -103.67163 -93.58985 -20.60852 -20.60143 -11.40068
 Alpha  occ. eigenvalues --  -11.30782 -11.29179 -10.70306  -8.88346  -8.36039
 Alpha  occ. eigenvalues --   -8.35701  -8.35673  -6.22446  -6.22141  -6.21764
 Alpha  occ. eigenvalues --   -1.40651  -1.33633  -1.15921  -1.02315  -0.96099
 Alpha  occ. eigenvalues --   -0.91687  -0.82376  -0.73542  -0.71979  -0.68951
 Alpha  occ. eigenvalues --   -0.63998  -0.63071  -0.60299  -0.55517  -0.54771
 Alpha  occ. eigenvalues --   -0.52620  -0.50991  -0.50228  -0.48944  -0.48116
 Alpha  occ. eigenvalues --   -0.42724  -0.36802
 Alpha virt. eigenvalues --    0.03174   0.04461   0.04755   0.05572   0.05977
 Alpha virt. eigenvalues --    0.06786   0.07159   0.07805   0.09157   0.11332
 Alpha virt. eigenvalues --    0.12571   0.12976   0.13582   0.14801   0.15169

 Mulliken charges:
               1
     1  Cl  -0.341179
     2  S    0.362262
     3  C    0.799270
     4  O   -0.672113
     5  O   -0.616622
     6  C    0.698540
     7  H   -0.223167
     8  H   -0.051906
     9  H   -0.058321
    10  C    0.671690
    11  H   -0.234893
    12  H   -0.080335
    13  H   -0.028689
    14  H   -0.224538
 Sum of Mulliken charges =  -0.00000

 Dipole moment (field-independent basis, Debye):
    X=             -3.2398    Y=              0.2249    Z=             -0.2394  Tot=              3.2564

 Test job not archived.
 1\1\GINC-SE059\SP\RHF\Aug-CC-pVDZ\C3H7Cl1O2S1\OHZDE\09-Apr-2025\0\\#t
 hf aug-cc-pvdz iop(5/13=1,5/36=2,99/5=2) pseudo=read geom=check guess=
 (read,tcheck) scf=(maxcycle=1)\\title\\0,1\Cl,0,2.435608,-0.093387,-0.
 380417\S,0,0.791006,-0.850124,0.642631\C,0,-0.596608,-0.143249,-0.3876
 83\O,0,-0.562095,1.212331,-0.615897\O,0,-1.680717,-0.578383,0.380729\C
 ,0,-0.578406,2.063928,0.538962\H,0,-0.733532,3.071291,0.157234\H,0,0.3
 7528,2.013094,1.069351\H,0,-1.390216,1.790736,1.21565\C,0,-2.869286,-0
 .829653,-0.375479\H,0,-3.639573,-1.102443,0.343871\H,0,-2.717973,-1.65

 Normal termination of Gaussian 16 at Wed Apr  9 00:17:43 2025.
