 Gaussian 16, Revision C.01,

 ----------------------------------------------------------------------
 #t hf aug-cc-pvdz symm=none int=(grid=ultrafine) guess=(read,tcheck) s
 table=(opt,rrhf)
 ----------------------------------------------------------------------
 -----
 title
 -----
 Symbolic Z-matrix:
 Charge =  0 Multiplicity = 1

 SCF Done:  E(RHF) =  -1317.02085199     A.U. after   15 cycles
 Normal termination of Gaussian 16 at Tue Apr  8 23:29:56 2025.
 Gaussian 16:  ES64L-G16RevC.01  3-Jul-2019

 ----------------------------------------------------------------------
 #t hf aug-cc-pvdz iop(5/13=1,5/36=2,99/5=2) pseudo=read geom=check gue
 ss=(read,tcheck) scf=(maxcycle=1)
 ----------------------------------------------------------------------
 -----
 title
 -----
 Structure from the checkpoint file:  "BDE49_nonexpt_1363_mol1.chk"
 Charge =  0 Multiplicity = 1

                         Standard orientation:
 ---------------------------------------------------------------------
 Center     Atomic      Atomic             Coordinates (Angstroms)
 Number     Number       Type             X           Y           Z
 ---------------------------------------------------------------------
      1          9           0        1.439309   -1.559252   -1.216758
      2          9           0        1.439322   -1.559428    1.216516
      3         16           0        0.837923    1.027538    0.000069
      4          8           0        1.109371    1.678551   -1.271665
      5          8           0        1.109386    1.678367    1.271894
      6         15           0        2.162192   -0.794966   -0.000070
      7          6           0       -1.473394    0.184026   -1.219739
      8          6           0       -2.776016   -0.304383   -1.211320
      9          6           0       -3.422784   -0.549176   -0.000019
     10          6           0       -2.775998   -0.304565    1.211309
     11          6           0       -1.473376    0.183843    1.219782
     12          6           0       -0.840932    0.426924    0.000036
     13          1           0       -0.955672    0.393994   -2.146411
     14          1           0       -3.286680   -0.490422   -2.148663
     15          1           0       -4.437746   -0.929849   -0.000040
     16          1           0       -3.286648   -0.490745    2.148632
     17          1           0       -0.955640    0.393672    2.146479
 ---------------------------------------------------------------------

 SCF Done:  E(RHF) =  -1317.31041666     A.U. after    2 cycles

 The electronic state is 1-A.
 Alpha  occ. eigenvalues --  -93.79006 -81.44903 -26.17531 -26.17526 -20.57596
 Alpha  occ. eigenvalues --  -20.57595 -11.29949 -11.28620 -11.28610 -11.28238
 Alpha  occ. eigenvalues --  -11.27388 -11.27380  -9.05887  -7.93447  -6.40500
 Alpha  occ. eigenvalues --   -6.40247  -6.40181  -5.07443  -5.07150  -5.06789
 Alpha  occ. eigenvalues --   -1.70838  -1.69409  -1.42883  -1.31984  -1.18162
 Alpha  occ. eigenvalues --   -1.06244  -1.04630  -0.95366  -0.90715  -0.86548
 Alpha  occ. eigenvalues --   -0.83521  -0.82818  -0.80387  -0.79668  -0.77091
 Alpha  occ. eigenvalues --   -0.75266  -0.74481  -0.70828  -0.68578  -0.68042
 Alpha  occ. eigenvalues --   -0.65193  -0.65128  -0.62807  -0.56288  -0.54476
 Alpha  occ. eigenvalues --   -0.54227  -0.53690  -0.53305  -0.51202  -0.50436
 Alpha  occ. eigenvalues --   -0.41365  -0.37656  -0.37140
 Alpha virt. eigenvalues --    0.02729   0.03437   0.03761   0.04635   0.05760
 Alpha virt. eigenvalues --    0.06143   0.07060   0.07452   0.07845   0.08657
 Alpha virt. eigenvalues --    0.10140   0.10865   0.11689   0.12391   0.12886

 Mulliken charges:
               1
     1  F   -0.612673
     2  F   -0.612673
     3  S    2.709268
     4  O   -1.188490
     5  O   -1.188490
     6  P    1.377076
     7  C    0.109569
     8  C    0.540146
     9  C    0.519016
    10  C    0.540145
    11  C    0.109562
    12  C    0.020378
    13  H   -0.516379
    14  H   -0.429875
    15  H   -0.430330
    16  H   -0.429874
    17  H   -0.516376
 Sum of Mulliken charges =  -0.00000

 Dipole moment (field-independent basis, Debye):
    X=             -2.7625    Y=             -3.3368    Z=             -0.0002  Tot=              4.3319

 Test job not archived.
 1\1\GINC-SE082\SP\RHF\Aug-CC-pVDZ\C6H5F2O2P1S1\OHZDE\08-Apr-2025\0\\#t
  hf aug-cc-pvdz iop(5/13=1,5/36=2,99/5=2) pseudo=read geom=check guess
 =(read,tcheck) scf=(maxcycle=1)\\title\\0,1\F,0,1.439309,-1.559252,-1.
 216758\F,0,1.439322,-1.559428,1.216516\S,0,0.837923,1.027538,0.000069\
 O,0,1.109371,1.678551,-1.271665\O,0,1.109386,1.678367,1.271894\P,0,2.1
 62192,-0.794966,-0.00007\C,0,-1.473394,0.184026,-1.219739\C,0,-2.77601
 6,-0.304383,-1.21132\C,0,-3.422784,-0.549176,-0.000019\C,0,-2.775998,-
 0.304565,1.211309\C,0,-1.473376,0.183843,1.219782\C,0,-0.840932,0.4269

 Normal termination of Gaussian 16 at Tue Apr  8 23:30:08 2025.
