 Gaussian 16, Revision C.01,

 ----------------------------------------------------------------------
 #t hf aug-cc-pvdz symm=none int=(grid=ultrafine) guess=(read,tcheck) s
 table=opt
 ----------------------------------------------------------------------
 -----
 title
 -----
 Symbolic Z-matrix:
 Charge =  0 Multiplicity = 2

 SCF Done:  E(UHF) =  -671.354771243     A.U. after   16 cycles
 Normal termination of Gaussian 16 at Tue Apr  8 23:58:58 2025.
 Gaussian 16:  ES64L-G16RevC.01  3-Jul-2019

 ----------------------------------------------------------------------
 #t hf aug-cc-pvdz iop(5/13=1,5/36=2,99/5=2) pseudo=read geom=check gue
 ss=(read,tcheck) scf=(maxcycle=1)
 ----------------------------------------------------------------------
 -----
 title
 -----
 Structure from the checkpoint file:  "BDE49_nonexpt_2068_mol2.chk"
 Charge =  0 Multiplicity = 2

                         Standard orientation:
 ---------------------------------------------------------------------
 Center     Atomic      Atomic             Coordinates (Angstroms)
 Number     Number       Type             X           Y           Z
 ---------------------------------------------------------------------
      1         14           0       -1.517779   -0.997399   -0.853798
      2          6           0       -0.013892    0.012676   -0.121420
      3          8           0        1.028029   -0.229517   -1.014805
      4          8           0        0.337029   -0.290204    1.211947
      5          8           0       -0.309216    1.387020   -0.162567
      6          6           0        2.192310    0.602583   -0.867557
      7          1           0        2.959057    0.144963   -1.491156
      8          1           0        2.527013    0.628377    0.172459
      9          1           0        1.988307    1.617761   -1.210342
     10          6           0        0.715385   -1.639974    1.455341
     11          1           0        0.920658   -1.712475    2.522876
     12          1           0        1.607248   -1.915424    0.885795
     13          1           0       -0.093575   -2.335490    1.195747
     14          6           0       -1.046986    1.949297    0.925666
     15          1           0       -1.245560    2.981571    0.638987
     16          1           0       -0.469236    1.922916    1.850467
     17          1           0       -1.998397    1.430684    1.079717
     18          1           0       -1.729327   -0.573620   -2.259230
     19          1           0       -2.744925   -0.711554   -0.060930
 ---------------------------------------------------------------------

 SCF Done:  E(UHF) =  -671.499407595     A.U. after    2 cycles

 The electronic state is 2-A.
 Alpha  occ. eigenvalues --  -69.07039 -20.58457 -20.58100 -20.58033 -11.39313
 Alpha  occ. eigenvalues --  -11.29166 -11.28368 -11.27951  -6.82403  -3.93754
 Alpha  occ. eigenvalues --   -3.92848  -3.92821  -1.40953  -1.31401  -1.31096
 Alpha  occ. eigenvalues --   -0.99039  -0.94179  -0.92964  -0.81348  -0.74310
 Alpha  occ. eigenvalues --   -0.71904  -0.71415  -0.64967  -0.64415  -0.62942
 Alpha  occ. eigenvalues --   -0.61085  -0.59958  -0.58912  -0.54524  -0.53153
 Alpha  occ. eigenvalues --   -0.51040  -0.49416  -0.48409  -0.47207  -0.46267
 Alpha  occ. eigenvalues --   -0.41440  -0.32463
 Alpha virt. eigenvalues --    0.03283   0.04533   0.04653   0.04766   0.05982
 Alpha virt. eigenvalues --    0.06279   0.06530   0.06732   0.07106   0.08569
 Alpha virt. eigenvalues --    0.09314   0.09448   0.09857   0.11090   0.12493

  Beta  occ. eigenvalues --  -69.06470 -20.58471 -20.58103 -20.57879 -11.39236
  Beta  occ. eigenvalues --  -11.29131 -11.28370 -11.27958  -6.81549  -3.92457
  Beta  occ. eigenvalues --   -3.92434  -3.91559  -1.40829  -1.31395  -1.30851
  Beta  occ. eigenvalues --   -0.98900  -0.94085  -0.92915  -0.80792  -0.73056
  Beta  occ. eigenvalues --   -0.71760  -0.71273  -0.64637  -0.63175  -0.61362
  Beta  occ. eigenvalues --   -0.60996  -0.59894  -0.58868  -0.54350  -0.52852
  Beta  occ. eigenvalues --   -0.50911  -0.49318  -0.47660  -0.46907  -0.46085
  Beta  occ. eigenvalues --   -0.40028
  Beta virt. eigenvalues --    0.03003   0.03833   0.04588   0.04775   0.05457
  Beta virt. eigenvalues --    0.06033   0.06324   0.06574   0.06816   0.08051
  Beta virt. eigenvalues --    0.08769   0.09555   0.09846   0.09984   0.11328

 Mulliken charges and spin densities:
               1          2
     1  Si  -0.254214   1.012483
     2  C    0.967251  -0.022246
     3  O   -0.613652  -0.015718
     4  O   -0.701855   0.003670
     5  O   -0.748488   0.003871
     6  C    0.839349  -0.005035
     7  H   -0.232274  -0.000050
     8  H   -0.071188  -0.000495
     9  H   -0.087341   0.000625
    10  C    0.824656   0.014955
    11  H   -0.245143   0.001086
    12  H   -0.084211   0.001445
    13  H   -0.078643  -0.021566
    14  C    0.808818  -0.005864
    15  H   -0.251117  -0.000647
    16  H   -0.091042   0.000459
    17  H   -0.153223  -0.004515
    18  H    0.110343   0.022415
    19  H    0.061975   0.015125
 Sum of Mulliken charges =   0.00000   1.00000

 Dipole moment (field-independent basis, Debye):
    X=              0.4726    Y=             -0.4348    Z=              1.5090  Tot=              1.6400
                          Isotropic Fermi Contact Couplings
        Atom                 a.u.       MegaHertz       Gauss      10(-4) cm-1
     1  Si(29)             0.53146    -472.32022    -168.53560    -157.54907
     2  C(13)              0.01587      17.84251       6.36665       5.95162
     3  O(17)             -0.00702       4.25690       1.51897       1.41995
     4  O(17)             -0.00282       1.71206       0.61090       0.57108
     5  O(17)              0.02913     -17.66114      -6.30193      -5.89112
     6  C(13)             -0.00107      -1.20817      -0.43110      -0.40300
     7  H(1)               0.00001       0.02441       0.00871       0.00814
     8  H(1)               0.00005       0.20942       0.07473       0.06986

 Normal termination of Gaussian 16 at Tue Apr  8 23:59:07 2025.
