 Gaussian 16, Revision C.01,

 ----------------------------------------------------------------------
 #t hf aug-cc-pvdz symm=none int=(grid=ultrafine) guess=(read,tcheck) s
 table=opt
 ----------------------------------------------------------------------
 -----
 title
 -----
 Symbolic Z-matrix:
 Charge =  0 Multiplicity = 2

 SCF Done:  E(UHF) =  -571.745958090     A.U. after   21 cycles
 Normal termination of Gaussian 16 at Tue Apr  8 23:39:49 2025.
 Gaussian 16:  ES64L-G16RevC.01  3-Jul-2019

 ----------------------------------------------------------------------
 #t hf aug-cc-pvdz iop(5/13=1,5/36=2,99/5=2) pseudo=read geom=check gue
 ss=(read,tcheck) scf=(maxcycle=1)
 ----------------------------------------------------------------------
 -----
 title
 -----
 Structure from the checkpoint file:  "BDE49_nonexpt_1635_mol2.chk"
 Charge =  0 Multiplicity = 2

                         Standard orientation:
 ---------------------------------------------------------------------
 Center     Atomic      Atomic             Coordinates (Angstroms)
 Number     Number       Type             X           Y           Z
 ---------------------------------------------------------------------
      1          6           0        1.205440    0.261300    0.165744
      2         15           0       -1.360438   -0.822310   -0.190483
      3          6           0       -2.030313    0.900848   -0.254041
      4          1           0       -2.446547    1.185798    0.718477
      5          1           0       -2.826394    0.951636   -0.999367
      6          1           0       -1.244444    1.618454   -0.505375
      7          8           0        1.183477    1.471570    0.109859
      8          6           0        2.277689   -0.557066   -0.526173
      9          1           0        1.828278   -1.348593   -1.133249
     10          1           0        2.909152   -1.045056    0.223950
     11          1           0        2.892041    0.091086   -1.149450
     12          6           0        0.131920   -0.516382    0.914738
     13          1           0       -0.182889    0.068194    1.782667
     14          1           0        0.501153   -1.491622    1.239107
 ---------------------------------------------------------------------

 SCF Done:  E(UHF) =  -571.838279361     A.U. after    2 cycles

 The electronic state is 2-A.
 Alpha  occ. eigenvalues --  -81.26867 -20.56441 -11.35254 -11.25579 -11.24932
 Alpha  occ. eigenvalues --  -11.23640  -7.77217  -4.91975  -4.90872  -4.90547
 Alpha  occ. eigenvalues --   -1.35765  -1.04291  -0.98443  -0.94664  -0.76171
 Alpha  occ. eigenvalues --   -0.71475  -0.66204  -0.65565  -0.61136  -0.58869
 Alpha  occ. eigenvalues --   -0.57757  -0.56938  -0.54875  -0.51795  -0.46742
 Alpha  occ. eigenvalues --   -0.44043  -0.38081  -0.33308
 Alpha virt. eigenvalues --    0.03345   0.04398   0.04589   0.05448   0.06224
 Alpha virt. eigenvalues --    0.06979   0.07698   0.07760   0.09062   0.10658
 Alpha virt. eigenvalues --    0.11540   0.12395   0.12813   0.13377   0.14571

  Beta  occ. eigenvalues --  -81.26172 -20.56423 -11.35155 -11.25715 -11.24927
  Beta  occ. eigenvalues --  -11.23773  -7.76382  -4.90383  -4.90199  -4.88794
  Beta  occ. eigenvalues --   -1.35702  -1.03936  -0.97800  -0.94517  -0.75239
  Beta  occ. eigenvalues --   -0.67200  -0.65917  -0.65053  -0.60366  -0.58746
  Beta  occ. eigenvalues --   -0.56735  -0.56527  -0.54586  -0.51578  -0.46494
  Beta  occ. eigenvalues --   -0.43277  -0.35911
  Beta virt. eigenvalues --    0.03320   0.04120   0.04443   0.05041   0.05520
  Beta virt. eigenvalues --    0.06249   0.06999   0.07732   0.08201   0.09221
  Beta virt. eigenvalues --    0.10850   0.11864   0.12713   0.13150   0.14443

 Mulliken charges and spin densities:
               1          2
     1  C    0.055721   0.008048
     2  P    0.636941   1.211278
     3  C    0.196455  -0.114293
     4  H   -0.124897   0.013952
     5  H   -0.191116  -0.001738
     6  H   -0.139605   0.010164
     7  O   -0.570105   0.006883
     8  C    0.262160   0.016669
     9  H    0.038501  -0.007144
    10  H    0.075010   0.001306
    11  H   -0.088658   0.000152
    12  C    0.232057  -0.152336
    13  H   -0.109613   0.012273
    14  H   -0.272852  -0.005216
 Sum of Mulliken charges =  -0.00000   1.00000

 Dipole moment (field-independent basis, Debye):
    X=              0.1726    Y=             -2.1293    Z=              0.5760  Tot=              2.2126
                          Isotropic Fermi Contact Couplings
        Atom                 a.u.       MegaHertz       Gauss      10(-4) cm-1
     1  C(13)              0.02540      28.55013      10.18739       9.52330
     2  P(31)              0.24280     439.74297     156.91123     146.68247
     3  C(13)             -0.02718     -30.55560     -10.90300     -10.19225
     4  H(1)               0.01279      57.16971      20.39958      19.06976
     5  H(1)               0.00064       2.84679       1.01581       0.94959
     6  H(1)               0.00904      40.42428      14.42439      13.48409
     7  O(17)              0.00122      -0.74060      -0.26426      -0.24704
     8  C(13)             -0.00066      -0.74286      -0.26507      -0.24779

 Normal termination of Gaussian 16 at Tue Apr  8 23:39:54 2025.
