 Gaussian 16, Revision C.01,

 ----------------------------------------------------------------------
 #t hf aug-cc-pvdz symm=none int=(grid=ultrafine) guess=(read,tcheck) s
 table=(opt,rrhf)
 ----------------------------------------------------------------------
 -----
 title
 -----
 Symbolic Z-matrix:
 Charge =  0 Multiplicity = 1

 SCF Done:  E(RHF) =  -885.370936011     A.U. after   13 cycles
 Normal termination of Gaussian 16 at Wed Apr  9 00:31:30 2025.
 Gaussian 16:  ES64L-G16RevC.01  3-Jul-2019

 ----------------------------------------------------------------------
 #t hf aug-cc-pvdz iop(5/13=1,5/36=2,99/5=2) pseudo=read geom=check gue
 ss=(read,tcheck) scf=(maxcycle=1)
 ----------------------------------------------------------------------
 -----
 title
 -----
 Structure from the checkpoint file:  "BDE49_nonexpt_403_mol1.chk"
 Charge =  0 Multiplicity = 1

                         Standard orientation:
 ---------------------------------------------------------------------
 Center     Atomic      Atomic             Coordinates (Angstroms)
 Number     Number       Type             X           Y           Z
 ---------------------------------------------------------------------
      1          9           0        2.476122   -0.009014    0.094136
      2          9           0        1.096063    1.793194   -0.125133
      3          5           0        1.278717    0.498249   -0.019769
      4         16           0       -0.217723   -0.660759    0.024218
      5          8           0       -0.559673   -0.820603    1.418967
      6          8           0       -1.366984    0.206072   -0.710781
      7          6           0       -2.136152    1.165235    0.061113
      8          1           0       -3.004113    1.388800   -0.555256
      9          1           0       -1.550597    2.071293    0.225373
     10          1           0       -2.443681    0.727186    1.009080
     11          8           0        0.021110   -1.779895   -0.840129
 ---------------------------------------------------------------------

 SCF Done:  E(RHF) =  -885.630236295     A.U. after    2 cycles

 The electronic state is 1-A.
 Alpha  occ. eigenvalues --  -93.83728 -26.20080 -26.19652 -20.65085 -20.59426
 Alpha  occ. eigenvalues --  -20.58908 -11.32834  -9.09961  -7.82567  -6.44638
 Alpha  occ. eigenvalues --   -6.44556  -6.44284  -1.75252  -1.73301  -1.48433
 Alpha  occ. eigenvalues --   -1.36819  -1.34464  -1.00998  -0.94455  -0.90414
 Alpha  occ. eigenvalues --   -0.88488  -0.82745  -0.82668  -0.77871  -0.77773
 Alpha  occ. eigenvalues --   -0.76065  -0.73580  -0.71335  -0.66931  -0.65447
 Alpha  occ. eigenvalues --   -0.58988  -0.56064  -0.54938  -0.53314  -0.52484
 Alpha  occ. eigenvalues --   -0.49709
 Alpha virt. eigenvalues --    0.03014   0.04372   0.04500   0.05497   0.06324
 Alpha virt. eigenvalues --    0.07073   0.07535   0.07923   0.10658   0.12434
 Alpha virt. eigenvalues --    0.13335   0.14884   0.15184   0.15668   0.17213

 Mulliken charges:
               1
     1  F   -0.350525
     2  F   -0.316846
     3  B    0.912122
     4  S    2.266545
     5  O   -1.000022
     6  O   -0.975688
     7  C    0.722717
     8  H   -0.180776
     9  H   -0.102833
    10  H   -0.038328
    11  O   -0.936366
 Sum of Mulliken charges =  -0.00000

 Dipole moment (field-independent basis, Debye):
    X=             -0.8813    Y=              4.1364    Z=              0.0887  Tot=              4.2301

 Test job not archived.
 1\1\GINC-SE102\SP\RHF\Aug-CC-pVDZ\C1H3B1F2O3S1\OHZDE\09-Apr-2025\0\\#t
  hf aug-cc-pvdz iop(5/13=1,5/36=2,99/5=2) pseudo=read geom=check guess
 =(read,tcheck) scf=(maxcycle=1)\\title\\0,1\F,0,2.476122,-0.009015,0.0
 94136\F,0,1.096063,1.793194,-0.125133\B,0,1.278717,0.498249,-0.019769\
 S,0,-0.217723,-0.660759,0.024218\O,0,-0.559673,-0.820603,1.418967\O,0,
 -1.366984,0.206072,-0.710781\C,0,-2.136152,1.165236,0.061113\H,0,-3.00
 4113,1.388801,-0.555256\H,0,-1.550597,2.071293,0.225373\H,0,-2.443681,
 0.727187,1.00908\O,0,0.021109,-1.779895,-0.840129\\Version=ES64L-G16Re

 Normal termination of Gaussian 16 at Wed Apr  9 00:31:35 2025.
