 Gaussian 16, Revision C.01,

 ----------------------------------------------------------------------
 #t hf aug-cc-pvdz symm=none int=(grid=ultrafine) guess=(read,tcheck) s
 table=opt
 ----------------------------------------------------------------------
 -----
 title
 -----
 Symbolic Z-matrix:
 Charge =  0 Multiplicity = 2

 SCF Done:  E(UHF) =  -485.854824314     A.U. after   19 cycles
 Normal termination of Gaussian 16 at Tue Apr  8 22:42:33 2025.
 Gaussian 16:  ES64L-G16RevC.01  3-Jul-2019

 ----------------------------------------------------------------------
 #t hf aug-cc-pvdz iop(5/13=1,5/36=2,99/5=2) pseudo=read geom=check gue
 ss=(read,tcheck) scf=(maxcycle=1)
 ----------------------------------------------------------------------
 -----
 title
 -----
 Structure from the checkpoint file:  "BDE49_expt_1472_mol2.chk"
 Charge =  0 Multiplicity = 2

                         Standard orientation:
 ---------------------------------------------------------------------
 Center     Atomic      Atomic             Coordinates (Angstroms)
 Number     Number       Type             X           Y           Z
 ---------------------------------------------------------------------
      1          8           0        1.902357   -0.025412   -0.000019
      2          8           0        0.837439    0.765443   -0.000024
      3          6           0       -0.361354   -0.006008    0.000004
      4          9           0       -0.425564   -0.766275    1.081248
      5          9           0       -1.343319    0.878793   -0.000003
      6          9           0       -0.425588   -0.766317   -1.081209
 ---------------------------------------------------------------------

 SCF Done:  E(UHF) =  -486.028928156     A.U. after    2 cycles

 The electronic state is 2-A.
 Alpha  occ. eigenvalues --  -26.20899 -26.20648 -26.20637 -20.74757 -20.73527
 Alpha  occ. eigenvalues --  -11.61507  -1.81524  -1.74065  -1.73811  -1.57754
 Alpha  occ. eigenvalues --   -1.26695  -1.04815  -0.93959  -0.93604  -0.91088
 Alpha  occ. eigenvalues --   -0.83681  -0.81798  -0.79603  -0.77585  -0.76783
 Alpha  occ. eigenvalues --   -0.75758  -0.75384  -0.73055  -0.59542  -0.58456
 Alpha virt. eigenvalues --    0.07996   0.08687   0.08829   0.09022   0.14604
 Alpha virt. eigenvalues --    0.19498   0.20378   0.21572   0.22348   0.24898
 Alpha virt. eigenvalues --    0.27380   0.27586   0.28195   0.30917   0.31052

  Beta  occ. eigenvalues --  -26.20918 -26.20645 -26.20634 -20.72934 -20.70528
  Beta  occ. eigenvalues --  -11.61551  -1.81512  -1.74098  -1.73796  -1.52025
  Beta  occ. eigenvalues --   -1.17766  -1.03600  -0.93533  -0.93518  -0.89674
  Beta  occ. eigenvalues --   -0.81699  -0.81473  -0.77393  -0.77178  -0.75744
  Beta  occ. eigenvalues --   -0.74125  -0.70833  -0.64011  -0.54876
  Beta virt. eigenvalues --    0.05028   0.08010   0.08734   0.09079   0.09125
  Beta virt. eigenvalues --    0.14903   0.19577   0.21677   0.22191   0.23433
  Beta virt. eigenvalues --    0.25807   0.27650   0.28958   0.29304   0.31195

 Mulliken charges and spin densities:
               1          2
     1  O   -0.068785   0.981434
     2  O   -0.394863   0.035504
     3  C    1.159509  -0.017581
     4  F   -0.237732   0.001073
     5  F   -0.220398  -0.001502
     6  F   -0.237732   0.001073
 Sum of Mulliken charges =   0.00000   1.00000

 Dipole moment (field-independent basis, Debye):
    X=             -0.0850    Y=             -0.0600    Z=              0.0000  Tot=              0.1040
                          Isotropic Fermi Contact Couplings
        Atom                 a.u.       MegaHertz       Gauss      10(-4) cm-1
     1  O(17)              0.29644    -179.69838     -64.12085     -59.94093
     2  O(17)              0.06132     -37.16982     -13.26311     -12.39852
     3  C(13)             -0.00945     -10.62096      -3.78982      -3.54277
     4  F(19)             -0.00183      -7.68079      -2.74070      -2.56204
     5  F(19)             -0.00325     -13.65916      -4.87393      -4.55620
     6  F(19)             -0.00183      -7.68075      -2.74068      -2.56202
 --------------------------------------------------------
       Center         ----  Spin Dipole Couplings  ----

 Normal termination of Gaussian 16 at Tue Apr  8 22:42:38 2025.
