 Gaussian 16, Revision C.01,

 ----------------------------------------------------------------------
 #t hf aug-cc-pvdz symm=none int=(grid=ultrafine) guess=(read,tcheck) s
 table=(opt,rrhf)
 ----------------------------------------------------------------------
 -----
 title
 -----
 Symbolic Z-matrix:
 Charge =  0 Multiplicity = 1

 SCF Done:  E(RHF) =  -444.910589172     A.U. after   15 cycles
 Normal termination of Gaussian 16 at Wed Apr  9 00:27:56 2025.
 Gaussian 16:  ES64L-G16RevC.01  3-Jul-2019

 ----------------------------------------------------------------------
 #t hf aug-cc-pvdz iop(5/13=1,5/36=2,99/5=2) pseudo=read geom=check gue
 ss=(read,tcheck) scf=(maxcycle=1)
 ----------------------------------------------------------------------
 -----
 title
 -----
 Structure from the checkpoint file:  "BDE49_nonexpt_321_mol1.chk"
 Charge =  0 Multiplicity = 1

                         Standard orientation:
 ---------------------------------------------------------------------
 Center     Atomic      Atomic             Coordinates (Angstroms)
 Number     Number       Type             X           Y           Z
 ---------------------------------------------------------------------
      1          6           0       -1.944244   -1.480526    0.206642
      2          6           0       -0.553744   -1.450460    0.183538
      3          6           0       -2.651318   -0.292021    0.052337
      4          6           0       -1.961679    0.905400   -0.114578
      5          6           0       -0.563807    0.949809   -0.118813
      6          6           0        0.165412   -0.251915    0.029182
      7          1           0       -2.469222   -2.419926    0.338528
      8          1           0       -0.008495   -2.382071    0.307472
      9          5           0        1.742571   -0.335553    0.032772
     10          8           0        2.400854   -1.338393   -0.623192
     11          8           0        2.551198    0.544833    0.695156
     12          1           0       -2.519941    1.826963   -0.247074
     13          1           0       -3.735784   -0.295385    0.056434
     14          6           0        0.119480    2.291891   -0.286325
     15          1           0       -0.533646    2.997243   -0.804308
     16          1           0        1.050123    2.218173   -0.851013
     17          1           0        0.359008    2.743564    0.684620
     18          1           0        2.059832    1.186834    1.211467
     19          1           0        1.808251   -1.882218   -1.147595
 ---------------------------------------------------------------------

 SCF Done:  E(RHF) =  -445.049943868     A.U. after    2 cycles

 The electronic state is 1-A.
 Alpha  occ. eigenvalues --  -20.57658 -20.57578 -11.26529 -11.25583 -11.25545
 Alpha  occ. eigenvalues --  -11.24865 -11.24771 -11.24541 -11.23249  -7.65838
 Alpha  occ. eigenvalues --   -1.33829  -1.30600  -1.15057  -1.04781  -1.01526
 Alpha  occ. eigenvalues --   -0.94078  -0.83672  -0.81163  -0.80081  -0.71065
 Alpha  occ. eigenvalues --   -0.68616  -0.65543  -0.65391  -0.61991  -0.60827
 Alpha  occ. eigenvalues --   -0.58788  -0.58338  -0.57799  -0.55961  -0.54152
 Alpha  occ. eigenvalues --   -0.51474  -0.50042  -0.49755  -0.46806  -0.34858
 Alpha  occ. eigenvalues --   -0.33829
 Alpha virt. eigenvalues --    0.02897   0.03638   0.03966   0.04828   0.05646
 Alpha virt. eigenvalues --    0.05925   0.06632   0.07325   0.07736   0.08269
 Alpha virt. eigenvalues --    0.08708   0.09551   0.10226   0.10683   0.11192

 Mulliken charges:
               1
     1  C    0.308143
     2  C    0.552759
     3  C    0.358845
     4  C    0.884754
     5  C   -0.359351
     6  C    0.123827
     7  H   -0.443404
     8  H   -0.694342
     9  B    0.720527
    10  O   -0.548968
    11  O   -0.575051
    12  H   -0.577668
    13  H   -0.452676
    14  C    0.485093
    15  H   -0.234857
    16  H   -0.050050
    17  H    0.064685
    18  H    0.227332
    19  H    0.210401
 Sum of Mulliken charges =  -0.00000

 Dipole moment (field-independent basis, Debye):
    X=             -3.3509    Y=              0.7167    Z=             -0.0908  Tot=              3.4278

 Test job not archived.
 1\1\GINC-SE332\SP\RHF\Aug-CC-pVDZ\C7H9B1O2\OHZDE\09-Apr-2025\0\\#t hf
 aug-cc-pvdz iop(5/13=1,5/36=2,99/5=2) pseudo=read geom=check guess=(re
 ad,tcheck) scf=(maxcycle=1)\\title\\0,1\C,0,-1.944244,-1.480526,0.2066
 42\C,0,-0.553744,-1.45046,0.183538\C,0,-2.651318,-0.292021,0.052337\C,
 0,-1.961679,0.9054,-0.114578\C,0,-0.563807,0.949809,-0.118813\C,0,0.16
 5412,-0.251915,0.029182\H,0,-2.469222,-2.419926,0.338528\H,0,-0.008495
 ,-2.382071,0.307472\B,0,1.742571,-0.335553,0.032772\O,0,2.400854,-1.33
 8393,-0.623192\O,0,2.551198,0.544833,0.695156\H,0,-2.519941,1.826963,-

 Normal termination of Gaussian 16 at Wed Apr  9 00:28:05 2025.
