 Gaussian 16, Revision C.01,

 ----------------------------------------------------------------------
 #t hf aug-cc-pvdz symm=none int=(grid=ultrafine) guess=(read,tcheck) s
 table=(opt,rrhf)
 ----------------------------------------------------------------------
 -----
 title
 -----
 Symbolic Z-matrix:
 Charge =  0 Multiplicity = 1

 SCF Done:  E(RHF) =  -979.805941450     A.U. after   14 cycles
 Normal termination of Gaussian 16 at Tue Apr  8 23:45:58 2025.
 Gaussian 16:  ES64L-G16RevC.01  3-Jul-2019

 ----------------------------------------------------------------------
 #t hf aug-cc-pvdz iop(5/13=1,5/36=2,99/5=2) pseudo=read geom=check gue
 ss=(read,tcheck) scf=(maxcycle=1)
 ----------------------------------------------------------------------
 -----
 title
 -----
 Structure from the checkpoint file:  "BDE49_nonexpt_1769_mol1.chk"
 Charge =  0 Multiplicity = 1

                         Standard orientation:
 ---------------------------------------------------------------------
 Center     Atomic      Atomic             Coordinates (Angstroms)
 Number     Number       Type             X           Y           Z
 ---------------------------------------------------------------------
      1          6           0        1.003598   -1.205960    0.171147
      2          6           0        2.344766   -1.206978   -0.202351
      3          6           0        3.015831   -0.000019   -0.389977
      4          6           0        2.344781    1.206956   -0.202407
      5          6           0        1.003612    1.205972    0.171091
      6          6           0        0.309976    0.000015    0.362059
      7          1           0        0.494146   -2.153316    0.316581
      8          1           0        2.866185   -2.146771   -0.345369
      9         14           0       -1.483656    0.000038    0.856679
     10          1           0        2.866212    2.146736   -0.345469
     11          1           0        4.060663   -0.000033   -0.679896
     12          1           0        0.494172    2.153340    0.316481
     13         17           0       -2.736124   -0.000032   -0.820546
     14          1           0       -1.815729    1.219784    1.617991
     15          1           0       -1.815736   -1.219642    1.618095
 ---------------------------------------------------------------------

 SCF Done:  E(RHF) =  -979.915395737     A.U. after    2 cycles

 The electronic state is 1-A.
 Alpha  occ. eigenvalues -- -103.64360 -69.11274 -11.26329 -11.26326 -11.26158
 Alpha  occ. eigenvalues --  -11.25607 -11.25597 -11.24715 -10.67791  -8.33482
 Alpha  occ. eigenvalues --   -8.33261  -8.33260  -6.86169  -3.96969  -3.96858
 Alpha  occ. eigenvalues --   -3.96857  -1.15348  -1.12597  -1.02295  -1.02028
 Alpha  occ. eigenvalues --   -0.83943  -0.83796  -0.73696  -0.68791  -0.64236
 Alpha  occ. eigenvalues --   -0.64162  -0.60473  -0.57046  -0.53718  -0.52488
 Alpha  occ. eigenvalues --   -0.50874  -0.50859  -0.49300  -0.45161  -0.44594
 Alpha  occ. eigenvalues --   -0.35457  -0.35254
 Alpha virt. eigenvalues --    0.03068   0.03955   0.04054   0.05565   0.05663
 Alpha virt. eigenvalues --    0.05885   0.07169   0.07825   0.08417   0.09040
 Alpha virt. eigenvalues --    0.10206   0.10284   0.10791   0.12257   0.13347

 Mulliken charges:
               1
     1  C    0.499552
     2  C    0.763472
     3  C    0.547060
     4  C    0.763465
     5  C    0.499546
     6  C   -0.748969
     7  H   -0.595193
     8  H   -0.436527
     9  Si   0.780482
    10  H   -0.436527
    11  H   -0.433135
    12  H   -0.595192
    13  Cl  -0.576661
    14  H   -0.015687
    15  H   -0.015686
 Sum of Mulliken charges =  -0.00000

 Dipole moment (field-independent basis, Debye):
    X=              2.4499    Y=              0.0000    Z=              1.0420  Tot=              2.6623

 Test job not archived.
 1\1\GINC-SE102\SP\RHF\Aug-CC-pVDZ\C6H7Cl1Si1\OHZDE\08-Apr-2025\0\\#t h
 f aug-cc-pvdz iop(5/13=1,5/36=2,99/5=2) pseudo=read geom=check guess=(
 read,tcheck) scf=(maxcycle=1)\\title\\0,1\C,0,1.003598,-1.20596,0.1711
 47\C,0,2.344766,-1.206978,-0.202351\C,0,3.015831,-0.000019,-0.389977\C
 ,0,2.344781,1.206956,-0.202407\C,0,1.003612,1.205972,0.171091\C,0,0.30
 9976,0.000015,0.362059\H,0,0.494146,-2.153316,0.316581\H,0,2.866185,-2
 .146771,-0.345369\Si,0,-1.483656,0.000038,0.856679\H,0,2.866212,2.1467
 36,-0.345469\H,0,4.060663,-0.000033,-0.679896\H,0,0.494172,2.15334,0.3

 Normal termination of Gaussian 16 at Tue Apr  8 23:46:05 2025.
