 Gaussian 16, Revision C.01,

 ----------------------------------------------------------------------
 #t hf aug-cc-pvdz symm=none int=(grid=ultrafine) guess=(read,tcheck) s
 table=opt
 ----------------------------------------------------------------------
 -----
 title
 -----
 Symbolic Z-matrix:
 Charge =  0 Multiplicity = 2

 SCF Done:  E(UHF) =  -446.782085939     A.U. after   15 cycles
 Normal termination of Gaussian 16 at Tue Apr  8 23:56:56 2025.
 Gaussian 16:  ES64L-G16RevC.01  3-Jul-2019

 ----------------------------------------------------------------------
 #t hf aug-cc-pvdz iop(5/13=1,5/36=2,99/5=2) pseudo=read geom=check gue
 ss=(read,tcheck) scf=(maxcycle=1)
 ----------------------------------------------------------------------
 -----
 title
 -----
 Structure from the checkpoint file:  "BDE49_nonexpt_2032_mol2.chk"
 Charge =  0 Multiplicity = 2

                         Standard orientation:
 ---------------------------------------------------------------------
 Center     Atomic      Atomic             Coordinates (Angstroms)
 Number     Number       Type             X           Y           Z
 ---------------------------------------------------------------------
      1         14           0       -1.106075   -1.174533    0.026410
      2          6           0       -0.179375    0.450105   -0.353155
      3          6           0        1.197928    0.539331    0.334916
      4          6           0       -1.067526    1.657860    0.014985
      5          1           0       -1.269017    1.690688    1.090247
      6          1           0       -2.029661    1.633663   -0.503080
      7          1           0       -0.568510    2.596445   -0.254828
      8          1           0       -0.018766    0.464851   -1.439600
      9          6           0        2.217275   -0.499841   -0.140024
     10          1           0        1.067277    0.457702    1.421260
     11          1           0        1.604785    1.543646    0.159203
     12          1           0        1.878968   -1.520923    0.062385
     13          1           0        3.179373   -0.364583    0.361320
     14          1           0        2.388966   -0.418980   -1.217901
     15          1           0       -1.342227   -1.313443    1.491398
     16          1           0       -2.415950   -1.210339   -0.680477
 ---------------------------------------------------------------------

 SCF Done:  E(UHF) =  -446.852737540     A.U. after    2 cycles

 The electronic state is 2-A.
 Alpha  occ. eigenvalues --  -69.06077 -11.23581 -11.23238 -11.23184 -11.22638
 Alpha  occ. eigenvalues --   -6.81464  -3.92812  -3.91910  -3.91889  -1.06534
 Alpha  occ. eigenvalues --   -0.98204  -0.86498  -0.79553  -0.68788  -0.61934
 Alpha  occ. eigenvalues --   -0.59136  -0.58752  -0.56700  -0.52375  -0.50033
 Alpha  occ. eigenvalues --   -0.48341  -0.47664  -0.46169  -0.41966  -0.31293
 Alpha virt. eigenvalues --    0.03330   0.04434   0.04714   0.04842   0.06429
 Alpha virt. eigenvalues --    0.06773   0.06789   0.07011   0.07792   0.09038
 Alpha virt. eigenvalues --    0.09542   0.10183   0.10378   0.11293   0.13609

  Beta  occ. eigenvalues --  -69.05517 -11.23588 -11.23177 -11.23112 -11.22615
  Beta  occ. eigenvalues --   -6.80627  -3.91523  -3.91505  -3.90644  -1.06343
  Beta  occ. eigenvalues --   -0.97980  -0.86356  -0.78986  -0.66335  -0.61023
  Beta  occ. eigenvalues --   -0.58746  -0.58494  -0.55984  -0.52217  -0.49849
  Beta  occ. eigenvalues --   -0.47995  -0.47244  -0.45764  -0.40942
  Beta virt. eigenvalues --    0.03281   0.03780   0.04479   0.04750   0.05992
  Beta virt. eigenvalues --    0.06668   0.06800   0.06880   0.07444   0.08449
  Beta virt. eigenvalues --    0.09174   0.09736   0.10430   0.11013   0.11467

 Mulliken charges and spin densities:
               1          2
     1  Si  -0.236419   1.022653
     2  C   -0.386444  -0.034580
     3  C    0.229287   0.015288
     4  C    0.593058  -0.012603
     5  H   -0.063626  -0.009025
     6  H   -0.117271  -0.006884
     7  H   -0.091703   0.009176
     8  H   -0.100724  -0.007252
     9  C    0.387535   0.014453
    10  H   -0.124350  -0.002107
    11  H   -0.112120  -0.001314
    12  H   -0.079637  -0.016088
    13  H   -0.058639   0.000749
    14  H   -0.086174   0.001341
    15  H    0.132766   0.002736
    16  H    0.114461   0.023457
 Sum of Mulliken charges =   0.00000   1.00000

 Dipole moment (field-independent basis, Debye):
    X=              0.6078    Y=              0.7508    Z=             -0.2378  Tot=              0.9948
                          Isotropic Fermi Contact Couplings
        Atom                 a.u.       MegaHertz       Gauss      10(-4) cm-1
     1  Si(29)             0.51000    -453.25321    -161.73202    -151.18900
     2  C(13)              0.00891      10.01687       3.57427       3.34127
     3  C(13)             -0.00170      -1.91399      -0.68296      -0.63844
     4  C(13)              0.02262      25.42753       9.07317       8.48171
     5  H(1)              -0.00018      -0.80132      -0.28593      -0.26729
     6  H(1)               0.00013       0.57830       0.20635       0.19290
     7  H(1)               0.00377      16.87196       6.02034       5.62788
     8  H(1)               0.00006       0.25080       0.08949       0.08366

 Normal termination of Gaussian 16 at Tue Apr  8 23:57:02 2025.
