 Gaussian 16, Revision C.01,

 ----------------------------------------------------------------------
 #t hf aug-cc-pvdz symm=none int=(grid=ultrafine) guess=(read,tcheck) s
 table=opt
 ----------------------------------------------------------------------
 -----
 title
 -----
 Symbolic Z-matrix:
 Charge =  0 Multiplicity = 2

 SCF Done:  E(UHF) =  -155.494357570     A.U. after   20 cycles
 Normal termination of Gaussian 16 at Tue Apr  8 23:04:50 2025.
 Gaussian 16:  ES64L-G16RevC.01  3-Jul-2019

 ----------------------------------------------------------------------
 #t hf aug-cc-pvdz iop(5/13=1,5/36=2,99/5=2) pseudo=read geom=check gue
 ss=(read,tcheck) scf=(maxcycle=1)
 ----------------------------------------------------------------------
 -----
 title
 -----
 Structure from the checkpoint file:  "BDE49_expt_41_mol2.chk"
 Charge =  0 Multiplicity = 2

                         Standard orientation:
 ---------------------------------------------------------------------
 Center     Atomic      Atomic             Coordinates (Angstroms)
 Number     Number       Type             X           Y           Z
 ---------------------------------------------------------------------
      1          6           0       -1.794935   -0.055597   -0.264448
      2          6           0       -0.663678   -0.178410    0.422938
      3          1           0       -1.872730    0.612922   -1.117002
      4          1           0       -2.685175   -0.615309   -0.000430
      5          6           0        0.619513    0.554189    0.119450
      6          1           0       -0.623715   -0.864253    1.267125
      7          6           0        1.754198   -0.358770   -0.216259
      8          1           0        0.897029    1.177339    0.979571
      9          1           0        0.434847    1.257980   -0.709606
     10          1           0        1.584637   -1.235717   -0.829225
     11          1           0        2.774511   -0.101434    0.039482
 ---------------------------------------------------------------------

 SCF Done:  E(UHF) =  -155.543949186     A.U. after    2 cycles

 The electronic state is 2-A.
 Alpha  occ. eigenvalues --  -11.24575 -11.24294 -11.24150 -11.23078  -1.07864
 Alpha  occ. eigenvalues --   -0.99054  -0.85270  -0.75953  -0.65121  -0.61449
 Alpha  occ. eigenvalues --   -0.59292  -0.54931  -0.52298  -0.48958  -0.37470
 Alpha  occ. eigenvalues --   -0.35180
 Alpha virt. eigenvalues --    0.03781   0.04520   0.04996   0.05264   0.06423
 Alpha virt. eigenvalues --    0.07298   0.07557   0.10732   0.12352   0.13168
 Alpha virt. eigenvalues --    0.14056   0.15132   0.16043   0.16421   0.17135

  Beta  occ. eigenvalues --  -11.24506 -11.24326 -11.23230 -11.21823  -1.06716
  Beta  occ. eigenvalues --   -0.96439  -0.80569  -0.75085  -0.64659  -0.60518
  Beta  occ. eigenvalues --   -0.58048  -0.53642  -0.50936  -0.48589  -0.36716
  Beta virt. eigenvalues --    0.03823   0.04548   0.04892   0.05305   0.06388
  Beta virt. eigenvalues --    0.07188   0.07415   0.09149   0.11507   0.12753
  Beta virt. eigenvalues --    0.13244   0.14663   0.15860   0.16500   0.16943

 Mulliken charges and spin densities:
               1          2
     1  C    0.354869  -0.095916
     2  C    0.592902   0.110426
     3  H   -0.278166   0.004069
     4  H   -0.284081   0.006818
     5  C    0.073475  -0.225665
     6  H   -0.382616  -0.004710
     7  C    0.492874   1.375840
     8  H    0.003685   0.009775
     9  H   -0.066273   0.039982
    10  H   -0.250096  -0.108170
    11  H   -0.256573  -0.112449
 Sum of Mulliken charges =   0.00000   1.00000

 Dipole moment (field-independent basis, Debye):
    X=              0.2426    Y=              0.2000    Z=              0.0330  Tot=              0.3161
                          Isotropic Fermi Contact Couplings
        Atom                 a.u.       MegaHertz       Gauss      10(-4) cm-1
     1  C(13)             -0.01497     -16.82948      -6.00518      -5.61371
     2  C(13)              0.03946      44.35686      15.82763      14.79586
     3  H(1)               0.00144       6.45631       2.30377       2.15359
     4  H(1)               0.00154       6.86434       2.44937       2.28970
     5  C(13)             -0.06345     -71.33462     -25.45397     -23.79467
     6  H(1)              -0.00219      -9.78917      -3.49302      -3.26532
     7  C(13)              0.21899     246.18352      87.84440      82.11798
     8  H(1)               0.00691      30.88406      11.02020      10.30181

 Normal termination of Gaussian 16 at Tue Apr  8 23:04:53 2025.
