 Gaussian 16, Revision C.01,

 ----------------------------------------------------------------------
 #t hf aug-cc-pvdz symm=none int=(grid=ultrafine) guess=(read,tcheck) s
 table=(opt,rrhf)
 ----------------------------------------------------------------------
 -----
 title
 -----
 Symbolic Z-matrix:
 Charge =  0 Multiplicity = 1

 SCF Done:  E(RHF) =  -1748.77218330     A.U. after   17 cycles
 Normal termination of Gaussian 16 at Tue Apr  8 23:46:18 2025.
 Gaussian 16:  ES64L-G16RevC.01  3-Jul-2019

 ----------------------------------------------------------------------
 #t hf aug-cc-pvdz iop(5/13=1,5/36=2,99/5=2) pseudo=read geom=check gue
 ss=(read,tcheck) scf=(maxcycle=1)
 ----------------------------------------------------------------------
 -----
 title
 -----
 Structure from the checkpoint file:  "BDE49_nonexpt_1628_mol1.chk"
 Charge =  0 Multiplicity = 1

                         Standard orientation:
 ---------------------------------------------------------------------
 Center     Atomic      Atomic             Coordinates (Angstroms)
 Number     Number       Type             X           Y           Z
 ---------------------------------------------------------------------
      1          6           0        1.730416    1.886330   -0.190013
      2         15           0        1.193327    0.466665    0.936890
      3          6           0       -0.563894    0.175824    0.478418
      4         15           0        2.328535   -1.124080   -0.133819
      5          8           0        1.783464   -1.557890   -1.431581
      6          8           0        2.882997    1.960131   -0.581738
      7          6           0       -0.997357   -0.255830   -0.785306
      8          6           0       -2.352399   -0.430664   -1.044243
      9          6           0       -3.281071   -0.174866   -0.037999
     10          6           0       -2.878054    0.241946    1.225701
     11          6           0       -1.519189    0.409878    1.477406
     12          1           0       -1.200466    0.725342    2.464776
     13          1           0       -3.612672    0.425749    1.998817
     14          1           0       -0.272457   -0.486450   -1.555927
     15          1           0       -2.687243   -0.767301   -2.016971
     16          6           0        0.735033    2.983249   -0.472155
     17          1           0        0.001902    2.628377   -1.202190
     18          1           0        1.260915    3.849278   -0.874116
     19          1           0        0.182058    3.254777    0.430212
     20         17           0       -4.988415   -0.391483   -0.368333
     21          8           0        3.793734   -0.522089   -0.074701
     22          1           0        3.781704    0.423299   -0.355127
     23          8           0        2.441623   -2.308472    0.941179
     24          1           0        2.065940   -3.125274    0.589990
 ---------------------------------------------------------------------

 SCF Done:  E(RHF) =  -1749.05953539     A.U. after    2 cycles

 The electronic state is 1-A.
 Alpha  occ. eigenvalues -- -103.68258 -81.42673 -81.29580 -20.62137 -20.60803
 Alpha  occ. eigenvalues --  -20.60599 -20.53490 -11.38856 -11.33789 -11.28680
 Alpha  occ. eigenvalues --  -11.28548 -11.27911 -11.27832 -11.27646 -11.27001
 Alpha  occ. eigenvalues --  -10.71528  -8.37264  -8.36954  -8.36940  -7.90978
 Alpha  occ. eigenvalues --   -7.80060  -5.05608  -5.05535  -5.05180  -4.94114
 Alpha  occ. eigenvalues --   -4.94018  -4.93774  -1.39791  -1.37979  -1.34536
 Alpha  occ. eigenvalues --   -1.26668  -1.21696  -1.15390  -1.04784  -1.04238
 Alpha  occ. eigenvalues --   -1.02328  -0.89041  -0.87064  -0.84754  -0.82765
 Alpha  occ. eigenvalues --   -0.78195  -0.73414  -0.71981  -0.68814  -0.67986
 Alpha  occ. eigenvalues --   -0.67461  -0.66697  -0.66164  -0.64699  -0.63416
 Alpha  occ. eigenvalues --   -0.62718  -0.60936  -0.59815  -0.58292  -0.57542
 Alpha  occ. eigenvalues --   -0.56877  -0.55435  -0.55088  -0.54092  -0.51914
 Alpha  occ. eigenvalues --   -0.50119  -0.49383  -0.48302  -0.47314  -0.43753
 Alpha  occ. eigenvalues --   -0.37620  -0.37425  -0.36002
 Alpha virt. eigenvalues --    0.02613   0.03725   0.04034   0.04415   0.05414
 Alpha virt. eigenvalues --    0.05758   0.06110   0.06385   0.06624   0.07531
 Alpha virt. eigenvalues --    0.07703   0.08769   0.08942   0.09379   0.09504

 Mulliken charges:
               1
     1  C    0.016365
     2  P   -0.253132
     3  C    0.002512
     4  P    2.398296
     5  O   -1.059232
     6  O   -0.617795
     7  C    0.882405
     8  C    0.778992
     9  C   -0.174461
    10  C    1.019165
    11  C    0.377552
    12  H   -0.640979
    13  H   -0.463893
    14  H   -0.731738
    15  H   -0.453438
    16  C    0.370594
    17  H    0.060011
    18  H   -0.116678
    19  H    0.049014
    20  Cl  -0.331976
    21  O   -0.801166
    22  H    0.269434
    23  O   -0.706225
    24  H    0.126373
 Sum of Mulliken charges =  -0.00000

 Dipole moment (field-independent basis, Debye):
    X=             -3.1648    Y=              2.1225    Z=              2.1339  Tot=              4.3674

 Test job not archived.
 1\1\GINC-SE094\SP\RHF\Aug-CC-pVDZ\C8H9Cl1O4P2\OHZDE\08-Apr-2025\0\\#t
 hf aug-cc-pvdz iop(5/13=1,5/36=2,99/5=2) pseudo=read geom=check guess=
 (read,tcheck) scf=(maxcycle=1)\\title\\0,1\C,0,1.730416,1.88633,-0.190
 013\P,0,1.193327,0.466665,0.93689\C,0,-0.563894,0.175824,0.478418\P,0,
 2.328535,-1.12408,-0.133819\O,0,1.783464,-1.55789,-1.431581\O,0,2.8829
 97,1.960131,-0.581738\C,0,-0.997357,-0.25583,-0.785306\C,0,-2.352399,-
 0.430664,-1.044243\C,0,-3.281071,-0.174866,-0.037999\C,0,-2.878054,0.2
 41946,1.225701\C,0,-1.519189,0.409878,1.477406\H,0,-1.200466,0.725342,

 Normal termination of Gaussian 16 at Tue Apr  8 23:46:46 2025.
