 Gaussian 16, Revision C.01,

 ----------------------------------------------------------------------
 #t hf aug-cc-pvdz symm=none int=(grid=ultrafine) guess=(read,tcheck) s
 table=(opt,rrhf)
 ----------------------------------------------------------------------
 -----
 title
 -----
 Symbolic Z-matrix:
 Charge =  0 Multiplicity = 1

 SCF Done:  E(RHF) =  -507.339924611     A.U. after   11 cycles
 Normal termination of Gaussian 16 at Tue Apr  8 22:55:50 2025.
 Gaussian 16:  ES64L-G16RevC.01  3-Jul-2019

 ----------------------------------------------------------------------
 #t hf aug-cc-pvdz iop(5/13=1,5/36=2,99/5=2) pseudo=read geom=check gue
 ss=(read,tcheck) scf=(maxcycle=1)
 ----------------------------------------------------------------------
 -----
 title
 -----
 Structure from the checkpoint file:  "BDE49_expt_1929_mol1.chk"
 Charge =  0 Multiplicity = 1

                         Standard orientation:
 ---------------------------------------------------------------------
 Center     Atomic      Atomic             Coordinates (Angstroms)
 Number     Number       Type             X           Y           Z
 ---------------------------------------------------------------------
      1         14           0        0.000009   -0.000004    0.025020
      2          9           0       -0.000022   -0.000035    1.654099
      3          6           0       -0.987588   -1.487201   -0.524975
      4          1           0       -0.542852   -2.415894   -0.156061
      5          1           0       -1.026882   -1.546555   -1.617487
      6          1           0       -2.016135   -1.437441   -0.156225
      7          6           0       -0.794187    1.598879   -0.524933
      8          1           0       -1.820718    1.678155   -0.155721
      9          1           0       -0.826283    1.662494   -1.617442
     10          1           0       -0.236679    2.464760   -0.156429
     11          6           0        1.781789   -0.111645   -0.524848
     12          1           0        2.252886   -1.027405   -0.156316
     13          1           0        2.363707    0.737710   -0.155607
     14          1           0        1.852944   -0.115663   -1.617349
 ---------------------------------------------------------------------

 SCF Done:  E(RHF) =  -507.449520713     A.U. after    2 cycles

 The electronic state is 1-A.
 Alpha  occ. eigenvalues --  -69.09099 -26.08317 -11.21566 -11.21561 -11.21560
 Alpha  occ. eigenvalues --   -6.83792  -3.94743  -3.94537  -3.94537  -1.60750
 Alpha  occ. eigenvalues --   -0.96820  -0.92844  -0.92844  -0.76412  -0.69598
 Alpha  occ. eigenvalues --   -0.69598  -0.59405  -0.57038  -0.57038  -0.55573
 Alpha  occ. eigenvalues --   -0.54914  -0.54914  -0.53990  -0.44144  -0.44144
 Alpha virt. eigenvalues --    0.02950   0.04742   0.04742   0.05209   0.06853
 Alpha virt. eigenvalues --    0.06853   0.07345   0.07345   0.07982   0.09128
 Alpha virt. eigenvalues --    0.10832   0.10832   0.13125   0.14489   0.16361

 Mulliken charges:
               1
     1  Si   2.249286
     2  F   -0.868564
     3  C    0.353609
     4  H   -0.293342
     5  H   -0.227151
     6  H   -0.293354
     7  C    0.353589
     8  H   -0.293347
     9  H   -0.227124
    10  H   -0.293385
    11  C    0.353607
    12  H   -0.293321
    13  H   -0.293290
    14  H   -0.227213
 Sum of Mulliken charges =  -0.00000

 Dipole moment (field-independent basis, Debye):
    X=              0.0001    Y=              0.0000    Z=             -2.1816  Tot=              2.1816

 Test job not archived.
 1\1\GINC-SE455\SP\RHF\Aug-CC-pVDZ\C3H9F1Si1\OHZDE\08-Apr-2025\0\\#t hf
  aug-cc-pvdz iop(5/13=1,5/36=2,99/5=2) pseudo=read geom=check guess=(r
 ead,tcheck) scf=(maxcycle=1)\\title\\0,1\Si,0,0.000009,-0.000004,0.025
 02\F,0,-0.000022,-0.000035,1.654099\C,0,-0.98386,-1.48967,-0.524975\H,
 0,-0.5368,-2.417246,-0.156061\H,0,-1.023005,-1.549122,-1.617487\H,0,-2
 .012529,-1.442486,-0.156225\C,0,-0.798189,1.596885,-0.524933\H,0,-1.82
 4915,1.67359,-0.155721\H,0,-0.830444,1.660419,-1.617442\H,0,-0.242851,
 2.464159,-0.156429\C,0,1.782063,-0.107182,-0.524848\H,0,2.255452,-1.02

 Normal termination of Gaussian 16 at Tue Apr  8 22:55:55 2025.
