 Gaussian 16, Revision C.01,

 ----------------------------------------------------------------------
 #t hf aug-cc-pvdz symm=none int=(grid=ultrafine) guess=(read,tcheck) s
 table=(opt,rrhf)
 ----------------------------------------------------------------------
 -----
 title
 -----
 Symbolic Z-matrix:
 Charge =  0 Multiplicity = 1

 SCF Done:  E(RHF) =  -761.985059767     A.U. after   15 cycles
 Normal termination of Gaussian 16 at Tue Apr  8 23:32:07 2025.
 Gaussian 16:  ES64L-G16RevC.01  3-Jul-2019

 ----------------------------------------------------------------------
 #t hf aug-cc-pvdz iop(5/13=1,5/36=2,99/5=2) pseudo=read geom=check gue
 ss=(read,tcheck) scf=(maxcycle=1)
 ----------------------------------------------------------------------
 -----
 title
 -----
 Structure from the checkpoint file:  "BDE49_nonexpt_1405_mol1.chk"
 Charge =  0 Multiplicity = 1

                         Standard orientation:
 ---------------------------------------------------------------------
 Center     Atomic      Atomic             Coordinates (Angstroms)
 Number     Number       Type             X           Y           Z
 ---------------------------------------------------------------------
      1          6           0        0.800281   -1.444841   -0.200089
      2          6           0       -0.689674   -1.271773   -0.481522
      3         15           0        1.751666   -0.000000    0.533129
      4          6           0        0.800282    1.444840   -0.200091
      5          6           0       -0.689674    1.271776   -0.481517
      6          6           0       -1.397981    0.000000    0.039167
      7          1           0       -0.773047    1.313894   -1.575695
      8          1           0       -1.189246    2.171981   -0.108548
      9          1           0       -1.189248   -2.171980   -0.108561
     10          1           0       -0.773041   -1.313884   -1.575701
     11          8           0        1.369596    2.487258   -0.414264
     12          8           0        1.369594   -2.487258   -0.414265
     13          6           0       -1.478769   -0.000003    1.580234
     14          1           0       -2.017387   -0.883545    1.934094
     15          1           0       -2.017388    0.883537    1.934097
     16          1           0       -0.498053   -0.000003    2.062167
     17          6           0       -2.834884    0.000002   -0.517669
     18          1           0       -2.838218    0.000004   -1.611615
     19          1           0       -3.383457    0.883698   -0.179457
     20          1           0       -3.383457   -0.883695   -0.179460
     21          1           0        2.816551   -0.000002   -0.391092
 ---------------------------------------------------------------------

 SCF Done:  E(RHF) =  -762.131498010     A.U. after    2 cycles

 The electronic state is 1-A.
 Alpha  occ. eigenvalues --  -81.28161 -20.58458 -20.58457 -11.36641 -11.36639
 Alpha  occ. eigenvalues --  -11.28283 -11.26647 -11.26639 -11.24950 -11.24872
 Alpha  occ. eigenvalues --   -7.78741  -4.92753  -4.92731  -4.92417  -1.37605
 Alpha  occ. eigenvalues --   -1.37423  -1.13941  -1.00576  -0.99532  -0.95687
 Alpha  occ. eigenvalues --   -0.88643  -0.79882  -0.78575  -0.70722  -0.68477
 Alpha  occ. eigenvalues --   -0.67415  -0.66029  -0.64192  -0.62957  -0.62243
 Alpha  occ. eigenvalues --   -0.58435  -0.58387  -0.56957  -0.56042  -0.53922
 Alpha  occ. eigenvalues --   -0.52159  -0.52057  -0.49159  -0.48866  -0.44634
 Alpha  occ. eigenvalues --   -0.40500  -0.36719
 Alpha virt. eigenvalues --    0.02660   0.03940   0.04306   0.04636   0.06065
 Alpha virt. eigenvalues --    0.06107   0.06364   0.06624   0.07200   0.08054
 Alpha virt. eigenvalues --    0.08495   0.08825   0.08978   0.10015   0.10864

 Mulliken charges:
               1
     1  C   -0.054775
     2  C    0.804077
     3  P    0.210727
     4  C   -0.054777
     5  C    0.804075
     6  C   -3.770654
     7  H    0.068020
     8  H   -0.019021
     9  H   -0.019022
    10  H    0.068021
    11  O   -0.518801
    12  O   -0.518800
    13  C    1.103257
    14  H   -0.020613
    15  H   -0.020614
    16  H   -0.046155
    17  C    1.909292
    18  H   -0.087909
    19  H   -0.014881
    20  H   -0.014882
    21  H    0.193436
 Sum of Mulliken charges =  -0.00000

 Dipole moment (field-independent basis, Debye):
    X=             -4.1427    Y=             -0.0000    Z=              0.3714  Tot=              4.1593

 Test job not archived.
 1\1\GINC-SE404\SP\RHF\Aug-CC-pVDZ\C7H11O2P1\OHZDE\08-Apr-2025\0\\#t hf
  aug-cc-pvdz iop(5/13=1,5/36=2,99/5=2) pseudo=read geom=check guess=(r
 ead,tcheck) scf=(maxcycle=1)\\title\\0,1\C,0,-0.800281,1.444841,-0.200
 089\C,0,0.689674,1.271773,-0.481522\P,0,-1.751666,0.,0.533129\C,0,-0.8
 00282,-1.44484,-0.200091\C,0,0.689674,-1.271776,-0.481517\C,0,1.397981
 ,0.,0.039167\H,0,0.773047,-1.313894,-1.575695\H,0,1.189246,-2.171981,-
 0.108548\H,0,1.189248,2.17198,-0.108561\H,0,0.773041,1.313884,-1.57570
 1\O,0,-1.369595,-2.487258,-0.414264\O,0,-1.369594,2.487258,-0.414265\C

 Normal termination of Gaussian 16 at Tue Apr  8 23:32:20 2025.
