 Gaussian 16, Revision C.01,

 ----------------------------------------------------------------------
 #t hf aug-cc-pvdz symm=none int=(grid=ultrafine) guess=(read,tcheck) s
 table=(opt,rrhf)
 ----------------------------------------------------------------------
 -----
 title
 -----
 Symbolic Z-matrix:
 Charge =  0 Multiplicity = 1

 SCF Done:  E(RHF) =  -262.725972574     A.U. after   13 cycles
 Normal termination of Gaussian 16 at Tue Apr  8 23:01:47 2025.
 Gaussian 16:  ES64L-G16RevC.01  3-Jul-2019

 ----------------------------------------------------------------------
 #t hf aug-cc-pvdz iop(5/13=1,5/36=2,99/5=2) pseudo=read geom=check gue
 ss=(read,tcheck) scf=(maxcycle=1)
 ----------------------------------------------------------------------
 -----
 title
 -----
 Structure from the checkpoint file:  "BDE49_expt_343_mol1.chk"
 Charge =  0 Multiplicity = 1

                         Standard orientation:
 ---------------------------------------------------------------------
 Center     Atomic      Atomic             Coordinates (Angstroms)
 Number     Number       Type             X           Y           Z
 ---------------------------------------------------------------------
      1          7           0        0.714395    1.195891   -0.000004
      2          6           0       -0.621370    1.183032    0.000003
      3          6           0       -1.353082    0.000003    0.000006
      4          7           0        0.714391   -1.195893   -0.000003
      5          6           0        1.307860   -0.000003   -0.000006
      6          6           0       -0.621374   -1.183030    0.000003
      7          1           0       -1.115813   -2.150716    0.000006
      8          1           0       -1.115804    2.150720    0.000004
      9          1           0       -2.436058    0.000005    0.000011
     10          1           0        2.393972   -0.000005   -0.000012
 ---------------------------------------------------------------------

 SCF Done:  E(RHF) =  -262.801376581     A.U. after    2 cycles

 The electronic state is 1-A.
 Alpha  occ. eigenvalues --  -15.64203 -15.64200 -11.32858 -11.31304 -11.31303
 Alpha  occ. eigenvalues --  -11.26230  -1.28523  -1.16622  -1.06867  -0.89266
 Alpha  occ. eigenvalues --   -0.89016  -0.74234  -0.70547  -0.65346  -0.59917
 Alpha  occ. eigenvalues --   -0.58847  -0.57865  -0.46944  -0.42164  -0.41226
 Alpha  occ. eigenvalues --   -0.37984
 Alpha virt. eigenvalues --    0.02906   0.04054   0.04514   0.05993   0.07920
 Alpha virt. eigenvalues --    0.07980   0.09785   0.10394   0.11658   0.12808
 Alpha virt. eigenvalues --    0.12972   0.13594   0.14513   0.14564   0.14903

 Mulliken charges:
               1
     1  N   -0.543357
     2  C    0.498009
     3  C    0.621760
     4  N   -0.543357
     5  C    0.628138
     6  C    0.498007
     7  H   -0.279784
     8  H   -0.279785
     9  H   -0.362269
    10  H   -0.237362
 Sum of Mulliken charges =  -0.00000

 Dipole moment (field-independent basis, Debye):
    X=             -2.3418    Y=              0.0000    Z=              0.0000  Tot=              2.3418

 Test job not archived.
 1\1\GINC-SE039\SP\RHF\Aug-CC-pVDZ\C4H4N2\OHZDE\08-Apr-2025\0\\#t hf au
 g-cc-pvdz iop(5/13=1,5/36=2,99/5=2) pseudo=read geom=check guess=(read
 ,tcheck) scf=(maxcycle=1)\\title\\0,1\N,0,0.714393,1.195892,-0.000004\
 C,0,-0.621372,1.183031,0.000003\C,0,-1.353082,0.,0.000006\N,0,0.714393
 ,-1.195892,-0.000003\C,0,1.30786,0.,-0.000006\C,0,-0.621372,-1.183031,
 0.000003\H,0,-1.115809,-2.150718,0.000006\H,0,-1.115808,2.150718,0.000
 004\H,0,-2.436058,0.,0.000011\H,0,2.393972,0.,-0.000012\\Version=ES64L
 -G16RevC.01\State=1-A\HF=-262.8013766\RMSD=5.908e-03\Dipole=-0.9213309

 Normal termination of Gaussian 16 at Tue Apr  8 23:01:51 2025.
