 Gaussian 16, Revision C.01,

 ----------------------------------------------------------------------
 #t hf aug-cc-pvdz symm=none int=(grid=ultrafine) guess=(read,tcheck) s
 table=(opt,rrhf)
 ----------------------------------------------------------------------
 -----
 title
 -----
 Symbolic Z-matrix:
 Charge =  0 Multiplicity = 1

 SCF Done:  E(RHF) =  -818.252263917     A.U. after   15 cycles
 Normal termination of Gaussian 16 at Wed Apr  9 00:22:07 2025.
 Gaussian 16:  ES64L-G16RevC.01  3-Jul-2019

 ----------------------------------------------------------------------
 #t hf aug-cc-pvdz iop(5/13=1,5/36=2,99/5=2) pseudo=read geom=check gue
 ss=(read,tcheck) scf=(maxcycle=1)
 ----------------------------------------------------------------------
 -----
 title
 -----
 Structure from the checkpoint file:  "BDE49_nonexpt_2689_mol1.chk"
 Charge =  0 Multiplicity = 1

                         Standard orientation:
 ---------------------------------------------------------------------
 Center     Atomic      Atomic             Coordinates (Angstroms)
 Number     Number       Type             X           Y           Z
 ---------------------------------------------------------------------
      1          9           0        2.548501    0.038984    1.098884
      2         16           0        2.084858    0.102981   -0.496069
      3          8           0        0.516947    0.567883   -0.346933
      4          6           0       -0.476023   -0.444397   -0.150137
      5          8           0       -0.217736   -1.615298   -0.168940
      6          7           0       -1.681067    0.137370    0.039189
      7          6           0       -1.931713    1.575224    0.065911
      8          1           0       -1.000181    2.122975   -0.020643
      9          1           0       -2.419977    1.845268    1.007638
     10          1           0       -2.593396    1.858013   -0.759811
     11          6           0       -2.841674   -0.726459    0.226040
     12          1           0       -3.305746   -0.528805    1.197500
     13          1           0       -2.523067   -1.764294    0.183297
     14          1           0       -3.581630   -0.540178   -0.559062
 ---------------------------------------------------------------------

 SCF Done:  E(RHF) =  -818.420579835     A.U. after    2 cycles

 The electronic state is 1-A.
 Alpha  occ. eigenvalues --  -93.67762 -26.13653 -20.65941 -20.56346 -15.67733
 Alpha  occ. eigenvalues --  -11.44034 -11.29031 -11.28465  -8.95925  -6.30121
 Alpha  occ. eigenvalues --   -6.29816  -6.29207  -1.64981  -1.43637  -1.34897
 Alpha  occ. eigenvalues --   -1.24155  -1.00823  -0.98502  -0.93043  -0.80583
 Alpha  occ. eigenvalues --   -0.75147  -0.74208  -0.73500  -0.72826  -0.69192
 Alpha  occ. eigenvalues --   -0.66872  -0.63057  -0.62786  -0.58464  -0.57745
 Alpha  occ. eigenvalues --   -0.57152  -0.55209  -0.53684  -0.49253  -0.40060
 Alpha  occ. eigenvalues --   -0.38871
 Alpha virt. eigenvalues --    0.02825   0.04213   0.04526   0.05901   0.06786
 Alpha virt. eigenvalues --    0.07473   0.07507   0.07879   0.09068   0.11755
 Alpha virt. eigenvalues --    0.12447   0.12892   0.13827   0.14509   0.15024

 Mulliken charges:
               1
     1  F   -0.613861
     2  S    1.033110
     3  O   -0.830497
     4  C    0.382420
     5  O   -0.365044
     6  N   -0.392580
     7  C    0.827784
     8  H   -0.234201
     9  H   -0.097023
    10  H   -0.099834
    11  C    0.757783
    12  H   -0.076061
    13  H   -0.226325
    14  H   -0.065671
 Sum of Mulliken charges =  -0.00000

 Dipole moment (field-independent basis, Debye):
    X=             -3.6256    Y=              2.5130    Z=             -1.2160  Tot=              4.5759

 Test job not archived.
 1\1\GINC-SE366\SP\RHF\Aug-CC-pVDZ\C3H6F1N1O2S1\OHZDE\09-Apr-2025\0\\#t
  hf aug-cc-pvdz iop(5/13=1,5/36=2,99/5=2) pseudo=read geom=check guess
 =(read,tcheck) scf=(maxcycle=1)\\title\\0,1\F,0,2.548501,0.038984,1.09
 8884\S,0,2.084858,0.102981,-0.496069\O,0,0.516947,0.567883,-0.346933\C
 ,0,-0.476023,-0.444397,-0.150137\O,0,-0.217736,-1.615298,-0.16894\N,0,
 -1.681067,0.13737,0.039189\C,0,-1.931713,1.575224,0.065911\H,0,-1.0001
 81,2.122975,-0.020643\H,0,-2.419977,1.845268,1.007638\H,0,-2.593396,1.
 858013,-0.759811\C,0,-2.841674,-0.726459,0.22604\H,0,-3.305746,-0.5288

 Normal termination of Gaussian 16 at Wed Apr  9 00:22:11 2025.
