 Gaussian 16, Revision C.01,

 ----------------------------------------------------------------------
 #t hf aug-cc-pvdz symm=none int=(grid=ultrafine) guess=(read,tcheck) s
 table=(opt,rrhf)
 ----------------------------------------------------------------------
 -----
 title
 -----
 Symbolic Z-matrix:
 Charge =  0 Multiplicity = 1

 SCF Done:  E(RHF) =  -802.224693995     A.U. after   16 cycles
 Normal termination of Gaussian 16 at Wed Apr  9 00:43:51 2025.
 Gaussian 16:  ES64L-G16RevC.01  3-Jul-2019

 ----------------------------------------------------------------------
 #t hf aug-cc-pvdz iop(5/13=1,5/36=2,99/5=2) pseudo=read geom=check gue
 ss=(read,tcheck) scf=(maxcycle=1)
 ----------------------------------------------------------------------
 -----
 title
 -----
 Structure from the checkpoint file:  "BDE49_nonexpt_741_mol1.chk"
 Charge =  0 Multiplicity = 1

                         Standard orientation:
 ---------------------------------------------------------------------
 Center     Atomic      Atomic             Coordinates (Angstroms)
 Number     Number       Type             X           Y           Z
 ---------------------------------------------------------------------
      1          6           0        2.059617    1.592101    0.745462
      2          6           0        0.740775    1.688191    0.307179
      3          6           0        2.808955    0.442095    0.530350
      4          6           0        2.245705   -0.648601   -0.149846
      5          6           0        0.919060   -0.544834   -0.600211
      6          6           0        0.159860    0.610345   -0.372926
      7          1           0        0.490172   -1.372920   -1.158802
      8          1           0        3.832545    0.382725    0.885461
      9          1           0        2.510791    2.427233    1.270447
     10          1           0        0.170101    2.588999    0.495994
     11          5           0       -2.474366   -0.457423    0.335256
     12          8           0       -3.835007   -0.467466    0.425867
     13          8           0       -1.798945   -1.292639    1.162454
     14          7           0        2.964714   -1.826048   -0.330126
     15          1           0        3.969007   -1.734123   -0.299350
     16          1           0        2.655209   -2.418356   -1.086228
     17          1           0       -4.273429    0.097160   -0.214509
     18          1           0       -0.842677   -1.186402    1.100169
     19         15           0       -1.564235    0.642502   -1.022587
     20          1           0       -1.961572    1.892655   -0.486377
 ---------------------------------------------------------------------

 SCF Done:  E(RHF) =  -802.388318783     A.U. after    2 cycles

 The electronic state is 1-A.
 Alpha  occ. eigenvalues --  -81.24760 -20.58483 -20.57884 -15.64285 -11.30530
 Alpha  occ. eigenvalues --  -11.26851 -11.25880 -11.24863 -11.24519 -11.24262
 Alpha  occ. eigenvalues --   -7.75352  -7.67472  -4.89509  -4.89339  -4.89087
 Alpha  occ. eigenvalues --   -1.34355  -1.31259  -1.21019  -1.12817  -1.02375
 Alpha  occ. eigenvalues --   -0.99316  -0.85876  -0.83383  -0.80850  -0.77743
 Alpha  occ. eigenvalues --   -0.70791  -0.69655  -0.69543  -0.66717  -0.63305
 Alpha  occ. eigenvalues --   -0.61592  -0.61054  -0.60523  -0.59054  -0.55981
 Alpha  occ. eigenvalues --   -0.54983  -0.52170  -0.51871  -0.48947  -0.46820
 Alpha  occ. eigenvalues --   -0.44224  -0.38150  -0.32860  -0.30339
 Alpha virt. eigenvalues --    0.02740   0.03530   0.03668   0.04786   0.05670
 Alpha virt. eigenvalues --    0.06237   0.06632   0.07587   0.07810   0.08840
 Alpha virt. eigenvalues --    0.09074   0.09334   0.09483   0.10572   0.10643

 Mulliken charges:
               1
     1  C    0.243780
     2  C    0.838718
     3  C    1.099014
     4  C   -0.017681
     5  C    0.980385
     6  C   -0.502893
     7  H   -0.677933
     8  H   -0.557202
     9  H   -0.448444
    10  H   -0.602414
    11  B    0.877220
    12  O   -0.566970
    13  O   -0.489082
    14  N   -0.286076
    15  H   -0.041859
    16  H   -0.036131
    17  H    0.198475
    18  H    0.293057
    19  P   -0.435489
    20  H    0.131524
 Sum of Mulliken charges =  -0.00000

 Dipole moment (field-independent basis, Debye):
    X=              3.1018    Y=              1.1108    Z=             -1.7583  Tot=              3.7345

 Test job not archived.
 1\1\GINC-SE339\SP\RHF\Aug-CC-pVDZ\C6H9B1N1O2P1\OHZDE\09-Apr-2025\0\\#t
  hf aug-cc-pvdz iop(5/13=1,5/36=2,99/5=2) pseudo=read geom=check guess
 =(read,tcheck) scf=(maxcycle=1)\\title\\0,1\C,0,-2.059617,1.592101,-0.
 745462\C,0,-0.740775,1.688191,-0.307179\C,0,-2.808955,0.442095,-0.5303
 5\C,0,-2.245705,-0.648601,0.149846\C,0,-0.91906,-0.544834,0.600211\C,0
 ,-0.15986,0.610345,0.372926\H,0,-0.490172,-1.37292,1.158802\H,0,-3.832
 545,0.382725,-0.885461\H,0,-2.510791,2.427233,-1.270447\H,0,-0.170101,
 2.588999,-0.495994\B,0,2.474366,-0.457423,-0.335256\O,0,3.835007,-0.46

 Normal termination of Gaussian 16 at Wed Apr  9 00:44:03 2025.
