 Gaussian 16, Revision C.01,

 ----------------------------------------------------------------------
 #t hf aug-cc-pvdz symm=none int=(grid=ultrafine) guess=(read,tcheck) s
 table=(opt,rrhf)
 ----------------------------------------------------------------------
 -----
 title
 -----
 Symbolic Z-matrix:
 Charge =  0 Multiplicity = 1

 SCF Done:  E(RHF) =  -400.548733110     A.U. after   15 cycles
 Normal termination of Gaussian 16 at Tue Apr  8 22:38:14 2025.
 Gaussian 16:  ES64L-G16RevC.01  3-Jul-2019

 ----------------------------------------------------------------------
 #t hf aug-cc-pvdz iop(5/13=1,5/36=2,99/5=2) pseudo=read geom=check gue
 ss=(read,tcheck) scf=(maxcycle=1)
 ----------------------------------------------------------------------
 -----
 title
 -----
 Structure from the checkpoint file:  "BDE49_expt_1163_mol1.chk"
 Charge =  0 Multiplicity = 1

                         Standard orientation:
 ---------------------------------------------------------------------
 Center     Atomic      Atomic             Coordinates (Angstroms)
 Number     Number       Type             X           Y           Z
 ---------------------------------------------------------------------
      1          6           0       -2.269501   -0.530432   -0.475665
      2          7           0       -2.966475   -1.427515   -0.672255
      3          6           0        0.073839    0.219572   -0.129622
      4          6           0        2.797467   -0.403920    0.075375
      5          6           0        2.397387    0.800662   -0.498296
      6          6           0        1.043074    1.108621   -0.600717
      7          6           0        0.482089   -0.987957    0.441651
      8          6           0        1.836256   -1.297258    0.542997
      9          1           0        3.137969    1.498382   -0.872578
     10          1           0        0.737853    2.046332   -1.054624
     11          1           0        3.850921   -0.647676    0.151544
     12          1           0        2.139159   -2.240541    0.983114
     13          1           0       -0.259973   -1.696123    0.793829
     14          6           0       -1.398834    0.617327   -0.196974
     15          6           0       -1.862828    1.336681    1.093454
     16          1           0       -1.523745    1.309144   -1.036902
     17          1           0       -2.906019    1.648533    1.011402
     18          1           0       -1.241893    2.218557    1.260278
     19          1           0       -1.762640    0.676223    1.956493
 ---------------------------------------------------------------------

 SCF Done:  E(RHF) =  -400.666114524     A.U. after    2 cycles

 The electronic state is 1-A.
 Alpha  occ. eigenvalues --  -15.63738 -11.30462 -11.28616 -11.27262 -11.25939
 Alpha  occ. eigenvalues --  -11.25811 -11.25762 -11.25743 -11.25580 -11.25527
 Alpha  occ. eigenvalues --   -1.19731  -1.16269  -1.09335  -1.02370  -1.00556
 Alpha  occ. eigenvalues --   -0.91091  -0.84717  -0.82668  -0.72806  -0.70021
 Alpha  occ. eigenvalues --   -0.66556  -0.63028  -0.62256  -0.60344  -0.59573
 Alpha  occ. eigenvalues --   -0.56966  -0.55300  -0.53767  -0.51526  -0.50983
 Alpha  occ. eigenvalues --   -0.50914  -0.45803  -0.45555  -0.35334  -0.34840
 Alpha virt. eigenvalues --    0.02739   0.03461   0.04026   0.04885   0.05175
 Alpha virt. eigenvalues --    0.05916   0.07016   0.07699   0.08149   0.09299
 Alpha virt. eigenvalues --    0.09571   0.09860   0.10720   0.11372   0.13057

 Mulliken charges:
               1
     1  C   -0.411004
     2  N   -0.203324
     3  C    0.605845
     4  C    0.602766
     5  C    0.417380
     6  C    0.230590
     7  C    0.469106
     8  C    0.423006
     9  H   -0.441410
    10  H   -0.619263
    11  H   -0.438558
    12  H   -0.442865
    13  H   -0.632398
    14  C    0.080004
    15  C    0.666712
    16  H   -0.052321
    17  H   -0.124635
    18  H   -0.102665
    19  H   -0.026967
 Sum of Mulliken charges =  -0.00000

 Dipole moment (field-independent basis, Debye):
    X=              2.7099    Y=              3.0750    Z=              1.0145  Tot=              4.2223

 Test job not archived.
 1\1\GINC-SE229\SP\RHF\Aug-CC-pVDZ\C9H9N1\OHZDE\08-Apr-2025\0\\#t hf au
 g-cc-pvdz iop(5/13=1,5/36=2,99/5=2) pseudo=read geom=check guess=(read
 ,tcheck) scf=(maxcycle=1)\\title\\0,1\C,0,-2.269501,-0.530432,-0.47566
 5\N,0,-2.966475,-1.427515,-0.672255\C,0,0.073839,0.219572,-0.129622\C,
 0,2.797467,-0.40392,0.075375\C,0,2.397387,0.800662,-0.498296\C,0,1.043
 074,1.108621,-0.600717\C,0,0.482089,-0.987957,0.441651\C,0,1.836256,-1
 .297258,0.542997\H,0,3.137969,1.498382,-0.872578\H,0,0.737853,2.046332
 ,-1.054624\H,0,3.850921,-0.647676,0.151544\H,0,2.139159,-2.240541,0.98

 Normal termination of Gaussian 16 at Tue Apr  8 22:38:26 2025.
