 Gaussian 16, Revision C.01,

 ----------------------------------------------------------------------
 #t hf aug-cc-pvdz symm=none int=(grid=ultrafine) guess=(read,tcheck) s
 table=(opt,rrhf)
 ----------------------------------------------------------------------
 -----
 title
 -----
 Symbolic Z-matrix:
 Charge =  0 Multiplicity = 1

 SCF Done:  E(RHF) =  -1566.42399348     A.U. after   14 cycles
 Normal termination of Gaussian 16 at Tue Apr  8 23:49:24 2025.
 Gaussian 16:  ES64L-G16RevC.01  3-Jul-2019

 ----------------------------------------------------------------------
 #t hf aug-cc-pvdz iop(5/13=1,5/36=2,99/5=2) pseudo=read geom=check gue
 ss=(read,tcheck) scf=(maxcycle=1)
 ----------------------------------------------------------------------
 -----
 title
 -----
 Structure from the checkpoint file:  "BDE49_nonexpt_186_mol1.chk"
 Charge =  0 Multiplicity = 1

                         Standard orientation:
 ---------------------------------------------------------------------
 Center     Atomic      Atomic             Coordinates (Angstroms)
 Number     Number       Type             X           Y           Z
 ---------------------------------------------------------------------
      1         17           0        1.439554    1.618940   -0.026568
      2         17           0        1.718169   -1.419322   -0.006166
      3          5           0        0.761173    0.020897   -0.028375
      4         16           0       -1.125786   -0.199141    0.040964
      5          8           0       -1.536125   -1.260966   -0.829212
      6          8           0       -1.457152   -0.170186    1.448700
      7          8           0       -1.707236    1.166459   -0.624722
      8          1           0       -1.870454    1.805814    0.084811
 ---------------------------------------------------------------------

 SCF Done:  E(RHF) =  -1566.61868312     A.U. after    2 cycles

 The electronic state is 1-A.
 Alpha  occ. eigenvalues -- -103.71982-103.71583 -93.83954 -20.66050 -20.59606
 Alpha  occ. eigenvalues --  -20.59170 -10.75457 -10.75049  -9.10216  -8.41153
 Alpha  occ. eigenvalues --   -8.40911  -8.40875  -8.40748  -8.40504  -8.40463
 Alpha  occ. eigenvalues --   -7.80468  -6.44877  -6.44790  -6.44491  -1.48828
 Alpha  occ. eigenvalues --   -1.37227  -1.34677  -1.23167  -1.19633  -0.94002
 Alpha  occ. eigenvalues --   -0.81740  -0.75611  -0.72066  -0.70364  -0.66619
 Alpha  occ. eigenvalues --   -0.64242  -0.60660  -0.57794  -0.57450  -0.55949
 Alpha  occ. eigenvalues --   -0.54888  -0.52792  -0.52183  -0.51249  -0.48103
 Alpha virt. eigenvalues --    0.01936   0.03351   0.04484   0.05442   0.05717
 Alpha virt. eigenvalues --    0.07604   0.10765   0.11753   0.12403   0.13216
 Alpha virt. eigenvalues --    0.13728   0.14463   0.15874   0.16894   0.17181

 Mulliken charges:
               1
     1  Cl  -0.201861
     2  Cl  -0.211511
     3  B    0.632088
     4  S    2.259729
     5  O   -0.944197
     6  O   -0.973335
     7  O   -0.748223
     8  H    0.187309
 Sum of Mulliken charges =  -0.00000

 Dipole moment (field-independent basis, Debye):
    X=              2.5633    Y=              2.9441    Z=              0.0831  Tot=              3.9045

 Test job not archived.
 1\1\GINC-SE102\SP\RHF\Aug-CC-pVDZ\B1Cl2H1O3S1\OHZDE\08-Apr-2025\0\\#t
 hf aug-cc-pvdz iop(5/13=1,5/36=2,99/5=2) pseudo=read geom=check guess=
 (read,tcheck) scf=(maxcycle=1)\\title\\0,1\Cl,0,1.439554,1.61894,-0.02
 6568\Cl,0,1.718169,-1.419322,-0.006166\B,0,0.761173,0.020897,-0.028375
 \S,0,-1.125786,-0.199141,0.040964\O,0,-1.536125,-1.260966,-0.829212\O,
 0,-1.457152,-0.170186,1.4487\O,0,-1.707236,1.166459,-0.624722\H,0,-1.8
 70454,1.805814,0.084811\\Version=ES64L-G16RevC.01\State=1-A\HF=-1566.6
 186831\RMSD=3.658e-03\Dipole=1.0084943,1.158298,0.0327094\Quadrupole=-

 Normal termination of Gaussian 16 at Tue Apr  8 23:49:28 2025.
