 Gaussian 16, Revision C.01,

 ----------------------------------------------------------------------
 #t hf aug-cc-pvdz symm=none int=(grid=ultrafine) guess=(read,tcheck) s
 table=(opt,rrhf)
 ----------------------------------------------------------------------
 -----
 title
 -----
 Symbolic Z-matrix:
 Charge =  0 Multiplicity = 1

 SCF Done:  E(RHF) =  -628.540944350     A.U. after   14 cycles
 Normal termination of Gaussian 16 at Tue Apr  8 23:03:01 2025.
 Gaussian 16:  ES64L-G16RevC.01  3-Jul-2019

 ----------------------------------------------------------------------
 #t hf aug-cc-pvdz iop(5/13=1,5/36=2,99/5=2) pseudo=read geom=check gue
 ss=(read,tcheck) scf=(maxcycle=1)
 ----------------------------------------------------------------------
 -----
 title
 -----
 Structure from the checkpoint file:  "BDE49_expt_385_mol1.chk"
 Charge =  0 Multiplicity = 1

                         Standard orientation:
 ---------------------------------------------------------------------
 Center     Atomic      Atomic             Coordinates (Angstroms)
 Number     Number       Type             X           Y           Z
 ---------------------------------------------------------------------
      1          8           0        0.220555    1.237990   -0.565418
      2          6           0       -0.870246    1.278813    0.347135
      3          6           0       -1.671023   -0.005447    0.145365
      4          1           0       -1.446031    2.173366    0.103705
      5          1           0       -0.519689    1.352086    1.384493
      6         16           0       -0.382198   -1.295786   -0.036443
      7          1           0       -2.284382    0.043615   -0.755145
      8          1           0       -2.297418   -0.240437    1.006496
      9          6           0        0.899043   -0.002601   -0.503339
     10          6           0        2.068879    0.009458    0.470011
     11          1           0        1.241509   -0.216404   -1.516750
     12          1           0        1.737083    0.240292    1.484032
     13          1           0        2.798479    0.760924    0.154312
     14          1           0        2.561260   -0.966128    0.490257
 ---------------------------------------------------------------------

 SCF Done:  E(RHF) =  -628.632787620     A.U. after    2 cycles

 The electronic state is 1-A.
 Alpha  occ. eigenvalues --  -93.52435 -20.58613 -11.32692 -11.30234 -11.27247
 Alpha  occ. eigenvalues --  -11.23449  -8.82217  -6.16338  -6.16184  -6.15816
 Alpha  occ. eigenvalues --   -1.35539  -1.05005  -1.04022  -0.92930  -0.82201
 Alpha  occ. eigenvalues --   -0.79034  -0.70463  -0.67161  -0.62122  -0.60068
 Alpha  occ. eigenvalues --   -0.58321  -0.55100  -0.53522  -0.51839  -0.46839
 Alpha  occ. eigenvalues --   -0.45064  -0.42819  -0.34067
 Alpha virt. eigenvalues --    0.03541   0.04445   0.04861   0.05288   0.06342
 Alpha virt. eigenvalues --    0.06490   0.06792   0.09041   0.09308   0.11644
 Alpha virt. eigenvalues --    0.12578   0.12960   0.13883   0.14308   0.15070

 Mulliken charges:
               1
     1  O   -0.724153
     2  C    0.822743
     3  C   -0.164094
     4  H   -0.210803
     5  H   -0.130113
     6  S    0.390236
     7  H   -0.114909
     8  H   -0.040332
     9  C    0.309011
    10  C    0.305669
    11  H   -0.289053
    12  H   -0.102953
    13  H   -0.019468
    14  H   -0.031781
 Sum of Mulliken charges =  -0.00000

 Dipole moment (field-independent basis, Debye):
    X=             -0.4715    Y=              0.7943    Z=              0.9058  Tot=              1.2937

 Test job not archived.
 1\1\GINC-SE080\SP\RHF\Aug-CC-pVDZ\C4H8O1S1\OHZDE\08-Apr-2025\0\\#t hf
 aug-cc-pvdz iop(5/13=1,5/36=2,99/5=2) pseudo=read geom=check guess=(re
 ad,tcheck) scf=(maxcycle=1)\\title\\0,1\O,0,0.220555,1.23799,-0.565418
 \C,0,-0.870246,1.278813,0.347135\C,0,-1.671023,-0.005447,0.145365\H,0,
 -1.446031,2.173366,0.103705\H,0,-0.519689,1.352086,1.384493\S,0,-0.382
 198,-1.295786,-0.036443\H,0,-2.284382,0.043615,-0.755145\H,0,-2.297418
 ,-0.240437,1.006496\C,0,0.899043,-0.002601,-0.503339\C,0,2.068879,0.00
 9458,0.470011\H,0,1.241509,-0.216404,-1.51675\H,0,1.737083,0.240292,1.

 Normal termination of Gaussian 16 at Tue Apr  8 23:03:06 2025.
