 Gaussian 16, Revision C.01,

 ----------------------------------------------------------------------
 #t hf aug-cc-pvdz symm=none int=(grid=ultrafine) guess=(read,tcheck) s
 table=(opt,rrhf)
 ----------------------------------------------------------------------
 -----
 title
 -----
 Symbolic Z-matrix:
 Charge =  0 Multiplicity = 1

 SCF Done:  E(RHF) =  -516.556969530     A.U. after   16 cycles
 Normal termination of Gaussian 16 at Wed Apr  9 00:39:19 2025.
 Gaussian 16:  ES64L-G16RevC.01  3-Jul-2019

 ----------------------------------------------------------------------
 #t hf aug-cc-pvdz iop(5/13=1,5/36=2,99/5=2) pseudo=read geom=check gue
 ss=(read,tcheck) scf=(maxcycle=1)
 ----------------------------------------------------------------------
 -----
 title
 -----
 Structure from the checkpoint file:  "BDE49_nonexpt_644_mol1.chk"
 Charge =  0 Multiplicity = 1

                         Standard orientation:
 ---------------------------------------------------------------------
 Center     Atomic      Atomic             Coordinates (Angstroms)
 Number     Number       Type             X           Y           Z
 ---------------------------------------------------------------------
      1          8           0       -0.252935   -0.641292   -0.000026
      2          6           0        0.745326    0.301291   -0.000006
      3          6           0        0.174543    1.551510   -0.000005
      4          6           0       -1.230541    1.374645   -0.000021
      5          6           0       -1.448364    0.020213   -0.000035
      6          5           0        2.211651   -0.222361    0.000006
      7          8           0        3.217545    0.692601    0.000022
      8          8           0        2.497660   -1.556648   -0.000003
      9          6           0       -2.664049   -0.784408   -0.000059
     10          8           0       -3.781071   -0.315341    0.000088
     11          1           0       -2.483610   -1.879079    0.000083
     12          1           0        0.718951    2.482597    0.000007
     13          1           0       -2.002014    2.127806   -0.000025
     14          1           0        4.086488    0.277152    0.000028
     15          1           0        1.710855   -2.110738   -0.000015
 ---------------------------------------------------------------------

 SCF Done:  E(RHF) =  -516.721490537     A.U. after    2 cycles

 The electronic state is 1-A.
 Alpha  occ. eigenvalues --  -20.66457 -20.59959 -20.59469 -20.58242 -11.36241
 Alpha  occ. eigenvalues --  -11.32174 -11.30521 -11.27358 -11.26669  -7.68167
 Alpha  occ. eigenvalues --   -1.44339  -1.36667  -1.36033  -1.32524  -1.10395
 Alpha  occ. eigenvalues --   -1.05020  -0.89894  -0.83931  -0.80214  -0.79080
 Alpha  occ. eigenvalues --   -0.77304  -0.73407  -0.67953  -0.67856  -0.65181
 Alpha  occ. eigenvalues --   -0.62324  -0.60553  -0.60488  -0.59845  -0.59586
 Alpha  occ. eigenvalues --   -0.55859  -0.53825  -0.53752  -0.46095  -0.42714
 Alpha  occ. eigenvalues --   -0.34569
 Alpha virt. eigenvalues --    0.02975   0.03755   0.03773   0.04350   0.05352
 Alpha virt. eigenvalues --    0.05766   0.06168   0.06700   0.08533   0.09708
 Alpha virt. eigenvalues --    0.09983   0.11362   0.11375   0.13242   0.13258

 Mulliken charges:
               1
     1  O   -0.587266
     2  C    0.140342
     3  C    0.512770
     4  C    0.375646
     5  C   -0.135135
     6  B    0.672182
     7  O   -0.509420
     8  O   -0.541332
     9  C    1.065480
    10  O   -0.501588
    11  H   -0.229902
    12  H   -0.399273
    13  H   -0.343551
    14  H    0.223015
    15  H    0.258034
 Sum of Mulliken charges =  -0.00000

 Dipole moment (field-independent basis, Debye):
    X=              2.8334    Y=             -0.3453    Z=             -0.0002  Tot=              2.8544

 Test job not archived.
 1\1\GINC-SE247\SP\RHF\Aug-CC-pVDZ\C5H5B1O4\OHZDE\09-Apr-2025\0\\#t hf
 aug-cc-pvdz iop(5/13=1,5/36=2,99/5=2) pseudo=read geom=check guess=(re
 ad,tcheck) scf=(maxcycle=1)\\title\\0,1\O,0,0.252935,-0.641292,0.00002
 6\C,0,-0.745326,0.301291,0.000006\C,0,-0.174543,1.55151,0.000005\C,0,1
 .230541,1.374645,0.000021\C,0,1.448364,0.020213,0.000035\B,0,-2.211651
 ,-0.222361,-0.000006\O,0,-3.217545,0.692601,-0.000022\O,0,-2.49766,-1.
 556648,0.000003\C,0,2.664049,-0.784408,0.000059\O,0,3.781071,-0.315341
 ,-0.000088\H,0,2.48361,-1.879079,-0.000083\H,0,-0.718951,2.482597,-0.0

 Normal termination of Gaussian 16 at Wed Apr  9 00:39:25 2025.
