 Gaussian 16, Revision C.01,

 ----------------------------------------------------------------------
 #t hf aug-cc-pvdz symm=none int=(grid=ultrafine) guess=(read,tcheck) s
 table=(opt,rrhf)
 ----------------------------------------------------------------------
 -----
 title
 -----
 Symbolic Z-matrix:
 Charge =  0 Multiplicity = 1

 SCF Done:  E(RHF) =  -572.874731913     A.U. after   14 cycles
 Normal termination of Gaussian 16 at Tue Apr  8 23:58:39 2025.
 Gaussian 16:  ES64L-G16RevC.01  3-Jul-2019

 ----------------------------------------------------------------------
 #t hf aug-cc-pvdz iop(5/13=1,5/36=2,99/5=2) pseudo=read geom=check gue
 ss=(read,tcheck) scf=(maxcycle=1)
 ----------------------------------------------------------------------
 -----
 title
 -----
 Structure from the checkpoint file:  "BDE49_nonexpt_2106_mol1.chk"
 Charge =  0 Multiplicity = 1

                         Standard orientation:
 ---------------------------------------------------------------------
 Center     Atomic      Atomic             Coordinates (Angstroms)
 Number     Number       Type             X           Y           Z
 ---------------------------------------------------------------------
      1         14           0        0.669560    0.095340    0.419923
      2          7           0       -1.155248   -0.093500    0.005566
      3          8           0       -1.566951   -1.145284   -0.477335
      4          8           0       -1.862091    0.883809    0.246519
      5          6           0        1.218123    1.613716   -0.507307
      6          1           0        0.573248    2.458386   -0.257173
      7          1           0        1.177514    1.454764   -1.588065
      8          6           0        1.518030   -1.487389   -0.058832
      9          1           0        1.448984   -1.659477   -1.135462
     10          1           0        1.064166   -2.340591    0.449476
     11          1           0        2.576447   -1.445415    0.217071
     12          1           0        2.246705    1.873482   -0.240033
     13          1           0        0.641256    0.312414    1.879670
 ---------------------------------------------------------------------

 SCF Done:  E(RHF) =  -572.990814686     A.U. after    2 cycles

 The electronic state is 1-A.
 Alpha  occ. eigenvalues --  -69.12008 -20.61233 -20.60986 -15.87328 -11.24528
 Alpha  occ. eigenvalues --  -11.24392  -6.87051  -3.97935  -3.97745  -3.97735
 Alpha  occ. eigenvalues --   -1.52324  -1.34667  -0.99204  -0.95497  -0.91906
 Alpha  occ. eigenvalues --   -0.78013  -0.72217  -0.69998  -0.64598  -0.59919
 Alpha  occ. eigenvalues --   -0.58623  -0.58128  -0.57779  -0.51537  -0.49214
 Alpha  occ. eigenvalues --   -0.47657  -0.46674  -0.46238
 Alpha virt. eigenvalues --    0.02359   0.04209   0.04430   0.05205   0.06868
 Alpha virt. eigenvalues --    0.06959   0.07099   0.07638   0.08300   0.09500
 Alpha virt. eigenvalues --    0.09863   0.12590   0.14010   0.14646   0.15580

 Mulliken charges:
               1
     1  Si   1.481194
     2  N    0.289107
     3  O   -0.521936
     4  O   -0.597642
     5  C    0.285017
     6  H   -0.207858
     7  H   -0.193845
     8  C    0.304210
     9  H   -0.113475
    10  H   -0.216530
    11  H   -0.223006
    12  H   -0.225555
    13  H   -0.059681
 Sum of Mulliken charges =  -0.00000

 Dipole moment (field-independent basis, Debye):
    X=              5.2503    Y=              0.3242    Z=              0.3443  Tot=              5.2716

 Test job not archived.
 1\1\GINC-SE458\SP\RHF\Aug-CC-pVDZ\C2H7N1O2Si1\OHZDE\08-Apr-2025\0\\#t
 hf aug-cc-pvdz iop(5/13=1,5/36=2,99/5=2) pseudo=read geom=check guess=
 (read,tcheck) scf=(maxcycle=1)\\title\\0,1\Si,0,0.66956,0.09534,0.4199
 23\N,0,-1.155248,-0.0935,0.005566\O,0,-1.566951,-1.145284,-0.477335\O,
 0,-1.862091,0.883809,0.246519\C,0,1.218123,1.613716,-0.507307\H,0,0.57
 3248,2.458386,-0.257173\H,0,1.177514,1.454764,-1.588065\C,0,1.51803,-1
 .487389,-0.058832\H,0,1.448984,-1.659477,-1.135462\H,0,1.064166,-2.340
 591,0.449476\H,0,2.576447,-1.445415,0.217071\H,0,2.246705,1.873482,-0.

 Normal termination of Gaussian 16 at Tue Apr  8 23:58:43 2025.
