 Gaussian 16, Revision C.01,

 ----------------------------------------------------------------------
 #t hf aug-cc-pvdz symm=none int=(grid=ultrafine) guess=(read,tcheck) s
 table=(opt,rrhf)
 ----------------------------------------------------------------------
 -----
 title
 -----
 Symbolic Z-matrix:
 Charge =  0 Multiplicity = 1

 SCF Done:  E(RHF) =  -344.963535976     A.U. after   13 cycles

 1\1\GINC-SE071\Stability\RHF\Aug-CC-pVDZ\C5H10O2\OHZDE\08-Apr-2025\0\\
 #t hf aug-cc-pvdz symm=none int=(grid=ultrafine) guess=(read,tcheck) s
 table=(opt,rrhf)\\title\\0,1\C,0,0.321983,-0.504954,0.991216\C,0,1.308
 693,0.264043,0.1461\O,0,1.406299,1.463539,0.083674\O,0,2.095944,-0.564
 537,-0.587777\H,0,2.675774,0.005317,-1.114848\C,0,-0.772931,-1.195274,
 0.148833\H,0,-0.111751,0.199359,1.701045\H,0,0.869281,-1.266107,1.5542
 79\C,0,-1.609827,-0.25259,-0.729643\H,0,-1.434494,-1.729795,0.839635\H
 ,0,-0.300687,-1.953246,-0.482687\C,0,-2.368819,0.831641,0.042527\H,0,-

 Normal termination of Gaussian 16 at Tue Apr  8 22:33:57 2025.
 Gaussian 16:  ES64L-G16RevC.01  3-Jul-2019

 ----------------------------------------------------------------------
 #t hf aug-cc-pvdz iop(5/13=1,5/36=2,99/5=2) pseudo=read geom=check gue
 ss=(read,tcheck) scf=(maxcycle=1)
 ----------------------------------------------------------------------
 -----
 title
 -----
 Structure from the checkpoint file:  "BDE49_expt_1116_mol1.chk"
 Charge =  0 Multiplicity = 1

                         Standard orientation:
 ---------------------------------------------------------------------
 Center     Atomic      Atomic             Coordinates (Angstroms)
 Number     Number       Type             X           Y           Z
 ---------------------------------------------------------------------
      1          6           0        0.321983   -0.504954    0.991216
      2          6           0        1.308693    0.264043    0.146100
      3          8           0        1.406299    1.463539    0.083674
      4          8           0        2.095944   -0.564538   -0.587777
      5          1           0        2.675774    0.005316   -1.114848
      6          6           0       -0.772931   -1.195274    0.148833
      7          1           0       -0.111751    0.199359    1.701045
      8          1           0        0.869281   -1.266107    1.554279
      9          6           0       -1.609827   -0.252590   -0.729643
     10          1           0       -1.434494   -1.729795    0.839635
     11          1           0       -0.300687   -1.953246   -0.482687
     12          6           0       -2.368819    0.831641    0.042527
     13          1           0       -2.322827   -0.863963   -1.293379
     14          1           0       -0.964028    0.221378   -1.477948
     15          1           0       -2.999677    0.394469    0.823603
     16          1           0       -3.018391    1.402144   -0.626372
     17          1           0       -1.685735    1.541239    0.515291
 ---------------------------------------------------------------------

 SCF Done:  E(RHF) =  -345.073677456     A.U. after    2 cycles

 The electronic state is 1-A.
 Alpha  occ. eigenvalues --  -20.62521 -20.56555 -11.39865 -11.25465 -11.24603
 Alpha  occ. eigenvalues --  -11.23523 -11.22377  -1.42476  -1.32648  -1.08476
 Alpha  occ. eigenvalues --   -1.00710  -0.91238  -0.83787  -0.78828  -0.71940
 Alpha  occ. eigenvalues --   -0.68784  -0.66124  -0.63421  -0.61606  -0.59754
 Alpha  occ. eigenvalues --   -0.55766  -0.54867  -0.53981  -0.50517  -0.48650
 Alpha  occ. eigenvalues --   -0.47753  -0.47196  -0.45753
 Alpha virt. eigenvalues --    0.03285   0.04198   0.04379   0.04922   0.06195
 Alpha virt. eigenvalues --    0.06885   0.07050   0.07438   0.08205   0.09552
 Alpha virt. eigenvalues --    0.10839   0.13222   0.13997   0.14228   0.14463

 Mulliken charges:
               1
     1  C    0.151951
     2  C    0.680848
     3  O   -0.519094
     4  O   -0.543489
     5  H    0.175969
     6  C    0.245306
     7  H   -0.067342
     8  H    0.024750
     9  C    0.085187
    10  H   -0.069498
    11  H   -0.101129
    12  C    0.386323
    13  H   -0.098075
    14  H   -0.084598
    15  H   -0.072314
    16  H   -0.097233
    17  H   -0.097561
 Sum of Mulliken charges =  -0.00000

 Dipole moment (field-independent basis, Debye):
    X=             -0.5425    Y=             -2.0243    Z=             -0.0506  Tot=              2.0963

 Test job not archived.
 1\1\GINC-SE071\SP\RHF\Aug-CC-pVDZ\C5H10O2\OHZDE\08-Apr-2025\0\\#t hf a
 ug-cc-pvdz iop(5/13=1,5/36=2,99/5=2) pseudo=read geom=check guess=(rea
 d,tcheck) scf=(maxcycle=1)\\title\\0,1\C,0,0.321983,-0.504954,0.991216
 \C,0,1.308693,0.264043,0.1461\O,0,1.406299,1.463539,0.083674\O,0,2.095
 944,-0.564537,-0.587777\H,0,2.675774,0.005317,-1.114848\C,0,-0.772931,
 -1.195274,0.148833\H,0,-0.111751,0.199359,1.701045\H,0,0.869281,-1.266
 107,1.554279\C,0,-1.609827,-0.25259,-0.729643\H,0,-1.434494,-1.729795,
 0.839635\H,0,-0.300687,-1.953246,-0.482687\C,0,-2.368819,0.831641,0.04

 Normal termination of Gaussian 16 at Tue Apr  8 22:34:03 2025.
