 Gaussian 16, Revision C.01,

 ----------------------------------------------------------------------
 #t hf aug-cc-pvdz symm=none int=(grid=ultrafine) guess=(read,tcheck) s
 table=(opt,rrhf)
 ----------------------------------------------------------------------
 -----
 title
 -----
 Symbolic Z-matrix:
 Charge =  0 Multiplicity = 1

 SCF Done:  E(RHF) =  -639.467820309     A.U. after   12 cycles
 Normal termination of Gaussian 16 at Wed Apr  9 00:07:29 2025.
 Gaussian 16:  ES64L-G16RevC.01  3-Jul-2019

 ----------------------------------------------------------------------
 #t hf aug-cc-pvdz iop(5/13=1,5/36=2,99/5=2) pseudo=read geom=check gue
 ss=(read,tcheck) scf=(maxcycle=1)
 ----------------------------------------------------------------------
 -----
 title
 -----
 Structure from the checkpoint file:  "BDE49_nonexpt_2233_mol1.chk"
 Charge =  0 Multiplicity = 1

                         Standard orientation:
 ---------------------------------------------------------------------
 Center     Atomic      Atomic             Coordinates (Angstroms)
 Number     Number       Type             X           Y           Z
 ---------------------------------------------------------------------
      1          8           0       -0.294438   -0.039340    0.615253
      2         14           0        1.263393   -0.004431    0.054611
      3          6           0        2.300036   -0.503703    1.532750
      4          1           0        2.041080   -1.510879    1.871230
      5          1           0        2.138740    0.181132    2.370060
      6          6           0       -1.622302   -0.000839    0.068460
      7          6           0       -2.006297   -1.410535   -0.402315
      8          1           0       -1.899538   -2.121242    0.420334
      9          1           0       -1.365459   -1.737530   -1.224251
     10          6           0        1.549748   -1.210785   -1.362353
     11          1           0        2.607387   -1.206997   -1.647242
     12          1           0        0.972543   -0.951696   -2.254936
     13          1           0        1.288027   -2.233903   -1.077338
     14          6           0       -2.529020    0.439784    1.223254
     15          1           0       -3.576924    0.469582    0.911936
     16          1           0       -2.239343    1.433776    1.571697
     17          1           0       -2.431749   -0.255542    2.059742
     18          6           0        1.759308    1.721739   -0.506122
     19          1           0        1.573321    2.459400    0.280247
     20          1           0        1.216814    2.040508   -1.400299
     21          1           0        2.828598    1.751356   -0.741654
     22          6           0       -1.714780    1.001706   -1.090033
     23          1           0       -1.075220    0.703553   -1.925239
     24          1           0       -1.413366    1.998752   -0.760797
     25          1           0       -2.741083    1.061018   -1.462544
     26          1           0        3.367366   -0.492947    1.289698
     27          1           0       -3.043352   -1.435792   -0.749067
 ---------------------------------------------------------------------

 SCF Done:  E(RHF) =  -639.615864019     A.U. after    2 cycles

 The electronic state is 1-A.
 Alpha  occ. eigenvalues --  -69.06673 -20.53782 -11.30031 -11.22574 -11.22128
 Alpha  occ. eigenvalues --  -11.21811 -11.20485 -11.20227 -11.19915  -6.81409
 Alpha  occ. eigenvalues --   -3.92326  -3.92167  -3.92152  -1.28859  -1.05433
 Alpha  occ. eigenvalues --   -0.95361  -0.93576  -0.93097  -0.91485  -0.91201
 Alpha  occ. eigenvalues --   -0.78274  -0.66764  -0.62866  -0.62626  -0.58866
 Alpha  occ. eigenvalues --   -0.57096  -0.57068  -0.55939  -0.55326  -0.55159
 Alpha  occ. eigenvalues --   -0.53724  -0.53342  -0.52674  -0.51704  -0.51694
 Alpha  occ. eigenvalues --   -0.51212  -0.51015  -0.45312  -0.45059  -0.41506
 Alpha  occ. eigenvalues --   -0.40851
 Alpha virt. eigenvalues --    0.02953   0.04132   0.04474   0.04524   0.05787
 Alpha virt. eigenvalues --    0.05871   0.05937   0.06438   0.06556   0.08063
 Alpha virt. eigenvalues --    0.08162   0.08255   0.08780   0.08900   0.09135

 Mulliken charges:
               1
     1  O   -0.756194
     2  Si   1.747309
     3  C    0.450461
     4  H   -0.327864
     5  H   -0.345342
     6  C   -2.876863
     7  C    1.146409
     8  H   -0.020773
     9  H   -0.105176
    10  C    0.637499
    11  H   -0.338748
    12  H   -0.325589
    13  H   -0.306581
    14  C    1.089779
    15  H    0.027062
    16  H   -0.017302
    17  H   -0.027260
    18  C    0.596719
    19  H   -0.300752
    20  H   -0.377686
    21  H   -0.291116
    22  C    1.102397
    23  H   -0.050537
    24  H    0.021399
    25  H   -0.052749
    26  H   -0.337987
    27  H    0.039486
 Sum of Mulliken charges =  -0.00000

 Dipole moment (field-independent basis, Debye):
    X=             -0.5464    Y=              0.0783    Z=             -0.9699  Tot=              1.1160

 Test job not archived.
 1\1\GINC-SE247\SP\RHF\Aug-CC-pVDZ\C7H18O1Si1\OHZDE\09-Apr-2025\0\\#t h
 f aug-cc-pvdz iop(5/13=1,5/36=2,99/5=2) pseudo=read geom=check guess=(
 read,tcheck) scf=(maxcycle=1)\\title\\0,1\O,0,-0.294438,-0.03934,0.615
 253\Si,0,1.263393,-0.004431,0.054611\C,0,2.300036,-0.503703,1.53275\H,
 0,2.04108,-1.510879,1.87123\H,0,2.13874,0.181132,2.37006\C,0,-1.622302
 ,-0.000839,0.06846\C,0,-2.006297,-1.410535,-0.402315\H,0,-1.899538,-2.
 121242,0.420334\H,0,-1.365459,-1.73753,-1.224251\C,0,1.549748,-1.21078
 5,-1.362353\H,0,2.607387,-1.206997,-1.647242\H,0,0.972543,-0.951696,-2

 Normal termination of Gaussian 16 at Wed Apr  9 00:07:49 2025.
