 Gaussian 16, Revision C.01,

 ----------------------------------------------------------------------
 #t hf aug-cc-pvdz symm=none int=(grid=ultrafine) guess=(read,tcheck) s
 table=(opt,rrhf)
 ----------------------------------------------------------------------
 -----
 title
 -----
 Symbolic Z-matrix:
 Charge =  0 Multiplicity = 1

 SCF Done:  E(RHF) =  -650.122178530     A.U. after   15 cycles

 1\1\GINC-SE177\Stability\RHF\Aug-CC-pVDZ\C8H11P1\OHZDE\08-Apr-2025\0\\
 #t hf aug-cc-pvdz symm=none int=(grid=ultrafine) guess=(read,tcheck) s
 table=(opt,rrhf)\\title\\0,1\C,0,0.313586,-0.280979,0.562541\P,0,-2.50
 6596,-0.403747,-0.124746\C,0,-2.213404,1.27222,-0.873218\H,0,-1.179581
 ,1.434977,-1.181274\H,0,-2.497492,2.041639,-0.151001\H,0,-2.866604,1.3
 7861,-1.742581\C,0,1.027704,-1.26842,-0.129011\C,0,2.301406,-1.015084,
 -0.628211\C,0,2.890093,0.236043,-0.44824\C,0,2.193812,1.226771,0.23873
 7\C,0,0.918912,0.968758,0.739546\H,0,0.390125,1.744986,1.283554\H,0,0.

 Normal termination of Gaussian 16 at Tue Apr  8 23:26:31 2025.
 Gaussian 16:  ES64L-G16RevC.01  3-Jul-2019

 ----------------------------------------------------------------------
 #t hf aug-cc-pvdz iop(5/13=1,5/36=2,99/5=2) pseudo=read geom=check gue
 ss=(read,tcheck) scf=(maxcycle=1)
 ----------------------------------------------------------------------
 -----
 title
 -----
 Structure from the checkpoint file:  "BDE49_nonexpt_1295_mol1.chk"
 Charge =  0 Multiplicity = 1

                         Standard orientation:
 ---------------------------------------------------------------------
 Center     Atomic      Atomic             Coordinates (Angstroms)
 Number     Number       Type             X           Y           Z
 ---------------------------------------------------------------------
      1          6           0        0.313586   -0.280979    0.562541
      2         15           0       -2.506596   -0.403747   -0.124746
      3          6           0       -2.213404    1.272220   -0.873218
      4          1           0       -1.179581    1.434977   -1.181274
      5          1           0       -2.497492    2.041639   -0.151001
      6          1           0       -2.866604    1.378610   -1.742581
      7          6           0        1.027704   -1.268420   -0.129011
      8          6           0        2.301406   -1.015084   -0.628211
      9          6           0        2.890093    0.236043   -0.448240
     10          6           0        2.193812    1.226771    0.238737
     11          6           0        0.918912    0.968758    0.739546
     12          1           0        0.390125    1.744986    1.283554
     13          1           0        0.580651   -2.247171   -0.272718
     14          1           0        2.837959   -1.796755   -1.154784
     15          1           0        3.883163    0.433644   -0.835422
     16          1           0        2.643894    2.201691    0.390837
     17          6           0       -1.070360   -0.556552    1.087875
     18          1           0       -1.306913    0.110351    1.922284
     19          1           0       -1.138129   -1.575857    1.479779
     20          1           0       -1.918626   -1.166460   -1.167595
 ---------------------------------------------------------------------

 SCF Done:  E(RHF) =  -650.236661604     A.U. after    2 cycles

 The electronic state is 1-A.
 Alpha  occ. eigenvalues --  -81.25060 -11.25613 -11.24747 -11.24724 -11.24706
 Alpha  occ. eigenvalues --  -11.24328 -11.24294 -11.24280 -11.23270  -7.75317
 Alpha  occ. eigenvalues --   -4.89292  -4.89274  -4.88953  -1.14717  -1.04517
 Alpha  occ. eigenvalues --   -1.01062  -0.96315  -0.92917  -0.83122  -0.80754
 Alpha  occ. eigenvalues --   -0.72434  -0.69803  -0.64588  -0.63961  -0.59272
 Alpha  occ. eigenvalues --   -0.58752  -0.58028  -0.57025  -0.55283  -0.51529
 Alpha  occ. eigenvalues --   -0.50002  -0.49516  -0.46913  -0.45910  -0.35065
 Alpha  occ. eigenvalues --   -0.34131  -0.31399
 Alpha virt. eigenvalues --    0.03309   0.03985   0.04144   0.04724   0.05638
 Alpha virt. eigenvalues --    0.05675   0.07035   0.07158   0.07736   0.07967
 Alpha virt. eigenvalues --    0.08555   0.10221   0.10481   0.11295   0.11773

 Mulliken charges:
               1
     1  C    0.428825
     2  P    0.366308
     3  C    0.278590
     4  H   -0.176172
     5  H   -0.134208
     6  H   -0.198305
     7  C    0.636027
     8  C    0.243497
     9  C    0.675123
    10  C    0.143498
    11  C    0.656087
    12  H   -0.654975
    13  H   -0.630770
    14  H   -0.448084
    15  H   -0.439783
    16  H   -0.456348
    17  C   -0.087242
    18  H   -0.209036
    19  H   -0.153026
    20  H    0.159994
 Sum of Mulliken charges =  -0.00000

 Dipole moment (field-independent basis, Debye):
    X=              0.8451    Y=              0.5859    Z=             -0.1211  Tot=              1.0354

 Test job not archived.
 1\1\GINC-SE177\SP\RHF\Aug-CC-pVDZ\C8H11P1\OHZDE\08-Apr-2025\0\\#t hf a
 ug-cc-pvdz iop(5/13=1,5/36=2,99/5=2) pseudo=read geom=check guess=(rea
 d,tcheck) scf=(maxcycle=1)\\title\\0,1\C,0,0.313586,-0.280979,0.562541
 \P,0,-2.506596,-0.403747,-0.124746\C,0,-2.213404,1.27222,-0.873218\H,0
 ,-1.179581,1.434977,-1.181274\H,0,-2.497492,2.041639,-0.151001\H,0,-2.
 866604,1.37861,-1.742581\C,0,1.027704,-1.26842,-0.129011\C,0,2.301406,
 -1.015084,-0.628211\C,0,2.890093,0.236043,-0.44824\C,0,2.193812,1.2267
 71,0.238737\C,0,0.918912,0.968758,0.739546\H,0,0.390125,1.744986,1.283

 Normal termination of Gaussian 16 at Tue Apr  8 23:26:43 2025.
