 Gaussian 16, Revision C.01,

 ----------------------------------------------------------------------
 #t hf aug-cc-pvdz symm=none int=(grid=ultrafine) guess=(read,tcheck) s
 table=(opt,rrhf)
 ----------------------------------------------------------------------
 -----
 title
 -----
 Symbolic Z-matrix:
 Charge =  0 Multiplicity = 1

 SCF Done:  E(RHF) =  -344.958836239     A.U. after   13 cycles

 1\1\GINC-SE423\Stability\RHF\Aug-CC-pVDZ\C5H10O2\OHZDE\08-Apr-2025\0\\
 #t hf aug-cc-pvdz symm=none int=(grid=ultrafine) guess=(read,tcheck) s
 table=(opt,rrhf)\\title\\0,1\O,0,0.116376,-0.526033,0.228885\C,0,1.267
 013,0.082486,-0.134881\C,0,-1.135151,0.05492,-0.250954\O,0,1.322001,1.
 069757,-0.824802\C,0,2.457939,-0.643236,0.442865\C,0,-1.566292,1.17482
 2,0.687858\H,0,-1.697353,0.793894,1.704396\H,0,-2.516412,1.600901,0.35
 4067\H,0,-0.822052,1.972371,0.69985\H,0,2.439325,-1.693047,0.143177\H,
 0,2.413293,-0.614368,1.534134\H,0,3.373907,-0.168961,0.097072\C,0,-2.1

 Normal termination of Gaussian 16 at Tue Apr  8 22:42:01 2025.
 Gaussian 16:  ES64L-G16RevC.01  3-Jul-2019

 ----------------------------------------------------------------------
 #t hf aug-cc-pvdz iop(5/13=1,5/36=2,99/5=2) pseudo=read geom=check gue
 ss=(read,tcheck) scf=(maxcycle=1)
 ----------------------------------------------------------------------
 -----
 title
 -----
 Structure from the checkpoint file:  "BDE49_expt_1452_mol1.chk"
 Charge =  0 Multiplicity = 1

                         Standard orientation:
 ---------------------------------------------------------------------
 Center     Atomic      Atomic             Coordinates (Angstroms)
 Number     Number       Type             X           Y           Z
 ---------------------------------------------------------------------
      1          8           0        0.116376   -0.526033    0.228885
      2          6           0        1.267013    0.082486   -0.134881
      3          6           0       -1.135151    0.054920   -0.250954
      4          8           0        1.322001    1.069757   -0.824802
      5          6           0        2.457939   -0.643236    0.442865
      6          6           0       -1.566292    1.174822    0.687858
      7          1           0       -1.697353    0.793894    1.704396
      8          1           0       -2.516412    1.600901    0.354067
      9          1           0       -0.822052    1.972371    0.699850
     10          1           0        2.439325   -1.693047    0.143177
     11          1           0        2.413293   -0.614368    1.534134
     12          1           0        3.373907   -0.168961    0.097072
     13          6           0       -2.126887   -1.094985   -0.325768
     14          1           0       -0.941000    0.464312   -1.244251
     15          1           0       -2.285736   -1.533878    0.662721
     16          1           0       -1.762178   -1.876847   -0.995079
     17          1           0       -3.088534   -0.738208   -0.703467
 ---------------------------------------------------------------------

 SCF Done:  E(RHF) =  -345.070807351     A.U. after    2 cycles

 The electronic state is 1-A.
 Alpha  occ. eigenvalues --  -20.60781 -20.55614 -11.39179 -11.30237 -11.24922
 Alpha  occ. eigenvalues --  -11.23322 -11.22937  -1.41115  -1.31955  -1.06950
 Alpha  occ. eigenvalues --   -0.99974  -0.94292  -0.84536  -0.77098  -0.70378
 Alpha  occ. eigenvalues --   -0.67650  -0.66565  -0.61571  -0.59141  -0.58089
 Alpha  occ. eigenvalues --   -0.57012  -0.55203  -0.54076  -0.52757  -0.51111
 Alpha  occ. eigenvalues --   -0.48786  -0.46670  -0.45750
 Alpha virt. eigenvalues --    0.03375   0.04272   0.04712   0.05142   0.06241
 Alpha virt. eigenvalues --    0.06391   0.06874   0.07599   0.07769   0.08861
 Alpha virt. eigenvalues --    0.10723   0.13255   0.13288   0.14247   0.14944

 Mulliken charges:
               1
     1  O   -0.565519
     2  C    0.213867
     3  C   -0.193456
     4  O   -0.463759
     5  C    0.299958
     6  C    0.426353
     7  H    0.001341
     8  H   -0.029152
     9  H   -0.087595
    10  H    0.019581
    11  H    0.024927
    12  H   -0.015091
    13  C    0.539804
    14  H   -0.102272
    15  H   -0.000702
    16  H   -0.063947
    17  H   -0.004337
 Sum of Mulliken charges =  -0.00000

 Dipole moment (field-independent basis, Debye):
    X=             -0.8548    Y=             -1.6498    Z=              1.1461  Tot=              2.1831

 Test job not archived.
 1\1\GINC-SE423\SP\RHF\Aug-CC-pVDZ\C5H10O2\OHZDE\08-Apr-2025\0\\#t hf a
 ug-cc-pvdz iop(5/13=1,5/36=2,99/5=2) pseudo=read geom=check guess=(rea
 d,tcheck) scf=(maxcycle=1)\\title\\0,1\O,0,0.116376,-0.526033,0.228885
 \C,0,1.267013,0.082486,-0.134881\C,0,-1.135151,0.05492,-0.250954\O,0,1
 .322001,1.069757,-0.824802\C,0,2.457939,-0.643236,0.442865\C,0,-1.5662
 92,1.174822,0.687858\H,0,-1.697353,0.793894,1.704396\H,0,-2.516412,1.6
 00901,0.354067\H,0,-0.822052,1.972371,0.69985\H,0,2.439325,-1.693047,0
 .143177\H,0,2.413293,-0.614368,1.534134\H,0,3.373907,-0.168961,0.09707

 Normal termination of Gaussian 16 at Tue Apr  8 22:42:07 2025.
