 Gaussian 16, Revision C.01,

 ----------------------------------------------------------------------
 #t hf aug-cc-pvdz symm=none int=(grid=ultrafine) guess=(read,tcheck) s
 table=(opt,rrhf)
 ----------------------------------------------------------------------
 -----
 title
 -----
 Symbolic Z-matrix:
 Charge =  0 Multiplicity = 1

 SCF Done:  E(RHF) =  -768.974832993     A.U. after   13 cycles
 Normal termination of Gaussian 16 at Wed Apr  9 00:09:00 2025.
 Gaussian 16:  ES64L-G16RevC.01  3-Jul-2019

 ----------------------------------------------------------------------
 #t hf aug-cc-pvdz iop(5/13=1,5/36=2,99/5=2) pseudo=read geom=check gue
 ss=(read,tcheck) scf=(maxcycle=1)
 ----------------------------------------------------------------------
 -----
 title
 -----
 Structure from the checkpoint file:  "BDE49_nonexpt_2355_mol1.chk"
 Charge =  0 Multiplicity = 1

                         Standard orientation:
 ---------------------------------------------------------------------
 Center     Atomic      Atomic             Coordinates (Angstroms)
 Number     Number       Type             X           Y           Z
 ---------------------------------------------------------------------
      1         14           0       -0.208910   -0.850370   -0.430570
      2         14           0       -2.120508    0.324893    0.285241
      3          6           0        1.348993    0.232744   -0.059114
      4          8           0        1.428496    1.343854   -0.508443
      5          1           0       -0.213448   -1.082361   -1.891764
      6          1           0       -0.081471   -2.162513    0.259933
      7          8           0        2.351619   -0.259728    0.723031
      8          1           0       -3.324485   -0.506400    0.048099
      9          1           0       -2.238866    1.593662   -0.465240
     10          1           0        2.143687   -1.164417    0.986728
     11          1           0       -2.008451    0.609245    1.734813
 ---------------------------------------------------------------------

 SCF Done:  E(RHF) =  -769.076736374     A.U. after    2 cycles

 The electronic state is 1-A.
 Alpha  occ. eigenvalues --  -69.09282 -69.07861 -20.63182 -20.57355 -11.39242
 Alpha  occ. eigenvalues --   -6.84699  -6.83276  -3.95480  -3.95441  -3.95396
 Alpha  occ. eigenvalues --   -3.94030  -3.94025  -3.94020  -1.42089  -1.33709
 Alpha  occ. eigenvalues --   -0.85751  -0.80130  -0.72381  -0.68112  -0.65322
 Alpha  occ. eigenvalues --   -0.64256  -0.58459  -0.51943  -0.50722  -0.49844
 Alpha  occ. eigenvalues --   -0.48959  -0.44317  -0.41715
 Alpha virt. eigenvalues --    0.02872   0.03560   0.04718   0.05869   0.06470
 Alpha virt. eigenvalues --    0.06791   0.07281   0.08341   0.08648   0.08863
 Alpha virt. eigenvalues --    0.09343   0.09578   0.10826   0.11401   0.13240

 Mulliken charges:
               1
     1  Si   0.271522
     2  Si  -0.112452
     3  C    0.452067
     4  O   -0.443676
     5  H    0.038240
     6  H   -0.028064
     7  O   -0.490179
     8  H    0.026599
     9  H    0.048587
    10  H    0.184365
    11  H    0.052993
 Sum of Mulliken charges =   0.00000

 Dipole moment (field-independent basis, Debye):
    X=             -2.2113    Y=             -3.8282    Z=              0.8387  Tot=              4.4998

 Test job not archived.
 1\1\GINC-SE105\SP\RHF\Aug-CC-pVDZ\C1H6O2Si2\OHZDE\09-Apr-2025\0\\#t hf
  aug-cc-pvdz iop(5/13=1,5/36=2,99/5=2) pseudo=read geom=check guess=(r
 ead,tcheck) scf=(maxcycle=1)\\title\\0,1\Si,0,-0.20891,-0.85037,-0.430
 57\Si,0,-2.120508,0.324893,0.285241\C,0,1.348993,0.232744,-0.059114\O,
 0,1.428496,1.343854,-0.508443\H,0,-0.213448,-1.082361,-1.891764\H,0,-0
 .081471,-2.162513,0.259933\O,0,2.351619,-0.259728,0.723031\H,0,-3.3244
 85,-0.5064,0.048099\H,0,-2.238866,1.593662,-0.46524\H,0,2.143687,-1.16
 4417,0.986728\H,0,-2.008451,0.609245,1.734813\\Version=ES64L-G16RevC.0

 Normal termination of Gaussian 16 at Wed Apr  9 00:09:04 2025.
