 Gaussian 16, Revision C.01,

 ----------------------------------------------------------------------
 #t hf aug-cc-pvdz symm=none int=(grid=ultrafine) guess=(read,tcheck) s
 table=(opt,rrhf)
 ----------------------------------------------------------------------
 -----
 title
 -----
 Symbolic Z-matrix:
 Charge =  0 Multiplicity = 1

 SCF Done:  E(RHF) =  -597.110994105     A.U. after   12 cycles
 Normal termination of Gaussian 16 at Tue Apr  8 23:58:09 2025.
 Gaussian 16:  ES64L-G16RevC.01  3-Jul-2019

 ----------------------------------------------------------------------
 #t hf aug-cc-pvdz iop(5/13=1,5/36=2,99/5=2) pseudo=read geom=check gue
 ss=(read,tcheck) scf=(maxcycle=1)
 ----------------------------------------------------------------------
 -----
 title
 -----
 Structure from the checkpoint file:  "BDE49_nonexpt_2069_mol1.chk"
 Charge =  0 Multiplicity = 1

                         Standard orientation:
 ---------------------------------------------------------------------
 Center     Atomic      Atomic             Coordinates (Angstroms)
 Number     Number       Type             X           Y           Z
 ---------------------------------------------------------------------
      1         14           0        1.780073   -0.472755   -0.459630
      2          6           0        0.003264   -0.224723    0.260026
      3          8           0       -0.817184   -0.417057   -0.892511
      4          8           0       -0.234835    1.044140    0.857505
      5          6           0       -2.229556   -0.454159   -0.679399
      6          1           0       -2.687230   -0.361753   -1.664313
      7          1           0       -2.557207    0.376058   -0.047252
      8          1           0       -2.547341   -1.400804   -0.229213
      9          6           0        0.047162    2.181905    0.050246
     10          1           0       -0.347609    3.045011    0.586307
     11          1           0       -0.433638    2.108573   -0.929440
     12          1           0        1.126576    2.321960   -0.090246
     13          6           0       -0.278917   -1.234322    1.373539
     14          1           0       -0.265323   -2.253567    0.982595
     15          1           0       -1.251816   -1.034778    1.829003
     16          1           0        0.474858   -1.146403    2.158655
     17          1           0        1.985991    0.311204   -1.696764
     18          1           0        1.959885   -1.910614   -0.761691
     19          1           0        2.786268   -0.065188    0.550754
 ---------------------------------------------------------------------

 SCF Done:  E(RHF) =  -597.233320249     A.U. after    2 cycles

 The electronic state is 1-A.
 Alpha  occ. eigenvalues --  -69.05898 -20.57596 -20.57583 -11.33613 -11.28300
 Alpha  occ. eigenvalues --  -11.28177 -11.23100  -6.81291  -3.92051  -3.92043
 Alpha  occ. eigenvalues --   -3.92026  -1.36537  -1.29995  -1.02169  -0.94141
 Alpha  occ. eigenvalues --   -0.92093  -0.80001  -0.72484  -0.69555  -0.66951
 Alpha  occ. eigenvalues --   -0.64125  -0.62043  -0.60672  -0.59305  -0.55603
 Alpha  occ. eigenvalues --   -0.53690  -0.52604  -0.50863  -0.47771  -0.47591
 Alpha  occ. eigenvalues --   -0.46360  -0.45337  -0.40502
 Alpha virt. eigenvalues --    0.03298   0.04453   0.04601   0.04962   0.06146
 Alpha virt. eigenvalues --    0.06256   0.06615   0.06903   0.07237   0.08920
 Alpha virt. eigenvalues --    0.09114   0.09678   0.10125   0.10900   0.11678

 Mulliken charges:
               1
     1  Si  -0.587329
     2  C    0.097385
     3  O   -0.613638
     4  O   -0.711963
     5  C    0.930501
     6  H   -0.260858
     7  H   -0.066751
     8  H   -0.155704
     9  C    0.881849
    10  H   -0.232787
    11  H   -0.071158
    12  H   -0.106060
    13  C    0.526610
    14  H   -0.039294
    15  H   -0.062029
    16  H   -0.084853
    17  H    0.191408
    18  H    0.104298
    19  H    0.260373
 Sum of Mulliken charges =  -0.00000

 Dipole moment (field-independent basis, Debye):
    X=             -0.7924    Y=              0.1856    Z=              0.0956  Tot=              0.8194

 Test job not archived.
 1\1\GINC-SE335\SP\RHF\Aug-CC-pVDZ\C4H12O2Si1\OHZDE\08-Apr-2025\0\\#t h
 f aug-cc-pvdz iop(5/13=1,5/36=2,99/5=2) pseudo=read geom=check guess=(
 read,tcheck) scf=(maxcycle=1)\\title\\0,1\Si,0,1.780073,-0.472755,-0.4
 5963\C,0,0.003264,-0.224723,0.260026\O,0,-0.817184,-0.417057,-0.892511
 \O,0,-0.234835,1.04414,0.857505\C,0,-2.229556,-0.454158,-0.679399\H,0,
 -2.68723,-0.361752,-1.664313\H,0,-2.557207,0.376059,-0.047252\H,0,-2.5
 47341,-1.400803,-0.229213\C,0,0.047163,2.181905,0.050246\H,0,-0.347608
 ,3.045011,0.586307\H,0,-0.433637,2.108573,-0.92944\H,0,1.126577,2.3219

 Normal termination of Gaussian 16 at Tue Apr  8 23:58:16 2025.
