 Gaussian 16, Revision C.01,

 ----------------------------------------------------------------------
 #t hf aug-cc-pvdz symm=none int=(grid=ultrafine) guess=(read,tcheck) s
 table=opt
 ----------------------------------------------------------------------
 -----
 title
 -----
 Symbolic Z-matrix:
 Charge =  0 Multiplicity = 2

 SCF Done:  E(UHF) =  -218.829678738     A.U. after   15 cycles
 Normal termination of Gaussian 16 at Wed Apr  9 00:28:43 2025.
 Gaussian 16:  ES64L-G16RevC.01  3-Jul-2019

 ----------------------------------------------------------------------
 #t hf aug-cc-pvdz iop(5/13=1,5/36=2,99/5=2) pseudo=read geom=check gue
 ss=(read,tcheck) scf=(maxcycle=1)
 ----------------------------------------------------------------------
 -----
 title
 -----
 Structure from the checkpoint file:  "BDE49_nonexpt_352_mol2.chk"
 Charge =  0 Multiplicity = 2

                         Standard orientation:
 ---------------------------------------------------------------------
 Center     Atomic      Atomic             Coordinates (Angstroms)
 Number     Number       Type             X           Y           Z
 ---------------------------------------------------------------------
      1          9           0       -1.557625   -0.449655    0.000000
      2          7           0        0.550585    0.673116    0.000000
      3          5           0       -0.836145    0.675679    0.000000
      4          6           0        1.407246   -0.517029    0.000000
      5          1           0        1.038014    1.555705    0.000000
      6          1           0        0.773925   -1.403262   -0.000001
      7          1           0        2.044917   -0.546788    0.888515
      8          1           0        2.044917   -0.546787   -0.888515
 ---------------------------------------------------------------------

 SCF Done:  E(UHF) =  -218.911749465     A.U. after    2 cycles

 The electronic state is 2-A.
 Alpha  occ. eigenvalues --  -26.11666 -15.63170 -11.27768  -7.68719  -1.65792
 Alpha  occ. eigenvalues --   -1.16946  -0.92778  -0.82688  -0.76128  -0.72612
 Alpha  occ. eigenvalues --   -0.67892  -0.63197  -0.60559  -0.54867  -0.40993
 Alpha  occ. eigenvalues --   -0.35984
 Alpha virt. eigenvalues --    0.03148   0.04575   0.04681   0.05951   0.07748
 Alpha virt. eigenvalues --    0.07770   0.08115   0.10324   0.13792   0.15593
 Alpha virt. eigenvalues --    0.15647   0.16727   0.17563   0.18862   0.19393

  Beta  occ. eigenvalues --  -26.11307 -15.63168 -11.27641  -7.66619  -1.64706
  Beta  occ. eigenvalues --   -1.16606  -0.92022  -0.81592  -0.73692  -0.72329
  Beta  occ. eigenvalues --   -0.66696  -0.61711  -0.60743  -0.54597  -0.41534
  Beta virt. eigenvalues --    0.03024   0.04243   0.04674   0.05327   0.07803
  Beta virt. eigenvalues --    0.07914   0.08022   0.08788   0.13538   0.14710
  Beta virt. eigenvalues --    0.15661   0.16291   0.17933   0.18453   0.19933

 Mulliken charges and spin densities:
               1          2
     1  F   -0.386576  -0.037591
     2  N   -0.203335  -0.051603
     3  B    0.251171   1.083713
     4  C    0.777159   0.017513
     5  H   -0.042465   0.000090
     6  H   -0.167122  -0.005917
     7  H   -0.114416  -0.003103
     8  H   -0.114416  -0.003103
 Sum of Mulliken charges =  -0.00000   1.00000

 Dipole moment (field-independent basis, Debye):
    X=              2.7349    Y=              0.5512    Z=             -0.0000  Tot=              2.7899
                          Isotropic Fermi Contact Couplings
        Atom                 a.u.       MegaHertz       Gauss      10(-4) cm-1
     1  F(19)              0.08904     374.64788     133.68368     124.96908
     2  N(14)              0.07285      23.53825       8.39903       7.85152
     3  B(11)              0.41526     595.64166     212.53976     198.68467
     4  C(13)              0.02410      27.09011       9.66643       9.03629
     5  H(1)               0.00281      12.56549       4.48368       4.19140
     6  H(1)              -0.00086      -3.83638      -1.36892      -1.27968
     7  H(1)              -0.00120      -5.38183      -1.92037      -1.79519
     8  H(1)              -0.00120      -5.38183      -1.92037      -1.79519

 Normal termination of Gaussian 16 at Wed Apr  9 00:28:46 2025.
