 Gaussian 16, Revision C.01,

 ----------------------------------------------------------------------
 #t hf aug-cc-pvdz symm=none int=(grid=ultrafine) guess=(read,tcheck) s
 table=(opt,rrhf)
 ----------------------------------------------------------------------
 -----
 title
 -----
 Symbolic Z-matrix:
 Charge =  0 Multiplicity = 1

 SCF Done:  E(RHF) =  -500.786351741     A.U. after   14 cycles
 Normal termination of Gaussian 16 at Tue Apr  8 22:46:27 2025.
 Gaussian 16:  ES64L-G16RevC.01  3-Jul-2019

 ----------------------------------------------------------------------
 #t hf aug-cc-pvdz iop(5/13=1,5/36=2,99/5=2) pseudo=read geom=check gue
 ss=(read,tcheck) scf=(maxcycle=1)
 ----------------------------------------------------------------------
 -----
 title
 -----
 Structure from the checkpoint file:  "BDE49_expt_1433_mol1.chk"
 Charge =  0 Multiplicity = 1

                         Standard orientation:
 ---------------------------------------------------------------------
 Center     Atomic      Atomic             Coordinates (Angstroms)
 Number     Number       Type             X           Y           Z
 ---------------------------------------------------------------------
      1          6           0       -2.070615   -0.650982    0.378028
      2          8           0       -1.553652    0.280363   -0.586582
      3          6           0        0.819016    0.409115    0.007264
      4          6           0        1.207344   -0.537815   -0.945809
      5          6           0        1.691752    0.702361    1.057446
      6          6           0        2.931937    0.072734    1.152079
      7          6           0        3.311029   -0.866536    0.196382
      8          6           0        2.443282   -1.171451   -0.851808
      9          1           0        0.527003   -0.779452   -1.754173
     10          1           0        2.730641   -1.905393   -1.596918
     11          1           0        1.398249    1.427936    1.810424
     12          1           0        3.597038    0.310338    1.975093
     13          1           0        4.272944   -1.361472    0.269747
     14          6           0       -0.512568    1.138637   -0.124375
     15          6           0       -0.434191    2.294036   -1.122245
     16          1           0       -0.775896    1.547019    0.861501
     17          1           0        0.346263    3.001746   -0.833594
     18          1           0       -1.392788    2.815859   -1.164530
     19          1           0       -0.202937    1.912353   -2.119444
     20          6           0       -2.648901   -1.817460   -0.413108
     21          6           0       -3.118446    0.020506    1.267858
     22          1           0       -1.242418   -1.015592    1.000337
     23          1           0       -3.954922    0.375954    0.659975
     24          1           0       -2.701274    0.874708    1.806916
     25          1           0       -3.503432   -0.683918    2.010935
     26          1           0       -3.422728   -1.458419   -1.097151
     27          1           0       -3.094224   -2.558479    0.256080
     28          1           0       -1.870133   -2.304968   -1.002803
 ---------------------------------------------------------------------

 SCF Done:  E(RHF) =  -500.938800900     A.U. after    2 cycles

 The electronic state is 1-A.
 Alpha  occ. eigenvalues --  -20.56256 -11.29465 -11.28648 -11.24574 -11.24508
 Alpha  occ. eigenvalues --  -11.24412 -11.24252 -11.24194 -11.23853 -11.22353
 Alpha  occ. eigenvalues --  -11.22341 -11.22049  -1.32602  -1.14374  -1.06471
 Alpha  occ. eigenvalues --   -1.01971  -1.00766  -0.97388  -0.93186  -0.86016
 Alpha  occ. eigenvalues --   -0.82945  -0.80859  -0.77873  -0.70550  -0.68715
 Alpha  occ. eigenvalues --   -0.65219  -0.63171  -0.62003  -0.61694  -0.58861
 Alpha  occ. eigenvalues --   -0.58265  -0.56718  -0.55822  -0.54226  -0.53705
 Alpha  occ. eigenvalues --   -0.52148  -0.51332  -0.50537  -0.49491  -0.48539
 Alpha  occ. eigenvalues --   -0.47915  -0.46045  -0.42684  -0.33934  -0.33179
 Alpha virt. eigenvalues --    0.03154   0.03850   0.04068   0.04626   0.05361
 Alpha virt. eigenvalues --    0.05426   0.05923   0.06346   0.06873   0.07087
 Alpha virt. eigenvalues --    0.07870   0.08487   0.08837   0.09238   0.09528

 Mulliken charges:
               1
     1  C   -0.390865
     2  O   -0.722446
     3  C    0.442369
     4  C    0.375209
     5  C    0.529006
     6  C    0.360002
     7  C    0.858493
     8  C    0.225049
     9  H   -0.655746
    10  H   -0.475542
    11  H   -0.624050
    12  H   -0.475294
    13  H   -0.459101
    14  C    0.132916
    15  C    0.587548
    16  H   -0.197516
    17  H   -0.056195
    18  H   -0.130592
    19  H   -0.022198
    20  C    0.560089
    21  C    0.574939
    22  H   -0.108543
    23  H    0.016225
    24  H   -0.150529
    25  H   -0.037204
    26  H   -0.027388
    27  H   -0.027459
    28  H   -0.101178
 Sum of Mulliken charges =  -0.00000

 Dipole moment (field-independent basis, Debye):
    X=              0.2203    Y=             -0.0908    Z=              1.2198  Tot=              1.2428

 Test job not archived.
 1\1\GINC-SE109\SP\RHF\Aug-CC-pVDZ\C11H16O1\OHZDE\08-Apr-2025\0\\#t hf
 aug-cc-pvdz iop(5/13=1,5/36=2,99/5=2) pseudo=read geom=check guess=(re
 ad,tcheck) scf=(maxcycle=1)\\title\\0,1\C,0,-2.070615,-0.650982,0.3780
 28\O,0,-1.553652,0.280363,-0.586582\C,0,0.819016,0.409115,0.007264\C,0
 ,1.207344,-0.537815,-0.945809\C,0,1.691752,0.702361,1.057446\C,0,2.931
 937,0.072734,1.152079\C,0,3.311029,-0.866536,0.196382\C,0,2.443282,-1.
 171451,-0.851808\H,0,0.527003,-0.779452,-1.754173\H,0,2.730641,-1.9053
 93,-1.596918\H,0,1.398249,1.427936,1.810424\H,0,3.597038,0.310338,1.97

 Normal termination of Gaussian 16 at Tue Apr  8 22:46:54 2025.
