 Gaussian 16, Revision C.01,

 ----------------------------------------------------------------------
 #t hf aug-cc-pvdz symm=none int=(grid=ultrafine) guess=(read,tcheck) s
 table=(opt,rrhf)
 ----------------------------------------------------------------------
 -----
 title
 -----
 Symbolic Z-matrix:
 Charge =  0 Multiplicity = 1

 SCF Done:  E(RHF) =  -924.875171660     A.U. after   13 cycles
 Normal termination of Gaussian 16 at Tue Apr  8 23:14:09 2025.
 Gaussian 16:  ES64L-G16RevC.01  3-Jul-2019

 ----------------------------------------------------------------------
 #t hf aug-cc-pvdz iop(5/13=1,5/36=2,99/5=2) pseudo=read geom=check gue
 ss=(read,tcheck) scf=(maxcycle=1)
 ----------------------------------------------------------------------
 -----
 title
 -----
 Structure from the checkpoint file:  "BDE49_nonexpt_100_mol1.chk"
 Charge =  0 Multiplicity = 1

                         Standard orientation:
 ---------------------------------------------------------------------
 Center     Atomic      Atomic             Coordinates (Angstroms)
 Number     Number       Type             X           Y           Z
 ---------------------------------------------------------------------
      1          5           0       -0.597065   -0.581303    1.049281
      2          5           0        0.597088    0.581115    1.049376
      3         16           0        2.090659    0.544959    0.090853
      4         16           0       -2.090694   -0.544940    0.090856
      5          6           0        2.058801   -1.020527   -0.871261
      6          1           0        2.946135   -1.028163   -1.503697
      7          1           0        1.169075   -1.070052   -1.497129
      8          1           0        2.088843   -1.876300   -0.198114
      9          6           0       -2.058737    1.020600   -0.871167
     10          1           0       -2.946112    1.028366   -1.503544
     11          1           0       -1.169048    1.070069   -1.497091
     12          1           0       -2.088646    1.876338   -0.197970
     13          1           0        0.538083    1.564501    1.725691
     14          1           0       -0.538272   -1.564573    1.725784
 ---------------------------------------------------------------------

 SCF Done:  E(RHF) =  -924.956170089     A.U. after    2 cycles

 The electronic state is 1-A.
 Alpha  occ. eigenvalues --  -93.53526 -93.53526 -11.27264 -11.27263  -8.83442
 Alpha  occ. eigenvalues --   -8.83442  -7.62022  -7.61943  -6.17581  -6.17579
 Alpha  occ. eigenvalues --   -6.17348  -6.17332  -6.17188  -6.17162  -1.03406
 Alpha  occ. eigenvalues --   -1.02713  -0.88114  -0.87285  -0.69277  -0.62036
 Alpha  occ. eigenvalues --   -0.60354  -0.60039  -0.59416  -0.59362  -0.52478
 Alpha  occ. eigenvalues --   -0.48253  -0.47439  -0.44649  -0.39113  -0.37631
 Alpha  occ. eigenvalues --   -0.37590
 Alpha virt. eigenvalues --    0.03014   0.04420   0.04562   0.04746   0.06100
 Alpha virt. eigenvalues --    0.06160   0.06571   0.06572   0.06834   0.08604
 Alpha virt. eigenvalues --    0.08889   0.09098   0.09692   0.10448   0.11287

 Mulliken charges:
               1
     1  B    0.032075
     2  B    0.032134
     3  S   -0.055943
     4  S   -0.055931
     5  C    0.128181
     6  H   -0.159568
     7  H   -0.133946
     8  H   -0.097096
     9  C    0.128183
    10  H   -0.159577
    11  H   -0.133950
    12  H   -0.097081
    13  H    0.286276
    14  H    0.286242
 Sum of Mulliken charges =  -0.00000

 Dipole moment (field-independent basis, Debye):
    X=              0.0002    Y=             -0.0001    Z=             -1.3823  Tot=              1.3823

 Test job not archived.
 1\1\GINC-SE339\SP\RHF\Aug-CC-pVDZ\C2H8B2S2\OHZDE\08-Apr-2025\0\\#t hf
 aug-cc-pvdz iop(5/13=1,5/36=2,99/5=2) pseudo=read geom=check guess=(re
 ad,tcheck) scf=(maxcycle=1)\\title\\0,1\B,0,-0.597065,-0.581303,1.0492
 81\B,0,0.597088,0.581115,1.049376\S,0,2.090659,0.544959,0.090853\S,0,-
 2.090694,-0.54494,0.090856\C,0,2.058801,-1.020527,-0.871261\H,0,2.9461
 35,-1.028163,-1.503697\H,0,1.169075,-1.070052,-1.497129\H,0,2.088843,-
 1.8763,-0.198114\C,0,-2.058737,1.0206,-0.871167\H,0,-2.946112,1.028366
 ,-1.503544\H,0,-1.169048,1.070069,-1.497091\H,0,-2.088646,1.876338,-0.

 Normal termination of Gaussian 16 at Tue Apr  8 23:14:14 2025.
