 Gaussian 16, Revision C.01,

 ----------------------------------------------------------------------
 #t hf aug-cc-pvdz symm=none int=(grid=ultrafine) guess=(read,tcheck) s
 table=(opt,rrhf)
 ----------------------------------------------------------------------
 -----
 title
 -----
 Symbolic Z-matrix:
 Charge =  0 Multiplicity = 1

 SCF Done:  E(RHF) =  -554.913239672     A.U. after   12 cycles
 Normal termination of Gaussian 16 at Tue Apr  8 23:48:20 2025.
 Gaussian 16:  ES64L-G16RevC.01  3-Jul-2019

 ----------------------------------------------------------------------
 #t hf aug-cc-pvdz iop(5/13=1,5/36=2,99/5=2) pseudo=read geom=check gue
 ss=(read,tcheck) scf=(maxcycle=1)
 ----------------------------------------------------------------------
 -----
 title
 -----
 Structure from the checkpoint file:  "BDE49_nonexpt_1863_mol1.chk"
 Charge =  0 Multiplicity = 1

                         Standard orientation:
 ---------------------------------------------------------------------
 Center     Atomic      Atomic             Coordinates (Angstroms)
 Number     Number       Type             X           Y           Z
 ---------------------------------------------------------------------
      1          6           0        0.389847    0.014464   -0.020391
      2         14           0       -1.531811   -0.019877    0.003859
      3          8           0        0.803860    1.302581   -0.386190
      4          1           0        1.697374    1.219703   -0.750121
      5          8           0        0.875388   -0.938605   -0.929407
      6          1           0        1.497969   -1.489411   -0.436859
      7          8           0        0.944095   -0.350188    1.241109
      8          1           0        0.972138    0.449501    1.778258
      9          1           0       -2.017252    0.976628    0.987404
     10          1           0       -1.960294   -1.371681    0.421369
     11          1           0       -2.070414    0.296456   -1.335825
 ---------------------------------------------------------------------

 SCF Done:  E(RHF) =  -555.021117195     A.U. after    2 cycles

 The electronic state is 1-A.
 Alpha  occ. eigenvalues --  -69.06729 -20.60084 -20.59842 -20.59694 -11.40183
 Alpha  occ. eigenvalues --   -6.82089  -3.92870  -3.92856  -3.92851  -1.42340
 Alpha  occ. eigenvalues --   -1.32032  -1.31462  -0.90616  -0.78077  -0.75473
 Alpha  occ. eigenvalues --   -0.73154  -0.65727  -0.63869  -0.59125  -0.57961
 Alpha  occ. eigenvalues --   -0.54368  -0.52057  -0.48334  -0.48190  -0.43361
 Alpha virt. eigenvalues --    0.03097   0.04714   0.05134   0.05418   0.07162
 Alpha virt. eigenvalues --    0.07361   0.07830   0.09497   0.09788   0.13318
 Alpha virt. eigenvalues --    0.14754   0.15390   0.15900   0.17098   0.18996

 Mulliken charges:
               1
     1  C    0.997427
     2  Si   0.395506
     3  O   -0.549873
     4  H    0.129420
     5  O   -0.591900
     6  H    0.173748
     7  O   -0.606462
     8  H    0.146229
     9  H   -0.036749
    10  H   -0.026195
    11  H   -0.031151
 Sum of Mulliken charges =  -0.00000

 Dipole moment (field-independent basis, Debye):
    X=              1.1894    Y=              0.2909    Z=              0.9629  Tot=              1.5577

 Test job not archived.
 1\1\GINC-SE074\SP\RHF\Aug-CC-pVDZ\C1H6O3Si1\OHZDE\08-Apr-2025\0\\#t hf
  aug-cc-pvdz iop(5/13=1,5/36=2,99/5=2) pseudo=read geom=check guess=(r
 ead,tcheck) scf=(maxcycle=1)\\title\\0,1\C,0,0.389847,0.014464,-0.0203
 91\Si,0,-1.531811,-0.019877,0.003859\O,0,0.80386,1.302581,-0.38619\H,0
 ,1.697374,1.219703,-0.750121\O,0,0.875388,-0.938605,-0.929407\H,0,1.49
 7969,-1.489411,-0.436859\O,0,0.944095,-0.350188,1.241109\H,0,0.972138,
 0.449501,1.778258\H,0,-2.017252,0.976628,0.987404\H,0,-1.960294,-1.371
 681,0.421369\H,0,-2.070414,0.296456,-1.335825\\Version=ES64L-G16RevC.0

 Normal termination of Gaussian 16 at Tue Apr  8 23:48:23 2025.
