 Gaussian 16, Revision C.01,

 ----------------------------------------------------------------------
 #t hf aug-cc-pvdz symm=none int=(grid=ultrafine) guess=(read,tcheck) s
 table=(opt,rrhf)
 ----------------------------------------------------------------------
 -----
 title
 -----
 Symbolic Z-matrix:
 Charge =  0 Multiplicity = 1

 SCF Done:  E(RHF) =  -2455.33302350     A.U. after   15 cycles
 Normal termination of Gaussian 16 at Tue Apr  8 23:43:48 2025.
 Gaussian 16:  ES64L-G16RevC.01  3-Jul-2019

 ----------------------------------------------------------------------
 #t hf aug-cc-pvdz iop(5/13=1,5/36=2,99/5=2) pseudo=read geom=check gue
 ss=(read,tcheck) scf=(maxcycle=1)
 ----------------------------------------------------------------------
 -----
 title
 -----
 Structure from the checkpoint file:  "BDE49_nonexpt_1727_mol1.chk"
 Charge =  0 Multiplicity = 1

                         Standard orientation:
 ---------------------------------------------------------------------
 Center     Atomic      Atomic             Coordinates (Angstroms)
 Number     Number       Type             X           Y           Z
 ---------------------------------------------------------------------
      1         16           0       -0.782496    1.213204   -0.271239
      2         15           0       -2.446420   -0.063980    0.004675
      3          8           0       -3.481101    0.854321    0.486600
      4          8           0       -1.980461   -1.308852    0.864157
      5          8           0        0.412451    0.061748   -0.811002
      6          6           0        1.558652   -0.055408   -0.093022
      7         17           0        2.540569   -1.268174   -0.951669
      8         17           0        1.279175   -0.631712    1.622311
      9         17           0        2.466657    1.506889    0.006537
     10          1           0       -1.510694   -1.069163    1.673442
     11          8           0       -2.731339   -0.860612   -1.338700
     12          1           0       -3.250210   -0.341842   -1.966076
 ---------------------------------------------------------------------

 SCF Done:  E(RHF) =  -2455.58489366     A.U. after    2 cycles

 The electronic state is 1-A.
 Alpha  occ. eigenvalues -- -103.70272-103.70268-103.70102 -93.63974 -81.46783
 Alpha  occ. eigenvalues --  -20.67983 -20.64933 -20.64845 -20.56040 -11.52313
 Alpha  occ. eigenvalues --  -10.73594 -10.73576 -10.73418  -8.93184  -8.39312
 Alpha  occ. eigenvalues --   -8.39287  -8.39130  -8.38978  -8.38958  -8.38956
 Alpha  occ. eigenvalues --   -8.38954  -8.38799  -8.38788  -7.94940  -6.27356
 Alpha  occ. eigenvalues --   -6.26964  -6.26613  -5.09600  -5.09467  -5.09132
 Alpha  occ. eigenvalues --   -1.44315  -1.41730  -1.38100  -1.29565  -1.24413
 Alpha  occ. eigenvalues --   -1.17403  -1.16935  -1.01822  -0.89270  -0.85725
 Alpha  occ. eigenvalues --   -0.76443  -0.75238  -0.72548  -0.72133  -0.70056
 Alpha  occ. eigenvalues --   -0.68162  -0.66054  -0.62196  -0.61160  -0.58552
 Alpha  occ. eigenvalues --   -0.58329  -0.54386  -0.52734  -0.52470  -0.51654
 Alpha  occ. eigenvalues --   -0.51367  -0.49055  -0.48827  -0.47744  -0.47203
 Alpha  occ. eigenvalues --   -0.42574
 Alpha virt. eigenvalues --    0.03151   0.04285   0.05071   0.06023   0.07637
 Alpha virt. eigenvalues --    0.08538   0.08716   0.09530   0.09755   0.11062
 Alpha virt. eigenvalues --    0.11360   0.11732   0.12995   0.13881   0.14313

 Mulliken charges:
               1
     1  S    0.242175
     2  P    2.124488
     3  O   -0.849674
     4  O   -0.678179
     5  O   -0.606331
     6  C   -0.223625
     7  Cl   0.104897
     8  Cl   0.055650
     9  Cl   0.106567
    10  H    0.196715
    11  O   -0.640165
    12  H    0.167483
 Sum of Mulliken charges =  -0.00000

 Dipole moment (field-independent basis, Debye):
    X=              0.7050    Y=             -0.1188    Z=             -0.6575  Tot=              0.9713

 Test job not archived.
 1\1\GINC-SE105\SP\RHF\Aug-CC-pVDZ\C1H2Cl3O4P1S1\OHZDE\08-Apr-2025\0\\#
 t hf aug-cc-pvdz iop(5/13=1,5/36=2,99/5=2) pseudo=read geom=check gues
 s=(read,tcheck) scf=(maxcycle=1)\\title\\0,1\S,0,-0.782496,1.213204,-0
 .271239\P,0,-2.44642,-0.06398,0.004675\O,0,-3.481101,0.854321,0.4866\O
 ,0,-1.980461,-1.308852,0.864157\O,0,0.412451,0.061748,-0.811002\C,0,1.
 558652,-0.055408,-0.093022\Cl,0,2.540569,-1.268174,-0.951669\Cl,0,1.27
 9175,-0.631712,1.622311\Cl,0,2.466657,1.506889,0.006537\H,0,-1.510694,
 -1.069163,1.673442\O,0,-2.731339,-0.860612,-1.3387\H,0,-3.25021,-0.341

 Normal termination of Gaussian 16 at Tue Apr  8 23:43:57 2025.
