 Gaussian 16, Revision C.01,

 ----------------------------------------------------------------------
 #t hf aug-cc-pvdz symm=none int=(grid=ultrafine) guess=(read,tcheck) s
 table=opt
 ----------------------------------------------------------------------
 -----
 title
 -----
 Symbolic Z-matrix:
 Charge =  0 Multiplicity = 2

 SCF Done:  E(UHF) =  -721.515388871     A.U. after   17 cycles
 Normal termination of Gaussian 16 at Tue Apr  8 23:44:14 2025.
 Gaussian 16:  ES64L-G16RevC.01  3-Jul-2019

 ----------------------------------------------------------------------
 #t hf aug-cc-pvdz iop(5/13=1,5/36=2,99/5=2) pseudo=read geom=check gue
 ss=(read,tcheck) scf=(maxcycle=1)
 ----------------------------------------------------------------------
 -----
 title
 -----
 Structure from the checkpoint file:  "BDE49_nonexpt_175_mol2.chk"
 Charge =  0 Multiplicity = 2

                         Standard orientation:
 ---------------------------------------------------------------------
 Center     Atomic      Atomic             Coordinates (Angstroms)
 Number     Number       Type             X           Y           Z
 ---------------------------------------------------------------------
      1         17           0       -1.929686   -0.025580   -0.020243
      2          5           0       -0.382339   -0.771845   -0.092015
      3          6           0        0.972553   -0.062646    0.335492
      4          9           0        1.022248    1.238242   -0.117696
      5          9           0        2.066492   -0.715104   -0.175342
      6          1           0        1.082370   -0.038270    1.428593
 ---------------------------------------------------------------------

 SCF Done:  E(UHF) =  -721.624320109     A.U. after    2 cycles

 The electronic state is 2-A.
 Alpha  occ. eigenvalues -- -103.69753 -26.14396 -26.14273 -11.42456 -10.73257
 Alpha  occ. eigenvalues --   -8.38992  -8.38731  -8.38662  -7.72828  -1.70193
 Alpha  occ. eigenvalues --   -1.65927  -1.19666  -1.01223  -0.82742  -0.82032
 Alpha  occ. eigenvalues --   -0.81370  -0.73684  -0.70403  -0.70154  -0.64817
 Alpha  occ. eigenvalues --   -0.56327  -0.53899  -0.52586  -0.38229
 Alpha virt. eigenvalues --    0.02595   0.03554   0.05115   0.05511   0.06892
 Alpha virt. eigenvalues --    0.08763   0.11673   0.11928   0.14210   0.15060
 Alpha virt. eigenvalues --    0.16182   0.16830   0.19475   0.21308   0.23371

  Beta  occ. eigenvalues -- -103.69685 -26.14292 -26.14280 -11.42296 -10.73179
  Beta  occ. eigenvalues --   -8.38884  -8.38705  -8.38470  -7.70743  -1.70038
  Beta  occ. eigenvalues --   -1.65760  -1.18882  -1.00559  -0.81970  -0.81761
  Beta  occ. eigenvalues --   -0.80988  -0.73574  -0.70108  -0.68384  -0.63523
  Beta  occ. eigenvalues --   -0.54857  -0.52718  -0.50835
  Beta virt. eigenvalues --    0.02473   0.04303   0.04791   0.05350   0.06779
  Beta virt. eigenvalues --    0.08400   0.10421   0.11816   0.12658   0.14693
  Beta virt. eigenvalues --    0.15706   0.16298   0.16974   0.20259   0.21757

 Mulliken charges and spin densities:
               1          2
     1  Cl  -0.169346  -0.002874
     2  B    0.278176   1.003504
     3  C    0.879910   0.009925
     4  F   -0.402360   0.013543
     5  F   -0.369914  -0.016723
     6  H   -0.216466  -0.007375
 Sum of Mulliken charges =  -0.00000   1.00000

 Dipole moment (field-independent basis, Debye):
    X=             -1.2031    Y=             -0.8050    Z=              1.5248  Tot=              2.1025
                          Isotropic Fermi Contact Couplings
        Atom                 a.u.       MegaHertz       Gauss      10(-4) cm-1
     1  Cl(35)             0.06471      28.37332      10.12431       9.46432
     2  B(11)              0.35890     514.78731     183.68891     171.71456
     3  C(13)              0.04060      45.64419      16.28698      15.22526
     4  F(19)              0.01771      74.52213      26.59135      24.85791
     5  F(19)              0.00152       6.38646       2.27885       2.13029
     6  H(1)              -0.00023      -1.03187      -0.36820      -0.34419
 --------------------------------------------------------
       Center         ----  Spin Dipole Couplings  ----

 1\1\GINC-SE331\SP\UHF\Aug-CC-pVDZ\C1H1B1Cl1F2(2)\OHZDE\08-Apr-2025\0\\
 #t hf aug-cc-pvdz iop(5/13=1,5/36=2,99/5=2) pseudo=read geom=check gue
 ss=(read,tcheck) scf=(maxcycle=1)\\title\\0,2\Cl,0,-1.929686,-0.02558,
 -0.020243\B,0,-0.382339,-0.771845,-0.092015\C,0,0.972553,-0.062646,0.3
 35492\F,0,1.022248,1.238242,-0.117696\F,0,2.066492,-0.715104,-0.175342
 \H,0,1.08237,-0.03827,1.428593\\Version=ES64L-G16RevC.01\State=2-A\HF=
 -721.6243201\S2=0.754806\S2-1=0.\S2A=0.750016\RMSD=4.321e-03\Dipole=-0
 .4733209,-0.3167223,0.5999018\Quadrupole=-2.2121346,-1.1638157,3.37595

 Normal termination of Gaussian 16 at Tue Apr  8 23:44:16 2025.
