 Gaussian 16, Revision C.01,

 ----------------------------------------------------------------------
 #t hf aug-cc-pvdz symm=none int=(grid=ultrafine) guess=(read,tcheck) s
 table=(opt,rrhf)
 ----------------------------------------------------------------------
 -----
 title
 -----
 Symbolic Z-matrix:
 Charge =  0 Multiplicity = 1

 SCF Done:  E(RHF) =  -396.608658766     A.U. after   15 cycles
 Normal termination of Gaussian 16 at Tue Apr  8 22:42:52 2025.
 Gaussian 16:  ES64L-G16RevC.01  3-Jul-2019

 ----------------------------------------------------------------------
 #t hf aug-cc-pvdz iop(5/13=1,5/36=2,99/5=2) pseudo=read geom=check gue
 ss=(read,tcheck) scf=(maxcycle=1)
 ----------------------------------------------------------------------
 -----
 title
 -----
 Structure from the checkpoint file:  "BDE49_expt_1489_mol1.chk"
 Charge =  0 Multiplicity = 1

                         Standard orientation:
 ---------------------------------------------------------------------
 Center     Atomic      Atomic             Coordinates (Angstroms)
 Number     Number       Type             X           Y           Z
 ---------------------------------------------------------------------
      1          8           0        0.115700   -0.625566   -0.286518
      2          7           0        1.374969   -0.063217    0.040582
      3          8           0        1.395224    0.895010    0.777828
      4          8           0        2.286366   -0.646308   -0.474836
      5          6           0       -1.053897    0.062907    0.269817
      6          6           0       -1.389012    1.289724   -0.567031
      7          1           0       -0.575421    2.015453   -0.543927
      8          1           0       -2.284756    1.774888   -0.170274
      9          1           0       -1.582068    1.002804   -1.603640
     10          6           0       -2.140860   -1.002115    0.265541
     11          1           0       -0.806801    0.352517    1.292167
     12          1           0       -3.057251   -0.589308    0.694097
     13          1           0       -1.838512   -1.866920    0.858164
     14          1           0       -2.355676   -1.335103   -0.752419
 ---------------------------------------------------------------------

 SCF Done:  E(RHF) =  -396.733965330     A.U. after    2 cycles

 The electronic state is 1-A.
 Alpha  occ. eigenvalues --  -20.67482 -20.64246 -20.64235 -15.98549 -11.32930
 Alpha  occ. eigenvalues --  -11.25253 -11.24745  -1.60697  -1.41271  -1.38142
 Alpha  occ. eigenvalues --   -1.08616  -0.96388  -0.92518  -0.83626  -0.80802
 Alpha  occ. eigenvalues --   -0.78256  -0.76764  -0.65967  -0.65362  -0.61168
 Alpha  occ. eigenvalues --   -0.58032  -0.57114  -0.55004  -0.54236  -0.53436
 Alpha  occ. eigenvalues --   -0.51497  -0.50369  -0.49342
 Alpha virt. eigenvalues --    0.03035   0.04229   0.04537   0.05490   0.06995
 Alpha virt. eigenvalues --    0.07158   0.07352   0.09049   0.10768   0.12061
 Alpha virt. eigenvalues --    0.13165   0.14130   0.14723   0.15817   0.16315

 Mulliken charges:
               1
     1  O   -0.571630
     2  N    0.814445
     3  O   -0.432586
     4  O   -0.453158
     5  C   -0.039676
     6  C    0.328752
     7  H   -0.050063
     8  H    0.007840
     9  H    0.028070
    10  C    0.516578
    11  H   -0.097232
    12  H    0.008022
    13  H   -0.057561
    14  H   -0.001800
 Sum of Mulliken charges =  -0.00000

 Dipole moment (field-independent basis, Debye):
    X=             -4.0445    Y=              0.4488    Z=              0.4580  Tot=              4.0950

 Test job not archived.
 1\1\GINC-SE342\SP\RHF\Aug-CC-pVDZ\C3H7N1O3\OHZDE\08-Apr-2025\0\\#t hf
 aug-cc-pvdz iop(5/13=1,5/36=2,99/5=2) pseudo=read geom=check guess=(re
 ad,tcheck) scf=(maxcycle=1)\\title\\0,1\O,0,0.1157,-0.625566,-0.286518
 \N,0,1.374969,-0.063217,0.040582\O,0,1.395224,0.89501,0.777828\O,0,2.2
 86366,-0.646308,-0.474836\C,0,-1.053897,0.062907,0.269817\C,0,-1.38901
 2,1.289724,-0.567031\H,0,-0.575421,2.015453,-0.543927\H,0,-2.284756,1.
 774888,-0.170274\H,0,-1.582068,1.002804,-1.60364\C,0,-2.14086,-1.00211
 5,0.265541\H,0,-0.806801,0.352517,1.292167\H,0,-3.057251,-0.589308,0.6

 Normal termination of Gaussian 16 at Tue Apr  8 22:42:56 2025.
