 Gaussian 16, Revision C.01,

 ----------------------------------------------------------------------
 #t hf aug-cc-pvdz symm=none int=(grid=ultrafine) guess=(read,tcheck) s
 table=(opt,rrhf)
 ----------------------------------------------------------------------
 -----
 title
 -----
 Symbolic Z-matrix:
 Charge =  0 Multiplicity = 1

 SCF Done:  E(RHF) =  -1448.69112154     A.U. after   15 cycles
 Normal termination of Gaussian 16 at Wed Apr  9 00:49:34 2025.
 Gaussian 16:  ES64L-G16RevC.01  3-Jul-2019

 ----------------------------------------------------------------------
 #t hf aug-cc-pvdz iop(5/13=1,5/36=2,99/5=2) pseudo=read geom=check gue
 ss=(read,tcheck) scf=(maxcycle=1)
 ----------------------------------------------------------------------
 -----
 title
 -----
 Structure from the checkpoint file:  "BDE49_nonexpt_909_mol1.chk"
 Charge =  0 Multiplicity = 1

                         Standard orientation:
 ---------------------------------------------------------------------
 Center     Atomic      Atomic             Coordinates (Angstroms)
 Number     Number       Type             X           Y           Z
 ---------------------------------------------------------------------
      1          6           0       -3.644745    0.381354    0.000009
      2          6           0       -2.995025    0.127536    1.206154
      3          6           0       -1.697373   -0.378272    1.210425
      4          6           0       -2.995044    0.127468   -1.206131
      5          6           0       -1.697392   -0.378339   -1.210395
      6          6           0       -1.045069   -0.624321    0.000017
      7          1           0       -4.655189    0.773753    0.000006
      8          1           0       -3.497329    0.321423    2.147003
      9          1           0       -1.189434   -0.580353    2.145427
     10          1           0       -3.497363    0.321303   -2.146984
     11          1           0       -1.189468   -0.580473   -2.145393
     12         16           0        0.604143   -1.348511    0.000024
     13          5           0        1.735611    0.070806   -0.000028
     14         16           0        3.531506   -0.239264    0.000011
     15         16           0        1.114189    1.778718   -0.000058
     16          1           0        3.486499   -1.584149    0.000042
     17          1           0        2.314714    2.386810   -0.000055
 ---------------------------------------------------------------------

 SCF Done:  E(RHF) =  -1448.81932805     A.U. after    2 cycles

 The electronic state is 1-A.
 Alpha  occ. eigenvalues --  -93.54518 -93.54446 -93.54424 -11.28757 -11.26092
 Alpha  occ. eigenvalues --  -11.26084 -11.25893 -11.25686 -11.25657  -8.84476
 Alpha  occ. eigenvalues --   -8.84374  -8.84335  -7.69797  -6.18653  -6.18574
 Alpha  occ. eigenvalues --   -6.18541  -6.18407  -6.18313  -6.18293  -6.18145
 Alpha  occ. eigenvalues --   -6.18101  -6.18029  -1.16096  -1.05472  -1.02470
 Alpha  occ. eigenvalues --   -1.00331  -0.95133  -0.93635  -0.84397  -0.81622
 Alpha  occ. eigenvalues --   -0.71539  -0.65616  -0.64775  -0.63460  -0.60589
 Alpha  occ. eigenvalues --   -0.59274  -0.58310  -0.52871  -0.52076  -0.51456
 Alpha  occ. eigenvalues --   -0.47324  -0.45681  -0.45020  -0.44350  -0.37347
 Alpha  occ. eigenvalues --   -0.36740  -0.35166  -0.34755
 Alpha virt. eigenvalues --    0.03252   0.04060   0.04186   0.05225   0.05408
 Alpha virt. eigenvalues --    0.06116   0.06976   0.07252   0.07877   0.08217
 Alpha virt. eigenvalues --    0.08971   0.09396   0.10684   0.11069   0.11667

 Mulliken charges:
               1
     1  C    0.543720
     2  C    0.374397
     3  C    0.422892
     4  C    0.374387
     5  C    0.422888
     6  C    0.068003
     7  H   -0.427424
     8  H   -0.452089
     9  H   -0.509415
    10  H   -0.452087
    11  H   -0.509417
    12  S    0.021289
    13  B    0.611838
    14  S   -0.291877
    15  S   -0.163443
    16  H    0.010296
    17  H   -0.043957
 Sum of Mulliken charges =  -0.00000

 Dipole moment (field-independent basis, Debye):
    X=             -1.4050    Y=              0.3296    Z=              0.0000  Tot=              1.4432

 Test job not archived.
 1\1\GINC-SE126\SP\RHF\Aug-CC-pVDZ\C6H7B1S3\OHZDE\09-Apr-2025\0\\#t hf
 aug-cc-pvdz iop(5/13=1,5/36=2,99/5=2) pseudo=read geom=check guess=(re
 ad,tcheck) scf=(maxcycle=1)\\title\\0,1\C,0,-3.644745,0.381354,0.00000
 9\C,0,-2.995025,0.127536,1.206154\C,0,-1.697373,-0.378272,1.210425\C,0
 ,-2.995044,0.127468,-1.206131\C,0,-1.697392,-0.378339,-1.210395\C,0,-1
 .045069,-0.624321,0.000017\H,0,-4.655189,0.773753,0.000006\H,0,-3.4973
 29,0.321423,2.147003\H,0,-1.189434,-0.580353,2.145427\H,0,-3.497363,0.
 321303,-2.146984\H,0,-1.189468,-0.580473,-2.145393\S,0,0.604143,-1.348

 Normal termination of Gaussian 16 at Wed Apr  9 00:49:45 2025.
