 Gaussian 16, Revision C.01,

 ----------------------------------------------------------------------
 #t hf aug-cc-pvdz symm=none int=(grid=ultrafine) guess=(read,tcheck) s
 table=(opt,rrhf)
 ----------------------------------------------------------------------
 -----
 title
 -----
 Symbolic Z-matrix:
 Charge =  0 Multiplicity = 1

 SCF Done:  E(RHF) =  -268.869850221     A.U. after   13 cycles
 Normal termination of Gaussian 16 at Tue Apr  8 22:46:46 2025.
 Gaussian 16:  ES64L-G16RevC.01  3-Jul-2019

 ----------------------------------------------------------------------
 #t hf aug-cc-pvdz iop(5/13=1,5/36=2,99/5=2) pseudo=read geom=check gue
 ss=(read,tcheck) scf=(maxcycle=1)
 ----------------------------------------------------------------------
 -----
 title
 -----
 Structure from the checkpoint file:  "BDE49_expt_164_mol1.chk"
 Charge =  0 Multiplicity = 1

                         Standard orientation:
 ---------------------------------------------------------------------
 Center     Atomic      Atomic             Coordinates (Angstroms)
 Number     Number       Type             X           Y           Z
 ---------------------------------------------------------------------
      1          6           0        0.055230    1.208633    0.094845
      2          6           0        1.323246    0.888342   -0.150261
      3          6           0        1.564945   -0.599356   -0.046272
      4          6           0        0.132168   -1.182646    0.017807
      5          1           0        2.137284   -0.832628    0.860519
      6          1           0        2.145663   -0.992538   -0.886639
      7          6           0       -0.788377   -0.008558    0.408060
      8          1           0        0.041261   -2.033688    0.694361
      9          1           0       -0.187223   -1.507550   -0.975293
     10          1           0       -0.351496    2.214229    0.109659
     11          1           0        2.114637    1.595934   -0.372188
     12          8           0       -1.997540   -0.102217   -0.353344
     13          1           0       -1.036085   -0.032770    1.481068
     14          1           0       -2.606988    0.568255   -0.029807
 ---------------------------------------------------------------------

 SCF Done:  E(RHF) =  -268.951854519     A.U. after    2 cycles

 The electronic state is 1-A.
 Alpha  occ. eigenvalues --  -20.56969 -11.29222 -11.24100 -11.23647 -11.23266
 Alpha  occ. eigenvalues --  -11.22783  -1.31827  -1.11805  -0.96595  -0.94241
 Alpha  occ. eigenvalues --   -0.78961  -0.74916  -0.70032  -0.68365  -0.61920
 Alpha  occ. eigenvalues --   -0.58231  -0.56217  -0.52452  -0.50123  -0.49559
 Alpha  occ. eigenvalues --   -0.47806  -0.45029  -0.35746
 Alpha virt. eigenvalues --    0.03437   0.04206   0.04598   0.05248   0.06369
 Alpha virt. eigenvalues --    0.06702   0.06943   0.07866   0.12317   0.12406
 Alpha virt. eigenvalues --    0.12812   0.14078   0.14406   0.14603   0.15679

 Mulliken charges:
               1
     1  C    0.226863
     2  C    0.179018
     3  C    0.231395
     4  C    0.193365
     5  H   -0.021074
     6  H   -0.047780
     7  C    0.441886
     8  H   -0.024933
     9  H   -0.048395
    10  H   -0.309913
    11  H   -0.293016
    12  O   -0.624523
    13  H   -0.044511
    14  H    0.141617
 Sum of Mulliken charges =  -0.00000

 Dipole moment (field-independent basis, Debye):
    X=              0.6420    Y=              0.9321    Z=              1.3096  Tot=              1.7309

 Test job not archived.
 1\1\GINC-SE423\SP\RHF\Aug-CC-pVDZ\C5H8O1\OHZDE\08-Apr-2025\0\\#t hf au
 g-cc-pvdz iop(5/13=1,5/36=2,99/5=2) pseudo=read geom=check guess=(read
 ,tcheck) scf=(maxcycle=1)\\title\\0,1\C,0,0.05523,1.208633,0.094845\C,
 0,1.323246,0.888342,-0.150261\C,0,1.564945,-0.599356,-0.046272\C,0,0.1
 32168,-1.182646,0.017807\H,0,2.137284,-0.832629,0.860519\H,0,2.145663,
 -0.992539,-0.886639\C,0,-0.788377,-0.008558,0.40806\H,0,0.041261,-2.03
 3688,0.694361\H,0,-0.187223,-1.50755,-0.975293\H,0,-0.351495,2.214229,
 0.109659\H,0,2.114637,1.595933,-0.372188\O,0,-1.99754,-0.102217,-0.353

 Normal termination of Gaussian 16 at Tue Apr  8 22:46:50 2025.
