 Gaussian 16, Revision C.01,

 ----------------------------------------------------------------------
 #t hf aug-cc-pvdz symm=none int=(grid=ultrafine) guess=(read,tcheck) s
 table=(opt,rrhf)
 ----------------------------------------------------------------------
 -----
 title
 -----
 Symbolic Z-matrix:
 Charge =  0 Multiplicity = 1

 SCF Done:  E(RHF) =  -1679.97600915     A.U. after   15 cycles
 Normal termination of Gaussian 16 at Wed Apr  9 00:13:28 2025.
 Gaussian 16:  ES64L-G16RevC.01  3-Jul-2019

 ----------------------------------------------------------------------
 #t hf aug-cc-pvdz iop(5/13=1,5/36=2,99/5=2) pseudo=read geom=check gue
 ss=(read,tcheck) scf=(maxcycle=1)
 ----------------------------------------------------------------------
 -----
 title
 -----
 Structure from the checkpoint file:  "BDE49_nonexpt_2437_mol1.chk"
 Charge =  0 Multiplicity = 1

                         Standard orientation:
 ---------------------------------------------------------------------
 Center     Atomic      Atomic             Coordinates (Angstroms)
 Number     Number       Type             X           Y           Z
 ---------------------------------------------------------------------
      1         14           0        1.112204    1.823350   -0.392495
      2         14           0       -1.111837    1.823418    0.392102
      3          6           0       -2.017916    0.302004   -0.375175
      4          1           0       -1.821709    3.021722   -0.111230
      5          1           0       -1.169516    1.775692    1.869423
      6          8           0       -2.088912    0.169382   -1.575300
      7         16           0       -2.718959   -0.865769    0.803283
      8          6           0       -3.438230   -2.104519   -0.323839
      9          1           0       -2.982772   -3.074578   -0.130760
     10          1           0       -3.218865   -1.778017   -1.341668
     11          1           0       -4.514623   -2.154742   -0.167097
     12          6           0        2.018415    0.302181    0.375096
     13          1           0        1.822078    3.021839    0.110383
     14          1           0        1.169582    1.775206   -1.869815
     15          8           0        2.090376    0.170429    1.575261
     16         16           0        2.717960   -0.866755   -0.803095
     17          6           0        3.437708   -2.104954    0.324322
     18          1           0        2.980245   -3.074591    0.133868
     19          1           0        3.221189   -1.776500    1.342135
     20          1           0        4.513647   -2.157151    0.165141
 ---------------------------------------------------------------------

 SCF Done:  E(RHF) =  -1680.15280600     A.U. after    2 cycles

 The electronic state is 1-A.
 Alpha  occ. eigenvalues --  -93.55364 -93.55364 -69.08819 -69.08818 -20.58805
 Alpha  occ. eigenvalues --  -20.58805 -11.37128 -11.37128 -11.27144 -11.27144
 Alpha  occ. eigenvalues --   -8.85228  -8.85228  -6.84231  -6.84228  -6.19357
 Alpha  occ. eigenvalues --   -6.19352  -6.19108  -6.19108  -6.18840  -6.18838
 Alpha  occ. eigenvalues --   -3.95018  -3.95007  -3.94972  -3.94958  -3.94955
 Alpha  occ. eigenvalues --   -3.94893  -1.37620  -1.37583  -1.04863  -1.04850
 Alpha  occ. eigenvalues --   -0.91700  -0.91449  -0.79967  -0.77438  -0.71958
 Alpha  occ. eigenvalues --   -0.69342  -0.65454  -0.65418  -0.61787  -0.60703
 Alpha  occ. eigenvalues --   -0.60606  -0.59627  -0.57692  -0.56911  -0.56820
 Alpha  occ. eigenvalues --   -0.56644  -0.50806  -0.49678  -0.47222  -0.46766
 Alpha  occ. eigenvalues --   -0.43092  -0.39722  -0.39105  -0.37402  -0.37307
 Alpha virt. eigenvalues --    0.03345   0.04071   0.04233   0.04768   0.05381
 Alpha virt. eigenvalues --    0.05865   0.06642   0.06712   0.06852   0.07335
 Alpha virt. eigenvalues --    0.07574   0.07914   0.08348   0.08691   0.08995

 Mulliken charges:
               1
     1  Si   0.072656
     2  Si   0.073044
     3  C    0.081687
     4  H    0.130261
     5  H    0.055604
     6  O   -0.551656
     7  S    0.322635
     8  C    0.033926
     9  H   -0.012552
    10  H   -0.112327
    11  H   -0.020535
    12  C    0.081840
    13  H    0.130272
    14  H    0.055742
    15  O   -0.551799
    16  S    0.322651
    17  C    0.033925
    18  H   -0.012566
    19  H   -0.112292
    20  H   -0.020516
 Sum of Mulliken charges =  -0.00000

 Dipole moment (field-independent basis, Debye):
    X=             -0.0012    Y=             -0.8723    Z=             -0.0000  Tot=              0.8723

 Test job not archived.
 1\1\GINC-SE460\SP\RHF\Aug-CC-pVDZ\C4H10O2S2Si2\OHZDE\09-Apr-2025\0\\#t
  hf aug-cc-pvdz iop(5/13=1,5/36=2,99/5=2) pseudo=read geom=check guess
 =(read,tcheck) scf=(maxcycle=1)\\title\\0,1\Si,0,-1.112204,1.82335,0.3
 92495\Si,0,1.111837,1.823418,-0.392102\C,0,2.017916,0.302004,0.375175\
 H,0,1.821709,3.021722,0.11123\H,0,1.169516,1.775692,-1.869423\O,0,2.08
 8912,0.169382,1.5753\S,0,2.718959,-0.865769,-0.803283\C,0,3.43823,-2.1
 04519,0.323839\H,0,2.982772,-3.074578,0.13076\H,0,3.218865,-1.778017,1
 .341668\H,0,4.514623,-2.154742,0.167097\C,0,-2.018415,0.302181,-0.3750

 Normal termination of Gaussian 16 at Wed Apr  9 00:13:41 2025.
