 Gaussian 16, Revision C.01,

 ----------------------------------------------------------------------
 #t hf aug-cc-pvdz symm=none int=(grid=ultrafine) guess=(read,tcheck) s
 table=(opt,rrhf)
 ----------------------------------------------------------------------
 -----
 title
 -----
 Symbolic Z-matrix:
 Charge =  0 Multiplicity = 1

 SCF Done:  E(RHF) =  -1287.24117980     A.U. after   12 cycles
 Normal termination of Gaussian 16 at Tue Apr  8 23:44:19 2025.
 Gaussian 16:  ES64L-G16RevC.01  3-Jul-2019

 ----------------------------------------------------------------------
 #t hf aug-cc-pvdz iop(5/13=1,5/36=2,99/5=2) pseudo=read geom=check gue
 ss=(read,tcheck) scf=(maxcycle=1)
 ----------------------------------------------------------------------
 -----
 title
 -----
 Structure from the checkpoint file:  "BDE49_nonexpt_1759_mol1.chk"
 Charge =  0 Multiplicity = 1

                         Standard orientation:
 ---------------------------------------------------------------------
 Center     Atomic      Atomic             Coordinates (Angstroms)
 Number     Number       Type             X           Y           Z
 ---------------------------------------------------------------------
      1         14           0       -1.398660    0.918018    0.120927
      2          6           0        0.406661    0.760960   -0.386286
      3          6           0        1.212439   -0.221672    0.444666
      4          1           0        0.846796   -1.241539    0.344881
      5          1           0        1.237547    0.049415    1.499023
      6         17           0        2.960666   -0.277849   -0.080589
      7         17           0       -2.365831   -0.918614   -0.091149
      8          1           0        0.840938    1.765087   -0.308659
      9          1           0        0.443959    0.482538   -1.443985
     10          1           0       -2.085793    1.886991   -0.753693
     11          1           0       -1.529002    1.309381    1.538717
 ---------------------------------------------------------------------

 SCF Done:  E(RHF) =  -1287.32693293     A.U. after    2 cycles

 The electronic state is 1-A.
 Alpha  occ. eigenvalues -- -103.65862-103.65065 -69.12406 -11.32036 -11.25670
 Alpha  occ. eigenvalues --  -10.69303 -10.68333  -8.34994  -8.34774  -8.34768
 Alpha  occ. eigenvalues --   -8.34046  -8.33764  -8.33757  -6.87279  -3.98137
 Alpha  occ. eigenvalues --   -3.97983  -3.97982  -1.16300  -1.14205  -1.02143
 Alpha  occ. eigenvalues --   -0.86321  -0.71226  -0.66960  -0.59000  -0.58512
 Alpha  occ. eigenvalues --   -0.56159  -0.53175  -0.52552  -0.50286  -0.46813
 Alpha  occ. eigenvalues --   -0.46251  -0.44910  -0.43773
 Alpha virt. eigenvalues --    0.03193   0.04535   0.04770   0.05159   0.06788
 Alpha virt. eigenvalues --    0.07351   0.07766   0.07946   0.09518   0.10195
 Alpha virt. eigenvalues --    0.12172   0.13084   0.13866   0.14288   0.14924

 Mulliken charges:
               1
     1  Si   0.797699
     2  C    0.111195
     3  C   -0.028700
     4  H   -0.006862
     5  H   -0.021344
     6  Cl  -0.187937
     7  Cl  -0.540303
     8  H   -0.098637
     9  H   -0.079103
    10  H    0.002834
    11  H    0.051158
 Sum of Mulliken charges =  -0.00000

 Dipole moment (field-independent basis, Debye):
    X=             -1.0594    Y=              1.7339    Z=              0.5042  Tot=              2.0935

 Test job not archived.
 1\1\GINC-SE423\SP\RHF\Aug-CC-pVDZ\C2H6Cl2Si1\OHZDE\08-Apr-2025\0\\#t h
 f aug-cc-pvdz iop(5/13=1,5/36=2,99/5=2) pseudo=read geom=check guess=(
 read,tcheck) scf=(maxcycle=1)\\title\\0,1\Si,0,-1.39866,0.918018,0.120
 927\C,0,0.406661,0.76096,-0.386286\C,0,1.212439,-0.221672,0.444666\H,0
 ,0.846796,-1.241539,0.344881\H,0,1.237547,0.049415,1.499023\Cl,0,2.960
 666,-0.277849,-0.080589\Cl,0,-2.365831,-0.918614,-0.091149\H,0,0.84093
 8,1.765087,-0.308659\H,0,0.443959,0.482538,-1.443985\H,0,-2.085793,1.8
 86991,-0.753693\H,0,-1.529002,1.309381,1.538717\\Version=ES64L-G16RevC

 Normal termination of Gaussian 16 at Tue Apr  8 23:44:23 2025.
