 Gaussian 16, Revision C.01,

 ----------------------------------------------------------------------
 #t hf aug-cc-pvdz symm=none int=(grid=ultrafine) guess=(read,tcheck) s
 table=(opt,rrhf)
 ----------------------------------------------------------------------
 -----
 title
 -----
 Symbolic Z-matrix:
 Charge =  0 Multiplicity = 1

 SCF Done:  E(RHF) =  -173.311179885     A.U. after   12 cycles
 Normal termination of Gaussian 16 at Tue Apr  8 22:36:29 2025.
 Gaussian 16:  ES64L-G16RevC.01  3-Jul-2019

 ----------------------------------------------------------------------
 #t hf aug-cc-pvdz iop(5/13=1,5/36=2,99/5=2) pseudo=read geom=check gue
 ss=(read,tcheck) scf=(maxcycle=1)
 ----------------------------------------------------------------------
 -----
 title
 -----
 Structure from the checkpoint file:  "BDE49_expt_1191_mol1.chk"
 Charge =  0 Multiplicity = 1

                         Standard orientation:
 ---------------------------------------------------------------------
 Center     Atomic      Atomic             Coordinates (Angstroms)
 Number     Number       Type             X           Y           Z
 ---------------------------------------------------------------------
      1          6           0       -0.544576   -0.517315   -0.053482
      2          6           0        0.598245    0.494098    0.033611
      3          7           0        1.897572   -0.178045   -0.094965
      4          1           0        0.489851    1.078653    0.963636
      5          1           0        0.508527    1.206292   -0.794367
      6          1           0        2.056797   -0.775691    0.711529
      7          1           0        2.648090    0.505724   -0.095635
      8          6           0       -1.928723    0.132062    0.018808
      9          1           0       -0.438575   -1.244819    0.761620
     10          1           0       -0.433501   -1.080739   -0.985091
     11          1           0       -2.063873    0.682966    0.954968
     12          1           0       -2.722324   -0.617076   -0.041196
     13          1           0       -2.077671    0.837938   -0.804336
 ---------------------------------------------------------------------

 SCF Done:  E(RHF) =  -173.367337501     A.U. after    2 cycles

 The electronic state is 1-A.
 Alpha  occ. eigenvalues --  -15.60350 -11.25509 -11.22499 -11.22279  -1.14449
 Alpha  occ. eigenvalues --   -1.02423  -0.89269  -0.79690  -0.65890  -0.62847
 Alpha  occ. eigenvalues --   -0.60154  -0.56621  -0.52983  -0.49459  -0.47806
 Alpha  occ. eigenvalues --   -0.47015  -0.38401
 Alpha virt. eigenvalues --    0.03587   0.04270   0.04563   0.05155   0.06943
 Alpha virt. eigenvalues --    0.07082   0.07677   0.08033   0.09917   0.12075
 Alpha virt. eigenvalues --    0.13804   0.15296   0.15620   0.16876   0.17324

 Mulliken charges:
               1
     1  C    0.070905
     2  C    0.701654
     3  N   -0.367921
     4  H   -0.141437
     5  H   -0.193459
     6  H    0.022015
     7  H   -0.024397
     8  C    0.294469
     9  H   -0.114526
    10  H   -0.056399
    11  H   -0.051251
    12  H   -0.086226
    13  H   -0.053426
 Sum of Mulliken charges =  -0.00000

 Dipole moment (field-independent basis, Debye):
    X=              0.0088    Y=              0.6767    Z=              1.1137  Tot=              1.3032

 Test job not archived.
 1\1\GINC-SE423\SP\RHF\Aug-CC-pVDZ\C3H9N1\OHZDE\08-Apr-2025\0\\#t hf au
 g-cc-pvdz iop(5/13=1,5/36=2,99/5=2) pseudo=read geom=check guess=(read
 ,tcheck) scf=(maxcycle=1)\\title\\0,1\C,0,0.544576,0.517315,-0.053482\
 C,0,-0.598245,-0.494098,0.033611\N,0,-1.897572,0.178045,-0.094965\H,0,
 -0.489851,-1.078653,0.963636\H,0,-0.508527,-1.206292,-0.794367\H,0,-2.
 056797,0.775691,0.711529\H,0,-2.64809,-0.505724,-0.095635\C,0,1.928723
 ,-0.132062,0.018808\H,0,0.438575,1.244819,0.76162\H,0,0.433501,1.08073
 9,-0.985091\H,0,2.063873,-0.682966,0.954968\H,0,2.722324,0.617076,-0.0

 Normal termination of Gaussian 16 at Tue Apr  8 22:36:32 2025.
