 Gaussian 16, Revision C.01,

 ----------------------------------------------------------------------
 #t hf aug-cc-pvdz symm=none int=(grid=ultrafine) guess=(read,tcheck) s
 table=(opt,rrhf)
 ----------------------------------------------------------------------
 -----
 title
 -----
 Symbolic Z-matrix:
 Charge =  0 Multiplicity = 1

 SCF Done:  E(RHF) =  -338.250266472     A.U. after   12 cycles
 Normal termination of Gaussian 16 at Wed Apr  9 00:32:45 2025.
 Gaussian 16:  ES64L-G16RevC.01  3-Jul-2019

 ----------------------------------------------------------------------
 #t hf aug-cc-pvdz iop(5/13=1,5/36=2,99/5=2) pseudo=read geom=check gue
 ss=(read,tcheck) scf=(maxcycle=1)
 ----------------------------------------------------------------------
 -----
 title
 -----
 Structure from the checkpoint file:  "BDE49_nonexpt_439_mol1.chk"
 Charge =  0 Multiplicity = 1

                         Standard orientation:
 ---------------------------------------------------------------------
 Center     Atomic      Atomic             Coordinates (Angstroms)
 Number     Number       Type             X           Y           Z
 ---------------------------------------------------------------------
      1          5           0       -0.530652   -0.025537   -0.000003
      2          9           0       -1.670640   -0.704698    0.000006
      3          9           0       -0.603139    1.308317   -0.000008
      4          8           0        0.630390   -0.690438    0.000003
      5          6           0        1.898676   -0.027174    0.000001
      6          1           0        2.449459   -0.338142    0.888891
      7          1           0        1.783176    1.057964   -0.000011
      8          1           0        2.449464   -0.338161   -0.888880
 ---------------------------------------------------------------------

 SCF Done:  E(RHF) =  -338.384081293     A.U. after    2 cycles

 The electronic state is 1-A.
 Alpha  occ. eigenvalues --  -26.13959 -26.13185 -20.60602 -11.31261  -7.76151
 Alpha  occ. eigenvalues --   -1.68900  -1.66668  -1.36395  -0.97315  -0.87024
 Alpha  occ. eigenvalues --   -0.82446  -0.79136  -0.77337  -0.72230  -0.71714
 Alpha  occ. eigenvalues --   -0.69582  -0.66096  -0.64153  -0.53725  -0.51072
 Alpha virt. eigenvalues --    0.03206   0.04914   0.05593   0.05864   0.07436
 Alpha virt. eigenvalues --    0.07621   0.08191   0.13076   0.14625   0.14848
 Alpha virt. eigenvalues --    0.16695   0.20947   0.21443   0.23000   0.23206

 Mulliken charges:
               1
     1  B    0.971751
     2  F   -0.477911
     3  F   -0.428141
     4  O   -0.458040
     5  C    0.829387
     6  H   -0.118739
     7  H   -0.199568
     8  H   -0.118738
 Sum of Mulliken charges =  -0.00000

 Dipole moment (field-independent basis, Debye):
    X=              2.6807    Y=              0.5823    Z=             -0.0000  Tot=              2.7432

 Test job not archived.
 1\1\GINC-SE339\SP\RHF\Aug-CC-pVDZ\C1H3B1F2O1\OHZDE\09-Apr-2025\0\\#t h
 f aug-cc-pvdz iop(5/13=1,5/36=2,99/5=2) pseudo=read geom=check guess=(
 read,tcheck) scf=(maxcycle=1)\\title\\0,1\B,0,-0.530652,-0.025537,-0.0
 00003\F,0,-1.67064,-0.704699,0.000006\F,0,-0.603139,1.308317,-0.000008
 \O,0,0.63039,-0.690438,0.000003\C,0,1.898676,-0.027173,0.000001\H,0,2.
 449459,-0.338141,0.888891\H,0,1.783176,1.057964,-0.000011\H,0,2.449464
 ,-0.33816,-0.88888\\Version=ES64L-G16RevC.01\State=1-A\HF=-338.3840813
 \RMSD=4.940e-03\Dipole=1.0546497,0.2290872,-0.0000074\Quadrupole=1.127

 Normal termination of Gaussian 16 at Wed Apr  9 00:32:53 2025.
