 Gaussian 16, Revision C.01,

 ----------------------------------------------------------------------
 #t hf aug-cc-pvdz symm=none int=(grid=ultrafine) guess=(read,tcheck) s
 table=(opt,rrhf)
 ----------------------------------------------------------------------
 -----
 title
 -----
 Symbolic Z-matrix:
 Charge =  0 Multiplicity = 1

 SCF Done:  E(RHF) =  -611.178254592     A.U. after   16 cycles
 Normal termination of Gaussian 16 at Tue Apr  8 23:04:01 2025.
 Gaussian 16:  ES64L-G16RevC.01  3-Jul-2019

 ----------------------------------------------------------------------
 #t hf aug-cc-pvdz iop(5/13=1,5/36=2,99/5=2) pseudo=read geom=check gue
 ss=(read,tcheck) scf=(maxcycle=1)
 ----------------------------------------------------------------------
 -----
 title
 -----
 Structure from the checkpoint file:  "BDE49_expt_324_mol1.chk"
 Charge =  0 Multiplicity = 1

                         Standard orientation:
 ---------------------------------------------------------------------
 Center     Atomic      Atomic             Coordinates (Angstroms)
 Number     Number       Type             X           Y           Z
 ---------------------------------------------------------------------
      1          6           0        0.478678   -1.047737    0.055010
      2          6           0        1.838140   -1.195494   -0.194829
      3          6           0        2.654271   -0.074427   -0.139192
      4          6           0        2.153667    1.185131    0.148207
      5          6           0        0.788874    1.318962    0.388273
      6          6           0       -0.060129    0.209649    0.353097
      7          1           0       -0.169834   -1.912612   -0.004948
      8          1           0        2.822860    2.035667    0.176179
      9          1           0        0.382924    2.300593    0.605824
     10          1           0        2.269844   -2.159578   -0.432321
     11          6           0       -1.534633    0.390055    0.644225
     12          6           0       -2.076447   -0.469842    1.781383
     13          1           0       -1.945748   -1.530103    1.568428
     14          1           0       -3.139529   -0.277394    1.942664
     15          1           0       -1.535576   -0.225226    2.697672
     16          7           0       -2.332969    0.090215   -0.639779
     17          1           0       -1.743012    1.443891    0.817697
     18          8           0       -2.522394   -1.081964   -0.925682
     19          8           0       -2.707771    1.049246   -1.291092
     20          9           0        3.975072   -0.215864   -0.375066
 ---------------------------------------------------------------------

 SCF Done:  E(RHF) =  -611.366284158     A.U. after    2 cycles

 The electronic state is 1-A.
 Alpha  occ. eigenvalues --  -26.14821 -20.62251 -20.61936 -15.91102 -11.35840
 Alpha  occ. eigenvalues --  -11.33426 -11.28119 -11.28010 -11.27682 -11.27031
 Alpha  occ. eigenvalues --  -11.27001 -11.26349  -1.68699  -1.55022  -1.36882
 Alpha  occ. eigenvalues --   -1.18679  -1.12474  -1.04633  -1.02918  -0.95839
 Alpha  occ. eigenvalues --   -0.89105  -0.88304  -0.82905  -0.78609  -0.76997
 Alpha  occ. eigenvalues --   -0.76244  -0.75454  -0.74225  -0.72944  -0.68027
 Alpha  occ. eigenvalues --   -0.65073  -0.64253  -0.62545  -0.60529  -0.59327
 Alpha  occ. eigenvalues --   -0.56282  -0.54418  -0.52997  -0.52721  -0.51079
 Alpha  occ. eigenvalues --   -0.49418  -0.47619  -0.37172  -0.36263
 Alpha virt. eigenvalues --    0.02745   0.03608   0.03650   0.05138   0.05450
 Alpha virt. eigenvalues --    0.05764   0.06979   0.07711   0.08264   0.08535
 Alpha virt. eigenvalues --    0.09540   0.10203   0.11217   0.11465   0.12595

 Mulliken charges:
               1
     1  C    0.334415
     2  C    0.311961
     3  C    0.290219
     4  C    0.416602
     5  C    0.581655
     6  C    0.933836
     7  H   -0.612260
     8  H   -0.406498
     9  H   -0.611274
    10  H   -0.410540
    11  C    0.038501
    12  C    0.556727
    13  H    0.039850
    14  H   -0.029123
    15  H   -0.018923
    16  N    0.395454
    17  H   -0.300365
    18  O   -0.589966
    19  O   -0.589672
    20  F   -0.330599
 Sum of Mulliken charges =  -0.00000

 Dipole moment (field-independent basis, Debye):
    X=              0.7277    Y=              0.6514    Z=              3.9749  Tot=              4.0931

 Test job not archived.
 1\1\GINC-SE036\SP\RHF\Aug-CC-pVDZ\C8H8F1N1O2\OHZDE\08-Apr-2025\0\\#t h
 f aug-cc-pvdz iop(5/13=1,5/36=2,99/5=2) pseudo=read geom=check guess=(
 read,tcheck) scf=(maxcycle=1)\\title\\0,1\C,0,0.478678,-1.047737,0.055
 01\C,0,1.83814,-1.195494,-0.194829\C,0,2.654271,-0.074427,-0.139192\C,
 0,2.153667,1.185131,0.148207\C,0,0.788874,1.318962,0.388273\C,0,-0.060
 129,0.209649,0.353097\H,0,-0.169834,-1.912612,-0.004948\H,0,2.82286,2.
 035667,0.176179\H,0,0.382924,2.300593,0.605824\H,0,2.269844,-2.159578,
 -0.432321\C,0,-1.534633,0.390055,0.644225\C,0,-2.076447,-0.469842,1.78

 Normal termination of Gaussian 16 at Tue Apr  8 23:04:15 2025.
