 Gaussian 16, Revision C.01,

 ----------------------------------------------------------------------
 #t hf aug-cc-pvdz symm=none int=(grid=ultrafine) guess=(read,tcheck) s
 table=(opt,rrhf)
 ----------------------------------------------------------------------
 -----
 title
 -----
 Symbolic Z-matrix:
 Charge =  0 Multiplicity = 1

 SCF Done:  E(RHF) =  -593.886716228     A.U. after   12 cycles

 1\1\GINC-SE404\Stability\RHF\Aug-CC-pVDZ\C5H12S1\OHZDE\08-Apr-2025\0\\
 #t hf aug-cc-pvdz symm=none int=(grid=ultrafine) guess=(read,tcheck) s
 table=(opt,rrhf)\\title\\0,1\C,0,1.504029,0.079888,0.\C,0,0.,0.356335,
 0.\C,0,-0.832519,-0.93229,0.\H,0,-0.257636,0.958762,-0.878486\H,0,-0.2
 57636,0.958762,0.878486\C,0,-2.344126,-0.675212,0.\H,0,-0.569129,-1.53
 6305,0.877636\H,0,-0.569129,-1.536305,-0.877636\C,0,-3.173793,-1.96215
 1,0.\H,0,-2.606609,-0.070771,-0.876391\H,0,-2.606609,-0.070771,0.87639
 1\H,0,-2.958727,-2.571942,-0.883069\H,0,-4.245286,-1.744884,0.\H,0,-2.

 Normal termination of Gaussian 16 at Tue Apr  8 22:44:59 2025.
 Gaussian 16:  ES64L-G16RevC.01  3-Jul-2019

 ----------------------------------------------------------------------
 #t hf aug-cc-pvdz iop(5/13=1,5/36=2,99/5=2) pseudo=read geom=check gue
 ss=(read,tcheck) scf=(maxcycle=1)
 ----------------------------------------------------------------------
 -----
 title
 -----
 Structure from the checkpoint file:  "BDE49_expt_1553_mol1.chk"
 Charge =  0 Multiplicity = 1

                         Standard orientation:
 ---------------------------------------------------------------------
 Center     Atomic      Atomic             Coordinates (Angstroms)
 Number     Number       Type             X           Y           Z
 ---------------------------------------------------------------------
      1          6           0       -1.504029    0.079888    0.000000
      2          6           0        0.000000    0.356335    0.000000
      3          6           0        0.832519   -0.932290    0.000000
      4          1           0        0.257636    0.958762    0.878486
      5          1           0        0.257636    0.958762   -0.878486
      6          6           0        2.344126   -0.675212    0.000000
      7          1           0        0.569129   -1.536305   -0.877636
      8          1           0        0.569129   -1.536305    0.877636
      9          6           0        3.173793   -1.962151    0.000000
     10          1           0        2.606609   -0.070771    0.876391
     11          1           0        2.606609   -0.070771   -0.876391
     12          1           0        2.958726   -2.571942    0.883069
     13          1           0        4.245286   -1.744885    0.000000
     14          1           0        2.958726   -2.571942   -0.883069
     15         16           0       -2.429432    1.676043    0.000000
     16          1           0       -1.785586   -0.490082    0.887511
     17          1           0       -1.785586   -0.490082   -0.887511
     18          1           0       -3.665854    1.149462    0.000000
 ---------------------------------------------------------------------

 SCF Done:  E(RHF) =  -593.969545961     A.U. after    2 cycles

 The electronic state is 1-A'.
 Alpha  occ. eigenvalues --  -93.52903 -11.27045 -11.23959 -11.23432 -11.23249
 Alpha  occ. eigenvalues --  -11.22592  -8.82633  -6.16821  -6.16576  -6.16229
 Alpha  occ. eigenvalues --   -1.08684  -1.03613  -0.96275  -0.88101  -0.80907
 Alpha  occ. eigenvalues --   -0.79640  -0.66308  -0.61496  -0.60677  -0.58089
 Alpha  occ. eigenvalues --   -0.54910  -0.54296  -0.52057  -0.49391  -0.47739
 Alpha  occ. eigenvalues --   -0.47120  -0.46274  -0.44011  -0.35142
 Alpha virt. eigenvalues --    0.03484   0.03948   0.04670   0.04696   0.05808
 Alpha virt. eigenvalues --    0.06598   0.06699   0.07093   0.08476   0.09329
 Alpha virt. eigenvalues --    0.09501   0.10387   0.10680   0.11527   0.13254

 Mulliken charges:
               1
     1  C    0.115538
     2  C    0.193038
     3  C    0.036438
     4  H   -0.149148
     5  H   -0.149148
     6  C    0.250115
     7  H   -0.184246
     8  H   -0.184246
     9  C    0.508990
    10  H   -0.142718
    11  H   -0.142718
    12  H   -0.081157
    13  H   -0.060882
    14  H   -0.081157
    15  S    0.370703
    16  H   -0.162273
    17  H   -0.162273
    18  H    0.025145
 Sum of Mulliken charges =  -0.00000

 Dipole moment (field-independent basis, Debye):
    X=              0.4952    Y=             -1.7708    Z=             -0.0000  Tot=              1.8388

 Test job not archived.
 1\1\GINC-SE404\SP\RHF\Aug-CC-pVDZ\C5H12S1\OHZDE\08-Apr-2025\0\\#t hf a
 ug-cc-pvdz iop(5/13=1,5/36=2,99/5=2) pseudo=read geom=check guess=(rea
 d,tcheck) scf=(maxcycle=1)\\title\\0,1\C,0,1.504029,0.079888,0.\C,0,0.
 ,0.356335,0.\C,0,-0.832519,-0.93229,0.\H,0,-0.257636,0.958762,-0.87848
 6\H,0,-0.257636,0.958762,0.878486\C,0,-2.344126,-0.675212,0.\H,0,-0.56
 9129,-1.536305,0.877636\H,0,-0.569129,-1.536305,-0.877636\C,0,-3.17379
 3,-1.962151,0.\H,0,-2.606609,-0.070771,-0.876391\H,0,-2.606609,-0.0707
 71,0.876391\H,0,-2.958727,-2.571942,-0.883069\H,0,-4.245286,-1.744884,

 Normal termination of Gaussian 16 at Tue Apr  8 22:45:04 2025.
