 Gaussian 16, Revision C.01,

 ----------------------------------------------------------------------
 #t hf aug-cc-pvdz symm=none int=(grid=ultrafine) guess=(read,tcheck) s
 table=(opt,rrhf)
 ----------------------------------------------------------------------
 -----
 title
 -----
 Symbolic Z-matrix:
 Charge =  0 Multiplicity = 1

 SCF Done:  E(RHF) =  -950.688353078     A.U. after   16 cycles
 Normal termination of Gaussian 16 at Wed Apr  9 00:44:46 2025.
 Gaussian 16:  ES64L-G16RevC.01  3-Jul-2019

 ----------------------------------------------------------------------
 #t hf aug-cc-pvdz iop(5/13=1,5/36=2,99/5=2) pseudo=read geom=check gue
 ss=(read,tcheck) scf=(maxcycle=1)
 ----------------------------------------------------------------------
 -----
 title
 -----
 Structure from the checkpoint file:  "BDE49_nonexpt_744_mol1.chk"
 Charge =  0 Multiplicity = 1

                         Standard orientation:
 ---------------------------------------------------------------------
 Center     Atomic      Atomic             Coordinates (Angstroms)
 Number     Number       Type             X           Y           Z
 ---------------------------------------------------------------------
      1          6           0       -1.328274   -0.873704    0.763749
      2          6           0        0.019050   -0.611703    0.984236
      3          6           0       -2.074811    0.040049    0.029276
      4          6           0       -1.507331    1.201315   -0.485279
      5          6           0       -0.156884    1.442966   -0.270384
      6          6           0        0.632890    0.541079    0.461031
      7          1           0        0.288851    2.341154   -0.680673
      8          1           0       -1.808721   -1.757854    1.159250
      9          1           0        0.593721   -1.301765    1.593894
     10          5           0        3.245882   -0.458972   -0.385683
     11          8           0        2.616069   -1.554932   -0.890669
     12          8           0        4.559110   -0.247704   -0.654753
     13          7           0       -3.508483   -0.226199   -0.205327
     14          8           0       -3.974758   -1.260406    0.254165
     15          8           0       -4.140933    0.602864   -0.845795
     16          1           0       -2.124116    1.887948   -1.048494
     17          1           0        4.929254   -0.924758   -1.234396
     18          1           0        1.668945   -1.581222   -0.717786
     19         15           0        2.412722    0.832616    0.832262
     20          1           0        2.607464    1.966930    0.010621
 ---------------------------------------------------------------------

 SCF Done:  E(RHF) =  -950.895783300     A.U. after    2 cycles

 The electronic state is 1-A.
 Alpha  occ. eigenvalues --  -81.26545 -20.62390 -20.62370 -20.60724 -20.60101
 Alpha  occ. eigenvalues --  -15.92692 -11.32720 -11.29955 -11.29608 -11.29456
 Alpha  occ. eigenvalues --  -11.28493 -11.28315  -7.77128  -7.69554  -4.91288
 Alpha  occ. eigenvalues --   -4.91107  -4.90851  -1.55598  -1.37174  -1.36817
 Alpha  occ. eigenvalues --   -1.33209  -1.19802  -1.09367  -1.05654  -0.96653
 Alpha  occ. eigenvalues --   -0.87804  -0.85266  -0.81889  -0.79755  -0.79235
 Alpha  occ. eigenvalues --   -0.76170  -0.74584  -0.73316  -0.67912  -0.67291
 Alpha  occ. eigenvalues --   -0.65711  -0.64397  -0.63629  -0.61622  -0.60469
 Alpha  occ. eigenvalues --   -0.55314  -0.54535  -0.54222  -0.52554  -0.52137
 Alpha  occ. eigenvalues --   -0.51235  -0.48101  -0.47536  -0.41603  -0.38392
 Alpha  occ. eigenvalues --   -0.34236
 Alpha virt. eigenvalues --    0.02107   0.02350   0.03530   0.03968   0.05008
 Alpha virt. eigenvalues --    0.05668   0.06060   0.06670   0.06768   0.07548
 Alpha virt. eigenvalues --    0.07897   0.08665   0.09454   0.09931   0.10136

 Mulliken charges:
               1
     1  C    0.395730
     2  C    0.755270
     3  C    1.118926
     4  C    0.442926
     5  C    0.769035
     6  C   -0.414064
     7  H   -0.579268
     8  H   -0.475181
     9  H   -0.588956
    10  B    0.863775
    11  O   -0.436124
    12  O   -0.535093
    13  N    0.116668
    14  O   -0.560294
    15  O   -0.559833
    16  H   -0.467654
    17  H    0.198665
    18  H    0.245222
    19  P   -0.407498
    20  H    0.117750
 Sum of Mulliken charges =   0.00000

 Dipole moment (field-independent basis, Debye):
    X=              3.8454    Y=              0.2588    Z=             -0.2538  Tot=              3.8624

 Test job not archived.
 1\1\GINC-SE435\SP\RHF\Aug-CC-pVDZ\C6H7B1N1O4P1\OHZDE\09-Apr-2025\0\\#t
  hf aug-cc-pvdz iop(5/13=1,5/36=2,99/5=2) pseudo=read geom=check guess
 =(read,tcheck) scf=(maxcycle=1)\\title\\0,1\C,0,-1.328274,-0.873704,0.
 763749\C,0,0.01905,-0.611703,0.984236\C,0,-2.074811,0.040049,0.029276\
 C,0,-1.507331,1.201315,-0.485279\C,0,-0.156884,1.442966,-0.270384\C,0,
 0.63289,0.541079,0.461031\H,0,0.288851,2.341154,-0.680673\H,0,-1.80872
 1,-1.757854,1.15925\H,0,0.593721,-1.301765,1.593894\B,0,3.245882,-0.45
 8972,-0.385683\O,0,2.616069,-1.554932,-0.890669\O,0,4.55911,-0.247704,

 Normal termination of Gaussian 16 at Wed Apr  9 00:45:00 2025.
