 Gaussian 16, Revision C.01,

 ----------------------------------------------------------------------
 #t hf aug-cc-pvdz symm=none int=(grid=ultrafine) guess=(read,tcheck) s
 table=(opt,rrhf)
 ----------------------------------------------------------------------
 -----
 title
 -----
 Symbolic Z-matrix:
 Charge =  0 Multiplicity = 1

 SCF Done:  E(RHF) =  -462.209416101     A.U. after   12 cycles
 Normal termination of Gaussian 16 at Tue Apr  8 23:57:35 2025.
 Gaussian 16:  ES64L-G16RevC.01  3-Jul-2019

 ----------------------------------------------------------------------
 #t hf aug-cc-pvdz iop(5/13=1,5/36=2,99/5=2) pseudo=read geom=check gue
 ss=(read,tcheck) scf=(maxcycle=1)
 ----------------------------------------------------------------------
 -----
 title
 -----
 Structure from the checkpoint file:  "BDE49_nonexpt_2061_mol1.chk"
 Charge =  0 Multiplicity = 1

                         Standard orientation:
 ---------------------------------------------------------------------
 Center     Atomic      Atomic             Coordinates (Angstroms)
 Number     Number       Type             X           Y           Z
 ---------------------------------------------------------------------
      1         14           0        1.790405   -0.346397   -0.000001
      2          6           0       -0.036133    0.161646   -0.000000
      3          7           0       -0.867499   -0.807828    0.000001
      4          6           0       -2.304538   -0.572841    0.000002
      5          1           0       -2.731975   -1.069438    0.876546
      6          1           0       -2.731980   -1.069457   -0.876528
      7          1           0       -2.620705    0.476553   -0.000008
      8          6           0       -0.383487    1.647906   -0.000001
      9          1           0        0.518780    2.262726   -0.000002
     10          1           0       -0.969410    1.919413    0.883484
     11          1           0       -0.969411    1.919412   -0.883486
     12          1           0        1.927057   -1.815467   -0.000000
     13          1           0        2.464709    0.230176    1.192020
     14          1           0        2.464707    0.230174   -1.192024
 ---------------------------------------------------------------------

 SCF Done:  E(RHF) =  -462.286124012     A.U. after    2 cycles

 The electronic state is 1-A.
 Alpha  occ. eigenvalues --  -69.06067 -15.62674 -11.27847 -11.25738 -11.24611
 Alpha  occ. eigenvalues --   -6.81422  -3.92188  -3.92179  -3.92172  -1.19215
 Alpha  occ. eigenvalues --   -0.99613  -0.93409  -0.75283  -0.68170  -0.62348
 Alpha  occ. eigenvalues --   -0.60867  -0.60506  -0.56831  -0.55169  -0.48378
 Alpha  occ. eigenvalues --   -0.48200  -0.47392  -0.39984  -0.37318
 Alpha virt. eigenvalues --    0.03062   0.04219   0.04732   0.04895   0.06444
 Alpha virt. eigenvalues --    0.06788   0.07558   0.07614   0.08195   0.09163
 Alpha virt. eigenvalues --    0.10128   0.11021   0.12498   0.13227   0.13616

 Mulliken charges:
               1
     1  Si   0.055449
     2  C   -0.142036
     3  N   -0.505046
     4  C    0.756395
     5  H   -0.135889
     6  H   -0.135893
     7  H   -0.151441
     8  C    0.251881
     9  H   -0.208209
    10  H    0.048229
    11  H    0.048229
    12  H    0.072464
    13  H    0.022935
    14  H    0.022934
 Sum of Mulliken charges =   0.00000

 Dipole moment (field-independent basis, Debye):
    X=             -0.9930    Y=              1.8349    Z=              0.0000  Tot=              2.0864

 Test job not archived.
 1\1\GINC-SE249\SP\RHF\Aug-CC-pVDZ\C3H9N1Si1\OHZDE\08-Apr-2025\0\\#t hf
  aug-cc-pvdz iop(5/13=1,5/36=2,99/5=2) pseudo=read geom=check guess=(r
 ead,tcheck) scf=(maxcycle=1)\\title\\0,1\Si,0,1.790405,-0.346397,-0.00
 0001\C,0,-0.036133,0.161646,0.\N,0,-0.867499,-0.807828,0.000001\C,0,-2
 .304538,-0.572841,0.000002\H,0,-2.731975,-1.069438,0.876546\H,0,-2.731
 98,-1.069457,-0.876528\H,0,-2.620705,0.476553,-0.000008\C,0,-0.383487,
 1.647906,-0.000001\H,0,0.51878,2.262726,-0.000002\H,0,-0.96941,1.91941
 3,0.883484\H,0,-0.969411,1.919412,-0.883486\H,0,1.927057,-1.815467,0.\

 Normal termination of Gaussian 16 at Tue Apr  8 23:57:40 2025.
