 Gaussian 16, Revision C.01,

 ----------------------------------------------------------------------
 #t hf aug-cc-pvdz symm=none int=(grid=ultrafine) guess=(read,tcheck) s
 table=(opt,rrhf)
 ----------------------------------------------------------------------
 -----
 title
 -----
 Symbolic Z-matrix:
 Charge =  0 Multiplicity = 1

 SCF Done:  E(RHF) =  -193.956259070     A.U. after   13 cycles
 Normal termination of Gaussian 16 at Tue Apr  8 23:00:48 2025.
 Gaussian 16:  ES64L-G16RevC.01  3-Jul-2019

 ----------------------------------------------------------------------
 #t hf aug-cc-pvdz iop(5/13=1,5/36=2,99/5=2) pseudo=read geom=check gue
 ss=(read,tcheck) scf=(maxcycle=1)
 ----------------------------------------------------------------------
 -----
 title
 -----
 Structure from the checkpoint file:  "BDE49_expt_31_mol1.chk"
 Charge =  0 Multiplicity = 1

                         Standard orientation:
 ---------------------------------------------------------------------
 Center     Atomic      Atomic             Coordinates (Angstroms)
 Number     Number       Type             X           Y           Z
 ---------------------------------------------------------------------
      1          6           0       -0.389563   -0.000001   -0.399400
      2          6           0        1.049265   -0.000415   -0.122531
      3          6           0        2.227001   -0.000460    0.118814
      4          1           0        3.268569    0.001192    0.327407
      5          6           0       -1.058664    1.274437    0.152623
      6          1           0       -0.963982    1.316842    1.240692
      7          1           0       -2.121987    1.281986   -0.102134
      8          1           0       -0.596298    2.171457   -0.264128
      9          6           0       -1.059388   -1.274022    0.152705
     10          1           0       -0.513226    0.000001   -1.489844
     11          1           0       -0.964727   -1.316412    1.240777
     12          1           0       -0.597537   -2.171330   -0.263992
     13          1           0       -2.122716   -1.280973   -0.102050
 ---------------------------------------------------------------------

 SCF Done:  E(RHF) =  -194.019861744     A.U. after    2 cycles

 The electronic state is 1-A.
 Alpha  occ. eigenvalues --  -11.26742 -11.24158 -11.23371 -11.23365 -11.23007
 Alpha  occ. eigenvalues --   -1.09138  -0.99742  -0.93508  -0.84192  -0.71512
 Alpha  occ. eigenvalues --   -0.65893  -0.61868  -0.57650  -0.54691  -0.52500
 Alpha  occ. eigenvalues --   -0.50192  -0.49867  -0.38564  -0.38513
 Alpha virt. eigenvalues --    0.03511   0.04032   0.04963   0.05053   0.06281
 Alpha virt. eigenvalues --    0.07404   0.07562   0.07755   0.11292   0.11574
 Alpha virt. eigenvalues --    0.12112   0.13376   0.14131   0.15278   0.15497

 Mulliken charges:
               1
     1  C   -1.050070
     2  C   -0.564273
     3  C    1.138088
     4  H   -0.544212
     5  C    0.653277
     6  H   -0.017639
     7  H   -0.071586
     8  H   -0.064803
     9  C    0.653258
    10  H    0.021998
    11  H   -0.017632
    12  H   -0.064819
    13  H   -0.071585
 Sum of Mulliken charges =  -0.00000

 Dipole moment (field-independent basis, Debye):
    X=             -0.7867    Y=              0.0024    Z=             -0.1170  Tot=              0.7954

 Test job not archived.
 1\1\GINC-SE072\SP\RHF\Aug-CC-pVDZ\C5H8\OHZDE\08-Apr-2025\0\\#t hf aug-
 cc-pvdz iop(5/13=1,5/36=2,99/5=2) pseudo=read geom=check guess=(read,t
 check) scf=(maxcycle=1)\\title\\0,1\C,0,-0.389563,-0.000001,-0.3994\C,
 0,1.049265,-0.000415,-0.122531\C,0,2.227001,-0.00046,0.118814\H,0,3.26
 8569,0.001193,0.327407\C,0,-1.058664,1.274437,0.152623\H,0,-0.963982,1
 .316842,1.240692\H,0,-2.121987,1.281985,-0.102134\H,0,-0.596298,2.1714
 57,-0.264128\C,0,-1.059388,-1.274022,0.152705\H,0,-0.513226,0.000001,-
 1.489844\H,0,-0.964727,-1.316412,1.240777\H,0,-0.597536,-2.17133,-0.26

 Normal termination of Gaussian 16 at Tue Apr  8 23:00:52 2025.
