 Gaussian 16, Revision C.01,

 ----------------------------------------------------------------------
 #t hf aug-cc-pvdz symm=none int=(grid=ultrafine) guess=(read,tcheck) s
 table=opt
 ----------------------------------------------------------------------
 -----
 title
 -----
 Symbolic Z-matrix:
 Charge =  0 Multiplicity = 2

 SCF Done:  E(UHF) =  -368.708933686     A.U. after   14 cycles

 1\1\GINC-SE249\Stability\UHF\Aug-CC-pVDZ\C2H7Si1\OHZDE\08-Apr-2025\0\\
 #t hf aug-cc-pvdz symm=none int=(grid=ultrafine) guess=(read,tcheck) s
 table=opt\\title\\0,2\Si,0,-1.223912,-0.038444,0.\C,0,0.531084,0.67298
 2,-0.000002\C,0,1.64014,-0.398943,0.000001\H,0,1.575209,-1.041644,-0.8
 82028\H,0,1.575209,-1.041638,0.882035\H,0,2.632462,0.063863,0.\H,0,0.6
 35938,1.323068,0.875199\H,0,0.635938,1.323063,-0.875207\H,0,-1.473664,
 -0.86637,-1.211484\H,0,-1.473665,-0.86636,1.21149\\Version=ES64L-G16Re
 vC.01\HF=-368.7089337\S2=0.754155\S2-1=0.\S2A=0.750007\RMSD=5.919e-09\

 Normal termination of Gaussian 16 at Tue Apr  8 23:39:11 2025.
 Gaussian 16:  ES64L-G16RevC.01  3-Jul-2019

 ----------------------------------------------------------------------
 #t hf aug-cc-pvdz iop(5/13=1,5/36=2,99/5=2) pseudo=read geom=check gue
 ss=(read,tcheck) scf=(maxcycle=1)
 ----------------------------------------------------------------------
 -----
 title
 -----
 Structure from the checkpoint file:  "BDE49_nonexpt_1634_mol2.chk"
 Charge =  0 Multiplicity = 2

                         Standard orientation:
 ---------------------------------------------------------------------
 Center     Atomic      Atomic             Coordinates (Angstroms)
 Number     Number       Type             X           Y           Z
 ---------------------------------------------------------------------
      1         14           0       -1.223912   -0.038444    0.000000
      2          6           0        0.531084    0.672982   -0.000002
      3          6           0        1.640140   -0.398943    0.000001
      4          1           0        1.575209   -1.041644   -0.882028
      5          1           0        1.575209   -1.041638    0.882035
      6          1           0        2.632462    0.063863    0.000000
      7          1           0        0.635938    1.323068    0.875199
      8          1           0        0.635938    1.323063   -0.875207
      9          1           0       -1.473664   -0.866370   -1.211484
     10          1           0       -1.473665   -0.866360    1.211490
 ---------------------------------------------------------------------

 SCF Done:  E(UHF) =  -368.756239596     A.U. after    2 cycles

 The electronic state is 2-A.
 Alpha  occ. eigenvalues --  -69.06403 -11.23526 -11.22983  -6.81775  -3.93123
 Alpha  occ. eigenvalues --   -3.92226  -3.92217  -1.01768  -0.84905  -0.68336
 Alpha  occ. eigenvalues --   -0.61320  -0.57478  -0.52439  -0.50646  -0.47037
 Alpha  occ. eigenvalues --   -0.43717  -0.31634
 Alpha virt. eigenvalues --    0.03407   0.04900   0.05140   0.05155   0.06592
 Alpha virt. eigenvalues --    0.07288   0.08072   0.08647   0.09967   0.10953
 Alpha virt. eigenvalues --    0.12330   0.14101   0.15568   0.16745   0.16961

  Beta  occ. eigenvalues --  -69.05844 -11.23429 -11.22943  -6.80938  -3.91836
  Beta  occ. eigenvalues --   -3.91830  -3.90969  -1.01367  -0.84454  -0.64868
  Beta  occ. eigenvalues --   -0.61184  -0.56479  -0.51835  -0.50452  -0.46301
  Beta  occ. eigenvalues --   -0.42880
  Beta virt. eigenvalues --    0.03231   0.03672   0.04969   0.05192   0.06499
  Beta virt. eigenvalues --    0.06892   0.07447   0.08669   0.09182   0.10757
  Beta virt. eigenvalues --    0.11174   0.12815   0.14377   0.16097   0.17071

 Mulliken charges and spin densities:
               1          2
     1  Si   0.301936   0.980740
     2  C   -0.109645  -0.000971
     3  C    0.292124   0.008833
     4  H   -0.096249  -0.006292
     5  H   -0.096247  -0.006292
     6  H   -0.089525   0.007274
     7  H   -0.100913  -0.003153
     8  H   -0.100912  -0.003153
     9  H   -0.000285   0.011507
    10  H   -0.000284   0.011507
 Sum of Mulliken charges =  -0.00000   1.00000

 Dipole moment (field-independent basis, Debye):
    X=              0.8264    Y=              0.3676    Z=             -0.0000  Tot=              0.9045
                          Isotropic Fermi Contact Couplings
        Atom                 a.u.       MegaHertz       Gauss      10(-4) cm-1
     1  Si(29)             0.51735    -459.77985    -164.06088    -153.36605
     2  C(13)              0.01064      11.96209       4.26837       3.99012
     3  C(13)              0.02515      28.27789      10.09025       9.43249
     4  H(1)              -0.00031      -1.40263      -0.50049      -0.46787
     5  H(1)              -0.00031      -1.40264      -0.50050      -0.46787
     6  H(1)               0.00293      13.08277       4.66826       4.36394
     7  H(1)               0.00025       1.11944       0.39944       0.37340
     8  H(1)               0.00025       1.11948       0.39946       0.37342

 Normal termination of Gaussian 16 at Tue Apr  8 23:39:15 2025.
