 Gaussian 16, Revision C.01,

 ----------------------------------------------------------------------
 #t hf aug-cc-pvdz symm=none int=(grid=ultrafine) guess=(read,tcheck) s
 table=opt
 ----------------------------------------------------------------------
 -----
 title
 -----
 Symbolic Z-matrix:
 Charge =  0 Multiplicity = 2

 SCF Done:  E(UHF) =  -1050.76096695     A.U. after   19 cycles
 Normal termination of Gaussian 16 at Tue Apr  8 23:48:23 2025.
 Gaussian 16:  ES64L-G16RevC.01  3-Jul-2019

 ----------------------------------------------------------------------
 #t hf aug-cc-pvdz iop(5/13=1,5/36=2,99/5=2) pseudo=read geom=check gue
 ss=(read,tcheck) scf=(maxcycle=1)
 ----------------------------------------------------------------------
 -----
 title
 -----
 Structure from the checkpoint file:  "BDE49_nonexpt_185_mol2.chk"
 Charge =  0 Multiplicity = 2

                         Standard orientation:
 ---------------------------------------------------------------------
 Center     Atomic      Atomic             Coordinates (Angstroms)
 Number     Number       Type             X           Y           Z
 ---------------------------------------------------------------------
      1         17           0        2.458971    0.016475    0.048052
      2          5           0        0.919973   -0.472066    0.617779
      3         15           0       -0.813120   -0.103236   -0.079195
      4          8           0       -1.199451   -1.165195   -1.022381
      5          8           0       -1.829060    0.069040    1.166046
      6          1           0       -2.227506   -0.773457    1.417805
      7          8           0       -0.764862    1.416204   -0.581065
      8          1           0       -1.631082    1.841853   -0.636470
 ---------------------------------------------------------------------

 SCF Done:  E(UHF) =  -1050.92240717     A.U. after    2 cycles

 The electronic state is 2-A.
 Alpha  occ. eigenvalues -- -103.69981 -81.42357 -20.62758 -20.62747 -20.53549
 Alpha  occ. eigenvalues --  -10.73454  -8.39165  -8.38954  -8.38863  -7.90827
 Alpha  occ. eigenvalues --   -7.73041  -5.05445  -5.05352  -5.05013  -1.39270
 Alpha  occ. eigenvalues --   -1.35543  -1.26780  -1.19698  -0.87161  -0.78693
 Alpha  occ. eigenvalues --   -0.73635  -0.68453  -0.66128  -0.62753  -0.60749
 Alpha  occ. eigenvalues --   -0.59146  -0.55779  -0.53865  -0.52686  -0.49878
 Alpha  occ. eigenvalues --   -0.48406  -0.36688
 Alpha virt. eigenvalues --    0.02422   0.03152   0.04464   0.04922   0.06622
 Alpha virt. eigenvalues --    0.06795   0.09021   0.10205   0.12041   0.13044
 Alpha virt. eigenvalues --    0.14680   0.15441   0.16168   0.16917   0.17966

  Beta  occ. eigenvalues -- -103.69920 -81.42303 -20.62792 -20.62675 -20.53514
  Beta  occ. eigenvalues --  -10.73385  -8.39116  -8.38908  -8.38654  -7.90741
  Beta  occ. eigenvalues --   -7.71052  -5.05404  -5.05299  -5.04864  -1.39171
  Beta  occ. eigenvalues --   -1.35479  -1.26680  -1.18983  -0.86379  -0.78349
  Beta  occ. eigenvalues --   -0.71118  -0.68271  -0.65349  -0.62206  -0.60610
  Beta  occ. eigenvalues --   -0.58988  -0.54377  -0.52894  -0.51549  -0.49473
  Beta  occ. eigenvalues --   -0.46830
  Beta virt. eigenvalues --    0.02521   0.03692   0.04556   0.04927   0.06314
  Beta virt. eigenvalues --    0.06851   0.07334   0.09974   0.10399   0.12524
  Beta virt. eigenvalues --    0.13743   0.14937   0.15613   0.16514   0.17467

 Mulliken charges and spin densities:
               1          2
     1  Cl  -0.181233  -0.001881
     2  B    0.084787   1.008430
     3  P    2.070711  -0.008583
     4  O   -0.908333   0.011600
     5  O   -0.701935  -0.006677
     6  H    0.162138  -0.000642
     7  O   -0.680001  -0.007889
     8  H    0.153866   0.005642
 Sum of Mulliken charges =  -0.00000   1.00000

 Dipole moment (field-independent basis, Debye):
    X=             -0.6333    Y=              1.5132    Z=              2.4925  Tot=              2.9839
                          Isotropic Fermi Contact Couplings
        Atom                 a.u.       MegaHertz       Gauss      10(-4) cm-1
     1  Cl(35)             0.04929      21.61010       7.71102       7.20835
     2  B(11)              0.31467     451.34705     161.05185     150.55317
     3  P(31)              0.09814     177.74167      63.42265      59.28824
     4  O(17)              0.00211      -1.27847      -0.45619      -0.42645
     5  O(17)             -0.00926       5.61343       2.00301       1.87244
     6  H(1)               0.00017       0.76366       0.27249       0.25473
     7  O(17)              0.03990     -24.18658      -8.63037      -8.06778
     8  H(1)               0.00281      12.55561       4.48015       4.18810

 1\1\GINC-SE435\SP\UHF\Aug-CC-pVDZ\B1Cl1H2O3P1(2)\OHZDE\08-Apr-2025\0\\
 #t hf aug-cc-pvdz iop(5/13=1,5/36=2,99/5=2) pseudo=read geom=check gue
 ss=(read,tcheck) scf=(maxcycle=1)\\title\\0,2\Cl,0,2.458971,0.016475,0
 .048052\B,0,0.919973,-0.472066,0.617779\P,0,-0.81312,-0.103236,-0.0791
 95\O,0,-1.199451,-1.165195,-1.022381\O,0,-1.82906,0.06904,1.166046\H,0
 ,-2.227506,-0.773457,1.417805\O,0,-0.764862,1.416204,-0.581065\H,0,-1.
 631082,1.841853,-0.63647\\Version=ES64L-G16RevC.01\State=2-A\HF=-1050.
 9224072\S2=0.757004\S2-1=0.\S2A=0.75003\RMSD=5.099e-03\Dipole=-0.24917

 Normal termination of Gaussian 16 at Tue Apr  8 23:48:27 2025.
