 Gaussian 16, Revision C.01,

 ----------------------------------------------------------------------
 #t hf aug-cc-pvdz symm=none int=(grid=ultrafine) guess=(read,tcheck) s
 table=(opt,rrhf)
 ----------------------------------------------------------------------
 -----
 title
 -----
 Symbolic Z-matrix:
 Charge =  0 Multiplicity = 1

 SCF Done:  E(RHF) =  -945.446572243     A.U. after   12 cycles
 Normal termination of Gaussian 16 at Tue Apr  8 23:44:04 2025.
 Gaussian 16:  ES64L-G16RevC.01  3-Jul-2019

 ----------------------------------------------------------------------
 #t hf aug-cc-pvdz iop(5/13=1,5/36=2,99/5=2) pseudo=read geom=check gue
 ss=(read,tcheck) scf=(maxcycle=1)
 ----------------------------------------------------------------------
 -----
 title
 -----
 Structure from the checkpoint file:  "BDE49_nonexpt_1743_mol1.chk"
 Charge =  0 Multiplicity = 1

                         Standard orientation:
 ---------------------------------------------------------------------
 Center     Atomic      Atomic             Coordinates (Angstroms)
 Number     Number       Type             X           Y           Z
 ---------------------------------------------------------------------
      1         14           0        1.338137   -0.375904    0.414188
      2          6           0       -0.342091   -0.855138   -0.264771
      3          6           0       -1.527953   -0.001958    0.219389
      4          1           0       -0.502657   -1.907606    0.009910
      5          1           0       -0.285908   -0.835927   -1.360466
      6          6           0        2.705893   -1.490708   -0.199938
      7          1           0        2.530140   -2.520845    0.126649
      8          1           0        3.674421   -1.170853    0.191793
      9          1           0        2.760777   -1.482691   -1.291661
     10         17           0        1.778558    1.591847   -0.182647
     11          6           0       -2.877528   -0.458130   -0.350552
     12          1           0       -1.359032    1.045811   -0.052979
     13          1           0       -1.575836   -0.026439    1.315105
     14          6           0       -4.053973    0.394374    0.132830
     15          1           0       -3.047518   -1.507007   -0.078433
     16          1           0       -2.830587   -0.431663   -1.445875
     17          1           0       -4.146381    0.360021    1.222861
     18          1           0       -4.999543    0.045927   -0.291233
     19          1           0       -3.927116    1.442585   -0.154745
     20          1           0        1.313734   -0.340692    1.893686
 ---------------------------------------------------------------------

 SCF Done:  E(RHF) =  -945.553272845     A.U. after    2 cycles

 The electronic state is 1-A.
 Alpha  occ. eigenvalues -- -103.63686 -69.09812 -11.23637 -11.23118 -11.22805
 Alpha  occ. eigenvalues --  -11.22676 -11.22415 -10.67107  -8.32796  -8.32591
 Alpha  occ. eigenvalues --   -8.32586  -6.84688  -3.95543  -3.95389  -3.95376
 Alpha  occ. eigenvalues --   -1.12032  -1.06585  -0.98218  -0.94885  -0.86481
 Alpha  occ. eigenvalues --   -0.79655  -0.66875  -0.64859  -0.59192  -0.58827
 Alpha  occ. eigenvalues --   -0.57660  -0.57018  -0.54694  -0.51540  -0.51368
 Alpha  occ. eigenvalues --   -0.49695  -0.49391  -0.47846  -0.47181  -0.46682
 Alpha  occ. eigenvalues --   -0.43856  -0.41809
 Alpha virt. eigenvalues --    0.03132   0.04024   0.04497   0.04763   0.05749
 Alpha virt. eigenvalues --    0.06217   0.06219   0.07160   0.07629   0.08287
 Alpha virt. eigenvalues --    0.08483   0.09024   0.09481   0.10571   0.11274

 Mulliken charges:
               1
     1  Si   1.161124
     2  C    0.133660
     3  C    0.129312
     4  H   -0.207125
     5  H   -0.178427
     6  C    0.309991
     7  H   -0.181444
     8  H   -0.257131
     9  H   -0.163425
    10  Cl  -0.631295
    11  C    0.246124
    12  H   -0.200836
    13  H   -0.229066
    14  C    0.500809
    15  H   -0.147240
    16  H   -0.129171
    17  H   -0.076423
    18  H   -0.065200
    19  H   -0.083983
    20  H    0.069746
 Sum of Mulliken charges =  -0.00000

 Dipole moment (field-independent basis, Debye):
    X=             -0.7191    Y=             -2.4000    Z=             -0.0082  Tot=              2.5055

 Test job not archived.
 1\1\GINC-SE435\SP\RHF\Aug-CC-pVDZ\C5H13Cl1Si1\OHZDE\08-Apr-2025\0\\#t
 hf aug-cc-pvdz iop(5/13=1,5/36=2,99/5=2) pseudo=read geom=check guess=
 (read,tcheck) scf=(maxcycle=1)\\title\\0,1\Si,0,1.338137,-0.375904,0.4
 14188\C,0,-0.342091,-0.855138,-0.264771\C,0,-1.527953,-0.001958,0.2193
 89\H,0,-0.502657,-1.907606,0.00991\H,0,-0.285908,-0.835927,-1.360466\C
 ,0,2.705893,-1.490708,-0.199938\H,0,2.53014,-2.520845,0.126649\H,0,3.6
 74421,-1.170853,0.191793\H,0,2.760777,-1.482691,-1.291661\Cl,0,1.77855
 8,1.591847,-0.182647\C,0,-2.877528,-0.45813,-0.350552\H,0,-1.359032,1.

 Normal termination of Gaussian 16 at Tue Apr  8 23:44:13 2025.
