 Gaussian 16, Revision C.01,

 ----------------------------------------------------------------------
 #t hf aug-cc-pvdz symm=none int=(grid=ultrafine) guess=(read,tcheck) s
 table=opt
 ----------------------------------------------------------------------
 -----
 title
 -----
 Symbolic Z-matrix:
 Charge =  0 Multiplicity = 2

 SCF Done:  E(UHF) =  -824.139290314     A.U. after   15 cycles

 1\1\GINC-SE454\Stability\UHF\Aug-CC-pVDZ\C1F5Si1\OHZDE\08-Apr-2025\0\\
 #t hf aug-cc-pvdz symm=none int=(grid=ultrafine) guess=(read,tcheck) s
 table=opt\\title\\0,2\Si,0,-0.690353,-0.848916,0.\C,0,0.197081,0.88750
 6,0.\F,0,-0.149367,-1.6183,1.291033\F,0,-0.149367,-1.6183,-1.291033\F,
 0,-0.149367,1.602699,1.090299\F,0,-0.149367,1.602699,-1.090299\F,0,1.5
 39963,0.760067,0.\\Version=ES64L-G16RevC.01\HF=-824.1392903\S2=0.75435
 9\S2-1=0.\S2A=0.750007\RMSD=6.661e-09\Dipole=-0.7667813,-0.2049846,0.\
 Quadrupole=2.4963772,-1.3029209,-1.1934563,0.9904282,0.,0.\PG=Unknown\

 Normal termination of Gaussian 16 at Tue Apr  8 23:46:22 2025.
 Gaussian 16:  ES64L-G16RevC.01  3-Jul-2019

 ----------------------------------------------------------------------
 #t hf aug-cc-pvdz iop(5/13=1,5/36=2,99/5=2) pseudo=read geom=check gue
 ss=(read,tcheck) scf=(maxcycle=1)
 ----------------------------------------------------------------------
 -----
 title
 -----
 Structure from the checkpoint file:  "BDE49_nonexpt_1800_mol2.chk"
 Charge =  0 Multiplicity = 2

                         Standard orientation:
 ---------------------------------------------------------------------
 Center     Atomic      Atomic             Coordinates (Angstroms)
 Number     Number       Type             X           Y           Z
 ---------------------------------------------------------------------
      1         14           0        0.690353    0.848916    0.000000
      2          6           0       -0.197081   -0.887506   -0.000000
      3          9           0        0.149367    1.618300    1.291033
      4          9           0        0.149367    1.618300   -1.291033
      5          9           0        0.149367   -1.602699    1.090299
      6          9           0        0.149367   -1.602699   -1.090299
      7          9           0       -1.539963   -0.760067   -0.000000
 ---------------------------------------------------------------------

 SCF Done:  E(UHF) =  -824.372342107     A.U. after    2 cycles

 The electronic state is 2-A'.
 Alpha  occ. eigenvalues --  -69.22300 -26.18272 -26.18263 -26.18142 -26.15928
 Alpha  occ. eigenvalues --  -26.15926 -11.53341  -6.96445  -4.07543  -4.07014
 Alpha  occ. eigenvalues --   -4.06817  -1.77503  -1.70617  -1.70593  -1.69526
 Alpha  occ. eigenvalues --   -1.68366  -1.04533  -0.90629  -0.89210  -0.89192
 Alpha  occ. eigenvalues --   -0.85883  -0.81728  -0.79248  -0.78637  -0.78148
 Alpha  occ. eigenvalues --   -0.77577  -0.76185  -0.74605  -0.74398  -0.74054
 Alpha  occ. eigenvalues --   -0.73263  -0.60284  -0.43199
 Alpha virt. eigenvalues --    0.04622   0.04922   0.05350   0.06487   0.10621
 Alpha virt. eigenvalues --    0.10982   0.11216   0.13749   0.14208   0.19082
 Alpha virt. eigenvalues --    0.19662   0.20707   0.22337   0.24092   0.25946

  Beta  occ. eigenvalues --  -69.21684 -26.18290 -26.18280 -26.18012 -26.15595
  Beta  occ. eigenvalues --  -26.15594 -11.52837  -6.95395  -4.06606  -4.06475
  Beta  occ. eigenvalues --   -4.05580  -1.77354  -1.70662  -1.70336  -1.68519
  Beta  occ. eigenvalues --   -1.67359  -1.03739  -0.89349  -0.89082  -0.88954
  Beta  occ. eigenvalues --   -0.84627  -0.80406  -0.78621  -0.78420  -0.77460
  Beta  occ. eigenvalues --   -0.76349  -0.74979  -0.74328  -0.74293  -0.73887
  Beta  occ. eigenvalues --   -0.73212  -0.56739
  Beta virt. eigenvalues --   -0.01102   0.05237   0.05404   0.06172   0.07434
  Beta virt. eigenvalues --    0.11124   0.11465   0.11928   0.16495   0.17356
  Beta virt. eigenvalues --    0.19159   0.19995   0.21423   0.23043   0.24433

 Mulliken charges and spin densities:
               1          2
     1  Si   1.679078   0.959220
     2  C    0.722005   0.089448
     3  F   -0.704380  -0.028410
     4  F   -0.704380  -0.028410
     5  F   -0.314502  -0.001439
     6  F   -0.314502  -0.001439
     7  F   -0.363318   0.011031
 Sum of Mulliken charges =   0.00000   1.00000

 Dipole moment (field-independent basis, Debye):
    X=              2.2471    Y=              0.5827    Z=              0.0000  Tot=              2.3214
                          Isotropic Fermi Contact Couplings
        Atom                 a.u.       MegaHertz       Gauss      10(-4) cm-1
     1  Si(29)             1.02196    -908.24604    -324.08477    -302.95827
     2  C(13)              0.12585     141.48258      50.48450      47.19351
     3  F(19)              0.06082     255.90230      91.31230      85.35982
     4  F(19)              0.06082     255.90230      91.31230      85.35982
     5  F(19)             -0.00455     -19.13792      -6.82889      -6.38372
     6  F(19)             -0.00455     -19.13792      -6.82889      -6.38372
     7  F(19)              0.02255      94.89415      33.86059      31.65328
 --------------------------------------------------------

 Normal termination of Gaussian 16 at Tue Apr  8 23:46:25 2025.
