 Gaussian 16, Revision C.01,

 ----------------------------------------------------------------------
 #t hf aug-cc-pvdz symm=none int=(grid=ultrafine) guess=(read,tcheck) s
 table=(opt,rrhf)
 ----------------------------------------------------------------------
 -----
 title
 -----
 Symbolic Z-matrix:
 Charge =  0 Multiplicity = 1

 SCF Done:  E(RHF) =  -490.421166395     A.U. after   13 cycles
 Normal termination of Gaussian 16 at Tue Apr  8 23:11:43 2025.
 Gaussian 16:  ES64L-G16RevC.01  3-Jul-2019

 ----------------------------------------------------------------------
 #t hf aug-cc-pvdz iop(5/13=1,5/36=2,99/5=2) pseudo=read geom=check gue
 ss=(read,tcheck) scf=(maxcycle=1)
 ----------------------------------------------------------------------
 -----
 title
 -----
 Structure from the checkpoint file:  "BDE49_expt_846_mol1.chk"
 Charge =  0 Multiplicity = 1

                         Standard orientation:
 ---------------------------------------------------------------------
 Center     Atomic      Atomic             Coordinates (Angstroms)
 Number     Number       Type             X           Y           Z
 ---------------------------------------------------------------------
      1         16           0        0.999475   -0.085389   -0.000001
      2          6           0       -0.699086    0.013791    0.000000
      3          7           0       -1.856091    0.005201    0.000001
      4          1           0        1.195550    1.247065    0.000002
 ---------------------------------------------------------------------

 SCF Done:  E(RHF) =  -490.469894013     A.U. after    2 cycles

 The electronic state is 1-A.
 Alpha  occ. eigenvalues --  -93.62086 -15.66196 -11.32359  -8.91735  -6.25947
 Alpha  occ. eigenvalues --   -6.25674  -6.25271  -1.21241  -1.05653  -0.71316
 Alpha  occ. eigenvalues --   -0.59284  -0.55634  -0.53783  -0.47522  -0.40750
 Alpha virt. eigenvalues --    0.02742   0.06669   0.08799   0.09750   0.10717
 Alpha virt. eigenvalues --    0.11884   0.12621   0.13735   0.15058   0.17183
 Alpha virt. eigenvalues --    0.18962   0.19723   0.22498   0.26168   0.26947

 Mulliken charges:
               1
     1  S    0.453825
     2  C   -0.421610
     3  N   -0.165489
     4  H    0.133274
 Sum of Mulliken charges =  -0.00000

 Dipole moment (field-independent basis, Debye):
    X=              3.4535    Y=              0.8989    Z=             -0.0000  Tot=              3.5685

 Test job not archived.
 1\1\GINC-SE082\SP\RHF\Aug-CC-pVDZ\C1H1N1S1\OHZDE\08-Apr-2025\0\\#t hf
 aug-cc-pvdz iop(5/13=1,5/36=2,99/5=2) pseudo=read geom=check guess=(re
 ad,tcheck) scf=(maxcycle=1)\\title\\0,1\S,0,0.999475,-0.085389,-0.0000
 01\C,0,-0.699086,0.013791,0.\N,0,-1.856091,0.005201,0.000001\H,0,1.195
 55,1.247065,0.000002\\Version=ES64L-G16RevC.01\State=1-A\HF=-490.46989
 4\RMSD=7.269e-03\Dipole=1.3587008,0.3536452,0.\Quadrupole=-2.3539887,2
 .5284288,-0.1744401,1.232208,0.0000049,0.0000056\PG=C01 [X(C1H1N1S1)]\
 \@

 Normal termination of Gaussian 16 at Tue Apr  8 23:11:45 2025.
