 Gaussian 16, Revision C.01,

 ----------------------------------------------------------------------
 #t hf aug-cc-pvdz symm=none int=(grid=ultrafine) guess=(read,tcheck) s
 table=(opt,rrhf)
 ----------------------------------------------------------------------
 -----
 title
 -----
 Symbolic Z-matrix:
 Charge =  0 Multiplicity = 1

 SCF Done:  E(RHF) =  -945.431788305     A.U. after   12 cycles
 Normal termination of Gaussian 16 at Tue Apr  8 23:44:05 2025.
 Gaussian 16:  ES64L-G16RevC.01  3-Jul-2019

 ----------------------------------------------------------------------
 #t hf aug-cc-pvdz iop(5/13=1,5/36=2,99/5=2) pseudo=read geom=check gue
 ss=(read,tcheck) scf=(maxcycle=1)
 ----------------------------------------------------------------------
 -----
 title
 -----
 Structure from the checkpoint file:  "BDE49_nonexpt_1732_mol1.chk"
 Charge =  0 Multiplicity = 1

                         Standard orientation:
 ---------------------------------------------------------------------
 Center     Atomic      Atomic             Coordinates (Angstroms)
 Number     Number       Type             X           Y           Z
 ---------------------------------------------------------------------
      1         14           0       -2.179007    0.811406    0.227036
      2          6           0       -0.427271    1.017505   -0.399098
      3         17           0       -2.864700   -1.129985   -0.151217
      4          6           0        0.629956    0.120117    0.269414
      5          1           0       -0.170451    2.076423   -0.253022
      6          1           0       -0.432522    0.856238   -1.483873
      7          6           0        2.047650    0.353147   -0.268472
      8          1           0        0.359288   -0.931823    0.125873
      9          1           0        0.624562    0.290478    1.352987
     10          6           0        3.105824   -0.538060    0.391648
     11          1           0        2.320401    1.406918   -0.125888
     12          1           0        2.053816    0.181416   -1.352529
     13          6           0        4.518151   -0.301526   -0.150904
     14          1           0        2.830830   -1.589926    0.248783
     15          1           0        3.097223   -0.366444    1.474837
     16          1           0        4.567173   -0.499485   -1.226184
     17          1           0        5.247919   -0.951392    0.339385
     18          1           0        4.835453    0.733717    0.008930
     19          1           0       -3.108503    1.730132   -0.462179
     20          1           0       -2.265063    1.006711    1.689540
 ---------------------------------------------------------------------

 SCF Done:  E(RHF) =  -945.536888807     A.U. after    2 cycles

 The electronic state is 1-A.
 Alpha  occ. eigenvalues -- -103.64352 -69.10564 -11.24085 -11.23422 -11.23169
 Alpha  occ. eigenvalues --  -11.23091 -11.22502 -10.67787  -8.33478  -8.33262
 Alpha  occ. eigenvalues --   -8.33257  -6.85458  -3.96312  -3.96161  -3.96150
 Alpha  occ. eigenvalues --   -1.12680  -1.07721  -1.01593  -0.92481  -0.83151
 Alpha  occ. eigenvalues --   -0.79476  -0.69235  -0.65796  -0.60874  -0.59525
 Alpha  occ. eigenvalues --   -0.57260  -0.54762  -0.52938  -0.52331  -0.51458
 Alpha  occ. eigenvalues --   -0.49849  -0.48893  -0.47332  -0.47141  -0.46870
 Alpha  occ. eigenvalues --   -0.44842  -0.42409
 Alpha virt. eigenvalues --    0.03305   0.03962   0.04399   0.04663   0.05537
 Alpha virt. eigenvalues --    0.05939   0.06111   0.06796   0.07995   0.08037
 Alpha virt. eigenvalues --    0.08548   0.09287   0.09463   0.10816   0.11407

 Mulliken charges:
               1
     1  Si   0.689476
     2  C    0.192597
     3  Cl  -0.558704
     4  C    0.200429
     5  H   -0.168310
     6  H   -0.142556
     7  C    0.116071
     8  H   -0.178238
     9  H   -0.208913
    10  C    0.285333
    11  H   -0.178609
    12  H   -0.175264
    13  C    0.541645
    14  H   -0.145764
    15  H   -0.142962
    16  H   -0.083411
    17  H   -0.056928
    18  H   -0.083220
    19  H    0.025817
    20  H    0.071511
 Sum of Mulliken charges =  -0.00000

 Dipole moment (field-independent basis, Debye):
    X=              1.6406    Y=              1.6698    Z=              0.0860  Tot=              2.3425

 Test job not archived.
 1\1\GINC-SE250\SP\RHF\Aug-CC-pVDZ\C5H13Cl1Si1\OHZDE\08-Apr-2025\0\\#t
 hf aug-cc-pvdz iop(5/13=1,5/36=2,99/5=2) pseudo=read geom=check guess=
 (read,tcheck) scf=(maxcycle=1)\\title\\0,1\Si,0,-2.179007,0.811406,0.2
 27036\C,0,-0.427271,1.017505,-0.399098\Cl,0,-2.8647,-1.129985,-0.15121
 7\C,0,0.629956,0.120117,0.269414\H,0,-0.170451,2.076423,-0.253022\H,0,
 -0.432522,0.856238,-1.483873\C,0,2.04765,0.353147,-0.268472\H,0,0.3592
 88,-0.931823,0.125873\H,0,0.624562,0.290478,1.352987\C,0,3.105824,-0.5
 3806,0.391648\H,0,2.320401,1.406918,-0.125888\H,0,2.053816,0.181416,-1

 Normal termination of Gaussian 16 at Tue Apr  8 23:44:14 2025.
