 Gaussian 16, Revision C.01,

 ----------------------------------------------------------------------
 #t hf aug-cc-pvdz symm=none int=(grid=ultrafine) guess=(read,tcheck) s
 table=opt
 ----------------------------------------------------------------------
 -----
 title
 -----
 Symbolic Z-matrix:
 Charge =  0 Multiplicity = 2

 SCF Done:  E(UHF) =  -280.866663773     A.U. after   16 cycles
 Normal termination of Gaussian 16 at Wed Apr  9 00:30:14 2025.
 Gaussian 16:  ES64L-G16RevC.01  3-Jul-2019

 ----------------------------------------------------------------------
 #t hf aug-cc-pvdz iop(5/13=1,5/36=2,99/5=2) pseudo=read geom=check gue
 ss=(read,tcheck) scf=(maxcycle=1)
 ----------------------------------------------------------------------
 -----
 title
 -----
 Structure from the checkpoint file:  "BDE49_nonexpt_372_mol2.chk"
 Charge =  0 Multiplicity = 2

                         Standard orientation:
 ---------------------------------------------------------------------
 Center     Atomic      Atomic             Coordinates (Angstroms)
 Number     Number       Type             X           Y           Z
 ---------------------------------------------------------------------
      1          9           0        1.922434   -1.219940   -0.178395
      2          5           0        2.072994   -0.003415    0.313878
      3          6           0        1.030874    1.146422    0.111700
      4          6           0       -0.340738    0.743045   -0.470362
      5          1           0        0.914296    1.692239    1.056217
      6          6           0       -1.187482   -0.104390    0.486912
      7          1           0       -0.192321    0.190167   -1.404773
      8          1           0       -0.898436    1.649423   -0.734948
      9          6           0       -2.557058   -0.472356   -0.090246
     10          1           0       -1.322063    0.442776    1.428062
     11          1           0       -0.641909   -1.020807    0.738406
     12          1           0       -3.142218    0.422927   -0.322640
     13          1           0       -3.137290   -1.074659    0.613830
     14          1           0       -2.453905   -1.049411   -1.014327
     15          1           0        1.533394    1.867553   -0.551693
 ---------------------------------------------------------------------

 SCF Done:  E(UHF) =  -280.966298702     A.U. after    2 cycles

 The electronic state is 2-A.
 Alpha  occ. eigenvalues --  -26.13571 -11.23702 -11.23151 -11.22771 -11.22470
 Alpha  occ. eigenvalues --   -7.69255  -1.67865  -1.06925  -0.98796  -0.87908
 Alpha  occ. eigenvalues --   -0.84020  -0.79810  -0.76729  -0.73829  -0.64311
 Alpha  occ. eigenvalues --   -0.59567  -0.59140  -0.57449  -0.53417  -0.50869
 Alpha  occ. eigenvalues --   -0.48795  -0.47202  -0.46702  -0.34465
 Alpha virt. eigenvalues --    0.03364   0.04173   0.04508   0.04820   0.06086
 Alpha virt. eigenvalues --    0.06481   0.06603   0.06958   0.07901   0.08976
 Alpha virt. eigenvalues --    0.09203   0.09754   0.12147   0.12835   0.13505

  Beta  occ. eigenvalues --  -26.13232 -11.23607 -11.23158 -11.22484 -11.22467
  Beta  occ. eigenvalues --   -7.67380  -1.66874  -1.06638  -0.98282  -0.87220
  Beta  occ. eigenvalues --   -0.83009  -0.79507  -0.73888  -0.73825  -0.64018
  Beta  occ. eigenvalues --   -0.59279  -0.58606  -0.56720  -0.52431  -0.49835
  Beta  occ. eigenvalues --   -0.48065  -0.47052  -0.46381
  Beta virt. eigenvalues --    0.03018   0.04021   0.04460   0.04732   0.06216
  Beta virt. eigenvalues --    0.06431   0.06634   0.07064   0.07935   0.08909
  Beta virt. eigenvalues --    0.09295   0.09526   0.10344   0.12835   0.13667

 Mulliken charges and spin densities:
               1          2
     1  F   -0.393839  -0.046165
     2  B    0.393438   1.036664
     3  C    0.453655   0.020817
     4  C    0.093976   0.020578
     5  H   -0.181872  -0.011249
     6  C    0.088696   0.001866
     7  H   -0.161315  -0.002428
     8  H   -0.116672   0.002502
     9  C    0.394032   0.002163
    10  H   -0.140224  -0.002359
    11  H   -0.167350  -0.000736
    12  H   -0.076941   0.000028
    13  H   -0.065481   0.000148
    14  H   -0.065429   0.000050
    15  H   -0.054673  -0.021879
 Sum of Mulliken charges =  -0.00000   1.00000

 Dipole moment (field-independent basis, Debye):
    X=             -0.8633    Y=              1.4042    Z=              0.0519  Tot=              1.6491
                          Isotropic Fermi Contact Couplings
        Atom                 a.u.       MegaHertz       Gauss      10(-4) cm-1
     1  F(19)              0.07636     321.28569     114.64272     107.16937
     2  B(11)              0.33381     478.80391     170.84914     159.71179
     3  C(13)              0.06805      76.50345      27.29833      25.51881
     4  C(13)              0.01772      19.92173       7.10857       6.64518
     5  H(1)              -0.00072      -3.22603      -1.15113      -1.07609
     6  C(13)             -0.00153      -1.71819      -0.61309      -0.57313
     7  H(1)              -0.00062      -2.77679      -0.99083      -0.92624
     8  H(1)               0.00154       6.89262       2.45946       2.29913

 Normal termination of Gaussian 16 at Wed Apr  9 00:30:19 2025.
