 Gaussian 16, Revision C.01,

 ----------------------------------------------------------------------
 #t hf aug-cc-pvdz symm=none int=(grid=ultrafine) guess=(read,tcheck) s
 table=(opt,rrhf)
 ----------------------------------------------------------------------
 -----
 title
 -----
 Symbolic Z-matrix:
 Charge =  0 Multiplicity = 1

 SCF Done:  E(RHF) =  -1454.39434174     A.U. after   14 cycles
 Normal termination of Gaussian 16 at Wed Apr  9 00:19:36 2025.
 Gaussian 16:  ES64L-G16RevC.01  3-Jul-2019

 ----------------------------------------------------------------------
 #t hf aug-cc-pvdz iop(5/13=1,5/36=2,99/5=2) pseudo=read geom=check gue
 ss=(read,tcheck) scf=(maxcycle=1)
 ----------------------------------------------------------------------
 -----
 title
 -----
 Structure from the checkpoint file:  "BDE49_nonexpt_2630_mol1.chk"
 Charge =  0 Multiplicity = 1

                         Standard orientation:
 ---------------------------------------------------------------------
 Center     Atomic      Atomic             Coordinates (Angstroms)
 Number     Number       Type             X           Y           Z
 ---------------------------------------------------------------------
      1          9           0       -2.338784    0.008131    0.253867
      2         16           0       -1.051713   -0.903632   -0.279103
      3          6           0        0.277973    0.056919    0.450066
      4         17           0        0.399495    1.744314   -0.138102
      5         17           0        1.717944   -0.924440    0.017441
      6          1           0        0.212163    0.105561    1.531688
 ---------------------------------------------------------------------

 SCF Done:  E(RHF) =  -1454.50248499     A.U. after    2 cycles

 The electronic state is 1-A.
 Alpha  occ. eigenvalues -- -103.70650-103.69221 -93.65555 -26.15029 -11.42786
 Alpha  occ. eigenvalues --  -10.73907 -10.72507  -8.94402  -8.39626  -8.39304
 Alpha  occ. eigenvalues --   -8.39282  -8.38225  -8.37893  -8.37886  -6.28563
 Alpha  occ. eigenvalues --   -6.28185  -6.27716  -1.66207  -1.24881  -1.16605
 Alpha  occ. eigenvalues --   -1.03522  -0.88314  -0.75764  -0.75339  -0.73692
 Alpha  occ. eigenvalues --   -0.66373  -0.62191  -0.57220  -0.51135  -0.50555
 Alpha  occ. eigenvalues --   -0.48263  -0.47383  -0.40944
 Alpha virt. eigenvalues --    0.04042   0.04947   0.06343   0.07802   0.09292
 Alpha virt. eigenvalues --    0.10684   0.12530   0.12900   0.13898   0.13965
 Alpha virt. eigenvalues --    0.15069   0.16756   0.17136   0.17995   0.18513

 Mulliken charges:
               1
     1  F   -0.603166
     2  S    1.055001
     3  C   -0.648968
     4  Cl  -0.007702
     5  Cl   0.041610
     6  H    0.163224
 Sum of Mulliken charges =   0.00000

 Dipole moment (field-independent basis, Debye):
    X=              1.1155    Y=             -0.9735    Z=              0.7307  Tot=              1.6511

 Test job not archived.
 1\1\GINC-SE338\SP\RHF\Aug-CC-pVDZ\C1H1Cl2F1S1\OHZDE\09-Apr-2025\0\\#t
 hf aug-cc-pvdz iop(5/13=1,5/36=2,99/5=2) pseudo=read geom=check guess=
 (read,tcheck) scf=(maxcycle=1)\\title\\0,1\F,0,-2.338784,0.008129,0.25
 3867\S,0,-1.051712,-0.903633,-0.279103\C,0,0.277973,0.056919,0.450066\
 Cl,0,0.399493,1.744314,-0.138102\Cl,0,1.717945,-0.924438,0.017441\H,0,
 0.212163,0.105561,1.531688\\Version=ES64L-G16RevC.01\State=1-A\HF=-145
 4.502485\RMSD=4.021e-03\Dipole=0.4388745,-0.382992,0.287499\Quadrupole
 =-2.517708,0.7548203,1.7628877,0.505606,0.8128349,0.6358484\PG=C01 [X(

 Normal termination of Gaussian 16 at Wed Apr  9 00:19:38 2025.
