 Gaussian 16, Revision C.01,

 ----------------------------------------------------------------------
 #t hf aug-cc-pvdz symm=none int=(grid=ultrafine) guess=(read,tcheck) s
 table=(opt,rrhf)
 ----------------------------------------------------------------------
 -----
 title
 -----
 Symbolic Z-matrix:
 Charge =  0 Multiplicity = 1

 SCF Done:  E(RHF) =  -320.258169103     A.U. after   15 cycles

 1\1\GINC-SE419\Stability\RHF\Aug-CC-pVDZ\C7H10B2\OHZDE\09-Apr-2025\0\\
 #t hf aug-cc-pvdz symm=none int=(grid=ultrafine) guess=(read,tcheck) s
 table=(opt,rrhf)\\title\\0,1\B,0,-2.372867,-0.466194,-0.41174\B,0,-3.3
 19363,0.808507,-0.827406\C,0,-1.53359,-0.630758,0.922869\C,0,-0.119682
 ,-0.28338,0.475889\C,0,0.73132,-1.26393,-0.051063\C,0,0.348586,1.03474
 3,0.544336\C,0,2.017737,-0.941221,-0.472783\C,0,2.475526,0.372456,-0.3
 8709\C,0,1.635359,1.359714,0.122501\H,0,0.382469,-2.289011,-0.120993\H
 ,0,2.664525,-1.717255,-0.867013\H,0,3.477814,0.6239,-0.714709\H,0,1.98

 Normal termination of Gaussian 16 at Wed Apr  9 00:36:55 2025.
 Gaussian 16:  ES64L-G16RevC.01  3-Jul-2019

 ----------------------------------------------------------------------
 #t hf aug-cc-pvdz iop(5/13=1,5/36=2,99/5=2) pseudo=read geom=check gue
 ss=(read,tcheck) scf=(maxcycle=1)
 ----------------------------------------------------------------------
 -----
 title
 -----
 Structure from the checkpoint file:  "BDE49_nonexpt_54_mol1.chk"
 Charge =  0 Multiplicity = 1

                         Standard orientation:
 ---------------------------------------------------------------------
 Center     Atomic      Atomic             Coordinates (Angstroms)
 Number     Number       Type             X           Y           Z
 ---------------------------------------------------------------------
      1          5           0       -2.372867   -0.466194   -0.411740
      2          5           0       -3.319363    0.808507   -0.827406
      3          6           0       -1.533590   -0.630758    0.922869
      4          6           0       -0.119682   -0.283380    0.475889
      5          6           0        0.731320   -1.263930   -0.051063
      6          6           0        0.348586    1.034743    0.544336
      7          6           0        2.017737   -0.941221   -0.472783
      8          6           0        2.475526    0.372456   -0.387090
      9          6           0        1.635359    1.359714    0.122501
     10          1           0        0.382469   -2.289011   -0.120993
     11          1           0        2.664525   -1.717255   -0.867013
     12          1           0        3.477814    0.623900   -0.714709
     13          1           0        1.981516    2.384903    0.193737
     14          1           0       -0.298112    1.810014    0.942656
     15          1           0       -1.559697   -1.658812    1.294487
     16          1           0       -1.839830    0.034710    1.733024
     17          1           0       -2.911733    1.800578   -1.355798
     18          1           0       -4.501049    0.774705   -0.629785
     19          1           0       -2.266295   -1.361039   -1.207824
 ---------------------------------------------------------------------

 SCF Done:  E(RHF) =  -320.352933712     A.U. after    2 cycles

 The electronic state is 1-A.
 Alpha  occ. eigenvalues --  -11.25956 -11.24645 -11.24624 -11.24326 -11.24272
 Alpha  occ. eigenvalues --  -11.24248 -11.22277  -7.59781  -7.59452  -1.14659
 Alpha  occ. eigenvalues --   -1.04104  -1.01025  -0.93095  -0.83053  -0.80221
 Alpha  occ. eigenvalues --   -0.71768  -0.69803  -0.64586  -0.63625  -0.61690
 Alpha  occ. eigenvalues --   -0.59159  -0.57226  -0.55344  -0.51921  -0.49492
 Alpha  occ. eigenvalues --   -0.49418  -0.48551  -0.46529  -0.42104  -0.34139
 Alpha  occ. eigenvalues --   -0.32614
 Alpha virt. eigenvalues --    0.03131   0.03757   0.03957   0.04386   0.05130
 Alpha virt. eigenvalues --    0.05246   0.05897   0.06248   0.06677   0.07063
 Alpha virt. eigenvalues --    0.07719   0.08819   0.09284   0.09838   0.10392

 Mulliken charges:
               1
     1  B    0.189606
     2  B   -0.535491
     3  C    0.398436
     4  C    0.204703
     5  C    0.469611
     6  C    0.572313
     7  C    0.244172
     8  C    0.631695
     9  C    0.217616
    10  H   -0.611568
    11  H   -0.453377
    12  H   -0.436476
    13  H   -0.454948
    14  H   -0.618929
    15  H   -0.292683
    16  H   -0.290774
    17  H    0.294061
    18  H    0.234642
    19  H    0.237394
 Sum of Mulliken charges =  -0.00000

 Dipole moment (field-independent basis, Debye):
    X=              0.1849    Y=             -0.1725    Z=              0.4161  Tot=              0.4869

 Test job not archived.
 1\1\GINC-SE419\SP\RHF\Aug-CC-pVDZ\C7H10B2\OHZDE\09-Apr-2025\0\\#t hf a
 ug-cc-pvdz iop(5/13=1,5/36=2,99/5=2) pseudo=read geom=check guess=(rea
 d,tcheck) scf=(maxcycle=1)\\title\\0,1\B,0,-2.372867,-0.466194,-0.4117
 4\B,0,-3.319363,0.808507,-0.827406\C,0,-1.53359,-0.630758,0.922869\C,0
 ,-0.119682,-0.28338,0.475889\C,0,0.73132,-1.26393,-0.051063\C,0,0.3485
 86,1.034743,0.544336\C,0,2.017737,-0.941221,-0.472783\C,0,2.475526,0.3
 72456,-0.38709\C,0,1.635359,1.359714,0.122501\H,0,0.382469,-2.289011,-
 0.120993\H,0,2.664525,-1.717255,-0.867013\H,0,3.477814,0.6239,-0.71470

 Normal termination of Gaussian 16 at Wed Apr  9 00:37:04 2025.
