 Gaussian 16, Revision C.01,

 ----------------------------------------------------------------------
 #t hf aug-cc-pvdz symm=none int=(grid=ultrafine) guess=(read,tcheck) s
 table=(opt,rrhf)
 ----------------------------------------------------------------------
 -----
 title
 -----
 Symbolic Z-matrix:
 Charge =  0 Multiplicity = 1

 SCF Done:  E(RHF) =  -995.799856954     A.U. after   13 cycles
 Normal termination of Gaussian 16 at Tue Apr  8 23:46:30 2025.
 Gaussian 16:  ES64L-G16RevC.01  3-Jul-2019

 ----------------------------------------------------------------------
 #t hf aug-cc-pvdz iop(5/13=1,5/36=2,99/5=2) pseudo=read geom=check gue
 ss=(read,tcheck) scf=(maxcycle=1)
 ----------------------------------------------------------------------
 -----
 title
 -----
 Structure from the checkpoint file:  "BDE49_nonexpt_1791_mol1.chk"
 Charge =  0 Multiplicity = 1

                         Standard orientation:
 ---------------------------------------------------------------------
 Center     Atomic      Atomic             Coordinates (Angstroms)
 Number     Number       Type             X           Y           Z
 ---------------------------------------------------------------------
      1          6           0       -2.360075    1.140462   -0.216117
      2          6           0       -1.020345    1.193992    0.161620
      3          7           0       -3.030155   -0.000014   -0.404790
      4          6           0       -2.360064   -1.140479   -0.216078
      5          6           0       -1.020335   -1.193984    0.161661
      6          6           0       -0.314432    0.000011    0.358690
      7          1           0       -2.922543    2.056816   -0.372831
      8          1           0       -0.543471    2.158536    0.299722
      9          1           0       -2.922525   -2.056843   -0.372762
     10          1           0       -0.543451   -2.158519    0.299794
     11         14           0        1.484512    0.000028    0.865206
     12         17           0        2.718145   -0.000023   -0.817024
     13          1           0        1.801475   -1.221231    1.628773
     14          1           0        1.801471    1.221335    1.628698
 ---------------------------------------------------------------------

 SCF Done:  E(RHF) =  -995.912405328     A.U. after    2 cycles

 The electronic state is 1-A.
 Alpha  occ. eigenvalues -- -103.65523 -69.12578 -15.64508 -11.29585 -11.29572
 Alpha  occ. eigenvalues --  -11.27010 -11.26820 -11.26789 -10.68955  -8.34647
 Alpha  occ. eigenvalues --   -8.34422  -8.34420  -6.87471  -3.98282  -3.98174
 Alpha  occ. eigenvalues --   -3.98158  -1.24200  -1.13885  -1.08496  -1.03952
 Alpha  occ. eigenvalues --   -0.86813  -0.86510  -0.74865  -0.68090  -0.67928
 Alpha  occ. eigenvalues --   -0.66202  -0.61251  -0.55970  -0.54010  -0.53489
 Alpha  occ. eigenvalues --   -0.53074  -0.52813  -0.47009  -0.46291  -0.41881
 Alpha  occ. eigenvalues --   -0.39562  -0.36031
 Alpha virt. eigenvalues --    0.03016   0.03675   0.04462   0.04989   0.05856
 Alpha virt. eigenvalues --    0.05870   0.06305   0.08230   0.08672   0.09024
 Alpha virt. eigenvalues --    0.09899   0.10153   0.10632   0.12736   0.12929

 Mulliken charges:
               1
     1  C    0.411822
     2  C    1.131017
     3  N   -0.394588
     4  C    0.411825
     5  C    1.131016
     6  C   -1.168028
     7  H   -0.325947
     8  H   -0.545609
     9  H   -0.325946
    10  H   -0.545610
    11  Si   0.796306
    12  Cl  -0.557615
    13  H   -0.009320
    14  H   -0.009321
 Sum of Mulliken charges =  -0.00000

 Dipole moment (field-independent basis, Debye):
    X=              0.2050    Y=              0.0001    Z=              1.6850  Tot=              1.6974

 Test job not archived.
 1\1\GINC-SE096\SP\RHF\Aug-CC-pVDZ\C5H6Cl1N1Si1\OHZDE\08-Apr-2025\0\\#t
  hf aug-cc-pvdz iop(5/13=1,5/36=2,99/5=2) pseudo=read geom=check guess
 =(read,tcheck) scf=(maxcycle=1)\\title\\0,1\C,0,-2.360075,1.140462,-0.
 216117\C,0,-1.020345,1.193992,0.16162\N,0,-3.030155,-0.000014,-0.40479
 \C,0,-2.360064,-1.140479,-0.216078\C,0,-1.020335,-1.193984,0.161661\C,
 0,-0.314432,0.000011,0.35869\H,0,-2.922543,2.056816,-0.372831\H,0,-0.5
 43471,2.158536,0.299722\H,0,-2.922525,-2.056843,-0.372762\H,0,-0.54345
 1,-2.158519,0.299794\Si,0,1.484512,0.000028,0.865206\Cl,0,2.718145,-0.

 Normal termination of Gaussian 16 at Tue Apr  8 23:46:37 2025.
