 Gaussian 16, Revision C.01,

 ----------------------------------------------------------------------
 #t hf aug-cc-pvdz symm=none int=(grid=ultrafine) guess=(read,tcheck) s
 table=(opt,rrhf)
 ----------------------------------------------------------------------
 -----
 title
 -----
 Symbolic Z-matrix:
 Charge =  0 Multiplicity = 1

 SCF Done:  E(RHF) =  -471.051525844     A.U. after   14 cycles
 Normal termination of Gaussian 16 at Tue Apr  8 23:28:17 2025.
 Gaussian 16:  ES64L-G16RevC.01  3-Jul-2019

 ----------------------------------------------------------------------
 #t hf aug-cc-pvdz iop(5/13=1,5/36=2,99/5=2) pseudo=read geom=check gue
 ss=(read,tcheck) scf=(maxcycle=1)
 ----------------------------------------------------------------------
 -----
 title
 -----
 Structure from the checkpoint file:  "BDE49_nonexpt_135_mol1.chk"
 Charge =  0 Multiplicity = 1

                         Standard orientation:
 ---------------------------------------------------------------------
 Center     Atomic      Atomic             Coordinates (Angstroms)
 Number     Number       Type             X           Y           Z
 ---------------------------------------------------------------------
      1          5           0       -2.668512   -0.147507    0.187949
      2          5           0       -1.216234   -0.883650    0.012614
      3         15           0        0.369309   -0.047556   -0.456551
      4          6           0        0.461622    1.690177    0.176565
      5          1           0        0.488457    1.737497    1.267269
      6          1           0       -0.410030    2.243610   -0.179278
      7          1           0        1.354724    2.178477   -0.219356
      8          6           0        1.819220   -0.897870    0.319022
      9          1           0        1.766354   -1.961874    0.082346
     10          1           0        1.840771   -0.777950    1.404161
     11          1           0        2.746237   -0.499147   -0.098858
     12          1           0       -1.125221   -2.077838    0.044163
     13          1           0       -3.323594    0.289925   -0.711713
     14          1           0       -3.138659   -0.017414    1.283192
 ---------------------------------------------------------------------

 SCF Done:  E(RHF) =  -471.116697643     A.U. after    2 cycles

 The electronic state is 1-A.
 Alpha  occ. eigenvalues --  -81.23703 -11.24266 -11.24178  -7.74336  -7.60060
 Alpha  occ. eigenvalues --   -7.59337  -4.88394  -4.88385  -4.88069  -0.98218
 Alpha  occ. eigenvalues --   -0.93976  -0.76195  -0.68240  -0.60635  -0.58915
 Alpha  occ. eigenvalues --   -0.57760  -0.56409  -0.56179  -0.48903  -0.48064
 Alpha  occ. eigenvalues --   -0.44370  -0.42196  -0.30624
 Alpha virt. eigenvalues --    0.02885   0.04248   0.04316   0.04965   0.05446
 Alpha virt. eigenvalues --    0.05992   0.06290   0.06608   0.07461   0.08197
 Alpha virt. eigenvalues --    0.08381   0.08482   0.09660   0.10412   0.11351

 Mulliken charges:
               1
     1  B   -0.510340
     2  B    0.106663
     3  P    0.421046
     4  C    0.207891
     5  H   -0.158809
     6  H   -0.223415
     7  H   -0.166179
     8  C    0.209359
     9  H   -0.222652
    10  H   -0.158881
    11  H   -0.163009
    12  H    0.174893
    13  H    0.257543
    14  H    0.225890
 Sum of Mulliken charges =  -0.00000

 Dipole moment (field-independent basis, Debye):
    X=              1.1758    Y=              0.4745    Z=              1.0925  Tot=              1.6737

 Test job not archived.
 1\1\GINC-SE423\SP\RHF\Aug-CC-pVDZ\C2H9B2P1\OHZDE\08-Apr-2025\0\\#t hf
 aug-cc-pvdz iop(5/13=1,5/36=2,99/5=2) pseudo=read geom=check guess=(re
 ad,tcheck) scf=(maxcycle=1)\\title\\0,1\B,0,-2.668512,-0.147507,0.1879
 49\B,0,-1.216234,-0.88365,0.012614\P,0,0.369309,-0.047556,-0.456551\C,
 0,0.461622,1.690177,0.176565\H,0,0.488457,1.737497,1.267269\H,0,-0.410
 03,2.24361,-0.179278\H,0,1.354724,2.178477,-0.219356\C,0,1.81922,-0.89
 787,0.319022\H,0,1.766354,-1.961874,0.082346\H,0,1.840771,-0.77795,1.4
 04161\H,0,2.746237,-0.499146,-0.098858\H,0,-1.125221,-2.077838,0.04416

 Normal termination of Gaussian 16 at Tue Apr  8 23:28:21 2025.
