 Gaussian 16, Revision C.01,

 ----------------------------------------------------------------------
 #t hf aug-cc-pvdz symm=none int=(grid=ultrafine) guess=(read,tcheck) s
 table=(opt,rrhf)
 ----------------------------------------------------------------------
 -----
 title
 -----
 Symbolic Z-matrix:
 Charge =  0 Multiplicity = 1

 SCF Done:  E(RHF) =  -1177.91460722     A.U. after   15 cycles
 Normal termination of Gaussian 16 at Tue Apr  8 23:41:31 2025.
 Gaussian 16:  ES64L-G16RevC.01  3-Jul-2019

 ----------------------------------------------------------------------
 #t hf aug-cc-pvdz iop(5/13=1,5/36=2,99/5=2) pseudo=read geom=check gue
 ss=(read,tcheck) scf=(maxcycle=1)
 ----------------------------------------------------------------------
 -----
 title
 -----
 Structure from the checkpoint file:  "BDE49_nonexpt_1643_mol1.chk"
 Charge =  0 Multiplicity = 1

                         Standard orientation:
 ---------------------------------------------------------------------
 Center     Atomic      Atomic             Coordinates (Angstroms)
 Number     Number       Type             X           Y           Z
 ---------------------------------------------------------------------
      1         14           0        0.267573    0.212996    1.007701
      2          7           0        1.010710    1.658385    0.021435
      3         15           0       -1.619407   -0.285331   -0.168849
      4          8           0        0.331584    2.249886   -0.827403
      5          8           0        2.158152    1.967695    0.302920
      6          8           0       -1.380217   -1.247731   -1.258221
      7          8           0       -2.248768    1.137082   -0.523438
      8          6           0        1.551893   -1.133607    1.153614
      9          6           0        1.799920   -2.034790   -0.075667
     10          1           0        1.241094   -1.741625    2.013319
     11          1           0        2.476964   -0.630257    1.460549
     12          6           0        2.327214   -1.289111   -1.304285
     13          1           0        0.875310   -2.551935   -0.343876
     14          1           0        2.519747   -2.805741    0.218517
     15          1           0        1.572838   -0.614061   -1.718367
     16          1           0        2.585437   -1.994566   -2.097389
     17          1           0        3.220481   -0.703178   -1.069776
     18          1           0       -1.564332    1.725386   -0.897436
     19          8           0       -2.668436   -0.792762    0.941165
     20          1           0       -3.042564   -1.649967    0.700111
     21          1           0       -0.027556    0.886964    2.287061
 ---------------------------------------------------------------------

 SCF Done:  E(RHF) =  -1178.17251587     A.U. after    2 cycles

 The electronic state is 1-A.
 Alpha  occ. eigenvalues --  -81.42787 -69.14817 -20.64348 -20.63638 -20.63115
 Alpha  occ. eigenvalues --  -20.61805 -20.54020 -15.90332 -11.26458 -11.25486
 Alpha  occ. eigenvalues --  -11.23457  -7.91191  -6.89903  -5.05830  -5.05745
 Alpha  occ. eigenvalues --   -5.05351  -4.00727  -4.00550  -4.00513  -1.55227
 Alpha  occ. eigenvalues --   -1.39024  -1.37531  -1.35470  -1.27124  -1.07148
 Alpha  occ. eigenvalues --   -0.96657  -0.94345  -0.86170  -0.83645  -0.81140
 Alpha  occ. eigenvalues --   -0.75551  -0.74794  -0.72724  -0.71518  -0.68339
 Alpha  occ. eigenvalues --   -0.66412  -0.63401  -0.63023  -0.61528  -0.60664
 Alpha  occ. eigenvalues --   -0.58824  -0.57901  -0.54143  -0.53753  -0.53123
 Alpha  occ. eigenvalues --   -0.51170  -0.50489  -0.49649  -0.49505  -0.49000
 Alpha  occ. eigenvalues --   -0.47177  -0.43969
 Alpha virt. eigenvalues --    0.02177   0.03762   0.03877   0.04651   0.05007
 Alpha virt. eigenvalues --    0.05846   0.06063   0.06596   0.07069   0.07773
 Alpha virt. eigenvalues --    0.08187   0.09227   0.09428   0.09860   0.10661

 Mulliken charges:
               1
     1  Si   0.788409
     2  N    0.613300
     3  P    2.174748
     4  O   -0.696720
     5  O   -0.624191
     6  O   -1.026606
     7  O   -0.805443
     8  C    0.160884
     9  C    0.183516
    10  H   -0.203344
    11  H   -0.108556
    12  C    0.416831
    13  H   -0.116266
    14  H   -0.074851
    15  H   -0.115885
    16  H   -0.153649
    17  H   -0.096501
    18  H    0.245718
    19  O   -0.713317
    20  H    0.140898
    21  H    0.011025
 Sum of Mulliken charges =  -0.00000

 Dipole moment (field-independent basis, Debye):
    X=              0.4723    Y=             -2.9142    Z=              3.8505  Tot=              4.8520

 Test job not archived.
 1\1\GINC-SE072\SP\RHF\Aug-CC-pVDZ\C3H10N1O5P1Si1\OHZDE\08-Apr-2025\0\\
 #t hf aug-cc-pvdz iop(5/13=1,5/36=2,99/5=2) pseudo=read geom=check gue
 ss=(read,tcheck) scf=(maxcycle=1)\\title\\0,1\Si,0,0.267573,0.212996,1
 .007701\N,0,1.01071,1.658385,0.021435\P,0,-1.619407,-0.285331,-0.16884
 9\O,0,0.331584,2.249886,-0.827403\O,0,2.158152,1.967695,0.30292\O,0,-1
 .380217,-1.247731,-1.258221\O,0,-2.248768,1.137082,-0.523438\C,0,1.551
 893,-1.133607,1.153614\C,0,1.79992,-2.03479,-0.075667\H,0,1.241094,-1.
 741625,2.013319\H,0,2.476964,-0.630257,1.460549\C,0,2.327214,-1.289111

 Normal termination of Gaussian 16 at Tue Apr  8 23:41:46 2025.
