 Gaussian 16, Revision C.01,

 ----------------------------------------------------------------------
 #t hf aug-cc-pvdz symm=none int=(grid=ultrafine) guess=(read,tcheck) s
 table=(opt,rrhf)
 ----------------------------------------------------------------------
 -----
 title
 -----
 Symbolic Z-matrix:
 Charge =  0 Multiplicity = 1

 SCF Done:  E(RHF) =  -382.475927401     A.U. after   15 cycles
 Normal termination of Gaussian 16 at Tue Apr  8 22:42:24 2025.
 Gaussian 16:  ES64L-G16RevC.01  3-Jul-2019

 ----------------------------------------------------------------------
 #t hf aug-cc-pvdz iop(5/13=1,5/36=2,99/5=2) pseudo=read geom=check gue
 ss=(read,tcheck) scf=(maxcycle=1)
 ----------------------------------------------------------------------
 -----
 title
 -----
 Structure from the checkpoint file:  "BDE49_expt_1429_mol1.chk"
 Charge =  0 Multiplicity = 1

                         Standard orientation:
 ---------------------------------------------------------------------
 Center     Atomic      Atomic             Coordinates (Angstroms)
 Number     Number       Type             X           Y           Z
 ---------------------------------------------------------------------
      1          6           0        3.570108    0.147020   -0.115791
      2          6           0        2.325262    0.188820    0.342036
      3          8           0        1.356557   -0.656845   -0.132417
      4          6           0        0.037033   -0.269823   -0.062444
      5          6           0       -0.906303   -1.294644    0.023115
      6          6           0       -0.369718    1.063521   -0.117231
      7          6           0       -1.730531    1.364121   -0.064741
      8          6           0       -2.678874    0.349821    0.027280
      9          6           0       -2.259349   -0.980676    0.064657
     10          1           0       -0.559068   -2.319994    0.056905
     11          1           0       -2.989619   -1.779092    0.132270
     12          1           0        0.362255    1.854390   -0.223817
     13          1           0       -2.045568    2.400620   -0.108632
     14          1           0       -3.734614    0.590836    0.063441
     15          1           0        4.329469    0.773073    0.331697
     16          1           0        3.850971   -0.518435   -0.922113
     17          1           0        2.007943    0.844409    1.148298
 ---------------------------------------------------------------------

 SCF Done:  E(RHF) =  -382.593621658     A.U. after    2 cycles

 The electronic state is 1-A.
 Alpha  occ. eigenvalues --  -20.61593 -11.31875 -11.31265 -11.25537 -11.25424
 Alpha  occ. eigenvalues --  -11.24909 -11.24564 -11.24416 -11.23338  -1.39131
 Alpha  occ. eigenvalues --   -1.14830  -1.05230  -1.01997  -0.99228  -0.86297
 Alpha  occ. eigenvalues --   -0.83928  -0.79074  -0.74612  -0.68693  -0.67195
 Alpha  occ. eigenvalues --   -0.65410  -0.62871  -0.60235  -0.58898  -0.57856
 Alpha  occ. eigenvalues --   -0.54029  -0.52666  -0.50215  -0.50015  -0.37507
 Alpha  occ. eigenvalues --   -0.34972  -0.32367
 Alpha virt. eigenvalues --    0.03409   0.03967   0.04201   0.05296   0.05323
 Alpha virt. eigenvalues --    0.06040   0.07008   0.07440   0.09861   0.10447
 Alpha virt. eigenvalues --    0.11041   0.11678   0.12079   0.12497   0.13251

 Mulliken charges:
               1
     1  C    0.487312
     2  C    0.768923
     3  O   -0.701974
     4  C    0.506010
     5  C    0.380912
     6  C    0.301122
     7  C    0.449196
     8  C    0.435663
     9  C    0.707048
    10  H   -0.495755
    11  H   -0.427624
    12  H   -0.559536
    13  H   -0.438185
    14  H   -0.443399
    15  H   -0.256319
    16  H   -0.358635
    17  H   -0.354758
 Sum of Mulliken charges =  -0.00000

 Dipole moment (field-independent basis, Debye):
    X=             -0.5487    Y=              0.9838    Z=              0.5148  Tot=              1.2385

 Test job not archived.
 1\1\GINC-SE051\SP\RHF\Aug-CC-pVDZ\C8H8O1\OHZDE\08-Apr-2025\0\\#t hf au
 g-cc-pvdz iop(5/13=1,5/36=2,99/5=2) pseudo=read geom=check guess=(read
 ,tcheck) scf=(maxcycle=1)\\title\\0,1\C,0,3.570108,0.14702,-0.115791\C
 ,0,2.325262,0.18882,0.342036\O,0,1.356557,-0.656845,-0.132417\C,0,0.03
 7033,-0.269823,-0.062444\C,0,-0.906303,-1.294644,0.023115\C,0,-0.36971
 8,1.063521,-0.117231\C,0,-1.730531,1.364121,-0.064741\C,0,-2.678874,0.
 349821,0.02728\C,0,-2.259349,-0.980676,0.064657\H,0,-0.559068,-2.31999
 4,0.056905\H,0,-2.989619,-1.779092,0.13227\H,0,0.362255,1.85439,-0.223

 Normal termination of Gaussian 16 at Tue Apr  8 22:42:32 2025.
