 Gaussian 16, Revision C.01,

 ----------------------------------------------------------------------
 #t hf aug-cc-pvdz symm=none int=(grid=ultrafine) guess=(read,tcheck) s
 table=opt
 ----------------------------------------------------------------------
 -----
 title
 -----
 Symbolic Z-matrix:
 Charge =  0 Multiplicity = 2

 SCF Done:  E(UHF) =  -605.946023310     A.U. after   14 cycles

 1\1\GINC-SE345\Stability\UHF\Aug-CC-pVDZ\B1H6Si2\OHZDE\09-Apr-2025\0\\
 #t hf aug-cc-pvdz symm=none int=(grid=ultrafine) guess=(read,tcheck) s
 table=opt\\title\\0,2\B,0,0.,0.096711,0.000019\Si,0,1.964599,0.000706,
 -0.000002\Si,0,-1.964599,0.000706,-0.000002\H,0,-2.601461,0.604343,1.1
 9814\H,0,-2.24859,-1.460422,-0.000046\H,0,-2.60144,0.604412,-1.19812\H
 ,0,2.60146,0.604347,1.198139\H,0,2.60144,0.604409,-1.198122\H,0,2.2485
 9,-1.460422,-0.000041\\Version=ES64L-G16RevC.01\HF=-605.9460233\S2=0.7
 63225\S2-1=0.\S2A=0.750059\RMSD=6.241e-09\Dipole=0.0000006,0.1211966,-

 Normal termination of Gaussian 16 at Wed Apr  9 00:45:55 2025.
 Gaussian 16:  ES64L-G16RevC.01  3-Jul-2019

 ----------------------------------------------------------------------
 #t hf aug-cc-pvdz iop(5/13=1,5/36=2,99/5=2) pseudo=read geom=check gue
 ss=(read,tcheck) scf=(maxcycle=1)
 ----------------------------------------------------------------------
 -----
 title
 -----
 Structure from the checkpoint file:  "BDE49_nonexpt_855_mol2.chk"
 Charge =  0 Multiplicity = 2

                         Standard orientation:
 ---------------------------------------------------------------------
 Center     Atomic      Atomic             Coordinates (Angstroms)
 Number     Number       Type             X           Y           Z
 ---------------------------------------------------------------------
      1          5           0       -0.000000   -0.096711    0.000019
      2         14           0       -1.964599   -0.000706   -0.000002
      3         14           0        1.964599   -0.000706   -0.000002
      4          1           0        2.601461   -0.604343    1.198140
      5          1           0        2.248590    1.460422   -0.000046
      6          1           0        2.601440   -0.604412   -1.198120
      7          1           0       -2.601460   -0.604347    1.198139
      8          1           0       -2.601440   -0.604409   -1.198122
      9          1           0       -2.248590    1.460422   -0.000041
 ---------------------------------------------------------------------

 SCF Done:  E(UHF) =  -605.994983743     A.U. after    2 cycles

 The electronic state is 2-A.
 Alpha  occ. eigenvalues --  -69.06287 -69.06287  -7.64607  -6.81661  -6.81652
 Alpha  occ. eigenvalues --   -3.92477  -3.92475  -3.92419  -3.92416  -3.92391
 Alpha  occ. eigenvalues --   -3.92372  -0.75559  -0.70812  -0.57641  -0.49581
 Alpha  occ. eigenvalues --   -0.48775  -0.48516  -0.48471  -0.42922  -0.31036
 Alpha virt. eigenvalues --    0.01560   0.03188   0.04382   0.05623   0.06384
 Alpha virt. eigenvalues --    0.06578   0.07629   0.07921   0.08068   0.08300
 Alpha virt. eigenvalues --    0.09185   0.10177   0.10208   0.10499   0.10921

  Beta  occ. eigenvalues --  -69.06359 -69.06358  -7.63123  -6.81770  -6.81760
  Beta  occ. eigenvalues --   -3.92594  -3.92579  -3.92529  -3.92524  -3.92494
  Beta  occ. eigenvalues --   -3.92492  -0.73075  -0.70650  -0.52474  -0.48529
  Beta  occ. eigenvalues --   -0.48258  -0.47827  -0.47614  -0.41825
  Beta virt. eigenvalues --    0.02660   0.03425   0.04396   0.04687   0.05731
  Beta virt. eigenvalues --    0.06777   0.07396   0.07632   0.08114   0.08114
  Beta virt. eigenvalues --    0.08313   0.09183   0.10201   0.10284   0.11205

 Mulliken charges and spin densities:
               1          2
     1  B    0.314156   1.318009
     2  Si  -0.140414  -0.215368
     3  Si  -0.140413  -0.215368
     4  H   -0.010564   0.033344
     5  H    0.004461  -0.010325
     6  H   -0.010563   0.033345
     7  H   -0.010563   0.033344
     8  H   -0.010563   0.033345
     9  H    0.004462  -0.010325
 Sum of Mulliken charges =  -0.00000   1.00000

 Dipole moment (field-independent basis, Debye):
    X=             -0.0000    Y=             -0.3409    Z=              0.0000  Tot=              0.3409
                          Isotropic Fermi Contact Couplings
        Atom                 a.u.       MegaHertz       Gauss      10(-4) cm-1
     1  B(11)              0.10708     153.58874      54.80428      51.23169
     2  Si(29)            -0.08189      72.77813      25.96905      24.27617
     3  Si(29)            -0.08189      72.77813      25.96905      24.27617
     4  H(1)               0.00912      40.75221      14.54140      13.59347
     5  H(1)              -0.00058      -2.57539      -0.91896      -0.85906
     6  H(1)               0.00912      40.75350      14.54186      13.59390
     7  H(1)               0.00912      40.75209      14.54136      13.59343
     8  H(1)               0.00912      40.75363      14.54191      13.59395

 Normal termination of Gaussian 16 at Wed Apr  9 00:45:57 2025.
