 Gaussian 16, Revision C.01,

 ----------------------------------------------------------------------
 #t hf aug-cc-pvdz symm=none int=(grid=ultrafine) guess=(read,tcheck) s
 table=opt
 ----------------------------------------------------------------------
 -----
 title
 -----
 Symbolic Z-matrix:
 Charge =  0 Multiplicity = 2

 SCF Done:  E(UHF) =  -973.354355603     A.U. after   17 cycles
 Normal termination of Gaussian 16 at Wed Apr  9 00:36:57 2025.
 Gaussian 16:  ES64L-G16RevC.01  3-Jul-2019

 ----------------------------------------------------------------------
 #t hf aug-cc-pvdz iop(5/13=1,5/36=2,99/5=2) pseudo=read geom=check gue
 ss=(read,tcheck) scf=(maxcycle=1)
 ----------------------------------------------------------------------
 -----
 title
 -----
 Structure from the checkpoint file:  "BDE49_nonexpt_606_mol3.chk"
 Charge =  0 Multiplicity = 2

                         Standard orientation:
 ---------------------------------------------------------------------
 Center     Atomic      Atomic             Coordinates (Angstroms)
 Number     Number       Type             X           Y           Z
 ---------------------------------------------------------------------
      1          7           0        0.000000   -0.000000    0.814373
      2         17           0        0.000000    1.420630   -0.167665
      3         17           0       -0.000000   -1.420630   -0.167665
 ---------------------------------------------------------------------

 SCF Done:  E(UHF) =  -973.409252524     A.U. after    2 cycles

 The electronic state is 2-B1.
 Alpha  occ. eigenvalues -- -103.72101-103.72100 -15.81533 -10.75230 -10.75221
 Alpha  occ. eigenvalues --   -8.40754  -8.40753  -8.40704  -8.40697  -8.40556
 Alpha  occ. eigenvalues --   -8.40553  -1.33133  -1.17696  -0.98675  -0.68445
 Alpha  occ. eigenvalues --   -0.65711  -0.62791  -0.52055  -0.48738  -0.47634
 Alpha  occ. eigenvalues --   -0.45705
 Alpha virt. eigenvalues --    0.04298   0.07499   0.11813   0.12210   0.13046
 Alpha virt. eigenvalues --    0.14147   0.16119   0.16660   0.18564   0.19821
 Alpha virt. eigenvalues --    0.20685   0.22091   0.30810   0.30919   0.38620

  Beta  occ. eigenvalues -- -103.72130-103.72129 -15.77654 -10.75255 -10.75246
  Beta  occ. eigenvalues --   -8.41246  -8.41238  -8.40562  -8.40559  -8.40384
  Beta  occ. eigenvalues --   -8.40382  -1.27987  -1.17762  -0.90127  -0.64076
  Beta  occ. eigenvalues --   -0.60628  -0.55110  -0.49522  -0.48755  -0.45494
  Beta virt. eigenvalues --    0.05151   0.06238   0.07912   0.12034   0.12321
  Beta virt. eigenvalues --    0.13307   0.14398   0.16158   0.17696   0.19934
  Beta virt. eigenvalues --    0.20820   0.22472   0.23182   0.30864   0.31249

 Mulliken charges and spin densities:
               1          2
     1  N   -0.648140   1.137841
     2  Cl   0.324070  -0.068921
     3  Cl   0.324070  -0.068921
 Sum of Mulliken charges =  -0.00000   1.00000

 Dipole moment (field-independent basis, Debye):
    X=             -0.0000    Y=             -0.0000    Z=             -0.3744  Tot=              0.3744
                          Isotropic Fermi Contact Couplings
        Atom                 a.u.       MegaHertz       Gauss      10(-4) cm-1
     1  N(14)              0.27258      88.07336      31.42676      29.37811
     2  Cl(35)             0.03575      15.67667       5.59383       5.22917
     3  Cl(35)             0.03575      15.67667       5.59383       5.22917
 --------------------------------------------------------
       Center         ----  Spin Dipole Couplings  ----
                      3XX-RR        3YY-RR        3ZZ-RR
 --------------------------------------------------------
     1   Atom        2.106691     -1.067203     -1.039488

 Normal termination of Gaussian 16 at Wed Apr  9 00:36:59 2025.
