 Gaussian 16, Revision C.01,

 ----------------------------------------------------------------------
 #t hf aug-cc-pvdz symm=none int=(grid=ultrafine) guess=(read,tcheck) s
 table=(opt,rrhf)
 ----------------------------------------------------------------------
 -----
 title
 -----
 Symbolic Z-matrix:
 Charge =  0 Multiplicity = 1

 SCF Done:  E(RHF) =  -1037.26028961     A.U. after   13 cycles
 Normal termination of Gaussian 16 at Wed Apr  9 00:00:24 2025.
 Gaussian 16:  ES64L-G16RevC.01  3-Jul-2019

 ----------------------------------------------------------------------
 #t hf aug-cc-pvdz iop(5/13=1,5/36=2,99/5=2) pseudo=read geom=check gue
 ss=(read,tcheck) scf=(maxcycle=1)
 ----------------------------------------------------------------------
 -----
 title
 -----
 Structure from the checkpoint file:  "BDE49_nonexpt_215_mol1.chk"
 Charge =  0 Multiplicity = 1

                         Standard orientation:
 ---------------------------------------------------------------------
 Center     Atomic      Atomic             Coordinates (Angstroms)
 Number     Number       Type             X           Y           Z
 ---------------------------------------------------------------------
      1         17           0        0.393000    1.579959   -0.000026
      2         17           0       -1.809194   -0.508825    0.000026
      3          5           0       -0.100291   -0.109359    0.000009
      4          6           0        0.970615   -1.257240    0.000005
      5          7           0        2.238710   -1.103574   -0.000011
      6          1           0        2.477212   -0.104766   -0.000024
      7          1           0        0.604889   -2.289247    0.000025
 ---------------------------------------------------------------------

 SCF Done:  E(RHF) =  -1037.32936151     A.U. after    2 cycles

 The electronic state is 1-A.
 Alpha  occ. eigenvalues -- -103.68781-103.68765 -15.66227 -11.29834 -10.72277
 Alpha  occ. eigenvalues --  -10.72242  -8.37958  -8.37942  -8.37734  -8.37722
 Alpha  occ. eigenvalues --   -8.37706  -8.37683  -7.75111  -1.21212  -1.18768
 Alpha  occ. eigenvalues --   -1.16361  -0.86211  -0.73672  -0.65571  -0.63303
 Alpha  occ. eigenvalues --   -0.58176  -0.54966  -0.51381  -0.49762  -0.48798
 Alpha  occ. eigenvalues --   -0.46270  -0.43428
 Alpha virt. eigenvalues --    0.02741   0.03770   0.04713   0.05166   0.05472
 Alpha virt. eigenvalues --    0.07467   0.08069   0.11545   0.12849   0.14170
 Alpha virt. eigenvalues --    0.14227   0.15185   0.16606   0.16709   0.17795

 Mulliken charges:
               1
     1  Cl  -0.292666
     2  Cl  -0.289330
     3  B    0.609136
     4  C    0.555701
     5  N   -0.353588
     6  H    0.059896
     7  H   -0.289148
 Sum of Mulliken charges =  -0.00000

 Dipole moment (field-independent basis, Debye):
    X=             -0.6356    Y=              0.3410    Z=              0.0000  Tot=              0.7213

 Test job not archived.
 1\1\GINC-SE364\SP\RHF\Aug-CC-pVDZ\C1H2B1Cl2N1\OHZDE\09-Apr-2025\0\\#t
 hf aug-cc-pvdz iop(5/13=1,5/36=2,99/5=2) pseudo=read geom=check guess=
 (read,tcheck) scf=(maxcycle=1)\\title\\0,1\Cl,0,-0.393,1.579959,0.0000
 26\Cl,0,1.809194,-0.508825,-0.000026\B,0,0.100291,-0.109359,-0.000009\
 C,0,-0.970615,-1.25724,-0.000005\N,0,-2.23871,-1.103574,0.000011\H,0,-
 2.477212,-0.104766,0.000024\H,0,-0.604889,-2.289247,-0.000025\\Version
 =ES64L-G16RevC.01\State=1-A\HF=-1037.3293615\RMSD=2.259e-03\Dipole=0.2
 500782,0.1341621,-0.0000094\Quadrupole=-2.2648981,0.4310158,1.8338823,

 Normal termination of Gaussian 16 at Wed Apr  9 00:00:27 2025.
