 Gaussian 16, Revision C.01,

 ----------------------------------------------------------------------
 #t hf aug-cc-pvdz symm=none int=(grid=ultrafine) guess=(read,tcheck) s
 table=(opt,rrhf)
 ----------------------------------------------------------------------
 -----
 title
 -----
 Symbolic Z-matrix:
 Charge =  0 Multiplicity = 1

 SCF Done:  E(RHF) =  -847.578450183     A.U. after   12 cycles
 Normal termination of Gaussian 16 at Wed Apr  9 00:11:12 2025.
 Gaussian 16:  ES64L-G16RevC.01  3-Jul-2019

 ----------------------------------------------------------------------
 #t hf aug-cc-pvdz iop(5/13=1,5/36=2,99/5=2) pseudo=read geom=check gue
 ss=(read,tcheck) scf=(maxcycle=1)
 ----------------------------------------------------------------------
 -----
 title
 -----
 Structure from the checkpoint file:  "BDE49_nonexpt_2379_mol1.chk"
 Charge =  0 Multiplicity = 1

                         Standard orientation:
 ---------------------------------------------------------------------
 Center     Atomic      Atomic             Coordinates (Angstroms)
 Number     Number       Type             X           Y           Z
 ---------------------------------------------------------------------
      1         14           0       -0.441684   -1.097202    1.152313
      2         14           0        0.441684    1.097202    1.152313
      3          7           0        0.242244    1.896455   -0.373926
      4          1           0        1.900353    1.092988    1.434718
      5          1           0       -0.190265    1.790846    2.320091
      6          7           0       -0.242244   -1.896455   -0.373926
      7          1           0       -1.900353   -1.092988    1.434718
      8          1           0        0.190265   -1.790846    2.320091
      9          6           0       -0.980657    1.771720   -1.157760
     10          1           0       -1.728096    2.542439   -0.911061
     11          1           0       -1.434721    0.790560   -1.005255
     12          1           0       -0.751757    1.864657   -2.226909
     13          6           0        0.980657   -1.771720   -1.157760
     14          1           0        1.728096   -2.542439   -0.911061
     15          1           0        1.434721   -0.790560   -1.005255
     16          1           0        0.751757   -1.864657   -2.226909
     17          6           0        0.980657    3.121437   -0.658787
     18          1           0        1.923865    3.134648   -0.107900
     19          1           0        0.418242    4.029935   -0.390571
     20          1           0        1.217397    3.181783   -1.728730
     21          6           0       -0.980657   -3.121437   -0.658787
     22          1           0       -1.923865   -3.134648   -0.107900
     23          1           0       -0.418242   -4.029935   -0.390571
     24          1           0       -1.217397   -3.181783   -1.728730
 ---------------------------------------------------------------------

 SCF Done:  E(RHF) =  -847.719174068     A.U. after    2 cycles

 The electronic state is 1-A.
 Alpha  occ. eigenvalues --  -69.06437 -69.06437 -15.59962 -15.59962 -11.26052
 Alpha  occ. eigenvalues --  -11.26052 -11.25949 -11.25949  -6.81536  -6.81527
 Alpha  occ. eigenvalues --   -3.92371  -3.92358  -3.92312  -3.92269  -3.92242
 Alpha  occ. eigenvalues --   -3.92208  -1.16100  -1.15817  -0.95039  -0.94876
 Alpha  occ. eigenvalues --   -0.85044  -0.84569  -0.71623  -0.67385  -0.62735
 Alpha  occ. eigenvalues --   -0.61944  -0.60999  -0.60640  -0.60436  -0.57931
 Alpha  occ. eigenvalues --   -0.54430  -0.54319  -0.51659  -0.51598  -0.49320
 Alpha  occ. eigenvalues --   -0.48824  -0.47859  -0.45964  -0.39299  -0.35051
 Alpha  occ. eigenvalues --   -0.33974
 Alpha virt. eigenvalues --    0.03319   0.03789   0.04356   0.04396   0.05732
 Alpha virt. eigenvalues --    0.05981   0.06114   0.07069   0.07279   0.07933
 Alpha virt. eigenvalues --    0.08239   0.08261   0.08995   0.09349   0.09519

 Mulliken charges:
               1
     1  Si  -0.253525
     2  Si  -0.253525
     3  N   -0.366535
     4  H    0.238288
     5  H    0.115471
     6  N   -0.366535
     7  H    0.238288
     8  H    0.115471
     9  C    0.781712
    10  H   -0.115725
    11  H   -0.434565
    12  H   -0.162002
    13  C    0.781712
    14  H   -0.115725
    15  H   -0.434565
    16  H   -0.162002
    17  C    0.758455
    18  H   -0.296431
    19  H   -0.082871
    20  H   -0.182272
    21  C    0.758455
    22  H   -0.296431
    23  H   -0.082871
    24  H   -0.182272
 Sum of Mulliken charges =   0.00000

 Dipole moment (field-independent basis, Debye):
    X=             -0.0000    Y=              0.0000    Z=             -1.5293  Tot=              1.5293

 Test job not archived.
 1\1\GINC-SE460\SP\RHF\Aug-CC-pVDZ\C4H16N2Si2\OHZDE\09-Apr-2025\0\\#t h
 f aug-cc-pvdz iop(5/13=1,5/36=2,99/5=2) pseudo=read geom=check guess=(
 read,tcheck) scf=(maxcycle=1)\\title\\0,1\Si,0,-0.441684,-1.097202,1.1
 52313\Si,0,0.441684,1.097202,1.152313\N,0,0.242244,1.896455,-0.373926\
 H,0,1.900353,1.092988,1.434718\H,0,-0.190265,1.790846,2.320091\N,0,-0.
 242244,-1.896455,-0.373926\H,0,-1.900353,-1.092988,1.434718\H,0,0.1902
 65,-1.790846,2.320091\C,0,-0.980657,1.77172,-1.15776\H,0,-1.728096,2.5
 42439,-0.911061\H,0,-1.434721,0.79056,-1.005255\H,0,-0.751757,1.864657

 Normal termination of Gaussian 16 at Wed Apr  9 00:11:20 2025.
