 Gaussian 16, Revision C.01,

 ----------------------------------------------------------------------
 #t hf aug-cc-pvdz symm=none int=(grid=ultrafine) guess=(read,tcheck) s
 table=opt
 ----------------------------------------------------------------------
 -----
 title
 -----
 Symbolic Z-matrix:
 Charge =  0 Multiplicity = 2

 SCF Done:  E(UHF) =  -380.883888217     A.U. after   17 cycles
 Normal termination of Gaussian 16 at Tue Apr  8 23:52:17 2025.
 Gaussian 16:  ES64L-G16RevC.01  3-Jul-2019

 ----------------------------------------------------------------------
 #t hf aug-cc-pvdz iop(5/13=1,5/36=2,99/5=2) pseudo=read geom=check gue
 ss=(read,tcheck) scf=(maxcycle=1)
 ----------------------------------------------------------------------
 -----
 title
 -----
 Structure from the checkpoint file:  "BDE49_nonexpt_1950_mol2.chk"
 Charge =  0 Multiplicity = 2

                         Standard orientation:
 ---------------------------------------------------------------------
 Center     Atomic      Atomic             Coordinates (Angstroms)
 Number     Number       Type             X           Y           Z
 ---------------------------------------------------------------------
      1          6           0       -1.184562   -0.000000    0.070522
      2         15           0        0.580506   -0.000001   -0.122784
      3          1           0        0.938014   -1.056756    0.754107
      4          1           0        0.938010    1.056769    0.754090
      5          1           0       -1.738118   -0.924252   -0.044787
      6          1           0       -1.738117    0.924253   -0.044780
 ---------------------------------------------------------------------

 SCF Done:  E(UHF) =  -380.919909167     A.U. after    2 cycles

 The electronic state is 2-A.
 Alpha  occ. eigenvalues --  -81.26015 -11.25495  -7.76444  -4.90379  -4.90378
 Alpha  occ. eigenvalues --   -4.90102  -0.97238  -0.76276  -0.61234  -0.52946
 Alpha  occ. eigenvalues --   -0.50809  -0.45384  -0.31564
 Alpha virt. eigenvalues --    0.03614   0.05083   0.05333   0.08305   0.09003
 Alpha virt. eigenvalues --    0.10562   0.11183   0.13560   0.15530   0.17485
 Alpha virt. eigenvalues --    0.17750   0.20058   0.20337   0.22222   0.25879

  Beta  occ. eigenvalues --  -81.26050 -11.23120  -7.76481  -4.90552  -4.90468
  Beta  occ. eigenvalues --   -4.90042  -0.90242  -0.74362  -0.59873  -0.50895
  Beta  occ. eigenvalues --   -0.49922  -0.35910
  Beta virt. eigenvalues --    0.03702   0.05172   0.05356   0.07170   0.08320
  Beta virt. eigenvalues --    0.09079   0.10842   0.11260   0.15712   0.17640
  Beta virt. eigenvalues --    0.17872   0.17935   0.20339   0.20643   0.23083

 Mulliken charges and spin densities:
               1          2
     1  C    0.114248   1.245671
     2  P    0.048002  -0.158087
     3  H    0.129133   0.045716
     4  H    0.129130   0.045714
     5  H   -0.210256  -0.089507
     6  H   -0.210257  -0.089508
 Sum of Mulliken charges =   0.00000   1.00000

 Dipole moment (field-independent basis, Debye):
    X=             -0.6024    Y=              0.0000    Z=              0.4867  Tot=              0.7744
                          Isotropic Fermi Contact Couplings
        Atom                 a.u.       MegaHertz       Gauss      10(-4) cm-1
     1  C(13)              0.21462     241.27504      86.09294      80.48069
     2  P(31)              0.01420      25.72167       9.17813       8.57983
     3  H(1)               0.01525      68.14818      24.31696      22.73178
     4  H(1)               0.01525      68.14470      24.31572      22.73062
     5  H(1)              -0.02275    -101.67156     -36.27894     -33.91398
     6  H(1)              -0.02275    -101.67190     -36.27906     -33.91410
 --------------------------------------------------------
       Center         ----  Spin Dipole Couplings  ----

 Normal termination of Gaussian 16 at Tue Apr  8 23:52:19 2025.
