 Gaussian 16, Revision C.01,

 ----------------------------------------------------------------------
 #t hf aug-cc-pvdz symm=none int=(grid=ultrafine) guess=(read,tcheck) s
 table=(opt,rrhf)
 ----------------------------------------------------------------------
 -----
 title
 -----
 Symbolic Z-matrix:
 Charge =  0 Multiplicity = 1

 SCF Done:  E(RHF) =  -1551.92916168     A.U. after   16 cycles
 Normal termination of Gaussian 16 at Wed Apr  9 00:52:52 2025.
 Gaussian 16:  ES64L-G16RevC.01  3-Jul-2019

 ----------------------------------------------------------------------
 #t hf aug-cc-pvdz iop(5/13=1,5/36=2,99/5=2) pseudo=read geom=check gue
 ss=(read,tcheck) scf=(maxcycle=1)
 ----------------------------------------------------------------------
 -----
 title
 -----
 Structure from the checkpoint file:  "BDE49_nonexpt_938_mol1.chk"
 Charge =  0 Multiplicity = 1

                         Standard orientation:
 ---------------------------------------------------------------------
 Center     Atomic      Atomic             Coordinates (Angstroms)
 Number     Number       Type             X           Y           Z
 ---------------------------------------------------------------------
      1         17           0        3.262031   -0.557364   -0.130702
      2          7           0        1.536855   -0.839464   -0.064972
      3          6           0        0.832656    0.229728    0.110268
      4          7           0        1.258485    1.495331    0.323155
      5          1           0        2.264347    1.576429    0.250015
      6          6           0        0.510245    2.742098    0.179032
      7          1           0        1.060686    3.523031    0.703456
      8          1           0       -0.470757    2.666442    0.645502
      9          1           0        0.387703    3.027448   -0.868911
     10          6           0       -0.656383   -0.088660    0.187938
     11         17           0       -1.369145    0.335016    1.731709
     12          7           0       -1.450606    0.589649   -0.984666
     13          8           0       -2.651308    0.640508   -0.867474
     14          8           0       -0.775330    0.971662   -1.917505
     15          7           0       -0.881785   -1.646445   -0.081623
     16          8           0       -1.008557   -1.943202   -1.245984
     17          8           0       -0.912404   -2.357208    0.886731
 ---------------------------------------------------------------------

 SCF Done:  E(RHF) =  -1552.15539208     A.U. after    2 cycles

 The electronic state is 1-A.
 Alpha  occ. eigenvalues -- -103.73807-103.70374 -20.67128 -20.67060 -20.66159
 Alpha  occ. eigenvalues --  -20.65830 -15.97238 -15.96651 -15.71008 -15.69986
 Alpha  occ. eigenvalues --  -11.49430 -11.41587 -11.31566 -10.77053 -10.73371
 Alpha  occ. eigenvalues --   -8.42792  -8.42441  -8.42427  -8.39117  -8.38763
 Alpha  occ. eigenvalues --   -8.38734  -1.61217  -1.59525  -1.42811  -1.42212
 Alpha  occ. eigenvalues --   -1.33336  -1.26475  -1.22841  -1.13912  -1.08356
 Alpha  occ. eigenvalues --   -0.98897  -0.97208  -0.91101  -0.85323  -0.83927
 Alpha  occ. eigenvalues --   -0.79133  -0.78467  -0.77735  -0.76223  -0.74875
 Alpha  occ. eigenvalues --   -0.71946  -0.69843  -0.66328  -0.63456  -0.60634
 Alpha  occ. eigenvalues --   -0.59679  -0.58167  -0.57074  -0.56030  -0.54629
 Alpha  occ. eigenvalues --   -0.54055  -0.52442  -0.51521  -0.51310  -0.50412
 Alpha  occ. eigenvalues --   -0.49129  -0.45440  -0.39380
 Alpha virt. eigenvalues --    0.02098   0.02516   0.03976   0.04299   0.05083
 Alpha virt. eigenvalues --    0.06065   0.07849   0.08273   0.09228   0.09805
 Alpha virt. eigenvalues --    0.10099   0.10697   0.11688   0.13321   0.13558

 Mulliken charges:
               1
     1  Cl   0.121468
     2  N   -0.735367
     3  C    0.650425
     4  N   -0.284846
     5  H   -0.035173
     6  C    0.919743
     7  H   -0.229329
     8  H   -0.152822
     9  H   -0.060760
    10  C    1.243678
    11  Cl   0.010562
    12  N    0.514247
    13  O   -0.574101
    14  O   -0.568064
    15  N    0.236400
    16  O   -0.527979
    17  O   -0.528081
 Sum of Mulliken charges =  -0.00000

 Dipole moment (field-independent basis, Debye):
    X=              1.4582    Y=              5.5060    Z=              2.5021  Tot=              6.2211

 Test job not archived.
 1\1\GINC-SE112\SP\RHF\Aug-CC-pVDZ\C3H4Cl2N4O4\OHZDE\09-Apr-2025\0\\#t
 hf aug-cc-pvdz iop(5/13=1,5/36=2,99/5=2) pseudo=read geom=check guess=
 (read,tcheck) scf=(maxcycle=1)\\title\\0,1\Cl,0,3.262031,-0.557365,-0.
 130702\N,0,1.536855,-0.839464,-0.064972\C,0,0.832656,0.229728,0.110268
 \N,0,1.258485,1.495331,0.323155\H,0,2.264347,1.576428,0.250015\C,0,0.5
 10245,2.742098,0.179032\H,0,1.060687,3.523031,0.703456\H,0,-0.470757,2
 .666442,0.645502\H,0,0.387704,3.027448,-0.868911\C,0,-0.656383,-0.0886
 6,0.187938\Cl,0,-1.369145,0.335016,1.731709\N,0,-1.450606,0.589649,-0.

 Normal termination of Gaussian 16 at Wed Apr  9 00:53:05 2025.
