 Gaussian 16, Revision C.01,

 ----------------------------------------------------------------------
 #t hf aug-cc-pvdz symm=none int=(grid=ultrafine) guess=(read,tcheck) s
 table=opt
 ----------------------------------------------------------------------
 -----
 title
 -----
 Symbolic Z-matrix:
 Charge =  0 Multiplicity = 2

 SCF Done:  E(UHF) =  -309.642095228     A.U. after   24 cycles

 1\1\GINC-SE045\Stability\UHF\Aug-CC-pVDZ\C6H13O1\OHZDE\08-Apr-2025\0\\
 #t hf aug-cc-pvdz symm=none int=(grid=ultrafine) guess=(read,tcheck) s
 table=opt\\title\\0,2\O,0,-1.049898,0.295664,1.404235\C,0,-0.948355,-0
 .049179,0.074631\C,0,-2.009995,-1.110905,-0.279585\H,0,-1.817102,-2.03
 193,0.27589\H,0,-1.990152,-1.344402,-1.347726\H,0,-3.004911,-0.750526,
 -0.011813\C,0,-1.288572,1.284065,-0.666323\H,0,-2.310412,1.58749,-0.43
 7388\H,0,-1.194396,1.109999,-1.7413\H,0,-0.608808,2.082271,-0.370855\C
 ,0,0.477253,-0.549523,-0.277759\C,0,1.617166,0.404714,0.089751\H,0,0.5

 Normal termination of Gaussian 16 at Tue Apr  8 22:55:27 2025.
 Gaussian 16:  ES64L-G16RevC.01  3-Jul-2019

 ----------------------------------------------------------------------
 #t hf aug-cc-pvdz iop(5/13=1,5/36=2,99/5=2) pseudo=read geom=check gue
 ss=(read,tcheck) scf=(maxcycle=1)
 ----------------------------------------------------------------------
 -----
 title
 -----
 Structure from the checkpoint file:  "BDE49_expt_1860_mol2.chk"
 Charge =  0 Multiplicity = 2

                         Standard orientation:
 ---------------------------------------------------------------------
 Center     Atomic      Atomic             Coordinates (Angstroms)
 Number     Number       Type             X           Y           Z
 ---------------------------------------------------------------------
      1          8           0       -1.049898    0.295664    1.404235
      2          6           0       -0.948355   -0.049179    0.074631
      3          6           0       -2.009995   -1.110905   -0.279585
      4          1           0       -1.817102   -2.031930    0.275890
      5          1           0       -1.990152   -1.344402   -1.347726
      6          1           0       -3.004911   -0.750526   -0.011813
      7          6           0       -1.288572    1.284065   -0.666323
      8          1           0       -2.310412    1.587490   -0.437388
      9          1           0       -1.194396    1.109999   -1.741300
     10          1           0       -0.608808    2.082271   -0.370855
     11          6           0        0.477253   -0.549523   -0.277759
     12          6           0        1.617166    0.404714    0.089751
     13          1           0        0.512476   -0.788837   -1.347697
     14          1           0        0.622585   -1.497727    0.253918
     15          6           0        2.998629   -0.237955   -0.069021
     16          1           0        1.475197    0.731878    1.123756
     17          1           0        1.568615    1.304765   -0.532566
     18          1           0        3.102345   -1.115862    0.576094
     19          1           0        3.794477    0.463527    0.195403
     20          1           0        3.172515   -0.563259   -1.099754
 ---------------------------------------------------------------------

 SCF Done:  E(UHF) =  -309.739784981     A.U. after    2 cycles

 The electronic state is 2-A.
 Alpha  occ. eigenvalues --  -20.62312 -11.29740 -11.23802 -11.23064 -11.22977
 Alpha  occ. eigenvalues --  -11.22652 -11.22302  -1.36837  -1.06972  -1.02062
 Alpha  occ. eigenvalues --   -0.94559  -0.92595  -0.81653  -0.76123  -0.69748
 Alpha  occ. eigenvalues --   -0.65810  -0.65075  -0.61943  -0.58549  -0.56321
 Alpha  occ. eigenvalues --   -0.55597  -0.54531  -0.53958  -0.52438  -0.51230
 Alpha  occ. eigenvalues --   -0.48931  -0.47196  -0.45290  -0.43854
 Alpha virt. eigenvalues --    0.03423   0.04150   0.04473   0.04859   0.06083
 Alpha virt. eigenvalues --    0.06205   0.06673   0.07000   0.07782   0.08567
 Alpha virt. eigenvalues --    0.09133   0.09681   0.10973   0.11684   0.13454

  Beta  occ. eigenvalues --  -20.58289 -11.30027 -11.23507 -11.23022 -11.22891
  Beta  occ. eigenvalues --  -11.22659 -11.22301  -1.24695  -1.05493  -1.00539
  Beta  occ. eigenvalues --   -0.93617  -0.92460  -0.81443  -0.74016  -0.64595
  Beta  occ. eigenvalues --   -0.64476  -0.61429  -0.59549  -0.56224  -0.55405
  Beta  occ. eigenvalues --   -0.54750  -0.53255  -0.52232  -0.50216  -0.49189
  Beta  occ. eigenvalues --   -0.47285  -0.46320  -0.42443
  Beta virt. eigenvalues --    0.03431   0.04149   0.04262   0.04859   0.06042
  Beta virt. eigenvalues --    0.06207   0.06675   0.06973   0.07736   0.08560
  Beta virt. eigenvalues --    0.08704   0.09266   0.09869   0.10978   0.11761

 Mulliken charges and spin densities:
               1          2
     1  O   -0.497751   1.070377
     2  C   -1.908788  -0.264230
     3  C    1.050250   0.044987
     4  H   -0.007997   0.004831
     5  H    0.065283  -0.001421
     6  H    0.004856  -0.004326
     7  C    0.803980   0.130356
     8  H   -0.017704   0.000697
     9  H    0.043386   0.006800
    10  H   -0.037857   0.001903
    11  C    0.511778   0.017815
    12  C    0.217111  -0.005688
    13  H   -0.124002  -0.001645
    14  H   -0.107707   0.004540
    15  C    0.497455  -0.000674
    16  H   -0.132819  -0.004116
    17  H   -0.183306   0.000208
    18  H   -0.070635  -0.000460
    19  H   -0.046141   0.000014
    20  H   -0.059394   0.000033
 Sum of Mulliken charges =   0.00000   1.00000

 Dipole moment (field-independent basis, Debye):
    X=              0.1340    Y=             -0.2934    Z=             -1.8567  Tot=              1.8845
                          Isotropic Fermi Contact Couplings
        Atom                 a.u.       MegaHertz       Gauss      10(-4) cm-1
     1  O(17)              0.28907    -175.23325     -62.52758     -58.45152
     2  C(13)             -0.05261     -59.14491     -21.10438     -19.72862
     3  C(13)              0.01691      19.00848       6.78270       6.34055
     4  H(1)              -0.00100      -4.48599      -1.60071      -1.49636
     5  H(1)              -0.00013      -0.56601      -0.20197      -0.18880
     6  H(1)              -0.00067      -2.99859      -1.06997      -1.00022
     7  C(13)              0.06190      69.58752      24.83056      23.21190
     8  H(1)              -0.00174      -7.78405      -2.77754      -2.59648

 Normal termination of Gaussian 16 at Tue Apr  8 22:55:37 2025.
