 Gaussian 16, Revision C.01,

 ----------------------------------------------------------------------
 #t hf aug-cc-pvdz symm=none int=(grid=ultrafine) guess=(read,tcheck) s
 table=(opt,rrhf)
 ----------------------------------------------------------------------
 -----
 title
 -----
 Symbolic Z-matrix:
 Charge =  0 Multiplicity = 1

 SCF Done:  E(RHF) =  -944.357691063     A.U. after   11 cycles

 1\1\GINC-SE368\Stability\RHF\Aug-CC-pVDZ\B1Cl2H1\OHZDE\09-Apr-2025\0\\
 #t hf aug-cc-pvdz symm=none int=(grid=ultrafine) guess=(read,tcheck) s
 table=(opt,rrhf)\\title\\0,1\Cl,0,0.,-1.521064,-0.158964\B,0,0.,0.,0.7
 0404\H,0,0.,0.,1.884586\Cl,0,0.,1.521064,-0.158964\\Version=ES64L-G16R
 evC.01\HF=-944.3576911\RMSD=5.850e-09\Dipole=0.,0.,0.3312367\Quadrupol
 e=0.7356284,-1.1270771,0.3914487,0.,0.,0.\PG=Unknown\\@
 The archive entry for this job was punched.

 Normal termination of Gaussian 16 at Wed Apr  9 00:34:44 2025.
 Gaussian 16:  ES64L-G16RevC.01  3-Jul-2019

 ----------------------------------------------------------------------
 #t hf aug-cc-pvdz iop(5/13=1,5/36=2,99/5=2) pseudo=read geom=check gue
 ss=(read,tcheck) scf=(maxcycle=1)
 ----------------------------------------------------------------------
 -----
 title
 -----
 Structure from the checkpoint file:  "BDE49_nonexpt_521_mol1.chk"
 Charge =  0 Multiplicity = 1

                         Standard orientation:
 ---------------------------------------------------------------------
 Center     Atomic      Atomic             Coordinates (Angstroms)
 Number     Number       Type             X           Y           Z
 ---------------------------------------------------------------------
      1         17           0        0.000000    1.521064   -0.158964
      2          5           0        0.000000    0.000000    0.704040
      3          1           0        0.000000    0.000000    1.884586
      4         17           0       -0.000000   -1.521064   -0.158964
 ---------------------------------------------------------------------

 SCF Done:  E(RHF) =  -944.402291887     A.U. after    2 cycles

 The electronic state is 1-A1.
 Alpha  occ. eigenvalues -- -103.67876-103.67876 -10.71414 -10.71382  -8.37089
 Alpha  occ. eigenvalues --   -8.37084  -8.36864  -8.36864  -8.36821  -8.36821
 Alpha  occ. eigenvalues --   -7.74111  -1.19126  -1.15598  -0.71919  -0.60861
 Alpha  occ. eigenvalues --   -0.59358  -0.53480  -0.48876  -0.47985  -0.47675
 Alpha virt. eigenvalues --    0.04587   0.04972   0.05198   0.05684   0.07909
 Alpha virt. eigenvalues --    0.09337   0.12913   0.13429   0.15155   0.17865
 Alpha virt. eigenvalues --    0.17956   0.18549   0.21524   0.22560   0.24602

 Mulliken charges:
               1
     1  Cl  -0.251158
     2  B    0.269506
     3  H    0.232810
     4  Cl  -0.251158
 Sum of Mulliken charges =  -0.00000

 Dipole moment (field-independent basis, Debye):
    X=              0.0000    Y=             -0.0000    Z=              0.8984  Tot=              0.8984

 Test job not archived.
 1\1\GINC-SE368\SP\RHF\Aug-CC-pVDZ\B1Cl2H1\OHZDE\09-Apr-2025\0\\#t hf a
 ug-cc-pvdz iop(5/13=1,5/36=2,99/5=2) pseudo=read geom=check guess=(rea
 d,tcheck) scf=(maxcycle=1)\\title\\0,1\Cl,0,0.,-1.521064,-0.158964\B,0
 ,0.,0.,0.70404\H,0,0.,0.,1.884586\Cl,0,0.,1.521064,-0.158964\\Version=
 ES64L-G16RevC.01\State=1-A1\HF=-944.4022919\RMSD=2.863e-03\Dipole=0.,0
 .,0.3534551\Quadrupole=0.7446747,-1.1683537,0.4236791,0.,0.,0.\PG=C02V
  [C2(B1H1),SGV(Cl2)]\\@

 Normal termination of Gaussian 16 at Wed Apr  9 00:34:45 2025.
