 Gaussian 16, Revision C.01,

 ----------------------------------------------------------------------
 #t hf aug-cc-pvdz symm=none int=(grid=ultrafine) guess=(read,tcheck) s
 table=(opt,rrhf)
 ----------------------------------------------------------------------
 -----
 title
 -----
 Symbolic Z-matrix:
 Charge =  0 Multiplicity = 1

 SCF Done:  E(RHF) =  -366.185486702     A.U. after   14 cycles
 Normal termination of Gaussian 16 at Wed Apr  9 00:37:50 2025.
 Gaussian 16:  ES64L-G16RevC.01  3-Jul-2019

 ----------------------------------------------------------------------
 #t hf aug-cc-pvdz iop(5/13=1,5/36=2,99/5=2) pseudo=read geom=check gue
 ss=(read,tcheck) scf=(maxcycle=1)
 ----------------------------------------------------------------------
 -----
 title
 -----
 Structure from the checkpoint file:  "BDE49_nonexpt_594_mol1.chk"
 Charge =  0 Multiplicity = 1

                         Standard orientation:
 ---------------------------------------------------------------------
 Center     Atomic      Atomic             Coordinates (Angstroms)
 Number     Number       Type             X           Y           Z
 ---------------------------------------------------------------------
      1          5           0        0.000000    0.000000   -1.751026
      2          6           0        0.000000    0.000000   -0.170872
      3          6           0        0.003388    1.198957    0.560670
      4          6           0       -0.003388   -1.198957    0.560670
      5          6           0        0.000000   -1.204246    1.953825
      6          6           0       -0.000000   -0.000000    2.655122
      7          6           0       -0.000000    1.204246    1.953825
      8          1           0       -0.000000   -0.000000    3.739767
      9          1           0       -0.005368    2.145819    2.492801
     10          1           0       -0.009193    2.145357    0.028357
     11          1           0        0.009193   -2.145357    0.028357
     12          1           0        0.005368   -2.145819    2.492801
     13          7           0       -0.730290   -0.998683   -2.446676
     14          7           0        0.730290    0.998683   -2.446676
     15          1           0        1.383716    1.601003   -1.975598
     16          1           0        0.777420    1.060904   -3.450863
     17          1           0       -1.383716   -1.601003   -1.975598
     18          1           0       -0.777420   -1.060904   -3.450863
 ---------------------------------------------------------------------

 SCF Done:  E(RHF) =  -366.296088668     A.U. after    2 cycles

 The electronic state is 1-A.
 Alpha  occ. eigenvalues --  -15.59666 -15.59663 -11.24023 -11.23803 -11.23780
 Alpha  occ. eigenvalues --  -11.23677 -11.23674 -11.21612  -7.60400  -1.13759
 Alpha  occ. eigenvalues --   -1.11997  -1.08526  -1.00026  -0.99726  -0.81790
 Alpha  occ. eigenvalues --   -0.81711  -0.71914  -0.69672  -0.66456  -0.65706
 Alpha  occ. eigenvalues --   -0.62238  -0.61462  -0.58364  -0.58024  -0.55007
 Alpha  occ. eigenvalues --   -0.49889  -0.48485  -0.45956  -0.45442  -0.37630
 Alpha  occ. eigenvalues --   -0.33265  -0.32830
 Alpha virt. eigenvalues --    0.03082   0.03886   0.04073   0.04949   0.05420
 Alpha virt. eigenvalues --    0.05671   0.07020   0.07964   0.08078   0.08785
 Alpha virt. eigenvalues --    0.09241   0.09973   0.10775   0.10990   0.11530

 Mulliken charges:
               1
     1  B    0.613931
     2  C   -0.191892
     3  C    0.575541
     4  C    0.575541
     5  C    0.463599
     6  C    0.716841
     7  C    0.463599
     8  H   -0.443594
     9  H   -0.447003
    10  H   -0.628674
    11  H   -0.628674
    12  H   -0.447003
    13  N   -0.235528
    14  N   -0.235528
    15  H   -0.036175
    16  H   -0.039403
    17  H   -0.036175
    18  H   -0.039403
 Sum of Mulliken charges =  -0.00000

 Dipole moment (field-independent basis, Debye):
    X=             -0.0000    Y=             -0.0000    Z=             -1.1921  Tot=              1.1921

 Test job not archived.
 1\1\GINC-SE344\SP\RHF\Aug-CC-pVDZ\C6H9B1N2\OHZDE\09-Apr-2025\0\\#t hf
 aug-cc-pvdz iop(5/13=1,5/36=2,99/5=2) pseudo=read geom=check guess=(re
 ad,tcheck) scf=(maxcycle=1)\\title\\0,1\B,0,0.,0.,-1.751026\C,0,0.,0.,
 -0.170872\C,0,-0.003388,-1.198957,0.56067\C,0,0.003388,1.198957,0.5606
 7\C,0,0.,1.204246,1.953825\C,0,0.,0.,2.655122\C,0,0.,-1.204246,1.95382
 5\H,0,0.,0.,3.739767\H,0,0.005368,-2.145819,2.492801\H,0,0.009193,-2.1
 45357,0.028357\H,0,-0.009193,2.145357,0.028357\H,0,-0.005368,2.145819,
 2.492801\N,0,0.73029,0.998683,-2.446676\N,0,-0.73029,-0.998683,-2.4466

 Normal termination of Gaussian 16 at Wed Apr  9 00:37:56 2025.
