 Gaussian 16, Revision C.01,

 ----------------------------------------------------------------------
 #t hf aug-cc-pvdz symm=none int=(grid=ultrafine) guess=(read,tcheck) s
 table=opt
 ----------------------------------------------------------------------
 -----
 title
 -----
 Symbolic Z-matrix:
 Charge =  0 Multiplicity = 2

 SCF Done:  E(UHF) =  -590.930996729     A.U. after   28 cycles
 Normal termination of Gaussian 16 at Tue Apr  8 23:22:35 2025.
 Gaussian 16:  ES64L-G16RevC.01  3-Jul-2019

 ----------------------------------------------------------------------
 #t hf aug-cc-pvdz iop(5/13=1,5/36=2,99/5=2) pseudo=read geom=check gue
 ss=(read,tcheck) scf=(maxcycle=1)
 ----------------------------------------------------------------------
 -----
 title
 -----
 Structure from the checkpoint file:  "BDE49_nonexpt_1225_mol3.chk"
 Charge =  0 Multiplicity = 2

                         Standard orientation:
 ---------------------------------------------------------------------
 Center     Atomic      Atomic             Coordinates (Angstroms)
 Number     Number       Type             X           Y           Z
 ---------------------------------------------------------------------
      1         16           0        2.071074   -0.007052   -0.182252
      2          6           0        0.374427   -0.001436    0.474224
      3          6           0       -0.454982    1.214330    0.128457
      4          6           0       -1.703111    0.882539   -0.192308
      5          6           0       -1.946099   -0.606543   -0.103838
      6          6           0       -0.518909   -1.194986    0.033188
      7          1           0       -2.479030   -1.001608   -0.973949
      8          1           0       -2.565446   -0.838439    0.771998
      9          1           0       -0.459115   -2.030050    0.732353
     10          1           0       -0.173158   -1.557027   -0.936851
     11          1           0        0.563269   -0.028479    1.560601
     12          1           0       -0.047816    2.216264    0.174342
     13          1           0       -2.483843    1.588753   -0.450801
 ---------------------------------------------------------------------

 SCF Done:  E(UHF) =  -591.005054237     A.U. after    2 cycles

 The electronic state is 2-A.
 Alpha  occ. eigenvalues --  -93.54764 -11.28271 -11.24568 -11.24440 -11.24390
 Alpha  occ. eigenvalues --  -11.24362  -8.84467  -6.19819  -6.18157  -6.17705
 Alpha  occ. eigenvalues --   -1.14094  -1.01568  -0.97421  -0.89104  -0.78702
 Alpha  occ. eigenvalues --   -0.73630  -0.68646  -0.63853  -0.57471  -0.54012
 Alpha  occ. eigenvalues --   -0.51856  -0.51017  -0.49986  -0.47816  -0.42340
 Alpha  occ. eigenvalues --   -0.37010  -0.35285
 Alpha virt. eigenvalues --    0.03392   0.04444   0.04679   0.05197   0.06579
 Alpha virt. eigenvalues --    0.06672   0.07401   0.08610   0.11349   0.12225
 Alpha virt. eigenvalues --    0.12550   0.13559   0.14404   0.14764   0.15489

  Beta  occ. eigenvalues --  -93.53862 -11.28415 -11.24681 -11.24406 -11.24330
  Beta  occ. eigenvalues --  -11.24255  -8.83462  -6.17603  -6.17152  -6.15877
  Beta  occ. eigenvalues --   -1.13795  -0.99341  -0.97225  -0.84484  -0.77176
  Beta  occ. eigenvalues --   -0.72848  -0.68010  -0.63312  -0.56394  -0.53603
  Beta  occ. eigenvalues --   -0.51585  -0.50751  -0.49949  -0.46645  -0.35902
  Beta  occ. eigenvalues --   -0.34042
  Beta virt. eigenvalues --    0.02084   0.03423   0.04501   0.04727   0.05276
  Beta virt. eigenvalues --    0.06661   0.06687   0.07572   0.08922   0.11665
  Beta virt. eigenvalues --    0.12334   0.12703   0.13681   0.14789   0.15134

 Mulliken charges and spin densities:
               1          2
     1  S    0.219011   1.087790
     2  C   -0.413346  -0.149661
     3  C    0.255825   0.144392
     4  C    0.218129  -0.124021
     5  C    0.201952   0.013241
     6  C    0.283531   0.021353
     7  H   -0.034840  -0.001900
     8  H   -0.026467  -0.002976
     9  H   -0.054348  -0.000364
    10  H   -0.109580  -0.003768
    11  H    0.022263   0.019973
    12  H   -0.275502  -0.010918
    13  H   -0.286627   0.006859
 Sum of Mulliken charges =  -0.00000   1.00000

 Dipole moment (field-independent basis, Debye):
    X=             -1.9695    Y=             -0.2193    Z=              0.6332  Tot=              2.0804
                          Isotropic Fermi Contact Couplings
        Atom                 a.u.       MegaHertz       Gauss      10(-4) cm-1
     1  S(33)              0.18724      64.31048      22.94758      21.45167
     2  C(13)             -0.03076     -34.57953     -12.33884     -11.53449
     3  C(13)              0.02417      27.17081       9.69522       9.06321
     4  C(13)             -0.01681     -18.89242      -6.74129      -6.30183
     5  C(13)              0.00403       4.53083       1.61671       1.51132
     6  C(13)              0.00791       8.88957       3.17202       2.96524
     7  H(1)              -0.00093      -4.16154      -1.48494      -1.38814
     8  H(1)              -0.00142      -6.33108      -2.25909      -2.11182

 Normal termination of Gaussian 16 at Tue Apr  8 23:22:40 2025.
