 Gaussian 16, Revision C.01,

 ----------------------------------------------------------------------
 #t hf aug-cc-pvdz symm=none int=(grid=ultrafine) guess=(read,tcheck) s
 table=(opt,rrhf)
 ----------------------------------------------------------------------
 -----
 title
 -----
 Symbolic Z-matrix:
 Charge =  0 Multiplicity = 1

 SCF Done:  E(RHF) =  -183.566042574     A.U. after   13 cycles
 Normal termination of Gaussian 16 at Wed Apr  9 00:40:25 2025.
 Gaussian 16:  ES64L-G16RevC.01  3-Jul-2019

 ----------------------------------------------------------------------
 #t hf aug-cc-pvdz iop(5/13=1,5/36=2,99/5=2) pseudo=read geom=check gue
 ss=(read,tcheck) scf=(maxcycle=1)
 ----------------------------------------------------------------------
 -----
 title
 -----
 Structure from the checkpoint file:  "BDE49_nonexpt_69_mol1.chk"
 Charge =  0 Multiplicity = 1

                         Standard orientation:
 ---------------------------------------------------------------------
 Center     Atomic      Atomic             Coordinates (Angstroms)
 Number     Number       Type             X           Y           Z
 ---------------------------------------------------------------------
      1          5           0       -1.753799   -0.855153    0.000168
      2          5           0       -1.281127    0.710199   -0.000175
      3          6           0        0.237289    1.177430    0.000090
      4          7           0        1.272592    0.424107    0.000104
      5          6           0        1.159464   -1.005479   -0.000176
      6          1           0        1.669101   -1.405950   -0.881685
      7          1           0        0.118616   -1.402271   -0.000415
      8          1           0        1.668818   -1.406274    0.881350
      9          1           0        0.465163    2.247578    0.000275
     10          1           0       -2.086633    1.596192   -0.000263
     11          1           0       -1.975005   -1.452122    1.014752
     12          1           0       -1.974094   -1.452838   -1.014191
 ---------------------------------------------------------------------

 SCF Done:  E(RHF) =  -183.622309707     A.U. after    2 cycles

 The electronic state is 1-A.
 Alpha  occ. eigenvalues --  -15.64838 -11.27769 -11.26951  -7.60622  -7.60394
 Alpha  occ. eigenvalues --   -1.20215  -0.97007  -0.80822  -0.72034  -0.66365
 Alpha  occ. eigenvalues --   -0.63511  -0.60672  -0.56184  -0.52247  -0.49471
 Alpha  occ. eigenvalues --   -0.44553  -0.42215  -0.39057
 Alpha virt. eigenvalues --    0.03149   0.03486   0.03864   0.04246   0.05300
 Alpha virt. eigenvalues --    0.06328   0.06568   0.07137   0.07229   0.08258
 Alpha virt. eigenvalues --    0.09701   0.09907   0.11010   0.11830   0.13459

 Mulliken charges:
               1
     1  B   -0.065581
     2  B   -0.008617
     3  C    0.337525
     4  N   -0.537577
     5  C    0.972841
     6  H   -0.114431
     7  H   -0.410596
     8  H   -0.114417
     9  H   -0.474466
    10  H    0.219400
    11  H    0.098145
    12  H    0.097774
 Sum of Mulliken charges =  -0.00000

 Dipole moment (field-independent basis, Debye):
    X=             -0.6689    Y=             -0.5557    Z=             -0.0006  Tot=              0.8697

 Test job not archived.
 1\1\GINC-SE162\SP\RHF\Aug-CC-pVDZ\C2H7B2N1\OHZDE\09-Apr-2025\0\\#t hf
 aug-cc-pvdz iop(5/13=1,5/36=2,99/5=2) pseudo=read geom=check guess=(re
 ad,tcheck) scf=(maxcycle=1)\\title\\0,1\B,0,-1.753799,-0.855153,0.0001
 68\B,0,-1.281127,0.710199,-0.000175\C,0,0.237289,1.17743,0.00009\N,0,1
 .272592,0.424107,0.000104\C,0,1.159464,-1.005479,-0.000176\H,0,1.66910
 1,-1.40595,-0.881685\H,0,0.118616,-1.402271,-0.000415\H,0,1.668818,-1.
 406274,0.88135\H,0,0.465163,2.247578,0.000275\H,0,-2.086633,1.596192,-
 0.000263\H,0,-1.975005,-1.452122,1.014752\H,0,-1.974094,-1.452838,-1.0

 Normal termination of Gaussian 16 at Wed Apr  9 00:40:29 2025.
