 Gaussian 16, Revision C.01,

 ----------------------------------------------------------------------
 #t hf aug-cc-pvdz symm=none int=(grid=ultrafine) guess=(read,tcheck) s
 table=(opt,rrhf)
 ----------------------------------------------------------------------
 -----
 title
 -----
 Symbolic Z-matrix:
 Charge =  0 Multiplicity = 1

 SCF Done:  E(RHF) =  -1749.24837037     A.U. after   17 cycles
 Normal termination of Gaussian 16 at Wed Apr  9 00:26:58 2025.
 Gaussian 16:  ES64L-G16RevC.01  3-Jul-2019

 ----------------------------------------------------------------------
 #t hf aug-cc-pvdz iop(5/13=1,5/36=2,99/5=2) pseudo=read geom=check gue
 ss=(read,tcheck) scf=(maxcycle=1)
 ----------------------------------------------------------------------
 -----
 title
 -----
 Structure from the checkpoint file:  "BDE49_nonexpt_2720_mol1.chk"
 Charge =  0 Multiplicity = 1

                         Standard orientation:
 ---------------------------------------------------------------------
 Center     Atomic      Atomic             Coordinates (Angstroms)
 Number     Number       Type             X           Y           Z
 ---------------------------------------------------------------------
      1          6           0       -3.449560    0.471823   -0.475892
      2          8           0       -2.844863    1.418216   -0.883053
      3         16           0       -2.819844   -0.634045    0.855200
      4         16           0       -1.001275    0.242754    1.290509
      5          6           0        0.035320   -0.349107   -0.113653
      6          8           0       -0.346960   -1.129344   -0.932679
      7          6           0       -4.781584   -0.007110   -1.006419
      8          1           0       -5.366794    0.856666   -1.324104
      9          1           0       -5.337926   -0.592231   -0.272669
     10          1           0       -4.591449   -0.638140   -1.879529
     11          6           0        1.388103    0.292088   -0.074293
     12          6           0        1.474459    1.689215   -0.010068
     13          6           0        2.708396    2.329367   -0.029829
     14          6           0        3.875712    1.574307   -0.096984
     15          6           0        3.811084    0.184609   -0.152027
     16          6           0        2.574437   -0.452107   -0.149942
     17          1           0        2.755456    3.410871    0.005459
     18          1           0        4.713172   -0.411524   -0.197198
     19          1           0        0.558588    2.266308    0.025707
     20          1           0        4.843380    2.062188   -0.106784
     21         17           0        2.545873   -2.200175   -0.200102
 ---------------------------------------------------------------------

 SCF Done:  E(RHF) =  -1749.45396692     A.U. after    2 cycles

 The electronic state is 1-A.
 Alpha  occ. eigenvalues -- -103.67426 -93.58235 -93.58050 -20.59358 -20.59078
 Alpha  occ. eigenvalues --  -11.39624 -11.39260 -11.33677 -11.29048 -11.28020
 Alpha  occ. eigenvalues --  -11.27812 -11.27398 -11.26981 -11.26860 -10.70707
 Alpha  occ. eigenvalues --   -8.87865  -8.87715  -8.36446  -8.36131  -8.36114
 Alpha  occ. eigenvalues --   -6.22025  -6.21836  -6.21703  -6.21553  -6.21405
 Alpha  occ. eigenvalues --   -6.21245  -1.39278  -1.38977  -1.21396  -1.15100
 Alpha  occ. eigenvalues --   -1.07986  -1.05887  -1.02505  -1.02095  -0.93188
 Alpha  occ. eigenvalues --   -0.87805  -0.84789  -0.78745  -0.75034  -0.71730
 Alpha  occ. eigenvalues --   -0.68872  -0.68199  -0.66705  -0.66400  -0.64354
 Alpha  occ. eigenvalues --   -0.63343  -0.62348  -0.61368  -0.58894  -0.57473
 Alpha  occ. eigenvalues --   -0.55731  -0.55618  -0.54429  -0.53021  -0.49171
 Alpha  occ. eigenvalues --   -0.48154  -0.47673  -0.44191  -0.44128  -0.39611
 Alpha  occ. eigenvalues --   -0.37952  -0.37062  -0.35647
 Alpha virt. eigenvalues --    0.03001   0.03568   0.04217   0.05362   0.05820
 Alpha virt. eigenvalues --    0.05873   0.06014   0.07103   0.07570   0.08219
 Alpha virt. eigenvalues --    0.08867   0.09234   0.10000   0.10467   0.10746

 Mulliken charges:
               1
     1  C   -0.103551
     2  O   -0.418007
     3  S    0.084949
     4  S    0.022900
     5  C   -0.472147
     6  O   -0.400586
     7  C    0.349923
     8  H   -0.003843
     9  H   -0.027424
    10  H    0.095674
    11  C    1.822949
    12  C    0.632587
    13  C   -0.001910
    14  C    0.538739
    15  C    0.921224
    16  C   -0.836146
    17  H   -0.450240
    18  H   -0.424726
    19  H   -0.540848
    20  H   -0.422865
    21  Cl  -0.366652
 Sum of Mulliken charges =   0.00000

 Dipole moment (field-independent basis, Debye):
    X=              0.1191    Y=              1.9581    Z=              0.8482  Tot=              2.1372

 Test job not archived.
 1\1\GINC-SE460\SP\RHF\Aug-CC-pVDZ\C9H7Cl1O2S2\OHZDE\09-Apr-2025\0\\#t
 hf aug-cc-pvdz iop(5/13=1,5/36=2,99/5=2) pseudo=read geom=check guess=
 (read,tcheck) scf=(maxcycle=1)\\title\\0,1\C,0,-3.44956,0.471823,-0.47
 5892\O,0,-2.844863,1.418216,-0.883053\S,0,-2.819844,-0.634045,0.8552\S
 ,0,-1.001275,0.242754,1.290509\C,0,0.03532,-0.349107,-0.113653\O,0,-0.
 34696,-1.129344,-0.932679\C,0,-4.781584,-0.00711,-1.006419\H,0,-5.3667
 94,0.856666,-1.324104\H,0,-5.337926,-0.592231,-0.272669\H,0,-4.591449,
 -0.63814,-1.879529\C,0,1.388103,0.292088,-0.074293\C,0,1.474459,1.6892

 Normal termination of Gaussian 16 at Wed Apr  9 00:27:15 2025.
