 Gaussian 16, Revision C.01,

 ----------------------------------------------------------------------
 #t hf aug-cc-pvdz symm=none int=(grid=ultrafine) guess=(read,tcheck) s
 table=(opt,rrhf)
 ----------------------------------------------------------------------
 -----
 title
 -----
 Symbolic Z-matrix:
 Charge =  0 Multiplicity = 1

 SCF Done:  E(RHF) =  -779.067648821     A.U. after   12 cycles
 Normal termination of Gaussian 16 at Tue Apr  8 23:42:13 2025.
 Gaussian 16:  ES64L-G16RevC.01  3-Jul-2019

 ----------------------------------------------------------------------
 #t hf aug-cc-pvdz iop(5/13=1,5/36=2,99/5=2) pseudo=read geom=check gue
 ss=(read,tcheck) scf=(maxcycle=1)
 ----------------------------------------------------------------------
 -----
 title
 -----
 Structure from the checkpoint file:  "BDE49_nonexpt_1711_mol1.chk"
 Charge =  0 Multiplicity = 1

                         Standard orientation:
 ---------------------------------------------------------------------
 Center     Atomic      Atomic             Coordinates (Angstroms)
 Number     Number       Type             X           Y           Z
 ---------------------------------------------------------------------
      1         15           0        0.508255   -0.714266   -0.086533
      2          6           0        1.695650    0.715094   -0.020177
      3          1           0        1.464351    1.433686    0.766705
      4          1           0        1.689140    1.226135   -0.984465
      5          1           0        2.698669    0.310367    0.148443
      6         16           0       -1.397404    0.293994    0.079705
      7          1           0       -1.885249   -0.192802   -1.073016
      8          1           0        0.593831   -1.057870    1.286122
 ---------------------------------------------------------------------

 SCF Done:  E(RHF) =  -779.123017158     A.U. after    2 cycles

 The electronic state is 1-A.
 Alpha  occ. eigenvalues --  -93.53907 -81.28722 -11.24774  -8.83717  -7.78802
 Alpha  occ. eigenvalues --   -6.17831  -6.17631  -6.17306  -4.92668  -4.92625
 Alpha  occ. eigenvalues --   -4.92347  -0.98723  -0.94142  -0.73662  -0.59045
 Alpha  occ. eigenvalues --   -0.58947  -0.52992  -0.50348  -0.46681  -0.37125
 Alpha  occ. eigenvalues --   -0.34917
 Alpha virt. eigenvalues --    0.03561   0.04882   0.05392   0.05945   0.07156
 Alpha virt. eigenvalues --    0.08787   0.09873   0.11509   0.12403   0.13775
 Alpha virt. eigenvalues --    0.14206   0.15698   0.16581   0.17237   0.17582

 Mulliken charges:
               1
     1  P    0.147877
     2  C    0.169570
     3  H   -0.133954
     4  H   -0.093422
     5  H   -0.124642
     6  S   -0.290074
     7  H    0.081427
     8  H    0.243217
 Sum of Mulliken charges =   0.00000

 Dipole moment (field-independent basis, Debye):
    X=              1.3076    Y=              0.1645    Z=             -0.2079  Tot=              1.3342

 Test job not archived.
 1\1\GINC-SE460\SP\RHF\Aug-CC-pVDZ\C1H5P1S1\OHZDE\08-Apr-2025\0\\#t hf
 aug-cc-pvdz iop(5/13=1,5/36=2,99/5=2) pseudo=read geom=check guess=(re
 ad,tcheck) scf=(maxcycle=1)\\title\\0,1\P,0,0.508255,-0.714266,-0.0865
 33\C,0,1.69565,0.715094,-0.020177\H,0,1.464351,1.433686,0.766705\H,0,1
 .68914,1.226135,-0.984465\H,0,2.698669,0.310367,0.148443\S,0,-1.397404
 ,0.293994,0.079705\H,0,-1.885249,-0.192802,-1.073016\H,0,0.593831,-1.0
 5787,1.286122\\Version=ES64L-G16RevC.01\State=1-A\HF=-779.1230172\RMSD
 =9.231e-03\Dipole=0.5144666,0.0647153,-0.0817784\Quadrupole=1.0258147,

 Normal termination of Gaussian 16 at Tue Apr  8 23:42:15 2025.
