 Gaussian 16, Revision C.01,

 ----------------------------------------------------------------------
 #t hf aug-cc-pvdz symm=none int=(grid=ultrafine) guess=(read,tcheck) s
 table=opt
 ----------------------------------------------------------------------
 -----
 title
 -----
 Symbolic Z-matrix:
 Charge =  0 Multiplicity = 2

 SCF Done:  E(UHF) =  -625.128802184     A.U. after   18 cycles

 1\1\GINC-SE106\Stability\UHF\Aug-CC-pVDZ\C1F3Si1\OHZDE\08-Apr-2025\0\\
 #t hf aug-cc-pvdz symm=none int=(grid=ultrafine) guess=(read,tcheck) s
 table=opt\\title\\0,2\Si,0,-1.008672,-0.76471,0.000008\C,0,0.727006,0.
 000084,0.000003\F,0,-1.798216,0.662364,-0.000009\F,0,1.821002,-0.74850
 7,-0.000008\F,0,1.061588,1.275636,0.000004\\Version=ES64L-G16RevC.01\H
 F=-625.1288022\S2=0.764466\S2-1=0.\S2A=0.750126\RMSD=2.853e-09\Dipole=
 -0.1070129,-0.469339,0.0000073\Quadrupole=-1.8989746,-1.4625723,3.3615
 469,0.9296823,-0.0000072,0.0000305\PG=Unknown\\@

 Normal termination of Gaussian 16 at Tue Apr  8 23:54:55 2025.
 Gaussian 16:  ES64L-G16RevC.01  3-Jul-2019

 ----------------------------------------------------------------------
 #t hf aug-cc-pvdz iop(5/13=1,5/36=2,99/5=2) pseudo=read geom=check gue
 ss=(read,tcheck) scf=(maxcycle=1)
 ----------------------------------------------------------------------
 -----
 title
 -----
 Structure from the checkpoint file:  "BDE49_nonexpt_2000_mol2.chk"
 Charge =  0 Multiplicity = 2

                         Standard orientation:
 ---------------------------------------------------------------------
 Center     Atomic      Atomic             Coordinates (Angstroms)
 Number     Number       Type             X           Y           Z
 ---------------------------------------------------------------------
      1         14           0        1.008672   -0.764710   -0.000008
      2          6           0       -0.727006    0.000084   -0.000003
      3          9           0        1.798216    0.662364    0.000009
      4          9           0       -1.821002   -0.748507    0.000008
      5          9           0       -1.061588    1.275636   -0.000004
 ---------------------------------------------------------------------

 SCF Done:  E(UHF) =  -625.275407603     A.U. after    2 cycles

 The electronic state is 2-A.
 Alpha  occ. eigenvalues --  -69.15823 -26.18137 -26.17982 -26.12654 -11.43838
 Alpha  occ. eigenvalues --   -6.90082  -4.00559  -4.00454  -4.00117  -1.75567
 Alpha  occ. eigenvalues --   -1.70647  -1.64945  -1.02127  -0.86404  -0.86006
 Alpha  occ. eigenvalues --   -0.84719  -0.80251  -0.77977  -0.74226  -0.73111
 Alpha  occ. eigenvalues --   -0.73103  -0.65410  -0.40136  -0.39608
 Alpha virt. eigenvalues --    0.01845   0.04770   0.05513   0.06012   0.08615
 Alpha virt. eigenvalues --    0.11180   0.11368   0.11792   0.14673   0.16541
 Alpha virt. eigenvalues --    0.20337   0.21764   0.22816   0.27114   0.27679

  Beta  occ. eigenvalues --  -69.15793 -26.17713 -26.17553 -26.12589 -11.41824
  Beta  occ. eigenvalues --   -6.90037  -4.00477  -4.00278  -4.00183  -1.74230
  Beta  occ. eigenvalues --   -1.69566  -1.64774  -0.98046  -0.85589  -0.85122
  Beta  occ. eigenvalues --   -0.80148  -0.79093  -0.74204  -0.73457  -0.73035
  Beta  occ. eigenvalues --   -0.72112  -0.62265  -0.38714
  Beta virt. eigenvalues --   -0.00897   0.04852   0.05635   0.06201   0.06981
  Beta virt. eigenvalues --    0.11313   0.11380   0.11580   0.14829   0.16162
  Beta virt. eigenvalues --    0.17397   0.21042   0.22612   0.23323   0.27270

 Mulliken charges and spin densities:
               1          2
     1  Si   0.920772   0.034069
     2  C    0.335157   0.907797
     3  F   -0.645084   0.017780
     4  F   -0.300908   0.015025
     5  F   -0.309937   0.025330
 Sum of Mulliken charges =  -0.00000   1.00000

 Dipole moment (field-independent basis, Debye):
    X=              0.4740    Y=             -1.5155    Z=             -0.0000  Tot=              1.5879
                          Isotropic Fermi Contact Couplings
        Atom                 a.u.       MegaHertz       Gauss      10(-4) cm-1
     1  Si(29)             0.01272     -11.30081      -4.03241      -3.76954
     2  C(13)              0.18269     205.38398      73.28611      68.50872
     3  F(19)              0.00304      12.77710       4.55919       4.26198
     4  F(19)              0.04967     208.97940      74.56904      69.70802
     5  F(19)              0.05381     226.42231      80.79311      75.52635
 --------------------------------------------------------
       Center         ----  Spin Dipole Couplings  ----
                      3XX-RR        3YY-RR        3ZZ-RR

 Normal termination of Gaussian 16 at Tue Apr  8 23:54:57 2025.
