 Gaussian 16, Revision C.01,

 ----------------------------------------------------------------------
 #t hf aug-cc-pvdz symm=none int=(grid=ultrafine) guess=(read,tcheck) s
 table=(opt,rrhf)
 ----------------------------------------------------------------------
 -----
 title
 -----
 Symbolic Z-matrix:
 Charge =  0 Multiplicity = 1

 SCF Done:  E(RHF) =  -986.770235293     A.U. after   15 cycles
 Normal termination of Gaussian 16 at Wed Apr  9 00:20:36 2025.
 Gaussian 16:  ES64L-G16RevC.01  3-Jul-2019

 ----------------------------------------------------------------------
 #t hf aug-cc-pvdz iop(5/13=1,5/36=2,99/5=2) pseudo=read geom=check gue
 ss=(read,tcheck) scf=(maxcycle=1)
 ----------------------------------------------------------------------
 -----
 title
 -----
 Structure from the checkpoint file:  "BDE49_nonexpt_2663_mol1.chk"
 Charge =  0 Multiplicity = 1

                         Standard orientation:
 ---------------------------------------------------------------------
 Center     Atomic      Atomic             Coordinates (Angstroms)
 Number     Number       Type             X           Y           Z
 ---------------------------------------------------------------------
      1          9           0        1.815516    1.217974    0.000004
      2         16           0        1.736341   -0.450606   -0.000004
      3          7           0        0.141883   -0.765238   -0.000002
      4          6           0       -0.974291   -0.302324    0.000002
      5         16           0       -2.454283    0.213659    0.000002
 ---------------------------------------------------------------------

 SCF Done:  E(RHF) =  -986.882505005     A.U. after    2 cycles

 The electronic state is 1-A.
 Alpha  occ. eigenvalues --  -93.69903 -93.56767 -26.15522 -15.71641 -11.42445
 Alpha  occ. eigenvalues --   -8.98194  -8.86664  -6.32416  -6.32046  -6.31447
 Alpha  occ. eigenvalues --   -6.20947  -6.20315  -6.20214  -1.66668  -1.29625
 Alpha  occ. eigenvalues --   -1.08641  -1.00983  -0.81678  -0.76004  -0.75426
 Alpha  occ. eigenvalues --   -0.63185  -0.62015  -0.61167  -0.58738  -0.45288
 Alpha  occ. eigenvalues --   -0.40918  -0.35220
 Alpha virt. eigenvalues --    0.02457   0.06085   0.06322   0.07902   0.08669
 Alpha virt. eigenvalues --    0.08968   0.10236   0.11883   0.13484   0.14995
 Alpha virt. eigenvalues --    0.15233   0.15808   0.16586   0.21223   0.22433

 Mulliken charges:
               1
     1  F   -0.599062
     2  S    1.173841
     3  N   -0.470550
     4  C   -0.442150
     5  S    0.337921
 Sum of Mulliken charges =  -0.00000

 Dipole moment (field-independent basis, Debye):
    X=              0.3286    Y=             -1.5634    Z=             -0.0000  Tot=              1.5975

 Test job not archived.
 1\1\GINC-SE365\SP\RHF\Aug-CC-pVDZ\C1F1N1S2\OHZDE\09-Apr-2025\0\\#t hf
 aug-cc-pvdz iop(5/13=1,5/36=2,99/5=2) pseudo=read geom=check guess=(re
 ad,tcheck) scf=(maxcycle=1)\\title\\0,1\F,0,1.815516,1.217974,0.000004
 \S,0,1.736341,-0.450606,-0.000004\N,0,0.141883,-0.765238,-0.000002\C,0
 ,-0.974291,-0.302324,0.000002\S,0,-2.454283,0.213659,0.000002\\Version
 =ES64L-G16RevC.01\State=1-A\HF=-986.882505\RMSD=6.324e-03\Dipole=0.129
 2869,-0.6150835,-0.0000029\Quadrupole=1.1904187,-0.510649,-0.6797697,-
 2.5720806,-0.000012,0.000002\PG=C01 [X(C1F1N1S2)]\\@

 Normal termination of Gaussian 16 at Wed Apr  9 00:20:38 2025.
