 Gaussian 16, Revision C.01,

 ----------------------------------------------------------------------
 #t hf aug-cc-pvdz symm=none int=(grid=ultrafine) guess=(read,tcheck) s
 table=(opt,rrhf)
 ----------------------------------------------------------------------
 -----
 title
 -----
 Symbolic Z-matrix:
 Charge =  0 Multiplicity = 1

 SCF Done:  E(RHF) =  -2064.54129772     A.U. after   14 cycles
 Normal termination of Gaussian 16 at Tue Apr  8 23:08:04 2025.
 Gaussian 16:  ES64L-G16RevC.01  3-Jul-2019

 ----------------------------------------------------------------------
 #t hf aug-cc-pvdz iop(5/13=1,5/36=2,99/5=2) pseudo=read geom=check gue
 ss=(read,tcheck) scf=(maxcycle=1)
 ----------------------------------------------------------------------
 -----
 title
 -----
 Structure from the checkpoint file:  "BDE49_expt_626_mol1.chk"
 Charge =  0 Multiplicity = 1

                         Standard orientation:
 ---------------------------------------------------------------------
 Center     Atomic      Atomic             Coordinates (Angstroms)
 Number     Number       Type             X           Y           Z
 ---------------------------------------------------------------------
      1          6           0       -0.596354    0.090418    0.189401
      2          8           0       -1.146714    1.367090    0.234610
      3          8           0       -1.266085    1.876418   -1.119184
      4          1           0       -2.196037    1.668210   -1.304062
      5          6           0        0.747863    0.051721   -0.587442
      6         17           0       -0.430736   -0.347134    1.897821
      7         17           0        1.491817   -1.569381   -0.583216
      8          1           0        0.543799    0.317330   -1.618108
      9         17           0        1.877190    1.278978    0.053559
     10         17           0       -1.759120   -1.055783   -0.639515
 ---------------------------------------------------------------------

 SCF Done:  E(RHF) =  -2064.68361484     A.U. after    2 cycles

 The electronic state is 1-A.
 Alpha  occ. eigenvalues -- -103.69745-103.69383-103.68866-103.68581 -20.70506
 Alpha  occ. eigenvalues --  -20.69121 -11.47710 -11.40853 -10.73068 -10.72674
 Alpha  occ. eigenvalues --  -10.72154 -10.71862  -8.38795  -8.38449  -8.38444
 Alpha  occ. eigenvalues --   -8.38383  -8.38075  -8.38071  -8.37878  -8.37588
 Alpha  occ. eigenvalues --   -8.37551  -8.37540  -8.37261  -8.37250  -1.49556
 Alpha  occ. eigenvalues --   -1.30347  -1.23547  -1.19451  -1.16630  -1.15274
 Alpha  occ. eigenvalues --   -0.98645  -0.85244  -0.78299  -0.74902  -0.72375
 Alpha  occ. eigenvalues --   -0.68378  -0.65176  -0.61164  -0.58722  -0.57124
 Alpha  occ. eigenvalues --   -0.54867  -0.52619  -0.50953  -0.50407  -0.49155
 Alpha  occ. eigenvalues --   -0.48957  -0.47736  -0.46992  -0.46553
 Alpha virt. eigenvalues --    0.03353   0.05427   0.06614   0.07258   0.08706
 Alpha virt. eigenvalues --    0.09386   0.10340   0.11772   0.12396   0.12678
 Alpha virt. eigenvalues --    0.14085   0.14560   0.15364   0.15608   0.16492

 Mulliken charges:
               1
     1  C    0.554975
     2  O   -0.431319
     3  O   -0.273375
     4  H    0.265545
     5  C   -0.160711
     6  Cl  -0.063583
     7  Cl  -0.008653
     8  H    0.222700
     9  Cl  -0.014332
    10  Cl  -0.091248
 Sum of Mulliken charges =  -0.00000

 Dipole moment (field-independent basis, Debye):
    X=             -1.6572    Y=              0.1321    Z=             -1.6437  Tot=              2.3379

 Test job not archived.
 1\1\GINC-SE362\SP\RHF\Aug-CC-pVDZ\C2H2Cl4O2\OHZDE\08-Apr-2025\0\\#t hf
  aug-cc-pvdz iop(5/13=1,5/36=2,99/5=2) pseudo=read geom=check guess=(r
 ead,tcheck) scf=(maxcycle=1)\\title\\0,1\C,0,-0.596354,0.090418,0.1894
 01\O,0,-1.146713,1.367091,0.23461\O,0,-1.266084,1.876419,-1.119184\H,0
 ,-2.196036,1.668211,-1.304062\C,0,0.747863,0.051721,-0.587442\Cl,0,-0.
 430736,-0.347134,1.897821\Cl,0,1.491816,-1.569382,-0.583216\H,0,0.5437
 99,0.31733,-1.618108\Cl,0,1.877191,1.278977,0.053559\Cl,0,-1.75912,-1.
 055782,-0.639515\\Version=ES64L-G16RevC.01\State=1-A\HF=-2064.6836148\

 Normal termination of Gaussian 16 at Tue Apr  8 23:08:09 2025.
