 Gaussian 16, Revision C.01,

 ----------------------------------------------------------------------
 #t hf aug-cc-pvdz symm=none int=(grid=ultrafine) guess=(read,tcheck) s
 table=(opt,rrhf)
 ----------------------------------------------------------------------
 -----
 title
 -----
 Symbolic Z-matrix:
 Charge =  0 Multiplicity = 1

 SCF Done:  E(RHF) =  -401.911720774     A.U. after   14 cycles
 Normal termination of Gaussian 16 at Tue Apr  8 23:32:31 2025.
 Gaussian 16:  ES64L-G16RevC.01  3-Jul-2019

 ----------------------------------------------------------------------
 #t hf aug-cc-pvdz iop(5/13=1,5/36=2,99/5=2) pseudo=read geom=check gue
 ss=(read,tcheck) scf=(maxcycle=1)
 ----------------------------------------------------------------------
 -----
 title
 -----
 Structure from the checkpoint file:  "BDE49_nonexpt_144_mol1.chk"
 Charge =  0 Multiplicity = 1

                         Standard orientation:
 ---------------------------------------------------------------------
 Center     Atomic      Atomic             Coordinates (Angstroms)
 Number     Number       Type             X           Y           Z
 ---------------------------------------------------------------------
      1          5           0        0.610923   -1.265065   -0.469205
      2          5           0       -0.622273   -1.221712    0.545599
      3          5           0       -1.801070   -0.045467    0.117285
      4          5           0        1.778440   -0.065650   -0.127775
      5          8           0       -3.073658   -0.466593   -0.142002
      6          1           0       -3.639749    0.268300   -0.410361
      7          8           0       -1.517877    1.287003    0.022187
      8          1           0       -0.571581    1.486904    0.087834
      9          8           0        1.351372    1.243530   -0.038690
     10          1           0        2.075341    1.859059    0.135386
     11          8           0        3.107332   -0.279651    0.120510
     12          1           0        3.385918   -1.191843    0.007236
     13          1           0       -0.737765   -1.765719    1.602464
     14          1           0        0.720377   -1.941540   -1.448133
 ---------------------------------------------------------------------

 SCF Done:  E(RHF) =  -402.049640820     A.U. after    2 cycles

 The electronic state is 1-A.
 Alpha  occ. eigenvalues --  -20.60152 -20.59937 -20.56880 -20.56502  -7.66663
 Alpha  occ. eigenvalues --   -7.64002  -7.58778  -7.58005  -1.36265  -1.33032
 Alpha  occ. eigenvalues --   -1.32346  -1.29238  -0.80918  -0.78157  -0.77410
 Alpha  occ. eigenvalues --   -0.73923  -0.71373  -0.65048  -0.62318  -0.60680
 Alpha  occ. eigenvalues --   -0.60296  -0.58359  -0.57309  -0.56300  -0.54111
 Alpha  occ. eigenvalues --   -0.50765  -0.47713  -0.44283  -0.39404
 Alpha virt. eigenvalues --    0.02438   0.03742   0.04071   0.04565   0.05168
 Alpha virt. eigenvalues --    0.05914   0.06116   0.06835   0.07299   0.07590
 Alpha virt. eigenvalues --    0.08660   0.08971   0.09459   0.09808   0.10518

 Mulliken charges:
               1
     1  B   -0.175180
     2  B   -0.083779
     3  B    0.668317
     4  B    0.750519
     5  O   -0.570197
     6  H    0.182304
     7  O   -0.563841
     8  H    0.214597
     9  O   -0.648036
    10  H    0.164389
    11  O   -0.488738
    12  H    0.175165
    13  H    0.163205
    14  H    0.211274
 Sum of Mulliken charges =  -0.00000

 Dipole moment (field-independent basis, Debye):
    X=              2.8326    Y=             -0.2205    Z=             -0.2588  Tot=              2.8529

 Test job not archived.
 1\1\GINC-SE128\SP\RHF\Aug-CC-pVDZ\B4H6O4\OHZDE\08-Apr-2025\0\\#t hf au
 g-cc-pvdz iop(5/13=1,5/36=2,99/5=2) pseudo=read geom=check guess=(read
 ,tcheck) scf=(maxcycle=1)\\title\\0,1\B,0,0.610923,-1.265065,-0.469205
 \B,0,-0.622273,-1.221712,0.545599\B,0,-1.80107,-0.045467,0.117285\B,0,
 1.77844,-0.06565,-0.127775\O,0,-3.073658,-0.466594,-0.142002\H,0,-3.63
 9749,0.268299,-0.410361\O,0,-1.517877,1.287003,0.022187\H,0,-0.571581,
 1.486904,0.087834\O,0,1.351372,1.24353,-0.03869\H,0,2.075341,1.859059,
 0.135386\O,0,3.107332,-0.279651,0.12051\H,0,3.385918,-1.191843,0.00723

 Normal termination of Gaussian 16 at Tue Apr  8 23:32:36 2025.
