 Gaussian 16, Revision C.01,

 ----------------------------------------------------------------------
 #t hf aug-cc-pvdz symm=none int=(grid=ultrafine) guess=(read,tcheck) s
 table=(opt,rrhf)
 ----------------------------------------------------------------------
 -----
 title
 -----
 Symbolic Z-matrix:
 Charge =  0 Multiplicity = 1

 SCF Done:  E(RHF) =  -600.417143530     A.U. after   12 cycles
 Normal termination of Gaussian 16 at Wed Apr  9 00:08:10 2025.
 Gaussian 16:  ES64L-G16RevC.01  3-Jul-2019

 ----------------------------------------------------------------------
 #t hf aug-cc-pvdz iop(5/13=1,5/36=2,99/5=2) pseudo=read geom=check gue
 ss=(read,tcheck) scf=(maxcycle=1)
 ----------------------------------------------------------------------
 -----
 title
 -----
 Structure from the checkpoint file:  "BDE49_nonexpt_2287_mol1.chk"
 Charge =  0 Multiplicity = 1

                         Standard orientation:
 ---------------------------------------------------------------------
 Center     Atomic      Atomic             Coordinates (Angstroms)
 Number     Number       Type             X           Y           Z
 ---------------------------------------------------------------------
      1          6           0        1.464029   -0.031765    0.031381
      2          8           0        0.102518   -0.306465    0.414612
      3          6           0        1.878262   -1.016827   -1.069665
      4          6           0        2.296992   -0.255921    1.296679
      5          1           0        3.360339   -0.093064    1.100462
      6          1           0        2.159879   -1.277317    1.658130
      7          1           0        1.977374    0.429831    2.084634
      8          6           0        1.603643    1.417606   -0.453466
      9          1           0        2.645282    1.643551   -0.697451
     10          1           0        1.275856    2.113468    0.322625
     11          1           0        1.005953    1.591233   -1.352805
     12         14           0       -1.364603   -0.041319   -0.299089
     13          1           0        1.749740   -2.044139   -0.720961
     14          1           0        2.926631   -0.873825   -1.346438
     15          1           0        1.267935   -0.878160   -1.965427
     16          6           0       -2.483732   -1.434564    0.252968
     17          1           0       -2.088659   -2.403596   -0.062931
     18          1           0       -3.486578   -1.321899   -0.170926
     19          1           0       -2.577365   -1.448519    1.342800
     20          6           0       -2.086899    1.616743    0.200276
     21          1           0       -2.190612    1.688189    1.287233
     22          1           0       -3.080624    1.748323   -0.240911
     23          1           0       -1.462180    2.449268   -0.133992
     24          1           0       -1.232450   -0.064786   -1.782734
 ---------------------------------------------------------------------

 SCF Done:  E(RHF) =  -600.552388133     A.U. after    2 cycles

 The electronic state is 1-A.
 Alpha  occ. eigenvalues --  -69.07194 -20.54209 -11.30142 -11.22623 -11.22204
 Alpha  occ. eigenvalues --  -11.21930 -11.20649 -11.20497  -6.81956  -3.92871
 Alpha  occ. eigenvalues --   -3.92730  -3.92699  -1.29201  -1.05533  -0.94545
 Alpha  occ. eigenvalues --   -0.93587  -0.93248  -0.91654  -0.78377  -0.67204
 Alpha  occ. eigenvalues --   -0.63553  -0.62759  -0.59918  -0.56995  -0.56717
 Alpha  occ. eigenvalues --   -0.55994  -0.55356  -0.54125  -0.53735  -0.52180
 Alpha  occ. eigenvalues --   -0.51818  -0.51449  -0.51158  -0.46099  -0.45759
 Alpha  occ. eigenvalues --   -0.42746  -0.41374
 Alpha virt. eigenvalues --    0.03216   0.04296   0.04552   0.04800   0.05890
 Alpha virt. eigenvalues --    0.05927   0.06198   0.06600   0.06780   0.08168
 Alpha virt. eigenvalues --    0.08284   0.08788   0.09140   0.09512   0.09654

 Mulliken charges:
               1
     1  C   -2.539831
     2  O   -0.850159
     3  C    0.988516
     4  C    1.014498
     5  H    0.026983
     6  H   -0.041970
     7  H   -0.031075
     8  C    1.028331
     9  H   -0.033223
    10  H    0.010038
    11  H   -0.045272
    12  Si   1.335689
    13  H    0.004593
    14  H    0.010759
    15  H   -0.079124
    16  C    0.356798
    17  H   -0.324018
    18  H   -0.310368
    19  H   -0.191924
    20  C    0.395278
    21  H   -0.169377
    22  H   -0.280421
    23  H   -0.347538
    24  H    0.072820
 Sum of Mulliken charges =  -0.00000

 Dipole moment (field-independent basis, Debye):
    X=              0.5800    Y=              0.5054    Z=             -0.3704  Tot=              0.8538

 Test job not archived.
 1\1\GINC-SE082\SP\RHF\Aug-CC-pVDZ\C6H16O1Si1\OHZDE\09-Apr-2025\0\\#t h
 f aug-cc-pvdz iop(5/13=1,5/36=2,99/5=2) pseudo=read geom=check guess=(
 read,tcheck) scf=(maxcycle=1)\\title\\0,1\C,0,1.464029,-0.031765,0.031
 381\O,0,0.102518,-0.306465,0.414612\C,0,1.878262,-1.016827,-1.069665\C
 ,0,2.296992,-0.255921,1.296679\H,0,3.360339,-0.093064,1.100462\H,0,2.1
 59879,-1.277317,1.65813\H,0,1.977374,0.429831,2.084634\C,0,1.603643,1.
 417606,-0.453466\H,0,2.645282,1.643551,-0.697451\H,0,1.275856,2.113468
 ,0.322625\H,0,1.005953,1.591233,-1.352805\Si,0,-1.364603,-0.041319,-0.

 Normal termination of Gaussian 16 at Wed Apr  9 00:08:24 2025.
