 Gaussian 16, Revision C.01,

 ----------------------------------------------------------------------
 #t hf aug-cc-pvdz symm=none int=(grid=ultrafine) guess=(read,tcheck) s
 table=opt
 ----------------------------------------------------------------------
 -----
 title
 -----
 Symbolic Z-matrix:
 Charge =  0 Multiplicity = 2

 SCF Done:  E(UHF) =  -445.170046736     A.U. after   20 cycles
 Normal termination of Gaussian 16 at Tue Apr  8 23:28:10 2025.
 Gaussian 16:  ES64L-G16RevC.01  3-Jul-2019

 ----------------------------------------------------------------------
 #t hf aug-cc-pvdz iop(5/13=1,5/36=2,99/5=2) pseudo=read geom=check gue
 ss=(read,tcheck) scf=(maxcycle=1)
 ----------------------------------------------------------------------
 -----
 title
 -----
 Structure from the checkpoint file:  "BDE49_nonexpt_134_mol2.chk"
 Charge =  0 Multiplicity = 2

                         Standard orientation:
 ---------------------------------------------------------------------
 Center     Atomic      Atomic             Coordinates (Angstroms)
 Number     Number       Type             X           Y           Z
 ---------------------------------------------------------------------
      1          5           0        0.473994    1.849940    0.256445
      2         15           0        0.052229    0.213536   -0.317762
      3          6           0        1.171852   -1.191771    0.140584
      4          1           0        1.052224   -1.477136    1.187773
      5          1           0        2.204570   -0.885327   -0.029819
      6          1           0        0.957525   -2.056993   -0.491393
      7          6           0       -1.642373   -0.344802    0.151529
      8          1           0       -2.334239    0.483609   -0.002999
      9          1           0       -1.690068   -0.657574    1.196799
     10          1           0       -1.948279   -1.179132   -0.483380
     11          1           0        1.427985    2.539258    0.354550
 ---------------------------------------------------------------------

 SCF Done:  E(UHF) =  -445.227242097     A.U. after    2 cycles

 The electronic state is 2-A.
 Alpha  occ. eigenvalues --  -81.24661 -11.24944 -11.24661  -7.75311  -7.62697
 Alpha  occ. eigenvalues --   -4.89456  -4.89365  -4.88947  -0.98769  -0.94556
 Alpha  occ. eigenvalues --   -0.76140  -0.62398  -0.59275  -0.58667  -0.57383
 Alpha  occ. eigenvalues --   -0.56666  -0.48983  -0.47340  -0.32162  -0.30186
 Alpha virt. eigenvalues --    0.02725   0.04761   0.04883   0.05301   0.06366
 Alpha virt. eigenvalues --    0.06654   0.06762   0.07616   0.08205   0.09317
 Alpha virt. eigenvalues --    0.10177   0.12579   0.13887   0.14781   0.15054

  Beta  occ. eigenvalues --  -81.24801 -11.24794 -11.24626  -7.75492  -7.60899
  Beta  occ. eigenvalues --   -4.89645  -4.89471  -4.89354  -0.98610  -0.94312
  Beta  occ. eigenvalues --   -0.73489  -0.60623  -0.59391  -0.57605  -0.56821
  Beta  occ. eigenvalues --   -0.56655  -0.47530  -0.46555  -0.31539
  Beta virt. eigenvalues --    0.02951   0.04254   0.04927   0.05343   0.06519
  Beta virt. eigenvalues --    0.06728   0.06854   0.07593   0.08160   0.08894
  Beta virt. eigenvalues --    0.10608   0.11033   0.12731   0.14604   0.15029

 Mulliken charges and spin densities:
               1          2
     1  B   -0.539704   1.140553
     2  P    0.808227  -0.117751
     3  C    0.116791   0.038516
     4  H   -0.132530  -0.007550
     5  H   -0.213348  -0.002612
     6  H   -0.130227   0.007430
     7  C    0.110676   0.007551
     8  H   -0.195904  -0.008871
     9  H   -0.123560  -0.004365
    10  H   -0.143606   0.000818
    11  H    0.443185  -0.053720
 Sum of Mulliken charges =  -0.00000   1.00000

 Dipole moment (field-independent basis, Debye):
    X=             -0.1690    Y=             -2.0762    Z=              0.7202  Tot=              2.2041
                          Isotropic Fermi Contact Couplings
        Atom                 a.u.       MegaHertz       Gauss      10(-4) cm-1
     1  B(11)              0.22109     317.11860     113.15580     105.77938
     2  P(31)             -0.13939    -252.45143     -90.08095     -84.20873
     3  C(13)              0.03043      34.21418      12.20847      11.41262
     4  H(1)              -0.00286     -12.76914      -4.55635      -4.25933
     5  H(1)              -0.00061      -2.74218      -0.97848      -0.91469
     6  H(1)               0.00164       7.31227       2.60920       2.43911
     7  C(13)              0.01038      11.66870       4.16368       3.89226
     8  H(1)              -0.00006      -0.28157      -0.10047      -0.09392

 Normal termination of Gaussian 16 at Tue Apr  8 23:28:13 2025.
