 Gaussian 16, Revision C.01,

 ----------------------------------------------------------------------
 #t hf aug-cc-pvdz symm=none int=(grid=ultrafine) guess=(read,tcheck) s
 table=(opt,rrhf)
 ----------------------------------------------------------------------
 -----
 title
 -----
 Symbolic Z-matrix:
 Charge =  0 Multiplicity = 1

 SCF Done:  E(RHF) =  -823.066480323     A.U. after   14 cycles
 Normal termination of Gaussian 16 at Tue Apr  8 22:50:10 2025.
 Gaussian 16:  ES64L-G16RevC.01  3-Jul-2019

 ----------------------------------------------------------------------
 #t hf aug-cc-pvdz iop(5/13=1,5/36=2,99/5=2) pseudo=read geom=check gue
 ss=(read,tcheck) scf=(maxcycle=1)
 ----------------------------------------------------------------------
 -----
 title
 -----
 Structure from the checkpoint file:  "BDE49_expt_1725_mol1.chk"
 Charge =  0 Multiplicity = 1

                         Standard orientation:
 ---------------------------------------------------------------------
 Center     Atomic      Atomic             Coordinates (Angstroms)
 Number     Number       Type             X           Y           Z
 ---------------------------------------------------------------------
      1          6           0       -1.620917    0.054459    0.795316
      2          6           0       -0.226923   -0.576738    0.758592
      3         17           0       -2.509308   -0.174802   -0.774814
      4          1           0       -1.621082    1.122890    1.000189
      5          1           0       -2.191144   -0.478623    1.548724
      6          7           0        0.776406    0.111920    0.141137
      7          6           0        0.623975    1.412762   -0.516682
      8          8           0       -0.055294   -1.659166    1.298010
      9          6           0        2.107405   -0.511837    0.113282
     10          6           0        1.018002    2.596720    0.372279
     11          1           0       -0.399976    1.522810   -0.871550
     12          1           0        1.247593    1.399300   -1.415409
     13          1           0        0.377102    2.658721    1.255635
     14          1           0        0.924751    3.534675   -0.182170
     15          1           0        2.051748    2.510405    0.715765
     16          6           0        2.292245   -1.463020   -1.070749
     17          1           0        2.238568   -1.055390    1.048778
     18          1           0        2.848192    0.291277    0.082848
     19          1           0        1.580282   -2.287211   -1.005208
     20          1           0        3.302716   -1.881340   -1.064913
     21          1           0        2.144267   -0.950078   -2.025120
 ---------------------------------------------------------------------

 SCF Done:  E(RHF) =  -823.198967830     A.U. after    2 cycles

 The electronic state is 1-A.
 Alpha  occ. eigenvalues -- -103.66470 -20.54070 -15.65577 -11.37408 -11.32119
 Alpha  occ. eigenvalues --  -11.29022 -11.27472 -11.24597 -11.22847 -10.69692
 Alpha  occ. eigenvalues --   -8.35414  -8.35124  -8.35113  -1.35439  -1.22111
 Alpha  occ. eigenvalues --   -1.16919  -1.04189  -1.01259  -0.95970  -0.88197
 Alpha  occ. eigenvalues --   -0.86326  -0.73913  -0.71250  -0.68354  -0.64416
 Alpha  occ. eigenvalues --   -0.62860  -0.62009  -0.59794  -0.59276  -0.57156
 Alpha  occ. eigenvalues --   -0.55833  -0.53886  -0.52760  -0.52070  -0.51350
 Alpha  occ. eigenvalues --   -0.49696  -0.48121  -0.45845  -0.43355  -0.37812
 Alpha virt. eigenvalues --    0.02902   0.03724   0.04029   0.04686   0.06156
 Alpha virt. eigenvalues --    0.06577   0.06627   0.07078   0.07378   0.08529
 Alpha virt. eigenvalues --    0.09239   0.09410   0.09750   0.12236   0.12650

 Mulliken charges:
               1
     1  C    0.297455
     2  C    0.091901
     3  Cl  -0.093860
     4  H   -0.023961
     5  H   -0.046815
     6  N   -0.210282
     7  C    0.605655
     8  O   -0.534851
     9  C    0.564239
    10  C    0.386111
    11  H   -0.242319
    12  H   -0.237986
    13  H   -0.102961
    14  H   -0.054167
    15  H   -0.132435
    16  C    0.379754
    17  H   -0.167138
    18  H   -0.228254
    19  H   -0.071921
    20  H   -0.077145
    21  H   -0.101019
 Sum of Mulliken charges =  -0.00000

 Dipole moment (field-independent basis, Debye):
    X=              1.7094    Y=              4.0104    Z=             -0.5216  Tot=              4.3906

 Test job not archived.
 1\1\GINC-SE435\SP\RHF\Aug-CC-pVDZ\C6H12Cl1N1O1\OHZDE\08-Apr-2025\0\\#t
  hf aug-cc-pvdz iop(5/13=1,5/36=2,99/5=2) pseudo=read geom=check guess
 =(read,tcheck) scf=(maxcycle=1)\\title\\0,1\C,0,-1.620917,0.054459,0.7
 95316\C,0,-0.226923,-0.576738,0.758592\Cl,0,-2.509308,-0.174801,-0.774
 814\H,0,-1.621082,1.12289,1.000189\H,0,-2.191144,-0.478623,1.548724\N,
 0,0.776406,0.11192,0.141137\C,0,0.623975,1.412762,-0.516682\O,0,-0.055
 294,-1.659166,1.29801\C,0,2.107405,-0.511837,0.113282\C,0,1.018002,2.5
 9672,0.372279\H,0,-0.399976,1.52281,-0.87155\H,0,1.247593,1.3993,-1.41

 Normal termination of Gaussian 16 at Tue Apr  8 22:50:21 2025.
