 Gaussian 16, Revision C.01,

 ----------------------------------------------------------------------
 #t hf aug-cc-pvdz symm=none int=(grid=ultrafine) guess=(read,tcheck) s
 table=(opt,rrhf)
 ----------------------------------------------------------------------
 -----
 title
 -----
 Symbolic Z-matrix:
 Charge =  0 Multiplicity = 1

 SCF Done:  E(RHF) =  -719.293765354     A.U. after   15 cycles
 Normal termination of Gaussian 16 at Tue Apr  8 23:14:11 2025.
 Gaussian 16:  ES64L-G16RevC.01  3-Jul-2019

 ----------------------------------------------------------------------
 #t hf aug-cc-pvdz iop(5/13=1,5/36=2,99/5=2) pseudo=read geom=check gue
 ss=(read,tcheck) scf=(maxcycle=1)
 ----------------------------------------------------------------------
 -----
 title
 -----
 Structure from the checkpoint file:  "BDE49_nonexpt_1009_mol1.chk"
 Charge =  0 Multiplicity = 1

                         Standard orientation:
 ---------------------------------------------------------------------
 Center     Atomic      Atomic             Coordinates (Angstroms)
 Number     Number       Type             X           Y           Z
 ---------------------------------------------------------------------
      1          6           0       -0.972118   -0.559903   -0.534782
      2         16           0        0.665952   -1.141812    0.002253
      3          7           0        1.597155    0.435275   -0.008069
      4          8           0        1.031236    1.446281   -0.367697
      5          8           0        2.747812    0.322777    0.352782
      6          6           0       -1.821451    0.083883    0.561652
      7          1           0       -1.442370   -1.468810   -0.927048
      8          1           0       -0.810804    0.116341   -1.376402
      9          6           0       -3.195902    0.512521    0.037068
     10          1           0       -1.288279    0.951947    0.956415
     11          1           0       -1.938033   -0.622823    1.388848
     12          1           0       -3.101987    1.244914   -0.769844
     13          1           0       -3.787873    0.970137    0.833150
     14          1           0       -3.761533   -0.341109   -0.348999
 ---------------------------------------------------------------------

 SCF Done:  E(RHF) =  -719.416112185     A.U. after    2 cycles

 The electronic state is 1-A.
 Alpha  occ. eigenvalues --  -93.61305 -20.63320 -20.63212 -15.93624 -11.30076
 Alpha  occ. eigenvalues --  -11.25696 -11.24423  -8.90719  -6.24880  -6.24536
 Alpha  occ. eigenvalues --   -6.24175  -1.56480  -1.38823  -1.11277  -1.04055
 Alpha  occ. eigenvalues --   -0.94959  -0.85683  -0.82588  -0.75159  -0.75008
 Alpha  occ. eigenvalues --   -0.73755  -0.66501  -0.60904  -0.58576  -0.57572
 Alpha  occ. eigenvalues --   -0.53439  -0.51816  -0.50690  -0.49178  -0.48758
 Alpha  occ. eigenvalues --   -0.47363  -0.40436
 Alpha virt. eigenvalues --    0.02878   0.04048   0.04400   0.05467   0.06703
 Alpha virt. eigenvalues --    0.06846   0.07396   0.08331   0.08528   0.08768
 Alpha virt. eigenvalues --    0.11538   0.12699   0.13509   0.14386   0.14744

 Mulliken charges:
               1
     1  C   -0.073279
     2  S    0.896988
     3  N    0.294869
     4  O   -0.506988
     5  O   -0.530464
     6  C    0.044405
     7  H   -0.055923
     8  H   -0.028164
     9  C    0.300482
    10  H   -0.080510
    11  H   -0.065242
    12  H   -0.059802
    13  H   -0.072180
    14  H   -0.064191
 Sum of Mulliken charges =  -0.00000

 Dipole moment (field-independent basis, Debye):
    X=             -4.2238    Y=             -2.1230    Z=             -0.4762  Tot=              4.7513

 Test job not archived.
 1\1\GINC-SE332\SP\RHF\Aug-CC-pVDZ\C3H7N1O2S1\OHZDE\08-Apr-2025\0\\#t h
 f aug-cc-pvdz iop(5/13=1,5/36=2,99/5=2) pseudo=read geom=check guess=(
 read,tcheck) scf=(maxcycle=1)\\title\\0,1\C,0,-0.972118,-0.559903,-0.5
 34782\S,0,0.665952,-1.141812,0.002253\N,0,1.597155,0.435275,-0.008069\
 O,0,1.031236,1.446281,-0.367697\O,0,2.747812,0.322777,0.352782\C,0,-1.
 821451,0.083883,0.561652\H,0,-1.44237,-1.46881,-0.927048\H,0,-0.810804
 ,0.116341,-1.376402\C,0,-3.195902,0.512521,0.037068\H,0,-1.288279,0.95
 1947,0.956415\H,0,-1.938033,-0.622823,1.388848\H,0,-3.101987,1.244914,

 Normal termination of Gaussian 16 at Tue Apr  8 23:14:15 2025.
