 Gaussian 16, Revision C.01,

 ----------------------------------------------------------------------
 #t hf aug-cc-pvdz symm=none int=(grid=ultrafine) guess=(read,tcheck) s
 table=(opt,rrhf)
 ----------------------------------------------------------------------
 -----
 title
 -----
 Symbolic Z-matrix:
 Charge =  0 Multiplicity = 1

 SCF Done:  E(RHF) =  -645.403259244     A.U. after   15 cycles
 Normal termination of Gaussian 16 at Wed Apr  9 00:21:39 2025.
 Gaussian 16:  ES64L-G16RevC.01  3-Jul-2019

 ----------------------------------------------------------------------
 #t hf aug-cc-pvdz iop(5/13=1,5/36=2,99/5=2) pseudo=read geom=check gue
 ss=(read,tcheck) scf=(maxcycle=1)
 ----------------------------------------------------------------------
 -----
 title
 -----
 Structure from the checkpoint file:  "BDE49_nonexpt_2688_mol1.chk"
 Charge =  0 Multiplicity = 1

                         Standard orientation:
 ---------------------------------------------------------------------
 Center     Atomic      Atomic             Coordinates (Angstroms)
 Number     Number       Type             X           Y           Z
 ---------------------------------------------------------------------
      1          9           0       -1.997723    0.886937    0.000014
      2         16           0       -1.144446   -0.581204   -0.000019
      3          7           0        0.429601   -0.427555   -0.000003
      4          7           0        1.222671    0.521741    0.000008
      5          6           0        2.627723    0.097776    0.000016
      6          1           0        3.108279    0.530273   -0.881605
      7          1           0        2.741858   -0.989668    0.000015
      8          1           0        3.108266    0.530270    0.881646
 ---------------------------------------------------------------------

 SCF Done:  E(RHF) =  -645.512090072     A.U. after    2 cycles

 The electronic state is 1-A.
 Alpha  occ. eigenvalues --  -93.66954 -26.12521 -15.75277 -15.72160 -11.28731
 Alpha  occ. eigenvalues --   -8.95555  -6.29831  -6.29321  -6.28863  -1.63228
 Alpha  occ. eigenvalues --   -1.36116  -1.11874  -0.97337  -0.82744  -0.72785
 Alpha  occ. eigenvalues --   -0.72736  -0.71653  -0.66379  -0.64284  -0.57769
 Alpha  occ. eigenvalues --   -0.55385  -0.55081  -0.41217  -0.37997
 Alpha virt. eigenvalues --    0.03155   0.04905   0.05304   0.07031   0.08452
 Alpha virt. eigenvalues --    0.08690   0.09796   0.11559   0.13705   0.14341
 Alpha virt. eigenvalues --    0.15422   0.16023   0.16662   0.18209   0.20383

 Mulliken charges:
               1
     1  F   -0.602551
     2  S    0.985597
     3  N   -0.365345
     4  N   -0.506713
     5  C    0.752546
     6  H   -0.068486
     7  H   -0.126563
     8  H   -0.068485
 Sum of Mulliken charges =  -0.00000

 Dipole moment (field-independent basis, Debye):
    X=              3.0609    Y=             -1.8429    Z=             -0.0000  Tot=              3.5729

 Test job not archived.
 1\1\GINC-SE329\SP\RHF\Aug-CC-pVDZ\C1H3F1N2S1\OHZDE\09-Apr-2025\0\\#t h
 f aug-cc-pvdz iop(5/13=1,5/36=2,99/5=2) pseudo=read geom=check guess=(
 read,tcheck) scf=(maxcycle=1)\\title\\0,1\F,0,-1.997723,0.886937,0.000
 014\S,0,-1.144446,-0.581204,-0.000019\N,0,0.429601,-0.427555,-0.000003
 \N,0,1.222671,0.521741,0.000008\C,0,2.627723,0.097776,0.000016\H,0,3.1
 08279,0.530273,-0.881605\H,0,2.741858,-0.989668,0.000015\H,0,3.108266,
 0.53027,0.881646\\Version=ES64L-G16RevC.01\State=1-A\HF=-645.5120901\R
 MSD=5.652e-03\Dipole=1.2042522,-0.7250595,-0.0000112\Quadrupole=2.3411

 Normal termination of Gaussian 16 at Wed Apr  9 00:21:41 2025.
