 Gaussian 16, Revision C.01,

 ----------------------------------------------------------------------
 #t hf aug-cc-pvdz symm=none int=(grid=ultrafine) guess=(read,tcheck) s
 table=(opt,rrhf)
 ----------------------------------------------------------------------
 -----
 title
 -----
 Symbolic Z-matrix:
 Charge =  0 Multiplicity = 1

 SCF Done:  E(RHF) =  -962.750016856     A.U. after   15 cycles
 Normal termination of Gaussian 16 at Tue Apr  8 23:34:56 2025.
 Gaussian 16:  ES64L-G16RevC.01  3-Jul-2019

 ----------------------------------------------------------------------
 #t hf aug-cc-pvdz iop(5/13=1,5/36=2,99/5=2) pseudo=read geom=check gue
 ss=(read,tcheck) scf=(maxcycle=1)
 ----------------------------------------------------------------------
 -----
 title
 -----
 Structure from the checkpoint file:  "BDE49_nonexpt_1461_mol1.chk"
 Charge =  0 Multiplicity = 1

                         Standard orientation:
 ---------------------------------------------------------------------
 Center     Atomic      Atomic             Coordinates (Angstroms)
 Number     Number       Type             X           Y           Z
 ---------------------------------------------------------------------
      1          6           0       -0.365392    1.113706    0.101902
      2          6           0        1.020590    0.989934    0.146723
      3          6           0       -1.163242   -0.021750   -0.020879
      4          6           0       -0.569937   -1.283828   -0.097921
      5          6           0        0.812575   -1.401632   -0.054023
      6          6           0        1.626529   -0.266665    0.063723
      7          1           0        1.642378    1.872646    0.235441
      8          1           0       -0.825862    2.092409    0.153860
      9          1           0       -1.189568   -2.165712   -0.204090
     10          1           0        1.260323   -2.388288   -0.123450
     11         15           0        3.450754   -0.472845    0.241478
     12          7           0        4.030132    1.039677   -0.289619
     13          1           0        4.895395    1.342127    0.130714
     14          1           0        3.959954    1.306624   -1.262261
     15          6           0       -2.660384    0.098735   -0.019105
     16          9           0       -3.077430    1.307116   -0.456832
     17          9           0       -3.178399   -0.063378    1.222652
     18          9           0       -3.245906   -0.834821   -0.803177
     19          1           0        3.596328   -1.296125   -0.911364
 ---------------------------------------------------------------------

 SCF Done:  E(RHF) =  -962.980368394     A.U. after    2 cycles

 The electronic state is 1-A.
 Alpha  occ. eigenvalues --  -81.29171 -26.16068 -26.15967 -26.15513 -15.63254
 Alpha  occ. eigenvalues --  -11.52511 -11.27622 -11.27059 -11.26981 -11.26879
 Alpha  occ. eigenvalues --  -11.26409 -11.25965  -7.79136  -4.93292  -4.93142
 Alpha  occ. eigenvalues --   -4.92793  -1.75251  -1.68428  -1.67938  -1.17350
 Alpha  occ. eigenvalues --   -1.13593  -1.07746  -1.03256  -0.99741  -0.89340
 Alpha  occ. eigenvalues --   -0.88128  -0.86924  -0.84343  -0.81393  -0.77913
 Alpha  occ. eigenvalues --   -0.76506  -0.76442  -0.72243  -0.71888  -0.70908
 Alpha  occ. eigenvalues --   -0.69175  -0.68145  -0.65623  -0.65116  -0.61257
 Alpha  occ. eigenvalues --   -0.58986  -0.57789  -0.53489  -0.51835  -0.50287
 Alpha  occ. eigenvalues --   -0.42284  -0.39771  -0.36060  -0.32875
 Alpha virt. eigenvalues --    0.02815   0.03693   0.04338   0.04918   0.05678
 Alpha virt. eigenvalues --    0.06379   0.07451   0.07702   0.08761   0.09131
 Alpha virt. eigenvalues --    0.09700   0.10009   0.10361   0.11569   0.12582

 Mulliken charges:
               1
     1  C    0.207103
     2  C    0.528088
     3  C    0.946633
     4  C    0.086200
     5  C    0.470268
     6  C    0.059352
     7  H   -0.597143
     8  H   -0.563770
     9  H   -0.569443
    10  H   -0.592169
    11  P    0.605186
    12  N   -0.428799
    13  H    0.003930
    14  H   -0.040520
    15  C    0.816758
    16  F   -0.325972
    17  F   -0.335701
    18  F   -0.336719
    19  H    0.066719
 Sum of Mulliken charges =  -0.00000

 Dipole moment (field-independent basis, Debye):
    X=              4.2466    Y=              0.4616    Z=             -1.2875  Tot=              4.4615

 Test job not archived.
 1\1\GINC-SE049\SP\RHF\Aug-CC-pVDZ\C7H7F3N1P1\OHZDE\08-Apr-2025\0\\#t h
 f aug-cc-pvdz iop(5/13=1,5/36=2,99/5=2) pseudo=read geom=check guess=(
 read,tcheck) scf=(maxcycle=1)\\title\\0,1\C,0,-0.365392,1.113706,0.101
 902\C,0,1.02059,0.989934,0.146723\C,0,-1.163242,-0.02175,-0.020879\C,0
 ,-0.569937,-1.283828,-0.097921\C,0,0.812575,-1.401632,-0.054023\C,0,1.
 626529,-0.266665,0.063723\H,0,1.642378,1.872646,0.235441\H,0,-0.825862
 ,2.092409,0.15386\H,0,-1.189568,-2.165712,-0.20409\H,0,1.260323,-2.388
 288,-0.12345\P,0,3.450754,-0.472845,0.241478\N,0,4.030132,1.039677,-0.

 Normal termination of Gaussian 16 at Tue Apr  8 23:35:09 2025.
