 Gaussian 16, Revision C.01,

 ----------------------------------------------------------------------
 #t hf aug-cc-pvdz symm=none int=(grid=ultrafine) guess=(read,tcheck) s
 table=(opt,rrhf)
 ----------------------------------------------------------------------
 -----
 title
 -----
 Symbolic Z-matrix:
 Charge =  0 Multiplicity = 1

 SCF Done:  E(RHF) =  -849.957301689     A.U. after   15 cycles
 Normal termination of Gaussian 16 at Wed Apr  9 00:11:13 2025.
 Gaussian 16:  ES64L-G16RevC.01  3-Jul-2019

 ----------------------------------------------------------------------
 #t hf aug-cc-pvdz iop(5/13=1,5/36=2,99/5=2) pseudo=read geom=check gue
 ss=(read,tcheck) scf=(maxcycle=1)
 ----------------------------------------------------------------------
 -----
 title
 -----
 Structure from the checkpoint file:  "BDE49_nonexpt_2368_mol1.chk"
 Charge =  0 Multiplicity = 1

                         Standard orientation:
 ---------------------------------------------------------------------
 Center     Atomic      Atomic             Coordinates (Angstroms)
 Number     Number       Type             X           Y           Z
 ---------------------------------------------------------------------
      1         14           0       -1.998044   -0.987610   -0.132827
      2         14           0       -2.580551    1.285100   -0.391453
      3          6           0       -0.484722   -1.258875    0.993434
      4          1           0       -1.726735   -1.575692   -1.469363
      5          1           0       -3.159061   -1.711227    0.451259
      6          6           0        0.768406   -0.570765    0.508844
      7          6           0        1.586537   -1.165526   -0.460238
      8          6           0        1.132617    0.690537    0.996253
      9          6           0        2.730167   -0.522104   -0.925589
     10          6           0        3.079461    0.733627   -0.432854
     11          6           0        2.275524    1.337057    0.531195
     12          1           0        1.326504   -2.144798   -0.849635
     13          1           0        3.351123   -1.004390   -1.672547
     14          1           0        3.970465    1.234448   -0.793797
     15          1           0        2.539611    2.311575    0.926940
     16          1           0        0.519378    1.167110    1.754783
     17          1           0       -2.724155    1.938160    0.934439
     18          1           0       -3.883262    1.381400   -1.096172
     19          1           0       -0.326825   -2.340280    1.063558
     20          1           0       -0.747458   -0.915121    1.998575
     21          1           0       -1.567192    2.030241   -1.174390
 ---------------------------------------------------------------------

 SCF Done:  E(RHF) =  -850.077663156     A.U. after    2 cycles

 The electronic state is 1-A.
 Alpha  occ. eigenvalues --  -69.06080 -69.05647 -11.25937 -11.24727 -11.24716
 Alpha  occ. eigenvalues --  -11.24255 -11.24225 -11.24170 -11.23635  -6.81417
 Alpha  occ. eigenvalues --   -6.81066  -3.92169  -3.92161  -3.92139  -3.91827
 Alpha  occ. eigenvalues --   -3.91821  -3.91785  -1.14686  -1.04161  -1.01023
 Alpha  occ. eigenvalues --   -0.93191  -0.83096  -0.80460  -0.72529  -0.70069
 Alpha  occ. eigenvalues --   -0.65303  -0.64335  -0.63645  -0.59170  -0.58074
 Alpha  occ. eigenvalues --   -0.55588  -0.52868  -0.49953  -0.49497  -0.48550
 Alpha  occ. eigenvalues --   -0.48106  -0.46396  -0.45571  -0.39140  -0.34205
 Alpha  occ. eigenvalues --   -0.32338
 Alpha virt. eigenvalues --    0.03243   0.03831   0.04016   0.04828   0.05454
 Alpha virt. eigenvalues --    0.05539   0.06095   0.07182   0.07518   0.07636
 Alpha virt. eigenvalues --    0.08250   0.09203   0.09302   0.09576   0.10026

 Mulliken charges:
               1
     1  Si   0.208956
     2  Si  -0.426359
     3  C    0.139470
     4  H    0.129478
     5  H    0.055291
     6  C    0.673961
     7  C    0.547630
     8  C    0.771921
     9  C    0.203536
    10  C    0.654459
    11  C    0.120097
    12  H   -0.629219
    13  H   -0.454629
    14  H   -0.441357
    15  H   -0.465363
    16  H   -0.643535
    17  H    0.106966
    18  H   -0.001894
    19  H   -0.332538
    20  H   -0.319685
    21  H    0.102813
 Sum of Mulliken charges =  -0.00000

 Dipole moment (field-independent basis, Debye):
    X=              0.4284    Y=             -0.3488    Z=              0.4009  Tot=              0.6826

 Test job not archived.
 1\1\GINC-SE252\SP\RHF\Aug-CC-pVDZ\C7H12Si2\OHZDE\09-Apr-2025\0\\#t hf
 aug-cc-pvdz iop(5/13=1,5/36=2,99/5=2) pseudo=read geom=check guess=(re
 ad,tcheck) scf=(maxcycle=1)\\title\\0,1\Si,0,-1.998044,-0.98761,-0.132
 827\Si,0,-2.580551,1.2851,-0.391453\C,0,-0.484722,-1.258875,0.993434\H
 ,0,-1.726735,-1.575692,-1.469363\H,0,-3.159061,-1.711227,0.451259\C,0,
 0.768406,-0.570765,0.508844\C,0,1.586537,-1.165526,-0.460238\C,0,1.132
 617,0.690537,0.996253\C,0,2.730167,-0.522104,-0.925589\C,0,3.079461,0.
 733627,-0.432854\C,0,2.275524,1.337057,0.531195\H,0,1.326504,-2.144798

 Normal termination of Gaussian 16 at Wed Apr  9 00:11:26 2025.
