 Gaussian 16, Revision C.01,

 ----------------------------------------------------------------------
 #t hf aug-cc-pvdz symm=none int=(grid=ultrafine) guess=(read,tcheck) s
 table=(opt,rrhf)
 ----------------------------------------------------------------------
 -----
 title
 -----
 Symbolic Z-matrix:
 Charge =  0 Multiplicity = 1

 SCF Done:  E(RHF) =  -438.436606995     A.U. after   16 cycles

 1\1\GINC-SE106\Stability\RHF\Aug-CC-pVDZ\C10H9N1\OHZDE\08-Apr-2025\0\\
 #t hf aug-cc-pvdz symm=none int=(grid=ultrafine) guess=(read,tcheck) s
 table=(opt,rrhf)\\title\\0,1\C,0,1.406625,-1.505216,-0.001902\C,0,2.69
 3576,-1.023463,0.002409\C,0,2.941032,0.368883,0.005806\C,0,1.887518,1.
 25182,0.004906\C,0,0.548533,0.788134,0.000329\C,0,0.294825,-0.620485,-
 0.003195\C,0,-1.042096,-1.085799,-0.003337\C,0,-2.110426,-0.207633,-0.
 005269\C,0,-1.849427,1.19251,-0.00689\C,0,-0.565197,1.66793,-0.000815\
 H,0,3.5292,-1.714863,0.002665\H,0,3.96148,0.734597,0.00879\H,0,1.22349

 Normal termination of Gaussian 16 at Tue Apr  8 23:06:55 2025.
 Gaussian 16:  ES64L-G16RevC.01  3-Jul-2019

 ----------------------------------------------------------------------
 #t hf aug-cc-pvdz iop(5/13=1,5/36=2,99/5=2) pseudo=read geom=check gue
 ss=(read,tcheck) scf=(maxcycle=1)
 ----------------------------------------------------------------------
 -----
 title
 -----
 Structure from the checkpoint file:  "BDE49_expt_407_mol1.chk"
 Charge =  0 Multiplicity = 1

                         Standard orientation:
 ---------------------------------------------------------------------
 Center     Atomic      Atomic             Coordinates (Angstroms)
 Number     Number       Type             X           Y           Z
 ---------------------------------------------------------------------
      1          6           0        1.406625   -1.505216   -0.001902
      2          6           0        2.693576   -1.023463    0.002409
      3          6           0        2.941032    0.368883    0.005806
      4          6           0        1.887518    1.251820    0.004906
      5          6           0        0.548533    0.788134    0.000329
      6          6           0        0.294825   -0.620485   -0.003195
      7          6           0       -1.042096   -1.085799   -0.003337
      8          6           0       -2.110426   -0.207633   -0.005269
      9          6           0       -1.849427    1.192510   -0.006890
     10          6           0       -0.565197    1.667930   -0.000815
     11          1           0        3.529200   -1.714863    0.002665
     12          1           0        3.961480    0.734597    0.008790
     13          1           0        1.223499   -2.574922   -0.005175
     14          1           0        2.068617    2.322109    0.007226
     15          1           0       -2.686819    1.883210   -0.019228
     16          1           0       -0.386841    2.738437    0.000949
     17          7           0       -3.431293   -0.651578   -0.069962
     18          1           0       -3.579716   -1.606357    0.222132
     19          1           0       -4.116571   -0.024544    0.325205
     20          1           0       -1.223563   -2.156709   -0.005077
 ---------------------------------------------------------------------

 SCF Done:  E(RHF) =  -438.563160945     A.U. after    2 cycles

 The electronic state is 1-A.
 Alpha  occ. eigenvalues --  -15.63404 -11.29257 -11.25221 -11.25131 -11.24412
 Alpha  occ. eigenvalues --  -11.24304 -11.24250 -11.24203 -11.23799 -11.23631
 Alpha  occ. eigenvalues --  -11.22978  -1.20053  -1.15061  -1.08333  -1.03719
 Alpha  occ. eigenvalues --   -0.99128  -0.96630  -0.85539  -0.83077  -0.81337
 Alpha  occ. eigenvalues --   -0.71755  -0.70919  -0.69569  -0.65537  -0.62694
 Alpha  occ. eigenvalues --   -0.61279  -0.58991  -0.58037  -0.57720  -0.54643
 Alpha  occ. eigenvalues --   -0.52873  -0.50049  -0.49214  -0.47693  -0.41717
 Alpha  occ. eigenvalues --   -0.38002  -0.30796  -0.27471
 Alpha virt. eigenvalues --    0.03074   0.03596   0.03768   0.05015   0.05090
 Alpha virt. eigenvalues --    0.06686   0.07115   0.08031   0.08899   0.09688
 Alpha virt. eigenvalues --    0.10176   0.10859   0.11365   0.11700   0.12340

 Mulliken charges:
               1
     1  C    0.500774
     2  C    0.324525
     3  C    0.466577
     4  C    0.485193
     5  C    0.045993
     6  C    0.107679
     7  C    0.577734
     8  C    0.164693
     9  C    0.871399
    10  C    0.714598
    11  H   -0.453734
    12  H   -0.451860
    13  H   -0.567692
    14  H   -0.577264
    15  H   -0.575589
    16  H   -0.623470
    17  N   -0.299346
    18  H   -0.023114
    19  H   -0.039028
    20  H   -0.648067
 Sum of Mulliken charges =   0.00000

 Dipole moment (field-independent basis, Debye):
    X=             -1.3885    Y=             -0.0598    Z=              0.9707  Tot=              1.6953

 Test job not archived.
 1\1\GINC-SE106\SP\RHF\Aug-CC-pVDZ\C10H9N1\OHZDE\08-Apr-2025\0\\#t hf a
 ug-cc-pvdz iop(5/13=1,5/36=2,99/5=2) pseudo=read geom=check guess=(rea
 d,tcheck) scf=(maxcycle=1)\\title\\0,1\C,0,1.406625,-1.505216,-0.00190
 2\C,0,2.693576,-1.023463,0.002409\C,0,2.941032,0.368883,0.005806\C,0,1
 .887518,1.25182,0.004906\C,0,0.548533,0.788134,0.000329\C,0,0.294825,-
 0.620485,-0.003195\C,0,-1.042096,-1.085799,-0.003337\C,0,-2.110426,-0.
 207633,-0.005269\C,0,-1.849427,1.19251,-0.00689\C,0,-0.565197,1.66793,
 -0.000815\H,0,3.5292,-1.714863,0.002665\H,0,3.96148,0.734597,0.00879\H

 Normal termination of Gaussian 16 at Tue Apr  8 23:07:08 2025.
