 Gaussian 16, Revision C.01,

 ----------------------------------------------------------------------
 #t hf aug-cc-pvdz symm=none int=(grid=ultrafine) guess=(read,tcheck) s
 table=opt
 ----------------------------------------------------------------------
 -----
 title
 -----
 Symbolic Z-matrix:
 Charge =  0 Multiplicity = 2

 SCF Done:  E(UHF) =  -827.712744749     A.U. after   14 cycles
 Normal termination of Gaussian 16 at Tue Apr  8 23:39:15 2025.
 Gaussian 16:  ES64L-G16RevC.01  3-Jul-2019

 ----------------------------------------------------------------------
 #t hf aug-cc-pvdz iop(5/13=1,5/36=2,99/5=2) pseudo=read geom=check gue
 ss=(read,tcheck) scf=(maxcycle=1)
 ----------------------------------------------------------------------
 -----
 title
 -----
 Structure from the checkpoint file:  "BDE49_nonexpt_1637_mol2.chk"
 Charge =  0 Multiplicity = 2

                         Standard orientation:
 ---------------------------------------------------------------------
 Center     Atomic      Atomic             Coordinates (Angstroms)
 Number     Number       Type             X           Y           Z
 ---------------------------------------------------------------------
      1         14           0       -0.483232    0.371685   -0.000000
      2          6           0        0.170055    1.194902    1.560556
      3          1           0       -0.192822    0.687505    2.456547
      4          1           0       -0.155728    2.238597    1.598418
      5          6           0        0.170055    1.194902   -1.560556
      6         17           0        0.170055   -1.631679    0.000000
      7          1           0       -0.155728    2.238597   -1.598418
      8          1           0       -0.192822    0.687505   -2.456547
      9          1           0        1.265374    1.171965   -1.570637
     10          1           0        1.265374    1.171965    1.570637
 ---------------------------------------------------------------------

 SCF Done:  E(UHF) =  -827.780356169     A.U. after    2 cycles

 The electronic state is 2-A'.
 Alpha  occ. eigenvalues -- -103.64062 -69.10958 -11.23305 -11.23301 -10.67475
 Alpha  occ. eigenvalues --   -8.33212  -8.32977  -8.32922  -6.85851  -3.97059
 Alpha  occ. eigenvalues --   -3.96353  -3.96188  -1.12476  -0.96714  -0.94075
 Alpha  occ. eigenvalues --   -0.65670  -0.58760  -0.58595  -0.56824  -0.56552
 Alpha  occ. eigenvalues --   -0.50477  -0.49198  -0.47781  -0.43997  -0.32533
 Alpha virt. eigenvalues --    0.03174   0.04662   0.05086   0.05393   0.07072
 Alpha virt. eigenvalues --    0.07385   0.07466   0.08046   0.09718   0.11352
 Alpha virt. eigenvalues --    0.14435   0.15108   0.15273   0.16149   0.16675

  Beta  occ. eigenvalues -- -103.63981 -69.10399 -11.23144 -11.23140 -10.67386
  Beta  occ. eigenvalues --   -8.33060  -8.32878  -8.32772  -6.84981  -3.95985
  Beta  occ. eigenvalues --   -3.95836  -3.94984  -1.11776  -0.95855  -0.93544
  Beta  occ. eigenvalues --   -0.62418  -0.58323  -0.57484  -0.56671  -0.55926
  Beta  occ. eigenvalues --   -0.49076  -0.48647  -0.46511  -0.43124
  Beta virt. eigenvalues --    0.02245   0.04734   0.05025   0.05213   0.06402
  Beta virt. eigenvalues --    0.07102   0.07483   0.07776   0.08437   0.09896
  Beta virt. eigenvalues --    0.12331   0.14574   0.15835   0.15959   0.16921

 Mulliken charges and spin densities:
               1          2
     1  Si   1.293006   0.869761
     2  C    0.212236   0.053762
     3  H   -0.215594  -0.010249
     4  H   -0.189187  -0.003501
     5  C    0.212236   0.053762
     6  Cl  -0.584938   0.025989
     7  H   -0.189187  -0.003501
     8  H   -0.215594  -0.010249
     9  H   -0.161489   0.012113
    10  H   -0.161489   0.012113
 Sum of Mulliken charges =  -0.00000   1.00000

 Dipole moment (field-independent basis, Debye):
    X=             -0.0739    Y=              2.5375    Z=              0.0000  Tot=              2.5385
                          Isotropic Fermi Contact Couplings
        Atom                 a.u.       MegaHertz       Gauss      10(-4) cm-1
     1  Si(29)             0.63781    -566.84369    -202.26392    -189.07870
     2  C(13)              0.03530      39.68318      14.15995      13.23688
     3  H(1)              -0.00039      -1.75632      -0.62670      -0.58584
     4  H(1)              -0.00104      -4.62778      -1.65131      -1.54366
     5  C(13)              0.03530      39.68318      14.15995      13.23688
     6  Cl(35)             0.05547      24.32318       8.67912       8.11334
     7  H(1)              -0.00104      -4.62778      -1.65131      -1.54366
     8  H(1)              -0.00039      -1.75632      -0.62670      -0.58584

 Normal termination of Gaussian 16 at Tue Apr  8 23:39:18 2025.
