 Gaussian 16, Revision C.01,

 ----------------------------------------------------------------------
 #t hf aug-cc-pvdz symm=none int=(grid=ultrafine) guess=(read,tcheck) s
 table=(opt,rrhf)
 ----------------------------------------------------------------------
 -----
 title
 -----
 Symbolic Z-matrix:
 Charge =  0 Multiplicity = 1

 SCF Done:  E(RHF) =  -837.766469805     A.U. after   16 cycles
 Normal termination of Gaussian 16 at Tue Apr  8 23:19:27 2025.
 Gaussian 16:  ES64L-G16RevC.01  3-Jul-2019

 ----------------------------------------------------------------------
 #t hf aug-cc-pvdz iop(5/13=1,5/36=2,99/5=2) pseudo=read geom=check gue
 ss=(read,tcheck) scf=(maxcycle=1)
 ----------------------------------------------------------------------
 -----
 title
 -----
 Structure from the checkpoint file:  "BDE49_nonexpt_1092_mol1.chk"
 Charge =  0 Multiplicity = 1

                         Standard orientation:
 ---------------------------------------------------------------------
 Center     Atomic      Atomic             Coordinates (Angstroms)
 Number     Number       Type             X           Y           Z
 ---------------------------------------------------------------------
      1         17           0        1.217480   -1.695293   -0.686038
      2          7           0       -1.341603   -0.039088    0.053453
      3          7           0        0.445997    1.274710    0.172909
      4          6           0       -0.143074    0.143095    0.786906
      5          6           0       -1.438802    0.930847   -0.954038
      6          1           0       -2.262462    0.938149   -1.646791
      7          6           0       -0.340308    1.702631   -0.902310
      8          1           0       -0.020550    2.501421   -1.549091
      9          6           0       -2.432165   -0.847191    0.552054
     10          1           0       -2.026036   -1.737924    1.032640
     11          1           0       -3.055130   -1.173352   -0.282747
     12          6           0        1.739737    1.791034    0.556803
     13          1           0        1.801980    2.848476    0.290639
     14          1           0        2.565201    1.253899    0.077294
     15          1           0        1.863376    1.704068    1.639758
     16          8           0        0.715972   -1.051241    0.890343
     17          1           0       -0.269086    0.231463    1.885940
     18          1           0       -3.065310   -0.308133    1.271227
 ---------------------------------------------------------------------

 SCF Done:  E(RHF) =  -837.900967822     A.U. after    2 cycles

 The electronic state is 1-A.
 Alpha  occ. eigenvalues -- -103.68843 -20.63550 -15.63941 -15.63886 -11.37601
 Alpha  occ. eigenvalues --  -11.27518 -11.27505 -11.26851 -11.26528 -10.71502
 Alpha  occ. eigenvalues --   -8.37251  -8.36874  -8.36857  -1.35549  -1.27454
 Alpha  occ. eigenvalues --   -1.17299  -1.09306  -1.02587  -0.96747  -0.91745
 Alpha  occ. eigenvalues --   -0.80450  -0.80348  -0.72134  -0.69550  -0.64543
 Alpha  occ. eigenvalues --   -0.64221  -0.60969  -0.60265  -0.59226  -0.58471
 Alpha  occ. eigenvalues --   -0.57297  -0.55155  -0.52766  -0.52678  -0.48210
 Alpha  occ. eigenvalues --   -0.45785  -0.44039  -0.40081  -0.26833
 Alpha virt. eigenvalues --    0.03259   0.03511   0.03940   0.05389   0.06129
 Alpha virt. eigenvalues --    0.06282   0.06753   0.07083   0.08330   0.08868
 Alpha virt. eigenvalues --    0.11241   0.11743   0.12284   0.12496   0.13118

 Mulliken charges:
               1
     1  Cl   0.114022
     2  N   -0.490676
     3  N   -0.491862
     4  C    1.177719
     5  C    0.492295
     6  H   -0.426571
     7  C    0.532127
     8  H   -0.425214
     9  C    0.813881
    10  H   -0.171048
    11  H   -0.226232
    12  C    0.812404
    13  H   -0.241083
    14  H   -0.069917
    15  H   -0.147898
    16  O   -0.752817
    17  H   -0.423385
    18  H   -0.075746
 Sum of Mulliken charges =  -0.00000

 Dipole moment (field-independent basis, Debye):
    X=             -1.4513    Y=              2.1271    Z=              0.1223  Tot=              2.5780

 Test job not archived.
 1\1\GINC-SE253\SP\RHF\Aug-CC-pVDZ\C5H9Cl1N2O1\OHZDE\08-Apr-2025\0\\#t
 hf aug-cc-pvdz iop(5/13=1,5/36=2,99/5=2) pseudo=read geom=check guess=
 (read,tcheck) scf=(maxcycle=1)\\title\\0,1\Cl,0,1.21748,-1.695293,-0.6
 86038\N,0,-1.341603,-0.039088,0.053453\N,0,0.445997,1.27471,0.172909\C
 ,0,-0.143074,0.143095,0.786906\C,0,-1.438802,0.930847,-0.954038\H,0,-2
 .262462,0.938149,-1.646791\C,0,-0.340308,1.702631,-0.90231\H,0,-0.0205
 51,2.501421,-1.549091\C,0,-2.432165,-0.847192,0.552054\H,0,-2.026036,-
 1.737924,1.03264\H,0,-3.05513,-1.173353,-0.282747\C,0,1.739737,1.79103

 Normal termination of Gaussian 16 at Tue Apr  8 23:19:36 2025.
