 Gaussian 16, Revision C.01,

 ----------------------------------------------------------------------
 #t hf aug-cc-pvdz symm=none int=(grid=ultrafine) guess=(read,tcheck) s
 table=(opt,rrhf)
 ----------------------------------------------------------------------
 -----
 title
 -----
 Symbolic Z-matrix:
 Charge =  0 Multiplicity = 1

 SCF Done:  E(RHF) =  -703.324663852     A.U. after   14 cycles
 Normal termination of Gaussian 16 at Tue Apr  8 22:46:03 2025.
 Gaussian 16:  ES64L-G16RevC.01  3-Jul-2019

 ----------------------------------------------------------------------
 #t hf aug-cc-pvdz iop(5/13=1,5/36=2,99/5=2) pseudo=read geom=check gue
 ss=(read,tcheck) scf=(maxcycle=1)
 ----------------------------------------------------------------------
 -----
 title
 -----
 Structure from the checkpoint file:  "BDE49_expt_1600_mol1.chk"
 Charge =  0 Multiplicity = 1

                         Standard orientation:
 ---------------------------------------------------------------------
 Center     Atomic      Atomic             Coordinates (Angstroms)
 Number     Number       Type             X           Y           Z
 ---------------------------------------------------------------------
      1         16           0        0.870603   -0.102754    0.030733
      2          6           0       -0.711841   -0.682949   -0.668247
      3          6           0        0.704833    1.685562    0.073773
      4          8           0        1.905369   -0.434066   -0.928798
      5          8           0        0.948863   -0.574796    1.399939
      6          1           0        0.620585    2.062612   -0.944690
      7          1           0        1.619661    2.052815    0.539469
      8          1           0       -0.162801    1.952702    0.674835
      9          6           0       -1.880475   -0.434997    0.230314
     10          1           0       -0.517876   -1.751204   -0.808824
     11          6           0       -2.930745    0.311551   -0.100896
     12          1           0       -1.831121   -0.909791    1.205456
     13          1           0       -3.007879    0.795644   -1.069855
     14          1           0       -3.759111    0.454184    0.583089
     15          1           0       -0.815599   -0.217011   -1.650012
 ---------------------------------------------------------------------

 SCF Done:  E(RHF) =  -703.495132182     A.U. after    2 cycles

 The electronic state is 1-A.
 Alpha  occ. eigenvalues --  -93.77785 -20.55484 -20.55473 -11.29628 -11.28641
 Alpha  occ. eigenvalues --  -11.27549 -11.26515  -9.04566  -6.39211  -6.38976
 Alpha  occ. eigenvalues --   -6.38907  -1.41629  -1.30219  -1.10704  -1.03761
 Alpha  occ. eigenvalues --   -0.98439  -0.82858  -0.78747  -0.70664  -0.68526
 Alpha  occ. eigenvalues --   -0.66911  -0.65892  -0.63001  -0.60881  -0.60023
 Alpha  occ. eigenvalues --   -0.57716  -0.53777  -0.51475  -0.50902  -0.49023
 Alpha  occ. eigenvalues --   -0.46057  -0.39168
 Alpha virt. eigenvalues --    0.02675   0.04054   0.04353   0.04733   0.06324
 Alpha virt. eigenvalues --    0.06621   0.07050   0.07192   0.09648   0.10184
 Alpha virt. eigenvalues --    0.12608   0.13300   0.13769   0.13875   0.14290

 Mulliken charges:
               1
     1  S    2.181733
     2  C   -0.227412
     3  C    0.006099
     4  O   -1.094338
     5  O   -1.138224
     6  H    0.000394
     7  H    0.032937
     8  H    0.041172
     9  C    0.719859
    10  H    0.082032
    11  C    0.478029
    12  H   -0.374397
    13  H   -0.295856
    14  H   -0.276069
    15  H   -0.135959
 Sum of Mulliken charges =  -0.00000

 Dipole moment (field-independent basis, Debye):
    X=             -4.3804    Y=              2.9773    Z=             -1.3685  Tot=              5.4704

 Test job not archived.
 1\1\GINC-SE071\SP\RHF\Aug-CC-pVDZ\C4H8O2S1\OHZDE\08-Apr-2025\0\\#t hf
 aug-cc-pvdz iop(5/13=1,5/36=2,99/5=2) pseudo=read geom=check guess=(re
 ad,tcheck) scf=(maxcycle=1)\\title\\0,1\S,0,0.870603,-0.102754,0.03073
 3\C,0,-0.711841,-0.682949,-0.668247\C,0,0.704833,1.685562,0.073773\O,0
 ,1.905369,-0.434066,-0.928798\O,0,0.948863,-0.574796,1.399939\H,0,0.62
 0585,2.062612,-0.94469\H,0,1.619661,2.052815,0.539469\H,0,-0.162801,1.
 952702,0.674835\C,0,-1.880475,-0.434997,0.230314\H,0,-0.517876,-1.7512
 04,-0.808824\C,0,-2.930745,0.311551,-0.100896\H,0,-1.831121,-0.909791,

 Normal termination of Gaussian 16 at Tue Apr  8 22:46:09 2025.
