 Gaussian 16, Revision C.01,

 ----------------------------------------------------------------------
 #t hf aug-cc-pvdz symm=none int=(grid=ultrafine) guess=(read,tcheck) s
 table=(opt,rrhf)
 ----------------------------------------------------------------------
 -----
 title
 -----
 Symbolic Z-matrix:
 Charge =  0 Multiplicity = 1

 SCF Done:  E(RHF) =  -423.184141365     A.U. after   12 cycles
 Normal termination of Gaussian 16 at Tue Apr  8 23:59:25 2025.
 Gaussian 16:  ES64L-G16RevC.01  3-Jul-2019

 ----------------------------------------------------------------------
 #t hf aug-cc-pvdz iop(5/13=1,5/36=2,99/5=2) pseudo=read geom=check gue
 ss=(read,tcheck) scf=(maxcycle=1)
 ----------------------------------------------------------------------
 -----
 title
 -----
 Structure from the checkpoint file:  "BDE49_nonexpt_2129_mol1.chk"
 Charge =  0 Multiplicity = 1

                         Standard orientation:
 ---------------------------------------------------------------------
 Center     Atomic      Atomic             Coordinates (Angstroms)
 Number     Number       Type             X           Y           Z
 ---------------------------------------------------------------------
      1          7           0        1.728165    0.000010   -0.438952
      2         14           0        0.277656   -0.000012    0.480657
      3          1           0        2.297501   -0.832353   -0.492092
      4          1           0        2.297484    0.832385   -0.492077
      5          6           0       -1.227457   -0.782098   -0.247804
      6          6           0       -1.227454    0.782111   -0.247769
      7          1           0       -1.162693    1.251151   -1.224741
      8          1           0       -1.958328    1.258814    0.398619
      9          1           0       -1.958333   -1.258826    0.398565
     10          1           0       -1.162698   -1.251095   -1.224796
     11          1           0        0.392188   -0.000046    1.953423
 ---------------------------------------------------------------------

 SCF Done:  E(RHF) =  -423.258952774     A.U. after    2 cycles

 The electronic state is 1-A.
 Alpha  occ. eigenvalues --  -69.06580 -15.60646 -11.21430 -11.21396  -6.81752
 Alpha  occ. eigenvalues --   -3.92707  -3.92552  -3.92531  -1.10490  -1.01189
 Alpha  occ. eigenvalues --   -0.79884  -0.67779  -0.65724  -0.61689  -0.57926
 Alpha  occ. eigenvalues --   -0.52576  -0.50103  -0.43342  -0.38842  -0.34245
 Alpha virt. eigenvalues --    0.03205   0.04435   0.04798   0.05161   0.06886
 Alpha virt. eigenvalues --    0.07213   0.07634   0.08592   0.09564   0.10939
 Alpha virt. eigenvalues --    0.11801   0.14243   0.14820   0.15513   0.16635

 Mulliken charges:
               1
     1  N   -0.552730
     2  Si   0.843385
     3  H    0.014211
     4  H    0.014211
     5  C    0.558869
     6  C    0.558873
     7  H   -0.379303
     8  H   -0.313761
     9  H   -0.313757
    10  H   -0.379306
    11  H   -0.050691
 Sum of Mulliken charges =   0.00000

 Dipole moment (field-independent basis, Debye):
    X=              1.6471    Y=              0.0000    Z=              0.1929  Tot=              1.6584

 Test job not archived.
 1\1\GINC-SE331\SP\RHF\Aug-CC-pVDZ\C2H7N1Si1\OHZDE\08-Apr-2025\0\\#t hf
  aug-cc-pvdz iop(5/13=1,5/36=2,99/5=2) pseudo=read geom=check guess=(r
 ead,tcheck) scf=(maxcycle=1)\\title\\0,1\N,0,1.728165,0.00001,-0.43895
 2\Si,0,0.277656,-0.000012,0.480657\H,0,2.297501,-0.832353,-0.492092\H,
 0,2.297484,0.832385,-0.492077\C,0,-1.227457,-0.782098,-0.247804\C,0,-1
 .227454,0.782111,-0.247769\H,0,-1.162693,1.251151,-1.224741\H,0,-1.958
 328,1.258814,0.398619\H,0,-1.958333,-1.258826,0.398565\H,0,-1.162698,-
 1.251095,-1.224796\H,0,0.392188,-0.000046,1.953423\\Version=ES64L-G16R

 Normal termination of Gaussian 16 at Tue Apr  8 23:59:28 2025.
