 Gaussian 16, Revision C.01,

 ----------------------------------------------------------------------
 #t hf aug-cc-pvdz symm=none int=(grid=ultrafine) guess=(read,tcheck) s
 table=(opt,rrhf)
 ----------------------------------------------------------------------
 -----
 title
 -----
 Symbolic Z-matrix:
 Charge =  0 Multiplicity = 1

 SCF Done:  E(RHF) =  -734.112758426     A.U. after   17 cycles
 Normal termination of Gaussian 16 at Tue Apr  8 23:10:04 2025.
 Gaussian 16:  ES64L-G16RevC.01  3-Jul-2019

 ----------------------------------------------------------------------
 #t hf aug-cc-pvdz iop(5/13=1,5/36=2,99/5=2) pseudo=read geom=check gue
 ss=(read,tcheck) scf=(maxcycle=1)
 ----------------------------------------------------------------------
 -----
 title
 -----
 Structure from the checkpoint file:  "BDE49_expt_679_mol1.chk"
 Charge =  0 Multiplicity = 1

                         Standard orientation:
 ---------------------------------------------------------------------
 Center     Atomic      Atomic             Coordinates (Angstroms)
 Number     Number       Type             X           Y           Z
 ---------------------------------------------------------------------
      1          6           0       -0.619047    1.309638   -0.022324
      2          6           0        0.766940    1.426849   -0.010811
      3          6           0       -1.205090    0.047072   -0.032328
      4          6           0       -0.401073   -1.097907   -0.029949
      5          6           0        0.978323   -0.978837   -0.018042
      6          6           0        1.582761    0.289352   -0.007019
      7          1           0        1.220459    2.411950   -0.006574
      8          1           0       -1.241748    2.194715   -0.030445
      9          1           0       -0.861618   -2.078023   -0.046416
     10          1           0        1.605688   -1.860795   -0.019439
     11          6           0        3.038479    0.458252    0.004415
     12          7           0        3.823950   -0.547891    0.005761
     13          1           0        3.444486    1.471165    0.011985
     14          8           0        5.158563   -0.150501    0.017689
     15          1           0        5.633134   -0.988296    0.017339
     16          6           0       -2.700460   -0.101354    0.003033
     17          9           0       -3.336836    1.017398   -0.404213
     18          9           0       -3.125067   -1.114473   -0.784978
     19          9           0       -3.147158   -0.372909    1.252509
 ---------------------------------------------------------------------

 SCF Done:  E(RHF) =  -734.348592397     A.U. after    2 cycles

 The electronic state is 1-A.
 Alpha  occ. eigenvalues --  -26.16707 -26.16474 -26.16131 -20.62760 -15.70757
 Alpha  occ. eigenvalues --  -11.53148 -11.30585 -11.28679 -11.28526 -11.27818
 Alpha  occ. eigenvalues --  -11.27657 -11.27480 -11.26987  -1.75864  -1.69028
 Alpha  occ. eigenvalues --   -1.68545  -1.39807  -1.19321  -1.15583  -1.08251
 Alpha  occ. eigenvalues --   -1.04270  -1.00754  -0.91397  -0.88890  -0.87531
 Alpha  occ. eigenvalues --   -0.85560  -0.83483  -0.79763  -0.77137  -0.77051
 Alpha  occ. eigenvalues --   -0.74788  -0.72781  -0.72483  -0.71482  -0.70390
 Alpha  occ. eigenvalues --   -0.68031  -0.66651  -0.63869  -0.62369  -0.61975
 Alpha  occ. eigenvalues --   -0.60769  -0.54603  -0.54426  -0.52729  -0.46117
 Alpha  occ. eigenvalues --   -0.44874  -0.36926  -0.34839
 Alpha virt. eigenvalues --    0.03172   0.03453   0.04113   0.05092   0.05320
 Alpha virt. eigenvalues --    0.06326   0.07586   0.08069   0.08846   0.09097
 Alpha virt. eigenvalues --    0.10173   0.10321   0.12330   0.13211   0.13357

 Mulliken charges:
               1
     1  C    0.184290
     2  C    0.459075
     3  C    0.957537
     4  C   -0.192115
     5  C   -0.098184
     6  C    0.994670
     7  H   -0.596968
     8  H   -0.562004
     9  H   -0.556809
    10  H   -0.618448
    11  C    1.050435
    12  N   -0.231685
    13  H   -0.398293
    14  O   -0.504580
    15  H    0.196592
    16  C    0.912585
    17  F   -0.320337
    18  F   -0.337237
    19  F   -0.338524
 Sum of Mulliken charges =  -0.00000

 Dipole moment (field-independent basis, Debye):
    X=              2.6552    Y=              0.3882    Z=             -0.0906  Tot=              2.6849

 Test job not archived.
 1\1\GINC-SE069\SP\RHF\Aug-CC-pVDZ\C8H6F3N1O1\OHZDE\08-Apr-2025\0\\#t h
 f aug-cc-pvdz iop(5/13=1,5/36=2,99/5=2) pseudo=read geom=check guess=(
 read,tcheck) scf=(maxcycle=1)\\title\\0,1\C,0,-0.619047,1.309638,-0.02
 2324\C,0,0.76694,1.426849,-0.010811\C,0,-1.20509,0.047072,-0.032328\C,
 0,-0.401073,-1.097907,-0.029949\C,0,0.978323,-0.978837,-0.018042\C,0,1
 .582761,0.289352,-0.007019\H,0,1.220459,2.41195,-0.006574\H,0,-1.24174
 8,2.194715,-0.030445\H,0,-0.861618,-2.078023,-0.046416\H,0,1.605688,-1
 .860795,-0.019439\C,0,3.038479,0.458252,0.004415\N,0,3.82395,-0.547891

 Normal termination of Gaussian 16 at Tue Apr  8 23:10:16 2025.
