 Gaussian 16, Revision C.01,

 ----------------------------------------------------------------------
 #t hf aug-cc-pvdz symm=none int=(grid=ultrafine) guess=(read,tcheck) s
 table=(opt,rrhf)
 ----------------------------------------------------------------------
 -----
 title
 -----
 Symbolic Z-matrix:
 Charge =  0 Multiplicity = 1

 SCF Done:  E(RHF) =  -855.209546964     A.U. after   15 cycles
 Normal termination of Gaussian 16 at Tue Apr  8 23:22:22 2025.
 Gaussian 16:  ES64L-G16RevC.01  3-Jul-2019

 ----------------------------------------------------------------------
 #t hf aug-cc-pvdz iop(5/13=1,5/36=2,99/5=2) pseudo=read geom=check gue
 ss=(read,tcheck) scf=(maxcycle=1)
 ----------------------------------------------------------------------
 -----
 title
 -----
 Structure from the checkpoint file:  "BDE49_nonexpt_1195_mol1.chk"
 Charge =  0 Multiplicity = 1

                         Standard orientation:
 ---------------------------------------------------------------------
 Center     Atomic      Atomic             Coordinates (Angstroms)
 Number     Number       Type             X           Y           Z
 ---------------------------------------------------------------------
      1          6           0       -2.172631    0.521408   -0.133007
      2          8           0       -1.550199    1.424102   -0.603566
      3          8           0       -1.772973   -0.807881   -0.181137
      4         16           0       -0.256530   -1.151602   -0.848171
      5          6           0        0.792161   -0.637905    0.522987
      6          8           0        0.345032   -0.153058    1.525730
      7          6           0       -3.481159    0.605174    0.605370
      8          1           0       -3.885243    1.610173    0.504001
      9          1           0       -3.299801    0.383591    1.659750
     10          1           0       -4.186400   -0.135204    0.225531
     11          6           0        2.263371   -0.862956    0.232897
     12          6           0        3.078009    0.432818    0.404765
     13          1           0        2.394359   -1.273249   -0.775520
     14          1           0        2.609053   -1.623367    0.941371
     15          6           0        2.737037    1.508814   -0.629897
     16          1           0        4.140393    0.177543    0.344666
     17          1           0        2.898578    0.813318    1.413858
     18          1           0        2.930420    1.156061   -1.647783
     19          1           0        3.341765    2.404493   -0.468596
     20          1           0        1.685748    1.802856   -0.573445
 ---------------------------------------------------------------------

 SCF Done:  E(RHF) =  -855.378017047     A.U. after    2 cycles

 The electronic state is 1-A.
 Alpha  occ. eigenvalues --  -93.61388 -20.64339 -20.58510 -20.57503 -11.40832
 Alpha  occ. eigenvalues --  -11.38526 -11.26843 -11.25785 -11.24920 -11.22880
 Alpha  occ. eigenvalues --   -8.90564  -6.24801  -6.24400  -6.24068  -1.42516
 Alpha  occ. eigenvalues --   -1.38229  -1.33819  -1.08777  -1.04335  -0.99554
 Alpha  occ. eigenvalues --   -0.94867  -0.84794  -0.79959  -0.74463  -0.71226
 Alpha  occ. eigenvalues --   -0.70034  -0.68316  -0.66338  -0.64413  -0.62333
 Alpha  occ. eigenvalues --   -0.60414  -0.59113  -0.57533  -0.56431  -0.55794
 Alpha  occ. eigenvalues --   -0.54359  -0.51578  -0.50532  -0.49596  -0.49301
 Alpha  occ. eigenvalues --   -0.47670  -0.42005  -0.39299
 Alpha virt. eigenvalues --    0.03302   0.03992   0.04669   0.04949   0.05953
 Alpha virt. eigenvalues --    0.06113   0.06428   0.07164   0.07518   0.08465
 Alpha virt. eigenvalues --    0.09470   0.10262   0.10644   0.11371   0.11856

 Mulliken charges:
               1
     1  C    0.379706
     2  O   -0.407840
     3  O   -0.837802
     4  S    0.740748
     5  C    0.065572
     6  O   -0.579502
     7  C    0.242092
     8  H    0.004599
     9  H    0.068220
    10  H    0.012648
    11  C    0.205535
    12  C    0.211369
    13  H   -0.090112
    14  H    0.052481
    15  C    0.407883
    16  H   -0.084719
    17  H   -0.100509
    18  H   -0.077057
    19  H   -0.080913
    20  H   -0.132399
 Sum of Mulliken charges =  -0.00000

 Dipole moment (field-independent basis, Debye):
    X=              0.7641    Y=             -1.6402    Z=             -0.5101  Tot=              1.8800

 Test job not archived.
 1\1\GINC-SE361\SP\RHF\Aug-CC-pVDZ\C6H10O3S1\OHZDE\08-Apr-2025\0\\#t hf
  aug-cc-pvdz iop(5/13=1,5/36=2,99/5=2) pseudo=read geom=check guess=(r
 ead,tcheck) scf=(maxcycle=1)\\title\\0,1\C,0,-2.172631,0.521408,-0.133
 007\O,0,-1.550199,1.424102,-0.603566\O,0,-1.772973,-0.807881,-0.181137
 \S,0,-0.25653,-1.151602,-0.848171\C,0,0.792161,-0.637905,0.522987\O,0,
 0.345032,-0.153058,1.52573\C,0,-3.481159,0.605174,0.60537\H,0,-3.88524
 3,1.610173,0.504001\H,0,-3.299801,0.383591,1.65975\H,0,-4.1864,-0.1352
 04,0.225531\C,0,2.263371,-0.862956,0.232897\C,0,3.078009,0.432818,0.40

 Normal termination of Gaussian 16 at Tue Apr  8 23:22:33 2025.
