 Gaussian 16, Revision C.01,

 ----------------------------------------------------------------------
 #t hf aug-cc-pvdz symm=none int=(grid=ultrafine) guess=(read,tcheck) s
 table=(opt,rrhf)
 ----------------------------------------------------------------------
 -----
 title
 -----
 Symbolic Z-matrix:
 Charge =  0 Multiplicity = 1

 SCF Done:  E(RHF) =  -726.627271463     A.U. after   12 cycles
 Normal termination of Gaussian 16 at Tue Apr  8 23:56:53 2025.
 Gaussian 16:  ES64L-G16RevC.01  3-Jul-2019

 ----------------------------------------------------------------------
 #t hf aug-cc-pvdz iop(5/13=1,5/36=2,99/5=2) pseudo=read geom=check gue
 ss=(read,tcheck) scf=(maxcycle=1)
 ----------------------------------------------------------------------
 -----
 title
 -----
 Structure from the checkpoint file:  "BDE49_nonexpt_2055_mol1.chk"
 Charge =  0 Multiplicity = 1

                         Standard orientation:
 ---------------------------------------------------------------------
 Center     Atomic      Atomic             Coordinates (Angstroms)
 Number     Number       Type             X           Y           Z
 ---------------------------------------------------------------------
      1         14           0       -1.513943   -0.129028    0.000000
      2          6           0        0.206851    0.651255   -0.000013
      3         16           0        1.598659   -0.183421    0.000003
      4          1           0        0.261249    1.744995    0.000015
      5          1           0       -1.398154   -1.599132   -0.000029
      6          1           0       -2.243792    0.343891   -1.201320
      7          1           0       -2.243757    0.343846    1.201358
 ---------------------------------------------------------------------

 SCF Done:  E(RHF) =  -726.681165902     A.U. after    2 cycles

 The electronic state is 1-A.
 Alpha  occ. eigenvalues --  -93.53994 -69.08521 -11.31703  -8.83791  -6.83847
 Alpha  occ. eigenvalues --   -6.17868  -6.17626  -6.17283  -3.94649  -3.94602
 Alpha  occ. eigenvalues --   -3.94597  -1.04889  -0.80412  -0.70717  -0.57819
 Alpha  occ. eigenvalues --   -0.51377  -0.50608  -0.49383  -0.41350  -0.34035
 Alpha virt. eigenvalues --    0.02557   0.03193   0.04632   0.05730   0.06151
 Alpha virt. eigenvalues --    0.07430   0.08553   0.08881   0.09077   0.13645
 Alpha virt. eigenvalues --    0.14594   0.15299   0.15506   0.16086   0.16875

 Mulliken charges:
               1
     1  Si   0.680180
     2  C   -0.350885
     3  S    0.119012
     4  H   -0.208966
     5  H   -0.072355
     6  H   -0.083492
     7  H   -0.083493
 Sum of Mulliken charges =   0.00000

 Dipole moment (field-independent basis, Debye):
    X=             -1.6765    Y=              0.9119    Z=              0.0000  Tot=              1.9085

 Test job not archived.
 1\1\GINC-SE109\SP\RHF\Aug-CC-pVDZ\C1H4S1Si1\OHZDE\08-Apr-2025\0\\#t hf
  aug-cc-pvdz iop(5/13=1,5/36=2,99/5=2) pseudo=read geom=check guess=(r
 ead,tcheck) scf=(maxcycle=1)\\title\\0,1\Si,0,-1.513943,-0.129028,0.\C
 ,0,0.206851,0.651255,-0.000013\S,0,1.598659,-0.183421,0.000003\H,0,0.2
 61249,1.744995,0.000015\H,0,-1.398154,-1.599132,-0.000029\H,0,-2.24379
 2,0.343891,-1.20132\H,0,-2.243757,0.343846,1.201358\\Version=ES64L-G16
 RevC.01\State=1-A\HF=-726.6811659\RMSD=6.358e-03\Dipole=-0.6595894,0.3
 58758,0.0000089\Quadrupole=-1.1510313,0.8782061,0.2728251,-0.2027553,-

 Normal termination of Gaussian 16 at Tue Apr  8 23:56:55 2025.
