 Gaussian 16, Revision C.01,

 ----------------------------------------------------------------------
 #t hf aug-cc-pvdz symm=none int=(grid=ultrafine) guess=(read,tcheck) s
 table=(opt,rrhf)
 ----------------------------------------------------------------------
 -----
 title
 -----
 Symbolic Z-matrix:
 Charge =  0 Multiplicity = 1

 SCF Done:  E(RHF) =  -311.067990642     A.U. after   15 cycles
 Normal termination of Gaussian 16 at Wed Apr  9 00:37:03 2025.
 Gaussian 16:  ES64L-G16RevC.01  3-Jul-2019

 ----------------------------------------------------------------------
 #t hf aug-cc-pvdz iop(5/13=1,5/36=2,99/5=2) pseudo=read geom=check gue
 ss=(read,tcheck) scf=(maxcycle=1)
 ----------------------------------------------------------------------
 -----
 title
 -----
 Structure from the checkpoint file:  "BDE49_nonexpt_572_mol1.chk"
 Charge =  0 Multiplicity = 1

                         Standard orientation:
 ---------------------------------------------------------------------
 Center     Atomic      Atomic             Coordinates (Angstroms)
 Number     Number       Type             X           Y           Z
 ---------------------------------------------------------------------
      1          6           0        1.346889    1.321858   -0.000001
      2          6           0       -0.026248    1.104234   -0.000003
      3          6           0       -0.528528   -0.202052   -0.000002
      4          6           0        2.241950    0.252619    0.000002
      5          6           0        1.744638   -1.047403    0.000003
      6          6           0        0.371632   -1.273498    0.000001
      7          1           0        1.720076    2.339960   -0.000001
      8          1           0       -0.708426    1.943616   -0.000006
      9          1           0       -0.008761   -2.290728    0.000001
     10          1           0        3.310569    0.431710    0.000004
     11          1           0        2.424301   -1.892094    0.000005
     12          5           0       -3.023587    0.379925    0.000003
     13          7           0       -1.918061   -0.476606   -0.000005
     14          1           0       -2.884313    1.560331    0.000019
     15          1           0       -4.104537   -0.120184    0.000006
     16          1           0       -2.106547   -1.470546   -0.000012
 ---------------------------------------------------------------------

 SCF Done:  E(RHF) =  -311.162624284     A.U. after    2 cycles

 The electronic state is 1-A.
 Alpha  occ. eigenvalues --  -15.64196 -11.29548 -11.25100 -11.25005 -11.24441
 Alpha  occ. eigenvalues --  -11.24065 -11.23920  -7.61032  -1.20192  -1.12292
 Alpha  occ. eigenvalues --   -1.01470  -0.99088  -0.84329  -0.82748  -0.73073
 Alpha  occ. eigenvalues --   -0.71229  -0.67269  -0.62378  -0.61293  -0.59355
 Alpha  occ. eigenvalues --   -0.56733  -0.54356  -0.51738  -0.49968  -0.47318
 Alpha  occ. eigenvalues --   -0.45906  -0.34588  -0.31038
 Alpha virt. eigenvalues --    0.03058   0.03696   0.03981   0.04895   0.05398
 Alpha virt. eigenvalues --    0.05445   0.07042   0.07728   0.09887   0.09991
 Alpha virt. eigenvalues --    0.10541   0.10998   0.12268   0.12720   0.12981

 Mulliken charges:
               1
     1  C    0.536357
     2  C    0.702555
     3  C    0.292225
     4  C    0.585414
     5  C    0.562466
     6  C    0.480123
     7  H   -0.439805
     8  H   -0.679884
     9  H   -0.621923
    10  H   -0.452686
    11  H   -0.431697
    12  B   -0.728296
    13  N   -0.422365
    14  H    0.255286
    15  H    0.411276
    16  H   -0.049047
 Sum of Mulliken charges =  -0.00000

 Dipole moment (field-independent basis, Debye):
    X=              0.4928    Y=             -0.9219    Z=             -0.0000  Tot=              1.0453

 Test job not archived.
 1\1\GINC-SE016\SP\RHF\Aug-CC-pVDZ\C6H8B1N1\OHZDE\09-Apr-2025\0\\#t hf
 aug-cc-pvdz iop(5/13=1,5/36=2,99/5=2) pseudo=read geom=check guess=(re
 ad,tcheck) scf=(maxcycle=1)\\title\\0,1\C,0,1.346889,1.321858,-0.00000
 1\C,0,-0.026248,1.104234,-0.000003\C,0,-0.528528,-0.202052,-0.000002\C
 ,0,2.24195,0.252619,0.000002\C,0,1.744638,-1.047403,0.000003\C,0,0.371
 632,-1.273498,0.000001\H,0,1.720076,2.33996,-0.000001\H,0,-0.708426,1.
 943616,-0.000006\H,0,-0.008761,-2.290728,0.000001\H,0,3.310569,0.43171
 ,0.000004\H,0,2.424301,-1.892094,0.000005\B,0,-3.023587,0.379925,0.000

 Normal termination of Gaussian 16 at Wed Apr  9 00:37:09 2025.
