 Gaussian 16, Revision C.01,

 ----------------------------------------------------------------------
 #t hf aug-cc-pvdz symm=none int=(grid=ultrafine) guess=(read,tcheck) s
 table=(opt,rrhf)
 ----------------------------------------------------------------------
 -----
 title
 -----
 Symbolic Z-matrix:
 Charge =  0 Multiplicity = 1

 SCF Done:  E(RHF) =  -421.875416214     A.U. after   14 cycles
 Normal termination of Gaussian 16 at Wed Apr  9 00:38:25 2025.
 Gaussian 16:  ES64L-G16RevC.01  3-Jul-2019

 ----------------------------------------------------------------------
 #t hf aug-cc-pvdz iop(5/13=1,5/36=2,99/5=2) pseudo=read geom=check gue
 ss=(read,tcheck) scf=(maxcycle=1)
 ----------------------------------------------------------------------
 -----
 title
 -----
 Structure from the checkpoint file:  "BDE49_nonexpt_624_mol1.chk"
 Charge =  0 Multiplicity = 1

                         Standard orientation:
 ---------------------------------------------------------------------
 Center     Atomic      Atomic             Coordinates (Angstroms)
 Number     Number       Type             X           Y           Z
 ---------------------------------------------------------------------
      1          1           0        3.665602   -0.198026    0.016843
      2          8           0       -2.516238    1.124039    0.103296
      3          1           0       -2.030677    1.943217    0.223798
      4          8           0       -2.358912   -1.200322   -0.113675
      5          1           0       -3.317480   -1.110754   -0.089069
      6          5           0       -1.731222    0.004948   -0.004025
      7          7           0        1.897644   -1.255062    0.065751
      8          6           0        2.582429   -0.108413    0.009251
      9          6           0        1.979898    1.145718   -0.058646
     10          1           0        2.585970    2.042735   -0.107427
     11          6           0        0.591503    1.207908   -0.064333
     12          1           0        0.107843    2.179891   -0.126690
     13          6           0       -0.163231    0.029769   -0.004343
     14          6           0        0.564899   -1.170357    0.055781
     15          1           0        0.029548   -2.113855    0.099183
 ---------------------------------------------------------------------

 SCF Done:  E(RHF) =  -422.006223083     A.U. after    2 cycles

 The electronic state is 1-A.
 Alpha  occ. eigenvalues --  -20.59301 -20.58296 -15.63236 -11.29381 -11.28902
 Alpha  occ. eigenvalues --  -11.27948 -11.25544 -11.23540  -7.66740  -1.35276
 Alpha  occ. eigenvalues --   -1.31435  -1.23314  -1.08041  -1.03030  -0.86484
 Alpha  occ. eigenvalues --   -0.85948  -0.79006  -0.76064  -0.72102  -0.67473
 Alpha  occ. eigenvalues --   -0.65366  -0.62309  -0.60094  -0.58969  -0.57886
 Alpha  occ. eigenvalues --   -0.56397  -0.54305  -0.52929  -0.50493  -0.41263
 Alpha  occ. eigenvalues --   -0.38951  -0.35332
 Alpha virt. eigenvalues --    0.02544   0.03754   0.04512   0.05479   0.05702
 Alpha virt. eigenvalues --    0.06226   0.07527   0.07629   0.08063   0.08821
 Alpha virt. eigenvalues --    0.09574   0.10250   0.11494   0.12578   0.13592

 Mulliken charges:
               1
     1  H   -0.338190
     2  O   -0.489282
     3  H    0.210855
     4  O   -0.502019
     5  H    0.195633
     6  B    0.748842
     7  N   -0.411292
     8  C    0.525979
     9  C    0.717428
    10  H   -0.403978
    11  C   -0.157343
    12  H   -0.653579
    13  C    0.452575
    14  C    0.582913
    15  H   -0.478542
 Sum of Mulliken charges =  -0.00000

 Dipole moment (field-independent basis, Debye):
    X=             -0.4056    Y=              3.2253    Z=              0.1175  Tot=              3.2528

 Test job not archived.
 1\1\GINC-SE366\SP\RHF\Aug-CC-pVDZ\C5H6B1N1O2\OHZDE\09-Apr-2025\0\\#t h
 f aug-cc-pvdz iop(5/13=1,5/36=2,99/5=2) pseudo=read geom=check guess=(
 read,tcheck) scf=(maxcycle=1)\\title\\0,1\H,0,3.665602,-0.198027,0.016
 843\O,0,-2.516238,1.124039,0.103296\H,0,-2.030677,1.943217,0.223798\O,
 0,-2.358912,-1.200322,-0.113675\H,0,-3.31748,-1.110753,-0.089069\B,0,-
 1.731222,0.004948,-0.004025\N,0,1.897644,-1.255062,0.065751\C,0,2.5824
 29,-0.108413,0.009251\C,0,1.979898,1.145718,-0.058646\H,0,2.58597,2.04
 2735,-0.107427\C,0,0.591503,1.207908,-0.064333\H,0,0.107843,2.179891,-

 Normal termination of Gaussian 16 at Wed Apr  9 00:38:30 2025.
