 Gaussian 16, Revision C.01,

 ----------------------------------------------------------------------
 #t hf aug-cc-pvdz symm=none int=(grid=ultrafine) guess=(read,tcheck) s
 table=(opt,rrhf)
 ----------------------------------------------------------------------
 -----
 title
 -----
 Symbolic Z-matrix:
 Charge =  0 Multiplicity = 1

 SCF Done:  E(RHF) =  -436.562643229     A.U. after   12 cycles
 Normal termination of Gaussian 16 at Tue Apr  8 23:33:01 2025.
 Gaussian 16:  ES64L-G16RevC.01  3-Jul-2019

 ----------------------------------------------------------------------
 #t hf aug-cc-pvdz iop(5/13=1,5/36=2,99/5=2) pseudo=read geom=check gue
 ss=(read,tcheck) scf=(maxcycle=1)
 ----------------------------------------------------------------------
 -----
 title
 -----
 Structure from the checkpoint file:  "BDE49_nonexpt_1467_mol1.chk"
 Charge =  0 Multiplicity = 1

                         Standard orientation:
 ---------------------------------------------------------------------
 Center     Atomic      Atomic             Coordinates (Angstroms)
 Number     Number       Type             X           Y           Z
 ---------------------------------------------------------------------
      1          6           0        1.434322    0.465643   -0.015557
      2         15           0       -0.070325   -0.610931   -0.083610
      3          1           0        1.385272    1.216691    0.777009
      4          1           0        1.555217    0.971725   -0.975224
      5          1           0        2.310775   -0.166330    0.155312
      6          7           0       -1.311108    0.571224   -0.037946
      7          1           0       -2.196314    0.264008   -0.413719
      8          1           0       -1.440182    1.131256    0.795046
      9          1           0        0.011926   -1.045802    1.274691
 ---------------------------------------------------------------------

 SCF Done:  E(RHF) =  -436.622486204     A.U. after    2 cycles

 The electronic state is 1-A.
 Alpha  occ. eigenvalues --  -81.26924 -15.61440 -11.23071  -7.76880  -4.90982
 Alpha  occ. eigenvalues --   -4.90744  -4.90491  -1.11645  -0.95388  -0.74012
 Alpha  occ. eigenvalues --   -0.66433  -0.59856  -0.56905  -0.53119  -0.49328
 Alpha  occ. eigenvalues --   -0.39698  -0.33641
 Alpha virt. eigenvalues --    0.03542   0.04480   0.05404   0.05467   0.07610
 Alpha virt. eigenvalues --    0.07833   0.10183   0.11134   0.12176   0.15123
 Alpha virt. eigenvalues --    0.16010   0.16926   0.17410   0.19178   0.19756

 Mulliken charges:
               1
     1  C    0.149884
     2  P    0.726502
     3  H   -0.164583
     4  H   -0.117288
     5  H   -0.148047
     6  N   -0.439160
     7  H   -0.003676
     8  H   -0.027161
     9  H    0.023529
 Sum of Mulliken charges =  -0.00000

 Dipole moment (field-independent basis, Debye):
    X=             -0.4584    Y=              0.8090    Z=              1.1724  Tot=              1.4964

 Test job not archived.
 1\1\GINC-SE059\SP\RHF\Aug-CC-pVDZ\C1H6N1P1\OHZDE\08-Apr-2025\0\\#t hf
 aug-cc-pvdz iop(5/13=1,5/36=2,99/5=2) pseudo=read geom=check guess=(re
 ad,tcheck) scf=(maxcycle=1)\\title\\0,1\C,0,1.434322,0.465643,-0.01555
 7\P,0,-0.070325,-0.610931,-0.08361\H,0,1.385272,1.216691,0.777009\H,0,
 1.555217,0.971725,-0.975224\H,0,2.310775,-0.16633,0.155312\N,0,-1.3111
 08,0.571224,-0.037946\H,0,-2.196314,0.264008,-0.413719\H,0,-1.440182,1
 .131256,0.795046\H,0,0.011926,-1.045802,1.274691\\Version=ES64L-G16Rev
 C.01\State=1-A\HF=-436.6224862\RMSD=7.553e-03\Dipole=-0.1803473,0.3182

 Normal termination of Gaussian 16 at Tue Apr  8 23:33:04 2025.
