 Gaussian 16, Revision C.01,

 ----------------------------------------------------------------------
 #t hf aug-cc-pvdz symm=none int=(grid=ultrafine) guess=(read,tcheck) s
 table=(opt,rrhf)
 ----------------------------------------------------------------------
 -----
 title
 -----
 Symbolic Z-matrix:
 Charge =  0 Multiplicity = 1

 SCF Done:  E(RHF) =  -334.092304823     A.U. after   14 cycles

 1\1\GINC-SE099\Stability\RHF\Aug-CC-pVDZ\C8H11B1\OHZDE\09-Apr-2025\0\\
 #t hf aug-cc-pvdz symm=none int=(grid=ultrafine) guess=(read,tcheck) s
 table=(opt,rrhf)\\title\\0,1\B,0,-1.706369,-0.000005,-0.000013\C,0,-0.
 137639,-0.000006,-0.000006\C,0,0.601276,1.199223,-0.043524\C,0,0.60128
 ,-1.199232,0.043518\C,0,1.992427,-1.20482,0.051705\C,0,2.691656,0.,0.0
 00003\C,0,1.992423,1.204817,-0.051703\H,0,3.776383,0.000002,0.000007\H
 ,0,2.532751,2.144308,-0.093452\H,0,0.076484,2.147264,-0.077741\H,0,0.0
 76492,-2.147275,0.077733\H,0,2.532759,-2.144308,0.093458\C,0,-2.528865

 Normal termination of Gaussian 16 at Wed Apr  9 00:28:05 2025.
 Gaussian 16:  ES64L-G16RevC.01  3-Jul-2019

 ----------------------------------------------------------------------
 #t hf aug-cc-pvdz iop(5/13=1,5/36=2,99/5=2) pseudo=read geom=check gue
 ss=(read,tcheck) scf=(maxcycle=1)
 ----------------------------------------------------------------------
 -----
 title
 -----
 Structure from the checkpoint file:  "BDE49_nonexpt_317_mol1.chk"
 Charge =  0 Multiplicity = 1

                         Standard orientation:
 ---------------------------------------------------------------------
 Center     Atomic      Atomic             Coordinates (Angstroms)
 Number     Number       Type             X           Y           Z
 ---------------------------------------------------------------------
      1          5           0        1.706369    0.000005   -0.000013
      2          6           0        0.137639    0.000006   -0.000006
      3          6           0       -0.601276   -1.199223   -0.043524
      4          6           0       -0.601280    1.199232    0.043518
      5          6           0       -1.992427    1.204820    0.051705
      6          6           0       -2.691656    0.000000    0.000003
      7          6           0       -1.992423   -1.204817   -0.051703
      8          1           0       -3.776383   -0.000002    0.000007
      9          1           0       -2.532751   -2.144308   -0.093452
     10          1           0       -0.076484   -2.147264   -0.077741
     11          1           0       -0.076492    2.147275    0.077733
     12          1           0       -2.532759    2.144308    0.093458
     13          6           0        2.528865    1.344484   -0.086356
     14          1           0        2.774563    1.649583    0.942812
     15          1           0        3.492685    1.207806   -0.587457
     16          1           0        2.015524    2.190470   -0.549312
     17          6           0        2.528837   -1.344492    0.086366
     18          1           0        2.015542   -2.190368    0.549578
     19          1           0        3.492780   -1.207797    0.587222
     20          1           0        2.774258   -1.649788   -0.942809
 ---------------------------------------------------------------------

 SCF Done:  E(RHF) =  -334.192342950     A.U. after    2 cycles

 The electronic state is 1-A.
 Alpha  occ. eigenvalues --  -11.25237 -11.24757 -11.24757 -11.24269 -11.24265
 Alpha  occ. eigenvalues --  -11.21965 -11.19899 -11.19879  -7.59710  -1.13868
 Alpha  occ. eigenvalues --   -1.01077  -1.00917  -0.95222  -0.91328  -0.82347
 Alpha  occ. eigenvalues --   -0.82233  -0.71305  -0.65016  -0.62782  -0.60724
 Alpha  occ. eigenvalues --   -0.59146  -0.58274  -0.55579  -0.52838  -0.52823
 Alpha  occ. eigenvalues --   -0.52058  -0.50189  -0.49723  -0.44623  -0.44428
 Alpha  occ. eigenvalues --   -0.34123  -0.33929
 Alpha virt. eigenvalues --    0.03123   0.03937   0.04151   0.05082   0.05535
 Alpha virt. eigenvalues --    0.05738   0.06998   0.07099   0.07308   0.07817
 Alpha virt. eigenvalues --    0.07841   0.08335   0.09898   0.09934   0.10229

 Mulliken charges:
               1
     1  B    0.368803
     2  C   -0.536221
     3  C    0.540196
     4  C    0.540305
     5  C    0.600283
     6  C    0.844342
     7  C    0.600288
     8  H   -0.440496
     9  H   -0.471265
    10  H   -0.715284
    11  H   -0.715294
    12  H   -0.471270
    13  C    0.535529
    14  H   -0.032967
    15  H   -0.250841
    16  H   -0.323919
    17  C    0.535578
    18  H   -0.323865
    19  H   -0.250927
    20  H   -0.032975
 Sum of Mulliken charges =  -0.00000

 Dipole moment (field-independent basis, Debye):
    X=             -0.4302    Y=             -0.0000    Z=             -0.0000  Tot=              0.4302

 Test job not archived.
 1\1\GINC-SE099\SP\RHF\Aug-CC-pVDZ\C8H11B1\OHZDE\09-Apr-2025\0\\#t hf a
 ug-cc-pvdz iop(5/13=1,5/36=2,99/5=2) pseudo=read geom=check guess=(rea
 d,tcheck) scf=(maxcycle=1)\\title\\0,1\B,0,-1.706369,-0.000005,-0.0000
 13\C,0,-0.137639,-0.000006,-0.000006\C,0,0.601276,1.199223,-0.043524\C
 ,0,0.60128,-1.199232,0.043518\C,0,1.992427,-1.20482,0.051705\C,0,2.691
 656,0.,0.000003\C,0,1.992423,1.204817,-0.051703\H,0,3.776383,0.000002,
 0.000007\H,0,2.532751,2.144308,-0.093452\H,0,0.076484,2.147264,-0.0777
 41\H,0,0.076492,-2.147275,0.077733\H,0,2.532759,-2.144308,0.093458\C,0

 Normal termination of Gaussian 16 at Wed Apr  9 00:28:16 2025.
