 Gaussian 16, Revision C.01,

 ----------------------------------------------------------------------
 #t hf aug-cc-pvdz symm=none int=(grid=ultrafine) guess=(read,tcheck) s
 table=opt
 ----------------------------------------------------------------------
 -----
 title
 -----
 Symbolic Z-matrix:
 Charge =  0 Multiplicity = 2

 SCF Done:  E(UHF) =  -823.315602271     A.U. after   20 cycles
 Normal termination of Gaussian 16 at Tue Apr  8 23:54:16 2025.
 Gaussian 16:  ES64L-G16RevC.01  3-Jul-2019

 ----------------------------------------------------------------------
 #t hf aug-cc-pvdz iop(5/13=1,5/36=2,99/5=2) pseudo=read geom=check gue
 ss=(read,tcheck) scf=(maxcycle=1)
 ----------------------------------------------------------------------
 -----
 title
 -----
 Structure from the checkpoint file:  "BDE49_nonexpt_1982_mol2.chk"
 Charge =  0 Multiplicity = 2

                         Standard orientation:
 ---------------------------------------------------------------------
 Center     Atomic      Atomic             Coordinates (Angstroms)
 Number     Number       Type             X           Y           Z
 ---------------------------------------------------------------------
      1         14           0        0.000000    0.770830    0.000000
      2          8           0        1.466588    1.194606    0.000000
      3         17           0       -0.690159   -1.196969    0.000000
 ---------------------------------------------------------------------

 SCF Done:  E(UHF) =  -823.389439682     A.U. after    2 cycles

 The electronic state is 2-A'.
 Alpha  occ. eigenvalues -- -103.70337 -69.18502 -20.56848 -10.73732  -8.39750
 Alpha  occ. eigenvalues --   -8.39095  -8.39093  -6.93227  -4.04030  -4.03588
 Alpha  occ. eigenvalues --   -4.03417  -1.25874  -1.18760  -0.69150  -0.60517
 Alpha  occ. eigenvalues --   -0.55666  -0.53902  -0.50870  -0.49729  -0.42375
 Alpha virt. eigenvalues --    0.01023   0.05006   0.05170   0.06611   0.07536
 Alpha virt. eigenvalues --    0.12128   0.13828   0.15034   0.15660   0.16736
 Alpha virt. eigenvalues --    0.21729   0.22845   0.24249   0.26577   0.27194

  Beta  occ. eigenvalues -- -103.70084 -69.18010 -20.55770 -10.73455  -8.38981
  Beta  occ. eigenvalues --   -8.38961  -8.38713  -6.92350  -4.03309  -4.03162
  Beta  occ. eigenvalues --   -4.02466  -1.22110  -1.16549  -0.64589  -0.54637
  Beta  occ. eigenvalues --   -0.53436  -0.52551  -0.49567  -0.47833
  Beta virt. eigenvalues --   -0.03988   0.03640   0.05468   0.06099   0.07797
  Beta virt. eigenvalues --    0.09142   0.12285   0.14826   0.15123   0.16797
  Beta virt. eigenvalues --    0.19810   0.22480   0.23086   0.24646   0.26691

 Mulliken charges and spin densities:
               1          2
     1  Si   1.312585   0.668283
     2  O   -0.931423   0.200436
     3  Cl  -0.381162   0.131280
 Sum of Mulliken charges =   0.00000   1.00000

 Dipole moment (field-independent basis, Debye):
    X=             -3.7265    Y=             -0.2642    Z=              0.0000  Tot=              3.7359
                          Isotropic Fermi Contact Couplings
        Atom                 a.u.       MegaHertz       Gauss      10(-4) cm-1
     1  Si(29)             0.91655    -814.56700    -290.65776    -271.71031
     2  O(17)              0.06726     -40.77099     -14.54810     -13.59974
     3  Cl(35)             0.14384      63.06961      22.50481      21.03776
 --------------------------------------------------------
       Center         ----  Spin Dipole Couplings  ----
                      3XX-RR        3YY-RR        3ZZ-RR
 --------------------------------------------------------
     1   Atom        0.668491     -0.321659     -0.346832

 Normal termination of Gaussian 16 at Tue Apr  8 23:54:17 2025.
