 Gaussian 16, Revision C.01,

 ----------------------------------------------------------------------
 #t hf aug-cc-pvdz symm=none int=(grid=ultrafine) guess=(read,tcheck) s
 table=(opt,rrhf)
 ----------------------------------------------------------------------
 -----
 title
 -----
 Symbolic Z-matrix:
 Charge =  0 Multiplicity = 1

 SCF Done:  E(RHF) =  -1154.07428197     A.U. after   12 cycles
 Normal termination of Gaussian 16 at Tue Apr  8 23:41:22 2025.
 Gaussian 16:  ES64L-G16RevC.01  3-Jul-2019

 ----------------------------------------------------------------------
 #t hf aug-cc-pvdz iop(5/13=1,5/36=2,99/5=2) pseudo=read geom=check gue
 ss=(read,tcheck) scf=(maxcycle=1)
 ----------------------------------------------------------------------
 -----
 title
 -----
 Structure from the checkpoint file:  "BDE49_nonexpt_1682_mol1.chk"
 Charge =  0 Multiplicity = 1

                         Standard orientation:
 ---------------------------------------------------------------------
 Center     Atomic      Atomic             Coordinates (Angstroms)
 Number     Number       Type             X           Y           Z
 ---------------------------------------------------------------------
      1         14           0       -1.097336    0.006828    0.007901
      2         15           0        1.155488    0.016745    0.129211
      3          9           0       -1.721726   -0.846683    1.182117
      4          9           0       -1.632064   -0.569050   -1.364179
      5          9           0       -1.604915    1.500318    0.145028
      6          8           0        1.718750    0.485924    1.400929
      7          8           0        1.445299   -1.486677   -0.324204
      8          1           0        2.354533   -1.784445   -0.181096
      9          8           0        1.629412    0.867595   -1.155451
     10          1           0        1.956488    1.741670   -0.904574
 ---------------------------------------------------------------------

 SCF Done:  E(RHF) =  -1154.37151198     A.U. after    2 cycles

 The electronic state is 1-A.
 Alpha  occ. eigenvalues --  -81.44341 -69.24181 -26.15817 -26.15783 -26.15737
 Alpha  occ. eigenvalues --  -20.64507 -20.64117 -20.55404  -7.92785  -6.97785
 Alpha  occ. eigenvalues --   -5.07428  -5.07311  -5.06902  -4.08806  -4.08801
 Alpha  occ. eigenvalues --   -4.08575  -1.70057  -1.68277  -1.68254  -1.40641
 Alpha  occ. eigenvalues --   -1.37393  -1.28610  -0.90372  -0.87497  -0.82379
 Alpha  occ. eigenvalues --   -0.82310  -0.79737  -0.78573  -0.77208  -0.77162
 Alpha  occ. eigenvalues --   -0.74938  -0.74896  -0.73471  -0.70680  -0.69071
 Alpha  occ. eigenvalues --   -0.65885  -0.60572  -0.60186  -0.55362  -0.51447
 Alpha  occ. eigenvalues --   -0.48296
 Alpha virt. eigenvalues --    0.02792   0.04030   0.05442   0.06608   0.07080
 Alpha virt. eigenvalues --    0.09243   0.09610   0.10854   0.11023   0.14165
 Alpha virt. eigenvalues --    0.14435   0.14686   0.18065   0.18524   0.19770

 Mulliken charges:
               1
     1  Si   2.480396
     2  P    1.810290
     3  F   -0.801744
     4  F   -0.797721
     5  F   -0.761704
     6  O   -0.890970
     7  O   -0.657101
     8  H    0.159835
     9  O   -0.689178
    10  H    0.147897
 Sum of Mulliken charges =  -0.00000

 Dipole moment (field-independent basis, Debye):
    X=              2.0577    Y=             -0.2003    Z=             -1.9112  Tot=              2.8154

 Test job not archived.
 1\1\GINC-SE333\SP\RHF\Aug-CC-pVDZ\F3H2O3P1Si1\OHZDE\08-Apr-2025\0\\#t
 hf aug-cc-pvdz iop(5/13=1,5/36=2,99/5=2) pseudo=read geom=check guess=
 (read,tcheck) scf=(maxcycle=1)\\title\\0,1\Si,0,1.097336,0.006828,-0.0
 07901\P,0,-1.155488,0.016745,-0.129211\F,0,1.721726,-0.846683,-1.18211
 7\F,0,1.632064,-0.56905,1.364179\F,0,1.604915,1.500318,-0.145028\O,0,-
 1.71875,0.485924,-1.400929\O,0,-1.445299,-1.486677,0.324204\H,0,-2.354
 533,-1.784445,0.181096\O,0,-1.629412,0.867595,1.155451\H,0,-1.956487,1
 .74167,0.904574\\Version=ES64L-G16RevC.01\State=1-A\HF=-1154.371512\RM

 Normal termination of Gaussian 16 at Tue Apr  8 23:41:27 2025.
