 Gaussian 16, Revision C.01,

 ----------------------------------------------------------------------
 #t hf aug-cc-pvdz symm=none int=(grid=ultrafine) guess=(read,tcheck) s
 table=(opt,rrhf)
 ----------------------------------------------------------------------
 -----
 title
 -----
 Symbolic Z-matrix:
 Charge =  0 Multiplicity = 1

 SCF Done:  E(RHF) =  -435.346120266     A.U. after   13 cycles
 Normal termination of Gaussian 16 at Tue Apr  8 23:29:58 2025.
 Gaussian 16:  ES64L-G16RevC.01  3-Jul-2019

 ----------------------------------------------------------------------
 #t hf aug-cc-pvdz iop(5/13=1,5/36=2,99/5=2) pseudo=read geom=check gue
 ss=(read,tcheck) scf=(maxcycle=1)
 ----------------------------------------------------------------------
 -----
 title
 -----
 Structure from the checkpoint file:  "BDE49_nonexpt_1398_mol1.chk"
 Charge =  0 Multiplicity = 1

                         Standard orientation:
 ---------------------------------------------------------------------
 Center     Atomic      Atomic             Coordinates (Angstroms)
 Number     Number       Type             X           Y           Z
 ---------------------------------------------------------------------
      1         15           0        0.845998   -0.050361   -0.116373
      2          7           0       -0.709392    0.797457    0.189139
      3          6           0       -0.898368   -0.630647   -0.017542
      4          1           0       -1.222955   -1.174772    0.862957
      5          1           0       -1.335901   -0.978284   -0.950324
      6          1           0       -0.964251    1.329999   -0.639411
      7          1           0        1.189085   -0.219834    1.253650
 ---------------------------------------------------------------------

 SCF Done:  E(RHF) =  -435.397319534     A.U. after    2 cycles

 The electronic state is 1-A.
 Alpha  occ. eigenvalues --  -81.27681 -15.63950 -11.28542  -7.77855  -4.91899
 Alpha  occ. eigenvalues --   -4.91496  -4.91450  -1.18580  -0.87417  -0.75838
 Alpha  occ. eigenvalues --   -0.65531  -0.61255  -0.50098  -0.46752  -0.37480
 Alpha  occ. eigenvalues --   -0.36710
 Alpha virt. eigenvalues --    0.03650   0.04539   0.04974   0.05917   0.08834
 Alpha virt. eigenvalues --    0.09446   0.11049   0.11338   0.15060   0.15935
 Alpha virt. eigenvalues --    0.17064   0.17704   0.18273   0.20258   0.20787

 Mulliken charges:
               1
     1  P    0.438555
     2  N   -0.732970
     3  C    0.708633
     4  H   -0.281209
     5  H   -0.243754
     6  H    0.039225
     7  H    0.071519
 Sum of Mulliken charges =  -0.00000

 Dipole moment (field-independent basis, Debye):
    X=             -0.3286    Y=             -0.7473    Z=             -0.8300  Tot=              1.1642

 Test job not archived.
 1\1\GINC-SE102\SP\RHF\Aug-CC-pVDZ\C1H4N1P1\OHZDE\08-Apr-2025\0\\#t hf
 aug-cc-pvdz iop(5/13=1,5/36=2,99/5=2) pseudo=read geom=check guess=(re
 ad,tcheck) scf=(maxcycle=1)\\title\\0,1\P,0,0.845998,-0.050362,-0.1163
 73\N,0,-0.709391,0.797457,0.189139\C,0,-0.898368,-0.630647,-0.017542\H
 ,0,-1.222956,-1.174771,0.862957\H,0,-1.335901,-0.978283,-0.950324\H,0,
 -0.96425,1.329999,-0.639411\H,0,1.189085,-0.219835,1.25365\\Version=ES
 64L-G16RevC.01\State=1-A\HF=-435.3973195\RMSD=9.509e-03\Dipole=-0.1292
 807,-0.2940037,-0.3265562\Quadrupole=0.0015493,0.0874431,-0.0889924,0.

 Normal termination of Gaussian 16 at Tue Apr  8 23:30:00 2025.
