 Gaussian 16, Revision C.01,

 ----------------------------------------------------------------------
 #t hf aug-cc-pvdz symm=none int=(grid=ultrafine) guess=(read,tcheck) s
 table=(opt,rrhf)
 ----------------------------------------------------------------------
 -----
 title
 -----
 Symbolic Z-matrix:
 Charge =  0 Multiplicity = 1

 SCF Done:  E(RHF) =  -318.415838713     A.U. after   12 cycles
 Normal termination of Gaussian 16 at Wed Apr  9 00:28:42 2025.
 Gaussian 16:  ES64L-G16RevC.01  3-Jul-2019

 ----------------------------------------------------------------------
 #t hf aug-cc-pvdz iop(5/13=1,5/36=2,99/5=2) pseudo=read geom=check gue
 ss=(read,tcheck) scf=(maxcycle=1)
 ----------------------------------------------------------------------
 -----
 title
 -----
 Structure from the checkpoint file:  "BDE49_nonexpt_352_mol1.chk"
 Charge =  0 Multiplicity = 1

                         Standard orientation:
 ---------------------------------------------------------------------
 Center     Atomic      Atomic             Coordinates (Angstroms)
 Number     Number       Type             X           Y           Z
 ---------------------------------------------------------------------
      1          9           0        1.697319   -0.725428   -0.000006
      2          9           0        0.679012    1.322150   -0.000010
      3          7           0       -0.677731   -0.639338    0.000005
      4          5           0        0.564765   -0.011795   -0.000007
      5          6           0       -1.972282    0.027927    0.000014
      6          1           0       -0.702420   -1.647622    0.000012
      7          1           0       -1.814609    1.106042   -0.000009
      8          1           0       -2.557972   -0.231054    0.887920
      9          1           0       -2.558000   -0.231088   -0.887864
 ---------------------------------------------------------------------

 SCF Done:  E(RHF) =  -318.538865115     A.U. after    2 cycles

 The electronic state is 1-A.
 Alpha  occ. eigenvalues --  -26.12188 -26.12019 -15.63251 -11.27952  -7.72794
 Alpha  occ. eigenvalues --   -1.67178  -1.65060  -1.17526  -0.93221  -0.85378
 Alpha  occ. eigenvalues --   -0.80610  -0.77163  -0.75504  -0.70939  -0.70409
 Alpha  occ. eigenvalues --   -0.67250  -0.61236  -0.60968  -0.54822  -0.41517
 Alpha virt. eigenvalues --    0.03053   0.04600   0.04626   0.05787   0.07716
 Alpha virt. eigenvalues --    0.07860   0.07963   0.09337   0.13621   0.15405
 Alpha virt. eigenvalues --    0.15534   0.17249   0.18465   0.18837   0.22691

 Mulliken charges:
               1
     1  F   -0.480076
     2  F   -0.446377
     3  N   -0.205007
     4  B    0.885202
     5  C    0.752381
     6  H   -0.068351
     7  H   -0.205604
     8  H   -0.116084
     9  H   -0.116085
 Sum of Mulliken charges =  -0.00000

 Dipole moment (field-independent basis, Debye):
    X=             -2.8316    Y=             -1.2603    Z=              0.0000  Tot=              3.0994

 Test job not archived.
 1\1\GINC-SE179\SP\RHF\Aug-CC-pVDZ\C1H4B1F2N1\OHZDE\09-Apr-2025\0\\#t h
 f aug-cc-pvdz iop(5/13=1,5/36=2,99/5=2) pseudo=read geom=check guess=(
 read,tcheck) scf=(maxcycle=1)\\title\\0,1\F,0,1.697319,-0.725428,-0.00
 0006\F,0,0.679012,1.32215,-0.00001\N,0,-0.677731,-0.639338,0.000005\B,
 0,0.564765,-0.011795,-0.000007\C,0,-1.972282,0.027928,0.000014\H,0,-0.
 702421,-1.647622,0.000012\H,0,-1.814609,1.106043,-0.000009\H,0,-2.5579
 72,-0.231053,0.88792\H,0,-2.558,-0.231087,-0.887864\\Version=ES64L-G16
 RevC.01\State=1-A\HF=-318.5388651\RMSD=4.778e-03\Dipole=-1.1140193,-0.

 Normal termination of Gaussian 16 at Wed Apr  9 00:28:45 2025.
