 Gaussian 16, Revision C.01,

 ----------------------------------------------------------------------
 #t hf aug-cc-pvdz symm=none int=(grid=ultrafine) guess=(read,tcheck) s
 table=(opt,rrhf)
 ----------------------------------------------------------------------
 -----
 title
 -----
 Symbolic Z-matrix:
 Charge =  0 Multiplicity = 1

 SCF Done:  E(RHF) =  -686.156444288     A.U. after   17 cycles
 Normal termination of Gaussian 16 at Wed Apr  9 00:20:39 2025.
 Gaussian 16:  ES64L-G16RevC.01  3-Jul-2019

 ----------------------------------------------------------------------
 #t hf aug-cc-pvdz iop(5/13=1,5/36=2,99/5=2) pseudo=read geom=check gue
 ss=(read,tcheck) scf=(maxcycle=1)
 ----------------------------------------------------------------------
 -----
 title
 -----
 Structure from the checkpoint file:  "BDE49_nonexpt_2651_mol1.chk"
 Charge =  0 Multiplicity = 1

                         Standard orientation:
 ---------------------------------------------------------------------
 Center     Atomic      Atomic             Coordinates (Angstroms)
 Number     Number       Type             X           Y           Z
 ---------------------------------------------------------------------
      1          9           0       -1.814926    1.015356    0.048150
      2         16           0       -1.198230   -0.522893   -0.099369
      3          8           0        0.213530   -0.459451    0.505303
      4          8           0        1.332472   -0.017306   -0.600843
      5          6           0        2.464937    0.307192    0.159334
      6          1           0        3.217390    0.586861   -0.588050
      7          1           0        2.841329   -0.549640    0.730364
      8          1           0        2.289657    1.161766    0.822557
 ---------------------------------------------------------------------

 SCF Done:  E(RHF) =  -686.288263880     A.U. after    2 cycles

 The electronic state is 1-A.
 Alpha  occ. eigenvalues --  -93.68234 -26.13333 -20.70405 -20.67897 -11.31192
 Alpha  occ. eigenvalues --   -8.96555  -6.30827  -6.30429  -6.29879  -1.64873
 Alpha  occ. eigenvalues --   -1.43729  -1.30663  -0.95079  -0.92840  -0.76637
 Alpha  occ. eigenvalues --   -0.74382  -0.74278  -0.69385  -0.68990  -0.64171
 Alpha  occ. eigenvalues --   -0.61746  -0.56883  -0.55249  -0.50260  -0.38068
 Alpha virt. eigenvalues --    0.03424   0.05317   0.05461   0.05791   0.07611
 Alpha virt. eigenvalues --    0.08937   0.09248   0.11246   0.14152   0.15121
 Alpha virt. eigenvalues --    0.16493   0.16669   0.17400   0.20976   0.22280

 Mulliken charges:
               1
     1  F   -0.596362
     2  S    1.060898
     3  O   -0.538746
     4  O   -0.391268
     5  C    0.777475
     6  H   -0.147885
     7  H   -0.085562
     8  H   -0.078550
 Sum of Mulliken charges =  -0.00000

 Dipole moment (field-independent basis, Debye):
    X=              2.4494    Y=             -1.0308    Z=              0.2741  Tot=              2.6716

 Test job not archived.
 1\1\GINC-SE090\SP\RHF\Aug-CC-pVDZ\C1H3F1O2S1\OHZDE\09-Apr-2025\0\\#t h
 f aug-cc-pvdz iop(5/13=1,5/36=2,99/5=2) pseudo=read geom=check guess=(
 read,tcheck) scf=(maxcycle=1)\\title\\0,1\F,0,-1.814926,1.015356,0.048
 15\S,0,-1.19823,-0.522893,-0.099369\O,0,0.21353,-0.459451,0.505303\O,0
 ,1.332472,-0.017306,-0.600843\C,0,2.464937,0.307192,0.159334\H,0,3.217
 39,0.586861,-0.58805\H,0,2.841329,-0.54964,0.730364\H,0,2.289657,1.161
 766,0.822557\\Version=ES64L-G16RevC.01\State=1-A\HF=-686.2882639\RMSD=
 3.297e-03\Dipole=0.963661,-0.4055556,0.1078493\Quadrupole=3.5025918,-1

 Normal termination of Gaussian 16 at Wed Apr  9 00:20:41 2025.
