 Gaussian 16, Revision C.01,

 ----------------------------------------------------------------------
 #t hf aug-cc-pvdz symm=none int=(grid=ultrafine) guess=(read,tcheck) s
 table=(opt,rrhf)
 ----------------------------------------------------------------------
 -----
 title
 -----
 Symbolic Z-matrix:
 Charge =  0 Multiplicity = 1

 SCF Done:  E(RHF) =  -650.651113802     A.U. after   14 cycles
 Normal termination of Gaussian 16 at Tue Apr  8 23:02:10 2025.
 Gaussian 16:  ES64L-G16RevC.01  3-Jul-2019

 ----------------------------------------------------------------------
 #t hf aug-cc-pvdz iop(5/13=1,5/36=2,99/5=2) pseudo=read geom=check gue
 ss=(read,tcheck) scf=(maxcycle=1)
 ----------------------------------------------------------------------
 -----
 title
 -----
 Structure from the checkpoint file:  "BDE49_expt_331_mol1.chk"
 Charge =  0 Multiplicity = 1

                         Standard orientation:
 ---------------------------------------------------------------------
 Center     Atomic      Atomic             Coordinates (Angstroms)
 Number     Number       Type             X           Y           Z
 ---------------------------------------------------------------------
      1          6           0        0.000242   -0.000058   -0.547785
      2          7           0        1.435409    0.065947   -0.043155
      3          7           0       -0.774622    1.209793   -0.043250
      4          8           0        1.668438    0.787795    0.898275
      5          8           0        2.195576   -0.654941   -0.655389
      6          8           0       -1.516486    1.050590    0.897999
      7          8           0       -0.530801    2.228463   -0.655801
      8          7           0       -0.660230   -1.276052   -0.043492
      9          1           0        0.000346    0.000040   -1.631272
     10          8           0       -1.665113   -1.573235   -0.655253
     11          8           0       -0.152326   -1.838361    0.898577
 ---------------------------------------------------------------------

 SCF Done:  E(RHF) =  -650.848116218     A.U. after    2 cycles

 The electronic state is 1-A.
 Alpha  occ. eigenvalues --  -20.69367 -20.69367 -20.69366 -20.68893 -20.68893
 Alpha  occ. eigenvalues --  -20.68893 -15.99541 -15.99541 -15.99539 -11.49919
 Alpha  occ. eigenvalues --   -1.64425  -1.62047  -1.62046  -1.44905  -1.44904
 Alpha  occ. eigenvalues --   -1.44818  -1.23259  -1.01906  -1.01905  -0.89910
 Alpha  occ. eigenvalues --   -0.86759  -0.86757  -0.85204  -0.80494  -0.80493
 Alpha  occ. eigenvalues --   -0.79526  -0.78570  -0.78569  -0.73623  -0.61439
 Alpha  occ. eigenvalues --   -0.59861  -0.59860  -0.58237  -0.56078  -0.56076
 Alpha  occ. eigenvalues --   -0.54626  -0.53015  -0.53012
 Alpha virt. eigenvalues --    0.00624   0.00633   0.01343   0.03345   0.07978
 Alpha virt. eigenvalues --    0.07980   0.08780   0.12959   0.13062   0.13062
 Alpha virt. eigenvalues --    0.13792   0.13909   0.13910   0.19451   0.20295

 Mulliken charges:
               1
     1  C    2.274726
     2  N    0.349389
     3  N    0.349287
     4  O   -0.494758
     5  O   -0.538619
     6  O   -0.494719
     7  O   -0.538575
     8  N    0.349515
     9  H   -0.222795
    10  O   -0.538683
    11  O   -0.494768
 Sum of Mulliken charges =  -0.00000

 Dipole moment (field-independent basis, Debye):
    X=              0.0022    Y=             -0.0012    Z=             -2.7213  Tot=              2.7213

 Test job not archived.
 1\1\GINC-SE094\SP\RHF\Aug-CC-pVDZ\C1H1N3O6\OHZDE\08-Apr-2025\0\\#t hf
 aug-cc-pvdz iop(5/13=1,5/36=2,99/5=2) pseudo=read geom=check guess=(re
 ad,tcheck) scf=(maxcycle=1)\\title\\0,1\C,0,0.000242,-0.000058,-0.5477
 85\N,0,1.435408,0.065972,-0.043155\N,0,-0.774643,1.209779,-0.04325\O,0
 ,1.668424,0.787824,0.898275\O,0,2.195587,-0.654903,-0.655389\O,0,-1.51
 6504,1.050564,0.897999\O,0,-0.530839,2.228454,-0.655801\N,0,-0.660208,
 -1.276064,-0.043492\H,0,0.000346,0.00004,-1.631272\O,0,-1.665086,-1.57
 3264,-0.655253\O,0,-0.152294,-1.838364,0.898577\\Version=ES64L-G16RevC

 Normal termination of Gaussian 16 at Tue Apr  8 23:02:16 2025.
