 Gaussian 16, Revision C.01,

 ----------------------------------------------------------------------
 #t hf aug-cc-pvdz symm=none int=(grid=ultrafine) guess=(read,tcheck) s
 table=(opt,rrhf)
 ----------------------------------------------------------------------
 -----
 title
 -----
 Symbolic Z-matrix:
 Charge =  0 Multiplicity = 1

 SCF Done:  E(RHF) =  -1070.65737284     A.U. after   14 cycles
 Normal termination of Gaussian 16 at Wed Apr  9 00:11:36 2025.
 Gaussian 16:  ES64L-G16RevC.01  3-Jul-2019

 ----------------------------------------------------------------------
 #t hf aug-cc-pvdz iop(5/13=1,5/36=2,99/5=2) pseudo=read geom=check gue
 ss=(read,tcheck) scf=(maxcycle=1)
 ----------------------------------------------------------------------
 -----
 title
 -----
 Structure from the checkpoint file:  "BDE49_nonexpt_2427_mol1.chk"
 Charge =  0 Multiplicity = 1

                         Standard orientation:
 ---------------------------------------------------------------------
 Center     Atomic      Atomic             Coordinates (Angstroms)
 Number     Number       Type             X           Y           Z
 ---------------------------------------------------------------------
      1         14           0        2.552073   -0.858311   -0.000002
      2         14           0        1.143831    1.034793    0.000197
      3          1           0        3.963561   -0.403405    0.000867
      4          1           0        2.302690   -1.675720   -1.209663
      5          1           0        2.301557   -1.676830    1.208674
      6          7           0       -0.508614    0.533521   -0.000721
      7          1           0        1.357983    1.867260   -1.204447
      8          1           0        1.357012    1.866336    1.205664
      9          6           0       -1.624564    0.115877   -0.000241
     10         16           0       -3.107361   -0.429894    0.000166
 ---------------------------------------------------------------------

 SCF Done:  E(RHF) =  -1070.75287854     A.U. after    2 cycles

 The electronic state is 1-A.
 Alpha  occ. eigenvalues --  -93.53478 -69.11764 -69.07747 -15.66387 -11.39550
 Alpha  occ. eigenvalues --   -8.83416  -6.86701  -6.83186  -6.17736  -6.17027
 Alpha  occ. eigenvalues --   -6.17026  -3.97641  -3.97415  -3.97385  -3.93943
 Alpha  occ. eigenvalues --   -3.93938  -3.93922  -1.24229  -1.02532  -0.83350
 Alpha  occ. eigenvalues --   -0.72327  -0.62706  -0.58940  -0.58317  -0.57444
 Alpha  occ. eigenvalues --   -0.50962  -0.49919  -0.48873  -0.42769  -0.36527
 Alpha  occ. eigenvalues --   -0.35852
 Alpha virt. eigenvalues --    0.03253   0.03775   0.04966   0.05723   0.06727
 Alpha virt. eigenvalues --    0.06853   0.06915   0.07974   0.08507   0.08766
 Alpha virt. eigenvalues --    0.08988   0.09146   0.10937   0.11708   0.12334

 Mulliken charges:
               1
     1  Si  -0.154237
     2  Si   0.642567
     3  H   -0.011484
     4  H    0.007749
     5  H    0.007774
     6  N   -0.224263
     7  H    0.022488
     8  H    0.022292
     9  C   -0.494874
    10  S    0.181988
 Sum of Mulliken charges =  -0.00000

 Dipole moment (field-independent basis, Debye):
    X=              2.8203    Y=              0.6046    Z=              0.0004  Tot=              2.8844

 Test job not archived.
 1\1\GINC-SE365\SP\RHF\Aug-CC-pVDZ\C1H5N1S1Si2\OHZDE\09-Apr-2025\0\\#t
 hf aug-cc-pvdz iop(5/13=1,5/36=2,99/5=2) pseudo=read geom=check guess=
 (read,tcheck) scf=(maxcycle=1)\\title\\0,1\Si,0,2.552073,-0.858311,-0.
 000002\Si,0,1.143831,1.034793,0.000197\H,0,3.963561,-0.403405,0.000867
 \H,0,2.30269,-1.67572,-1.209663\H,0,2.301557,-1.67683,1.208674\N,0,-0.
 508614,0.533521,-0.000721\H,0,1.357983,1.86726,-1.204447\H,0,1.357012,
 1.866336,1.205664\C,0,-1.624564,0.115877,-0.000241\S,0,-3.107361,-0.42
 9894,0.000166\\Version=ES64L-G16RevC.01\State=1-A\HF=-1070.7528785\RMS

 Normal termination of Gaussian 16 at Wed Apr  9 00:11:39 2025.
