 Gaussian 16, Revision C.01,

 ----------------------------------------------------------------------
 #t hf aug-cc-pvdz symm=none int=(grid=ultrafine) guess=(read,tcheck) s
 table=(opt,rrhf)
 ----------------------------------------------------------------------
 -----
 title
 -----
 Symbolic Z-matrix:
 Charge =  0 Multiplicity = 1

 SCF Done:  E(RHF) =  -359.811736234     A.U. after   13 cycles
 Normal termination of Gaussian 16 at Tue Apr  8 23:05:04 2025.
 Gaussian 16:  ES64L-G16RevC.01  3-Jul-2019

 ----------------------------------------------------------------------
 #t hf aug-cc-pvdz iop(5/13=1,5/36=2,99/5=2) pseudo=read geom=check gue
 ss=(read,tcheck) scf=(maxcycle=1)
 ----------------------------------------------------------------------
 -----
 title
 -----
 Structure from the checkpoint file:  "BDE49_expt_431_mol1.chk"
 Charge =  0 Multiplicity = 1

                         Standard orientation:
 ---------------------------------------------------------------------
 Center     Atomic      Atomic             Coordinates (Angstroms)
 Number     Number       Type             X           Y           Z
 ---------------------------------------------------------------------
      1          7           0        0.046880   -0.638410   -0.000023
      2          6           0        1.193218    0.155803   -0.000033
      3          6           0        2.480836   -0.648525    0.000015
      4          1           0        2.536723   -1.290080    0.884076
      5          1           0        3.321751    0.041259    0.000050
      6          1           0        2.536788   -1.290070   -0.884049
      7          6           0       -1.316563   -0.279776   -0.000020
      8          1           0        0.168176   -1.643441   -0.000013
      9          6           0       -1.672718    1.183248    0.000009
     10          1           0       -2.758651    1.257170    0.000046
     11          1           0       -1.251998    1.686372   -0.872051
     12          1           0       -1.251941    1.686356    0.872050
     13          8           0       -2.135997   -1.171344    0.000031
     14          8           0        1.168792    1.365945   -0.000003
 ---------------------------------------------------------------------

 SCF Done:  E(RHF) =  -359.925953747     A.U. after    2 cycles

 The electronic state is 1-A.
 Alpha  occ. eigenvalues --  -20.56736 -20.56225 -15.68066 -11.39688 -11.38808
 Alpha  occ. eigenvalues --  -11.26798 -11.24654  -1.38497  -1.36813  -1.21258
 Alpha  occ. eigenvalues --   -1.03542  -0.99775  -0.86422  -0.77990  -0.71539
 Alpha  occ. eigenvalues --   -0.69337  -0.65693  -0.63624  -0.62307  -0.61145
 Alpha  occ. eigenvalues --   -0.58826  -0.56576  -0.54927  -0.53268  -0.47638
 Alpha  occ. eigenvalues --   -0.45257  -0.43539
 Alpha virt. eigenvalues --    0.02750   0.04302   0.04586   0.04786   0.06823
 Alpha virt. eigenvalues --    0.06909   0.07485   0.09287   0.10791   0.11999
 Alpha virt. eigenvalues --    0.12340   0.12973   0.13716   0.14067   0.15287

 Mulliken charges:
               1
     1  N   -0.478023
     2  C    0.402861
     3  C    0.333005
     4  H    0.034947
     5  H   -0.052026
     6  H    0.034953
     7  C    0.372550
     8  H   -0.065839
     9  C    0.328392
    10  H   -0.097530
    11  H    0.080072
    12  H    0.080068
    13  O   -0.503099
    14  O   -0.470333
 Sum of Mulliken charges =  -0.00000

 Dipole moment (field-independent basis, Debye):
    X=              2.8306    Y=             -1.1071    Z=             -0.0001  Tot=              3.0394

 Test job not archived.
 1\1\GINC-SE454\SP\RHF\Aug-CC-pVDZ\C4H7N1O2\OHZDE\08-Apr-2025\0\\#t hf
 aug-cc-pvdz iop(5/13=1,5/36=2,99/5=2) pseudo=read geom=check guess=(re
 ad,tcheck) scf=(maxcycle=1)\\title\\0,1\N,0,-0.04688,-0.63841,0.000023
 \C,0,-1.193218,0.155803,0.000033\C,0,-2.480836,-0.648525,-0.000015\H,0
 ,-2.536723,-1.29008,-0.884076\H,0,-3.321751,0.041259,-0.00005\H,0,-2.5
 36788,-1.29007,0.884049\C,0,1.316563,-0.279776,0.00002\H,0,-0.168176,-
 1.643441,0.000013\C,0,1.672718,1.183248,-0.000009\H,0,2.758651,1.25717
 ,-0.000046\H,0,1.251998,1.686372,0.872051\H,0,1.251941,1.686356,-0.872

 Normal termination of Gaussian 16 at Tue Apr  8 23:05:08 2025.
