 Gaussian 16, Revision C.01,

 ----------------------------------------------------------------------
 #t hf aug-cc-pvdz symm=none int=(grid=ultrafine) guess=(read,tcheck) s
 table=(opt,rrhf)
 ----------------------------------------------------------------------
 -----
 title
 -----
 Symbolic Z-matrix:
 Charge =  0 Multiplicity = 1

 SCF Done:  E(RHF) =  -792.889172915     A.U. after   13 cycles
 Normal termination of Gaussian 16 at Tue Apr  8 23:35:05 2025.
 Gaussian 16:  ES64L-G16RevC.01  3-Jul-2019

 ----------------------------------------------------------------------
 #t hf aug-cc-pvdz iop(5/13=1,5/36=2,99/5=2) pseudo=read geom=check gue
 ss=(read,tcheck) scf=(maxcycle=1)
 ----------------------------------------------------------------------
 -----
 title
 -----
 Structure from the checkpoint file:  "BDE49_nonexpt_1532_mol1.chk"
 Charge =  0 Multiplicity = 1

                         Standard orientation:
 ---------------------------------------------------------------------
 Center     Atomic      Atomic             Coordinates (Angstroms)
 Number     Number       Type             X           Y           Z
 ---------------------------------------------------------------------
      1         15           0        0.670016   -0.000002    0.516618
      2          7           0       -0.859653    0.000003   -0.499679
      3          9           0        1.318661   -1.212889   -0.286539
      4          9           0        1.318665    1.212892   -0.286529
      5          9           0       -1.542698   -1.105089    0.050343
      6          9           0       -1.542703    1.105088    0.050334
 ---------------------------------------------------------------------

 SCF Done:  E(RHF) =  -793.088100208     A.U. after    2 cycles

 The electronic state is 1-A.
 Alpha  occ. eigenvalues --  -81.47221 -26.19209 -26.19205 -26.18537 -26.18532
 Alpha  occ. eigenvalues --  -15.85706  -7.95596  -5.09609  -5.09420  -5.08941
 Alpha  occ. eigenvalues --   -1.73897  -1.72242  -1.70831  -1.68272  -1.14272
 Alpha  occ. eigenvalues --   -0.94257  -0.85656  -0.85169  -0.83304  -0.82566
 Alpha  occ. eigenvalues --   -0.81300  -0.79091  -0.77996  -0.76984  -0.75517
 Alpha  occ. eigenvalues --   -0.72638  -0.66147  -0.55938  -0.45825
 Alpha virt. eigenvalues --    0.04895   0.05453   0.07094   0.09385   0.12405
 Alpha virt. eigenvalues --    0.13084   0.14242   0.14998   0.15676   0.20706
 Alpha virt. eigenvalues --    0.20809   0.24001   0.24193   0.27003   0.27823

 Mulliken charges:
               1
     1  P    1.677339
     2  N    0.134255
     3  F   -0.556276
     4  F   -0.556277
     5  F   -0.349523
     6  F   -0.349518
 Sum of Mulliken charges =  -0.00000

 Dipole moment (field-independent basis, Debye):
    X=              1.3208    Y=              0.0000    Z=              1.4581  Tot=              1.9674

 Test job not archived.
 1\1\GINC-SE457\SP\RHF\Aug-CC-pVDZ\F4N1P1\OHZDE\08-Apr-2025\0\\#t hf au
 g-cc-pvdz iop(5/13=1,5/36=2,99/5=2) pseudo=read geom=check guess=(read
 ,tcheck) scf=(maxcycle=1)\\title\\0,1\P,0,0.670016,-0.000002,0.516618\
 N,0,-0.859653,0.000003,-0.499679\F,0,1.318661,-1.212889,-0.286539\F,0,
 1.318665,1.212892,-0.286529\F,0,-1.542698,-1.105089,0.050343\F,0,-1.54
 2703,1.105088,0.050334\\Version=ES64L-G16RevC.01\State=1-A\HF=-793.088
 1002\RMSD=5.476e-03\Dipole=0.5196382,0.0000059,0.5736749\Quadrupole=-0
 .7578747,-0.7537861,1.5116608,-0.000049,1.2927649,-0.0000019\PG=C01 [X

 Normal termination of Gaussian 16 at Tue Apr  8 23:35:07 2025.
