 Gaussian 16, Revision C.01,

 ----------------------------------------------------------------------
 #t hf aug-cc-pvdz symm=none int=(grid=ultrafine) guess=(read,tcheck) s
 table=(opt,rrhf)
 ----------------------------------------------------------------------
 -----
 title
 -----
 Symbolic Z-matrix:
 Charge =  0 Multiplicity = 1

 SCF Done:  E(RHF) =  -1138.09317691     A.U. after   14 cycles
 Normal termination of Gaussian 16 at Wed Apr  9 00:11:29 2025.
 Gaussian 16:  ES64L-G16RevC.01  3-Jul-2019

 ----------------------------------------------------------------------
 #t hf aug-cc-pvdz iop(5/13=1,5/36=2,99/5=2) pseudo=read geom=check gue
 ss=(read,tcheck) scf=(maxcycle=1)
 ----------------------------------------------------------------------
 -----
 title
 -----
 Structure from the checkpoint file:  "BDE49_nonexpt_2400_mol1.chk"
 Charge =  0 Multiplicity = 1

                         Standard orientation:
 ---------------------------------------------------------------------
 Center     Atomic      Atomic             Coordinates (Angstroms)
 Number     Number       Type             X           Y           Z
 ---------------------------------------------------------------------
      1         14           0       -0.516467   -1.051669    0.054180
      2         14           0        0.516469    1.051673    0.054183
      3          8           0        2.146343    0.902228   -0.546681
      4          1           0        0.597749    1.618539    1.411684
      5          1           0       -0.006368    2.016781   -0.927698
      6          7           0        2.914857   -0.122287   -0.009484
      7          8           0        2.339117   -0.865222    0.777439
      8          8           0        4.047777   -0.165671   -0.377784
      9          8           0       -2.146340   -0.902223   -0.546684
     10          1           0       -0.597748   -1.618538    1.411681
     11          1           0        0.006372   -2.016775   -0.927702
     12          7           0       -2.914856    0.122289   -0.009485
     13          8           0       -2.339124    0.865213    0.777454
     14          8           0       -4.047779    0.165666   -0.377778
 ---------------------------------------------------------------------

 SCF Done:  E(RHF) =  -1138.31890427     A.U. after    2 cycles

 The electronic state is 1-A.
 Alpha  occ. eigenvalues --  -69.14034 -69.14034 -20.68328 -20.68328 -20.67336
 Alpha  occ. eigenvalues --  -20.67336 -20.66205 -20.66205 -16.01287 -16.01286
 Alpha  occ. eigenvalues --   -6.88854  -6.88847  -3.99737  -3.99736  -3.99573
 Alpha  occ. eigenvalues --   -3.99540  -3.99529  -3.99461  -1.63345  -1.63213
 Alpha  occ. eigenvalues --   -1.43607  -1.43559  -1.38532  -1.38520  -0.95777
 Alpha  occ. eigenvalues --   -0.95404  -0.84649  -0.84450  -0.80872  -0.80866
 Alpha  occ. eigenvalues --   -0.80480  -0.80380  -0.76433  -0.70085  -0.63642
 Alpha  occ. eigenvalues --   -0.62779  -0.61364  -0.60526  -0.57753  -0.57696
 Alpha  occ. eigenvalues --   -0.55901  -0.55288  -0.53686  -0.52873  -0.51775
 Alpha  occ. eigenvalues --   -0.50996  -0.44220
 Alpha virt. eigenvalues --    0.03475   0.03520   0.05114   0.05310   0.05820
 Alpha virt. eigenvalues --    0.05880   0.06566   0.07229   0.07379   0.08203
 Alpha virt. eigenvalues --    0.09319   0.10131   0.10747   0.11357   0.12442

 Mulliken charges:
               1
     1  Si   0.390925
     2  Si   0.390925
     3  O   -0.736587
     4  H    0.174719
     5  H    0.141631
     6  N    0.785710
     7  O   -0.366493
     8  O   -0.389905
     9  O   -0.736589
    10  H    0.174719
    11  H    0.141633
    12  N    0.785712
    13  O   -0.366494
    14  O   -0.389906
 Sum of Mulliken charges =  -0.00000

 Dipole moment (field-independent basis, Debye):
    X=              0.0000    Y=              0.0000    Z=             -0.0304  Tot=              0.0304

 Test job not archived.
 1\1\GINC-SE336\SP\RHF\Aug-CC-pVDZ\H4N2O6Si2\OHZDE\09-Apr-2025\0\\#t hf
  aug-cc-pvdz iop(5/13=1,5/36=2,99/5=2) pseudo=read geom=check guess=(r
 ead,tcheck) scf=(maxcycle=1)\\title\\0,1\Si,0,0.516467,1.051669,0.0541
 8\Si,0,-0.516469,-1.051673,0.054183\O,0,-2.146343,-0.902228,-0.546681\
 H,0,-0.597749,-1.618539,1.411684\H,0,0.006368,-2.016781,-0.927698\N,0,
 -2.914857,0.122287,-0.009484\O,0,-2.339117,0.865222,0.777439\O,0,-4.04
 7777,0.165671,-0.377784\O,0,2.14634,0.902223,-0.546684\H,0,0.597748,1.
 618538,1.411681\H,0,-0.006372,2.016775,-0.927702\N,0,2.914856,-0.12228

 Normal termination of Gaussian 16 at Wed Apr  9 00:11:36 2025.
