 Gaussian 16, Revision C.01,

 ----------------------------------------------------------------------
 #t hf aug-cc-pvdz symm=none int=(grid=ultrafine) guess=(read,tcheck) s
 table=(opt,rrhf)
 ----------------------------------------------------------------------
 -----
 title
 -----
 Symbolic Z-matrix:
 Charge =  0 Multiplicity = 1

 SCF Done:  E(RHF) =  -653.683752165     A.U. after   14 cycles
 Normal termination of Gaussian 16 at Wed Apr  9 00:19:59 2025.
 Gaussian 16:  ES64L-G16RevC.01  3-Jul-2019

 ----------------------------------------------------------------------
 #t hf aug-cc-pvdz iop(5/13=1,5/36=2,99/5=2) pseudo=read geom=check gue
 ss=(read,tcheck) scf=(maxcycle=1)
 ----------------------------------------------------------------------
 -----
 title
 -----
 Structure from the checkpoint file:  "BDE49_nonexpt_2638_mol1.chk"
 Charge =  0 Multiplicity = 1

                         Standard orientation:
 ---------------------------------------------------------------------
 Center     Atomic      Atomic             Coordinates (Angstroms)
 Number     Number       Type             X           Y           Z
 ---------------------------------------------------------------------
      1          9           0       -1.522083   -0.790303    0.981628
      2         16           0       -0.972163   -0.721699   -0.607663
      3          6           0        0.195658    0.663006   -0.414073
      4          6           0        1.381438    0.315600    0.503295
      5          6           0       -0.529412    1.944229    0.009628
      6          1           0       -0.987550    1.811004    0.991678
      7          1           0       -1.316413    2.205325   -0.699551
      8          1           0        0.177227    2.777044    0.071503
      9          1           0        0.550673    0.763514   -1.451312
     10          6           0        2.320143   -0.762487   -0.039371
     11          1           0        0.982101    0.014615    1.476637
     12          1           0        1.946195    1.239589    0.673492
     13          1           0        1.792704   -1.705221   -0.198958
     14          1           0        3.138011   -0.949753    0.660745
     15          1           0        2.763440   -0.458287   -0.993147
 ---------------------------------------------------------------------

 SCF Done:  E(RHF) =  -653.791087821     A.U. after    2 cycles

 The electronic state is 1-A.
 Alpha  occ. eigenvalues --  -93.60762 -26.11579 -11.29040 -11.24519 -11.24014
 Alpha  occ. eigenvalues --  -11.23050  -8.89663  -6.23867  -6.23471  -6.23102
 Alpha  occ. eigenvalues --   -1.62492  -1.10401  -1.00300  -0.94604  -0.87028
 Alpha  occ. eigenvalues --   -0.79879  -0.72552  -0.72015  -0.66696  -0.63101
 Alpha  occ. eigenvalues --   -0.60627  -0.59781  -0.57633  -0.53509  -0.50993
 Alpha  occ. eigenvalues --   -0.49665  -0.48789  -0.45235  -0.36904
 Alpha virt. eigenvalues --    0.03298   0.04248   0.04480   0.05549   0.06501
 Alpha virt. eigenvalues --    0.06983   0.07068   0.07698   0.07946   0.09598
 Alpha virt. eigenvalues --    0.10113   0.12439   0.13590   0.14404   0.15247

 Mulliken charges:
               1
     1  F   -0.674876
     2  S    0.771438
     3  C   -0.685332
     4  C    0.282435
     5  C    0.578953
     6  H   -0.002787
     7  H   -0.067501
     8  H   -0.061405
     9  H   -0.099766
    10  C    0.367239
    11  H   -0.110875
    12  H   -0.113608
    13  H   -0.070931
    14  H   -0.052678
    15  H   -0.060307
 Sum of Mulliken charges =  -0.00000

 Dipole moment (field-independent basis, Debye):
    X=              2.0801    Y=              1.6630    Z=             -1.4175  Tot=              3.0169

 Test job not archived.
 1\1\GINC-SE461\SP\RHF\Aug-CC-pVDZ\C4H9F1S1\OHZDE\09-Apr-2025\0\\#t hf
 aug-cc-pvdz iop(5/13=1,5/36=2,99/5=2) pseudo=read geom=check guess=(re
 ad,tcheck) scf=(maxcycle=1)\\title\\0,1\F,0,-1.522083,-0.790302,0.9816
 28\S,0,-0.972163,-0.721699,-0.607663\C,0,0.195658,0.663006,-0.414073\C
 ,0,1.381438,0.3156,0.503295\C,0,-0.529411,1.944229,0.009628\H,0,-0.987
 549,1.811004,0.991678\H,0,-1.316412,2.205326,-0.699551\H,0,0.177228,2.
 777044,0.071503\H,0,0.550673,0.763514,-1.451312\C,0,2.320143,-0.762488
 ,-0.039371\H,0,0.982101,0.014615,1.476637\H,0,1.946195,1.239588,0.6734

 Normal termination of Gaussian 16 at Wed Apr  9 00:20:04 2025.
