 Gaussian 16, Revision C.01,

 ----------------------------------------------------------------------
 #t hf aug-cc-pvdz symm=none int=(grid=ultrafine) guess=(read,tcheck) s
 table=(opt,rrhf)
 ----------------------------------------------------------------------
 -----
 title
 -----
 Symbolic Z-matrix:
 Charge =  0 Multiplicity = 1

 SCF Done:  E(RHF) =  -174.761317358     A.U. after   13 cycles
 Normal termination of Gaussian 16 at Tue Apr  8 22:54:33 2025.
 Gaussian 16:  ES64L-G16RevC.01  3-Jul-2019

 ----------------------------------------------------------------------
 #t hf aug-cc-pvdz iop(5/13=1,5/36=2,99/5=2) pseudo=read geom=check gue
 ss=(read,tcheck) scf=(maxcycle=1)
 ----------------------------------------------------------------------
 -----
 title
 -----
 Structure from the checkpoint file:  "BDE49_expt_1901_mol1.chk"
 Charge =  0 Multiplicity = 1

                         Standard orientation:
 ---------------------------------------------------------------------
 Center     Atomic      Atomic             Coordinates (Angstroms)
 Number     Number       Type             X           Y           Z
 ---------------------------------------------------------------------
      1          8           0        0.053346    0.709146    0.000000
      2          9           0        0.053346   -0.724763    0.000000
      3          1           0       -0.906885    0.849694    0.000000
 ---------------------------------------------------------------------

 SCF Done:  E(RHF) =  -174.823104476     A.U. after    2 cycles

 The electronic state is 1-A'.
 Alpha  occ. eigenvalues --  -26.17540 -20.71292  -1.68051  -1.31635  -0.81682
 Alpha  occ. eigenvalues --   -0.77813  -0.73928  -0.65204  -0.58177
 Alpha virt. eigenvalues --    0.03371   0.09153   0.16565   0.19087   0.19982
 Alpha virt. eigenvalues --    0.22629   0.26074   0.28607   0.29214   0.33856
 Alpha virt. eigenvalues --    0.38334   0.46213   0.52796   0.61663   0.84565

 Mulliken charges:
               1
     1  O    0.043312
     2  F   -0.281563
     3  H    0.238250
 Sum of Mulliken charges =  -0.00000

 Dipole moment (field-independent basis, Debye):
    X=             -1.9138    Y=              1.4205    Z=              0.0000  Tot=              2.3834

 Test job not archived.
 1\1\GINC-SE424\SP\RHF\Aug-CC-pVDZ\F1H1O1\OHZDE\08-Apr-2025\0\\#t hf au
 g-cc-pvdz iop(5/13=1,5/36=2,99/5=2) pseudo=read geom=check guess=(read
 ,tcheck) scf=(maxcycle=1)\\title\\0,1\O,0,0.053346,0.709146,0.\F,0,0.0
 53346,-0.724763,0.\H,0,-0.906885,0.849694,0.\\Version=ES64L-G16RevC.01
 \State=1-A'\HF=-174.8231045\RMSD=6.181e-03\Dipole=-0.7529361,0.5588844
 ,0.\Quadrupole=0.8835782,0.0009544,-0.8845326,-1.3336519,0.,0.\PG=CS [
 SG(F1H1O1)]\\@

 Normal termination of Gaussian 16 at Tue Apr  8 22:54:35 2025.
