 Gaussian 16, Revision C.01,

 ----------------------------------------------------------------------
 #t hf aug-cc-pvdz symm=none int=(grid=ultrafine) guess=(read,tcheck) s
 table=(opt,rrhf)
 ----------------------------------------------------------------------
 -----
 title
 -----
 Symbolic Z-matrix:
 Charge =  0 Multiplicity = 1

 SCF Done:  E(RHF) =  -767.126420471     A.U. after   14 cycles
 Normal termination of Gaussian 16 at Wed Apr  9 00:10:45 2025.
 Gaussian 16:  ES64L-G16RevC.01  3-Jul-2019

 ----------------------------------------------------------------------
 #t hf aug-cc-pvdz iop(5/13=1,5/36=2,99/5=2) pseudo=read geom=check gue
 ss=(read,tcheck) scf=(maxcycle=1)
 ----------------------------------------------------------------------
 -----
 title
 -----
 Structure from the checkpoint file:  "BDE49_nonexpt_2384_mol1.chk"
 Charge =  0 Multiplicity = 1

                         Standard orientation:
 ---------------------------------------------------------------------
 Center     Atomic      Atomic             Coordinates (Angstroms)
 Number     Number       Type             X           Y           Z
 ---------------------------------------------------------------------
      1         14           0       -1.092499   -0.839583   -0.489581
      2         14           0        1.102972   -0.854404    0.394873
      3          6           0        1.914701    0.860235    0.261092
      4          1           0        1.959538   -1.804577   -0.359520
      5          1           0        1.040495   -1.270601    1.818974
      6          7           0        2.919147    1.171386   -0.460512
      7          1           0        1.480074    1.679820    0.848398
      8          1           0        3.270193    0.357793   -0.976922
      9          6           0       -2.210553    0.352341    0.484213
     10          1           0       -1.648943   -2.214481   -0.419407
     11          1           0       -1.080931   -0.378842   -1.900653
     12          7           0       -2.704813    1.450544    0.064829
     13          1           0       -2.454748    0.088289    1.521975
     14          1           0       -2.437523    1.629454   -0.908976
 ---------------------------------------------------------------------

 SCF Done:  E(RHF) =  -767.222427415     A.U. after    2 cycles

 The electronic state is 1-A.
 Alpha  occ. eigenvalues --  -69.08380 -69.08375 -15.64347 -15.64226 -11.29396
 Alpha  occ. eigenvalues --  -11.29256  -6.83810  -6.83803  -3.94577  -3.94568
 Alpha  occ. eigenvalues --   -3.94558  -3.94548  -3.94541  -3.94471  -1.18376
 Alpha  occ. eigenvalues --   -1.18236  -0.84484  -0.83399  -0.75103  -0.70395
 Alpha  occ. eigenvalues --   -0.62065  -0.61571  -0.58325  -0.56749  -0.50910
 Alpha  occ. eigenvalues --   -0.49904  -0.47761  -0.45524  -0.41943  -0.40086
 Alpha  occ. eigenvalues --   -0.38260
 Alpha virt. eigenvalues --    0.02988   0.03812   0.04219   0.04775   0.05765
 Alpha virt. eigenvalues --    0.06097   0.06651   0.07379   0.07827   0.08256
 Alpha virt. eigenvalues --    0.08604   0.08847   0.09362   0.09472   0.10417

 Mulliken charges:
               1
     1  Si   0.175504
     2  Si   0.210870
     3  C    0.315075
     4  H   -0.027012
     5  H    0.061927
     6  N   -0.340208
     7  H   -0.239124
     8  H    0.026842
     9  C    0.315080
    10  H    0.046672
    11  H    0.026745
    12  N   -0.327713
    13  H   -0.275992
    14  H    0.031333
 Sum of Mulliken charges =  -0.00000

 Dipole moment (field-independent basis, Debye):
    X=              0.0060    Y=             -2.9917    Z=             -0.2064  Tot=              2.9988

 Test job not archived.
 1\1\GINC-SE103\SP\RHF\Aug-CC-pVDZ\C2H8N2Si2\OHZDE\09-Apr-2025\0\\#t hf
  aug-cc-pvdz iop(5/13=1,5/36=2,99/5=2) pseudo=read geom=check guess=(r
 ead,tcheck) scf=(maxcycle=1)\\title\\0,1\Si,0,-1.092499,-0.839583,-0.4
 89581\Si,0,1.102972,-0.854404,0.394873\C,0,1.914701,0.860235,0.261092\
 H,0,1.959538,-1.804577,-0.35952\H,0,1.040495,-1.270601,1.818974\N,0,2.
 919147,1.171386,-0.460512\H,0,1.480074,1.67982,0.848398\H,0,3.270193,0
 .357793,-0.976922\C,0,-2.210553,0.352341,0.484213\H,0,-1.648943,-2.214
 481,-0.419407\H,0,-1.080931,-0.378842,-1.900653\N,0,-2.704813,1.450544

 Normal termination of Gaussian 16 at Wed Apr  9 00:10:50 2025.
