 Gaussian 16, Revision C.01,

 ----------------------------------------------------------------------
 #t hf aug-cc-pvdz symm=none int=(grid=ultrafine) guess=(read,tcheck) s
 table=(opt,rrhf)
 ----------------------------------------------------------------------
 -----
 title
 -----
 Symbolic Z-matrix:
 Charge =  0 Multiplicity = 1

 SCF Done:  E(RHF) =  -761.193594573     A.U. after   14 cycles
 Normal termination of Gaussian 16 at Wed Apr  9 00:21:43 2025.
 Gaussian 16:  ES64L-G16RevC.01  3-Jul-2019

 ----------------------------------------------------------------------
 #t hf aug-cc-pvdz iop(5/13=1,5/36=2,99/5=2) pseudo=read geom=check gue
 ss=(read,tcheck) scf=(maxcycle=1)
 ----------------------------------------------------------------------
 -----
 title
 -----
 Structure from the checkpoint file:  "BDE49_nonexpt_2677_mol1.chk"
 Charge =  0 Multiplicity = 1

                         Standard orientation:
 ---------------------------------------------------------------------
 Center     Atomic      Atomic             Coordinates (Angstroms)
 Number     Number       Type             X           Y           Z
 ---------------------------------------------------------------------
      1          9           0       -1.919808    0.608113    0.082465
      2         16           0       -0.975726   -0.787213   -0.005296
      3          6           0        0.658514    0.058802   -0.028227
      4          8           0        1.547308   -0.972635   -0.310604
      5          1           0        1.926200   -1.239720    0.535435
      6          8           0        0.903943    0.623468    1.222382
      7          1           0        1.473702    1.388404    1.063241
      8          8           0        0.753476    0.995626   -1.036408
      9          1           0       -0.098910    1.449230   -1.089727
 ---------------------------------------------------------------------

 SCF Done:  E(RHF) =  -761.335601256     A.U. after    2 cycles

 The electronic state is 1-A.
 Alpha  occ. eigenvalues --  -93.63060 -26.13935 -20.62621 -20.62441 -20.62427
 Alpha  occ. eigenvalues --  -11.47313  -8.92022  -6.26191  -6.25825  -6.25368
 Alpha  occ. eigenvalues --   -1.64757  -1.46199  -1.35710  -1.34758  -1.02086
 Alpha  occ. eigenvalues --   -0.89939  -0.82339  -0.77294  -0.75139  -0.74146
 Alpha  occ. eigenvalues --   -0.71134  -0.67534  -0.66788  -0.63673  -0.59069
 Alpha  occ. eigenvalues --   -0.55755  -0.55058  -0.47590  -0.40033
 Alpha virt. eigenvalues --    0.03105   0.04219   0.05826   0.06819   0.07822
 Alpha virt. eigenvalues --    0.10344   0.12488   0.13383   0.13505   0.14718
 Alpha virt. eigenvalues --    0.16692   0.18722   0.19917   0.20790   0.21952

 Mulliken charges:
               1
     1  F   -0.643165
     2  S    0.857792
     3  C    0.755825
     4  O   -0.467796
     5  H    0.147215
     6  O   -0.484738
     7  H    0.138040
     8  O   -0.531948
     9  H    0.228775
 Sum of Mulliken charges =   0.00000

 Dipole moment (field-independent basis, Debye):
    X=              1.6036    Y=              0.2154    Z=              0.9787  Tot=              1.8910

 Test job not archived.
 1\1\GINC-SE109\SP\RHF\Aug-CC-pVDZ\C1H3F1O3S1\OHZDE\09-Apr-2025\0\\#t h
 f aug-cc-pvdz iop(5/13=1,5/36=2,99/5=2) pseudo=read geom=check guess=(
 read,tcheck) scf=(maxcycle=1)\\title\\0,1\F,0,1.919808,-0.608114,0.082
 465\S,0,0.975726,0.787213,-0.005296\C,0,-0.658514,-0.058802,-0.028227\
 O,0,-1.547308,0.972635,-0.310604\H,0,-1.9262,1.23972,0.535435\O,0,-0.9
 03943,-0.623468,1.222382\H,0,-1.473702,-1.388404,1.063241\O,0,-0.75347
 6,-0.995626,-1.036408\H,0,0.09891,-1.44923,-1.089727\\Version=ES64L-G1
 6RevC.01\State=1-A\HF=-761.3356013\RMSD=4.032e-03\Dipole=-0.6309084,-0

 Normal termination of Gaussian 16 at Wed Apr  9 00:21:46 2025.
