 Gaussian 16, Revision C.01,

 ----------------------------------------------------------------------
 #t hf aug-cc-pvdz symm=none int=(grid=ultrafine) guess=(read,tcheck) s
 table=(opt,rrhf)
 ----------------------------------------------------------------------
 -----
 title
 -----
 Symbolic Z-matrix:
 Charge =  0 Multiplicity = 1

 SCF Done:  E(RHF) =  -1261.33866781     A.U. after   13 cycles
 Normal termination of Gaussian 16 at Wed Apr  9 00:13:30 2025.
 Gaussian 16:  ES64L-G16RevC.01  3-Jul-2019

 ----------------------------------------------------------------------
 #t hf aug-cc-pvdz iop(5/13=1,5/36=2,99/5=2) pseudo=read geom=check gue
 ss=(read,tcheck) scf=(maxcycle=1)
 ----------------------------------------------------------------------
 -----
 title
 -----
 Structure from the checkpoint file:  "BDE49_nonexpt_2449_mol1.chk"
 Charge =  0 Multiplicity = 1

                         Standard orientation:
 ---------------------------------------------------------------------
 Center     Atomic      Atomic             Coordinates (Angstroms)
 Number     Number       Type             X           Y           Z
 ---------------------------------------------------------------------
      1         14           0        2.737773    0.980256    0.126672
      2         14           0        1.731225   -1.043237   -0.551975
      3         15           0       -0.961921   -0.099299    0.346034
      4          8           0       -1.797828    0.033876   -0.992866
      5          8           0       -1.965134   -0.897466    1.305452
      6          1           0       -1.811258   -0.677824    2.231630
      7          8           0       -0.433118    1.137743    0.934911
      8          8           0        0.115015   -1.163087   -0.075169
      9          1           0        2.395543   -2.212957    0.062551
     10          1           0        1.763423   -1.199304   -2.023754
     11          1           0        2.155950    2.147669   -0.567436
     12          1           0        4.164305    0.857984   -0.278611
     13          6           0       -2.892399    0.971790   -1.059820
     14          1           0       -3.199413    1.005124   -2.102923
     15          1           0       -2.565490    1.959945   -0.731525
     16          1           0       -3.720784    0.622784   -0.439989
     17          1           0        2.683486    1.148538    1.594079
 ---------------------------------------------------------------------

 SCF Done:  E(RHF) =  -1261.57676905     A.U. after    2 cycles

 The electronic state is 1-A.
 Alpha  occ. eigenvalues --  -81.44883 -69.10820 -69.05940 -20.61925 -20.60958
 Alpha  occ. eigenvalues --  -20.60034 -20.53088 -11.31147  -7.92764  -6.85602
 Alpha  occ. eigenvalues --   -6.81317  -5.07483  -5.07395  -5.07372  -3.96512
 Alpha  occ. eigenvalues --   -3.96320  -3.96288  -3.92079  -3.92070  -3.92065
 Alpha  occ. eigenvalues --   -1.39490  -1.35189  -1.33727  -1.26481  -0.97185
 Alpha  occ. eigenvalues --   -0.84891  -0.77846  -0.73670  -0.71649  -0.68941
 Alpha  occ. eigenvalues --   -0.66403  -0.65770  -0.64620  -0.61849  -0.60070
 Alpha  occ. eigenvalues --   -0.58151  -0.57031  -0.53928  -0.51678  -0.49872
 Alpha  occ. eigenvalues --   -0.49252  -0.48937  -0.47253  -0.46846  -0.40050
 Alpha virt. eigenvalues --    0.03219   0.04417   0.04551   0.04703   0.05940
 Alpha virt. eigenvalues --    0.06585   0.06917   0.07289   0.07747   0.08157
 Alpha virt. eigenvalues --    0.09201   0.09903   0.10199   0.10529   0.10828

 Mulliken charges:
               1
     1  Si  -0.312377
     2  Si   0.453288
     3  P    2.560426
     4  O   -0.833280
     5  O   -0.687748
     6  H    0.178221
     7  O   -0.866319
     8  O   -1.172288
     9  H    0.062572
    10  H    0.096279
    11  H    0.095729
    12  H    0.012244
    13  C    0.707419
    14  H   -0.231658
    15  H   -0.078185
    16  H   -0.089819
    17  H    0.105495
 Sum of Mulliken charges =  -0.00000

 Dipole moment (field-independent basis, Debye):
    X=             -1.3350    Y=             -0.3382    Z=             -0.1237  Tot=              1.3827

 Test job not archived.
 1\1\GINC-SE162\SP\RHF\Aug-CC-pVDZ\C1H9O4P1Si2\OHZDE\09-Apr-2025\0\\#t
 hf aug-cc-pvdz iop(5/13=1,5/36=2,99/5=2) pseudo=read geom=check guess=
 (read,tcheck) scf=(maxcycle=1)\\title\\0,1\Si,0,2.737773,0.980256,0.12
 6672\Si,0,1.731225,-1.043237,-0.551975\P,0,-0.961921,-0.099299,0.34603
 4\O,0,-1.797828,0.033876,-0.992866\O,0,-1.965134,-0.897466,1.305452\H,
 0,-1.811258,-0.677824,2.23163\O,0,-0.433118,1.137743,0.934911\O,0,0.11
 5015,-1.163087,-0.075169\H,0,2.395543,-2.212957,0.062551\H,0,1.763423,
 -1.199304,-2.023754\H,0,2.15595,2.147669,-0.567436\H,0,4.164305,0.8579

 Normal termination of Gaussian 16 at Wed Apr  9 00:13:38 2025.
