 Gaussian 16, Revision C.01,

 ----------------------------------------------------------------------
 #t hf aug-cc-pvdz symm=none int=(grid=ultrafine) guess=(read,tcheck) s
 table=(opt,rrhf)
 ----------------------------------------------------------------------
 -----
 title
 -----
 Symbolic Z-matrix:
 Charge =  0 Multiplicity = 1

 SCF Done:  E(RHF) =  -916.790404436     A.U. after   14 cycles
 Normal termination of Gaussian 16 at Wed Apr  9 00:11:47 2025.
 Gaussian 16:  ES64L-G16RevC.01  3-Jul-2019

 ----------------------------------------------------------------------
 #t hf aug-cc-pvdz iop(5/13=1,5/36=2,99/5=2) pseudo=read geom=check gue
 ss=(read,tcheck) scf=(maxcycle=1)
 ----------------------------------------------------------------------
 -----
 title
 -----
 Structure from the checkpoint file:  "BDE49_nonexpt_2411_mol1.chk"
 Charge =  0 Multiplicity = 1

                         Standard orientation:
 ---------------------------------------------------------------------
 Center     Atomic      Atomic             Coordinates (Angstroms)
 Number     Number       Type             X           Y           Z
 ---------------------------------------------------------------------
      1         14           0        0.538380    1.564878   -0.396078
      2         14           0       -1.042106    0.660375    1.101425
      3          6           0       -1.546312   -1.109023    0.654456
      4          1           0       -2.240543    1.530642    1.146268
      5          1           0       -0.454162    0.604765    2.460650
      6          7           0       -2.162955   -1.466098   -0.403062
      7          8           0       -2.432292   -0.358485   -1.228357
      8          1           0       -2.883827   -0.750304   -1.983377
      9          1           0       -1.307969   -1.943640    1.310874
     10          6           0        2.005104    0.393383   -0.530483
     11          1           0        1.038429    2.870620    0.108730
     12          1           0       -0.010894    1.801252   -1.751776
     13          7           0        1.983918   -0.663630    0.184185
     14          1           0        2.865195    0.580283   -1.182413
     15          8           0        3.129113   -1.447509    0.005240
     16          1           0        2.971871   -2.197281    0.589417
 ---------------------------------------------------------------------

 SCF Done:  E(RHF) =  -916.933558079     A.U. after    2 cycles

 The electronic state is 1-A.
 Alpha  occ. eigenvalues --  -69.07153 -69.07138 -20.62095 -20.61951 -15.71090
 Alpha  occ. eigenvalues --  -15.70525 -11.27847 -11.27507  -6.82522  -6.82469
 Alpha  occ. eigenvalues --   -3.93314  -3.93276  -3.93261  -3.93251  -3.93221
 Alpha  occ. eigenvalues --   -3.93170  -1.38920  -1.38614  -1.14131  -1.13695
 Alpha  occ. eigenvalues --   -0.82521  -0.81747  -0.75299  -0.73630  -0.69727
 Alpha  occ. eigenvalues --   -0.67255  -0.65134  -0.62009  -0.61364  -0.61049
 Alpha  occ. eigenvalues --   -0.54942  -0.52063  -0.49730  -0.47835  -0.44156
 Alpha  occ. eigenvalues --   -0.43599  -0.41996  -0.40890  -0.38756
 Alpha virt. eigenvalues --    0.03362   0.03652   0.04358   0.04812   0.06006
 Alpha virt. eigenvalues --    0.06203   0.06896   0.07207   0.08417   0.08866
 Alpha virt. eigenvalues --    0.09162   0.09572   0.09848   0.11148   0.11573

 Mulliken charges:
               1
     1  Si   0.370018
     2  Si   0.047257
     3  C    0.477625
     4  H    0.102211
     5  H    0.088420
     6  N   -0.171618
     7  O   -0.405793
     8  H    0.186948
     9  H   -0.334950
    10  C    0.110858
    11  H    0.001343
    12  H    0.062217
    13  N    0.137765
    14  H   -0.344444
    15  O   -0.513463
    16  H    0.185604
 Sum of Mulliken charges =  -0.00000

 Dipole moment (field-independent basis, Debye):
    X=              0.0134    Y=             -0.0736    Z=              0.0696  Tot=              0.1022

 Test job not archived.
 1\1\GINC-SE099\SP\RHF\Aug-CC-pVDZ\C2H8N2O2Si2\OHZDE\09-Apr-2025\0\\#t
 hf aug-cc-pvdz iop(5/13=1,5/36=2,99/5=2) pseudo=read geom=check guess=
 (read,tcheck) scf=(maxcycle=1)\\title\\0,1\Si,0,0.53838,1.564878,-0.39
 6078\Si,0,-1.042106,0.660375,1.101425\C,0,-1.546312,-1.109023,0.654456
 \H,0,-2.240543,1.530642,1.146268\H,0,-0.454162,0.604765,2.46065\N,0,-2
 .162955,-1.466098,-0.403062\O,0,-2.432292,-0.358485,-1.228357\H,0,-2.8
 83827,-0.750304,-1.983377\H,0,-1.307969,-1.94364,1.310874\C,0,2.005104
 ,0.393383,-0.530483\H,0,1.038429,2.87062,0.10873\H,0,-0.010894,1.80125

 Normal termination of Gaussian 16 at Wed Apr  9 00:11:54 2025.
