 Gaussian 16, Revision C.01,

 ----------------------------------------------------------------------
 #t hf aug-cc-pvdz symm=none int=(grid=ultrafine) guess=(read,tcheck) s
 table=(opt,rrhf)
 ----------------------------------------------------------------------
 -----
 title
 -----
 Symbolic Z-matrix:
 Charge =  0 Multiplicity = 1

 SCF Done:  E(RHF) =  -734.688572480     A.U. after   13 cycles
 Normal termination of Gaussian 16 at Tue Apr  8 22:40:25 2025.
 Gaussian 16:  ES64L-G16RevC.01  3-Jul-2019

 ----------------------------------------------------------------------
 #t hf aug-cc-pvdz iop(5/13=1,5/36=2,99/5=2) pseudo=read geom=check gue
 ss=(read,tcheck) scf=(maxcycle=1)
 ----------------------------------------------------------------------
 -----
 title
 -----
 Structure from the checkpoint file:  "BDE49_expt_139_mol1.chk"
 Charge =  0 Multiplicity = 1

                         Standard orientation:
 ---------------------------------------------------------------------
 Center     Atomic      Atomic             Coordinates (Angstroms)
 Number     Number       Type             X           Y           Z
 ---------------------------------------------------------------------
      1          6           0       -0.257978   -0.732204    0.000004
      2          6           0        0.871633   -0.043204    0.000006
      3          9           0        2.063984   -0.615021   -0.000004
      4         17           0       -1.810518    0.034298   -0.000001
      5          1           0       -0.248761   -1.809940   -0.000001
      6          9           0        0.974420    1.268279   -0.000001
 ---------------------------------------------------------------------

 SCF Done:  E(RHF) =  -734.807733360     A.U. after    2 cycles

 The electronic state is 1-A.
 Alpha  occ. eigenvalues -- -103.68919 -26.19087 -26.19061 -11.46425 -11.32757
 Alpha  occ. eigenvalues --  -10.72156  -8.37901  -8.37568  -8.37554  -1.76148
 Alpha  occ. eigenvalues --   -1.71464  -1.20987  -1.07575  -0.94017  -0.87698
 Alpha  occ. eigenvalues --   -0.83514  -0.80565  -0.77148  -0.75084  -0.69772
 Alpha  occ. eigenvalues --   -0.61442  -0.54052  -0.48839  -0.39823
 Alpha virt. eigenvalues --    0.03570   0.07302   0.07409   0.10307   0.11266
 Alpha virt. eigenvalues --    0.11414   0.13404   0.13850   0.15290   0.16021
 Alpha virt. eigenvalues --    0.17494   0.18108   0.19909   0.21460   0.25601

 Mulliken charges:
               1
     1  C   -0.052666
     2  C    1.020296
     3  F   -0.275382
     4  Cl  -0.231047
     5  H   -0.245911
     6  F   -0.215289
 Sum of Mulliken charges =  -0.00000

 Dipole moment (field-independent basis, Debye):
    X=             -0.1892    Y=             -1.4161    Z=              0.0000  Tot=              1.4287

 Test job not archived.
 1\1\GINC-SE329\SP\RHF\Aug-CC-pVDZ\C2H1Cl1F2\OHZDE\08-Apr-2025\0\\#t hf
  aug-cc-pvdz iop(5/13=1,5/36=2,99/5=2) pseudo=read geom=check guess=(r
 ead,tcheck) scf=(maxcycle=1)\\title\\0,1\C,0,0.257978,-0.732204,-0.000
 004\C,0,-0.871633,-0.043204,-0.000006\F,0,-2.063984,-0.615021,0.000004
 \Cl,0,1.810518,0.034298,0.000001\H,0,0.248761,-1.80994,0.000001\F,0,-0
 .97442,1.268279,0.000001\\Version=ES64L-G16RevC.01\State=1-A\HF=-734.8
 077334\RMSD=7.814e-03\Dipole=0.0744533,-0.5571259,-0.0000031\Quadrupol
 e=-1.6694473,1.377499,0.2919483,-0.1269726,0.0000214,-0.0000081\PG=C01

 Normal termination of Gaussian 16 at Tue Apr  8 22:40:27 2025.
