 Gaussian 16, Revision C.01,

 ----------------------------------------------------------------------
 #t hf aug-cc-pvdz symm=none int=(grid=ultrafine) guess=(read,tcheck) s
 table=(opt,rrhf)
 ----------------------------------------------------------------------
 -----
 title
 -----
 Symbolic Z-matrix:
 Charge =  0 Multiplicity = 1

 SCF Done:  E(RHF) =  -919.312489568     A.U. after   17 cycles
 Normal termination of Gaussian 16 at Tue Apr  8 23:09:25 2025.
 Gaussian 16:  ES64L-G16RevC.01  3-Jul-2019

 ----------------------------------------------------------------------
 #t hf aug-cc-pvdz iop(5/13=1,5/36=2,99/5=2) pseudo=read geom=check gue
 ss=(read,tcheck) scf=(maxcycle=1)
 ----------------------------------------------------------------------
 -----
 title
 -----
 Structure from the checkpoint file:  "BDE49_expt_329_mol1.chk"
 Charge =  0 Multiplicity = 1

                         Standard orientation:
 ---------------------------------------------------------------------
 Center     Atomic      Atomic             Coordinates (Angstroms)
 Number     Number       Type             X           Y           Z
 ---------------------------------------------------------------------
      1          6           0        0.453689    0.944879    0.238607
      2          6           0       -0.873871    1.296127    0.038373
      3          6           0       -1.891975    0.358656   -0.062406
      4          6           0       -1.526627   -0.973054    0.044853
      5          6           0       -0.208995   -1.372227    0.239192
      6          6           0        0.793772   -0.407887    0.343109
      7          1           0        1.201605    1.723010    0.291501
      8          1           0        0.011380   -2.429200    0.307171
      9          6           0        2.224766   -0.846571    0.575013
     10          6           0        2.889406   -0.228530    1.801827
     11          1           0        2.924386    0.857788    1.724452
     12          1           0        3.909391   -0.601800    1.912772
     13          1           0        2.321600   -0.502298    2.693117
     14          7           0        3.058592   -0.496950   -0.673397
     15          1           0        2.271136   -1.932740    0.607808
     16          8           0        3.307157    0.682281   -0.864635
     17          8           0        3.406735   -1.426024   -1.377801
     18          7           0       -1.224525    2.737388   -0.067633
     19          8           0       -0.316962    3.543783    0.060529
     20          8           0       -2.395879    3.012290   -0.272158
     21          1           0       -2.919057    0.653542   -0.217182
     22          7           0       -2.582249   -2.013380   -0.053785
     23          8           0       -3.726032   -1.632924   -0.241919
     24          8           0       -2.230538   -3.177666    0.062566
 ---------------------------------------------------------------------

 SCF Done:  E(RHF) =  -919.584768307     A.U. after    2 cycles

 The electronic state is 1-A.
 Alpha  occ. eigenvalues --  -20.64794 -20.64705 -20.64580 -20.64578 -20.64556
 Alpha  occ. eigenvalues --  -20.64140 -15.95137 -15.94942 -15.93469 -11.36335
 Alpha  occ. eigenvalues --  -11.36178 -11.36141 -11.33552 -11.33418 -11.33154
 Alpha  occ. eigenvalues --  -11.32908 -11.28713  -1.58131  -1.57954  -1.57395
 Alpha  occ. eigenvalues --   -1.39791  -1.39622  -1.39298  -1.24868  -1.16873
 Alpha  occ. eigenvalues --   -1.14262  -1.08486  -1.00066  -0.99483  -0.98148
 Alpha  occ. eigenvalues --   -0.91013  -0.86102  -0.85027  -0.82775  -0.79000
 Alpha  occ. eigenvalues --   -0.78182  -0.76698  -0.76375  -0.75923  -0.75714
 Alpha  occ. eigenvalues --   -0.75458  -0.75297  -0.74816  -0.71734  -0.67470
 Alpha  occ. eigenvalues --   -0.62896  -0.61789  -0.61583  -0.59671  -0.57947
 Alpha  occ. eigenvalues --   -0.57280  -0.54850  -0.54563  -0.54224  -0.53712
 Alpha  occ. eigenvalues --   -0.53367  -0.51873  -0.50262  -0.50050  -0.49768
 Alpha  occ. eigenvalues --   -0.42833  -0.41677
 Alpha virt. eigenvalues --   -0.00540   0.01122   0.01935   0.03584   0.03654
 Alpha virt. eigenvalues --    0.04654   0.05247   0.05528   0.06772   0.07554
 Alpha virt. eigenvalues --    0.08751   0.08957   0.09456   0.10311   0.11127

 Mulliken charges:
               1
     1  C    0.342683
     2  C    1.033620
     3  C    0.422797
     4  C    0.935907
     5  C    0.820940
     6  C    1.072538
     7  H   -0.662012
     8  H   -0.640715
     9  C   -0.273596
    10  C    0.590807
    11  H    0.055634
    12  H   -0.031756
    13  H   -0.023430
    14  N    0.352284
    15  H   -0.319481
    16  O   -0.579810
    17  O   -0.574161
    18  N    0.037521
    19  O   -0.534535
    20  O   -0.540128
    21  H   -0.437463
    22  N    0.032642
    23  O   -0.537709
    24  O   -0.542574
 Sum of Mulliken charges =   0.00000

 Dipole moment (field-independent basis, Debye):
    X=              2.4681    Y=             -1.8346    Z=              4.2447  Tot=              5.2416

 Test job not archived.
 1\1\GINC-SE045\SP\RHF\Aug-CC-pVDZ\C8H7N3O6\OHZDE\08-Apr-2025\0\\#t hf
 aug-cc-pvdz iop(5/13=1,5/36=2,99/5=2) pseudo=read geom=check guess=(re
 ad,tcheck) scf=(maxcycle=1)\\title\\0,1\C,0,0.453689,0.944879,0.238607
 \C,0,-0.873871,1.296127,0.038373\C,0,-1.891975,0.358656,-0.062406\C,0,
 -1.526627,-0.973054,0.044853\C,0,-0.208995,-1.372227,0.239192\C,0,0.79
 3772,-0.407887,0.343109\H,0,1.201605,1.72301,0.291501\H,0,0.01138,-2.4
 292,0.307171\C,0,2.224766,-0.846571,0.575013\C,0,2.889406,-0.22853,1.8
 01827\H,0,2.924386,0.857788,1.724452\H,0,3.909391,-0.601799,1.912772\H

 Normal termination of Gaussian 16 at Tue Apr  8 23:09:55 2025.
