 Gaussian 16, Revision C.01,

 ----------------------------------------------------------------------
 #t hf aug-cc-pvdz symm=none int=(grid=ultrafine) guess=(read,tcheck) s
 table=(opt,rrhf)
 ----------------------------------------------------------------------
 -----
 title
 -----
 Symbolic Z-matrix:
 Charge =  0 Multiplicity = 1

 SCF Done:  E(RHF) =  -1082.26837984     A.U. after   12 cycles
 Normal termination of Gaussian 16 at Tue Apr  8 23:44:13 2025.
 Gaussian 16:  ES64L-G16RevC.01  3-Jul-2019

 ----------------------------------------------------------------------
 #t hf aug-cc-pvdz iop(5/13=1,5/36=2,99/5=2) pseudo=read geom=check gue
 ss=(read,tcheck) scf=(maxcycle=1)
 ----------------------------------------------------------------------
 -----
 title
 -----
 Structure from the checkpoint file:  "BDE49_nonexpt_174_mol1.chk"
 Charge =  0 Multiplicity = 1

                         Standard orientation:
 ---------------------------------------------------------------------
 Center     Atomic      Atomic             Coordinates (Angstroms)
 Number     Number       Type             X           Y           Z
 ---------------------------------------------------------------------
      1         17           0       -0.311889    1.609764   -0.000025
      2         17           0        1.856535   -0.523052   -0.000073
      3          5           0        0.151300   -0.073881    0.000210
      4          6           0       -0.909718   -1.231024    0.000069
      5          9           0       -2.226230   -0.775356    0.000014
      6          1           0       -0.760612   -1.870229    0.880311
      7          1           0       -0.760502   -1.870123   -0.880232
 ---------------------------------------------------------------------

 SCF Done:  E(RHF) =  -1082.35887427     A.U. after    2 cycles

 The electronic state is 1-A.
 Alpha  occ. eigenvalues -- -103.68397-103.68027 -26.11763 -11.33005 -10.71879
 Alpha  occ. eigenvalues --  -10.71523  -8.37570  -8.37346  -8.37317  -8.37217
 Alpha  occ. eigenvalues --   -8.36993  -8.36949  -7.74491  -1.64772  -1.19586
 Alpha  occ. eigenvalues --   -1.15909  -0.99044  -0.76346  -0.75483  -0.74321
 Alpha  occ. eigenvalues --   -0.67812  -0.59343  -0.58069  -0.57090  -0.52699
 Alpha  occ. eigenvalues --   -0.49242  -0.48457  -0.47917
 Alpha virt. eigenvalues --    0.03357   0.04729   0.05358   0.05704   0.06753
 Alpha virt. eigenvalues --    0.08238   0.08446   0.11816   0.12752   0.14300
 Alpha virt. eigenvalues --    0.14966   0.15126   0.17123   0.17484   0.18544

 Mulliken charges:
               1
     1  Cl  -0.268613
     2  Cl  -0.310393
     3  B    0.619600
     4  C    0.619355
     5  F   -0.450990
     6  H   -0.104459
     7  H   -0.104499
 Sum of Mulliken charges =  -0.00000

 Dipole moment (field-independent basis, Debye):
    X=              1.1266    Y=             -1.5024    Z=              0.0005  Tot=              1.8779

 Test job not archived.
 1\1\GINC-SE184\SP\RHF\Aug-CC-pVDZ\C1H2B1Cl2F1\OHZDE\08-Apr-2025\0\\#t
 hf aug-cc-pvdz iop(5/13=1,5/36=2,99/5=2) pseudo=read geom=check guess=
 (read,tcheck) scf=(maxcycle=1)\\title\\0,1\Cl,0,0.311888,1.609764,0.00
 0025\Cl,0,-1.856535,-0.523053,0.000073\B,0,-0.1513,-0.073881,-0.00021\
 C,0,0.909718,-1.231024,-0.000069\F,0,2.22623,-0.775355,-0.000014\H,0,0
 .760612,-1.870229,-0.880311\H,0,0.760502,-1.870123,0.880232\\Version=E
 S64L-G16RevC.01\State=1-A\HF=-1082.3588743\RMSD=3.485e-03\Dipole=-0.44
 32563,-0.59108,-0.0002087\Quadrupole=-4.7256962,2.341254,2.3844422,0.1

 Normal termination of Gaussian 16 at Tue Apr  8 23:44:15 2025.
