 Gaussian 16, Revision C.01,

 ----------------------------------------------------------------------
 #t hf aug-cc-pvdz symm=none int=(grid=ultrafine) guess=(read,tcheck) s
 table=(opt,rrhf)
 ----------------------------------------------------------------------
 -----
 title
 -----
 Symbolic Z-matrix:
 Charge =  0 Multiplicity = 1

 SCF Done:  E(RHF) =  -217.142275337     A.U. after   12 cycles
 Normal termination of Gaussian 16 at Tue Apr  8 22:43:29 2025.
 Gaussian 16:  ES64L-G16RevC.01  3-Jul-2019

 ----------------------------------------------------------------------
 #t hf aug-cc-pvdz iop(5/13=1,5/36=2,99/5=2) pseudo=read geom=check gue
 ss=(read,tcheck) scf=(maxcycle=1)
 ----------------------------------------------------------------------
 -----
 title
 -----
 Structure from the checkpoint file:  "BDE49_expt_1521_mol1.chk"
 Charge =  0 Multiplicity = 1

                         Standard orientation:
 ---------------------------------------------------------------------
 Center     Atomic      Atomic             Coordinates (Angstroms)
 Number     Number       Type             X           Y           Z
 ---------------------------------------------------------------------
      1          6           0       -0.800120    0.518748    0.296017
      2          6           0        0.595559    0.658891   -0.281410
      3          9           0       -1.394579   -0.662746   -0.169901
      4          6           0        1.530376   -0.485081    0.118576
      5          1           0        1.117643   -1.444658   -0.198968
      6          1           0        1.668540   -0.521823    1.203720
      7          1           0        2.514901   -0.369272   -0.340774
      8          1           0       -1.445003    1.349022   -0.006011
      9          1           0       -0.777221    0.459918    1.389362
     10          1           0        1.001893    1.620508    0.054818
     11          1           0        0.515568    0.715676   -1.372136
 ---------------------------------------------------------------------

 SCF Done:  E(RHF) =  -217.217173266     A.U. after    2 cycles

 The electronic state is 1-A.
 Alpha  occ. eigenvalues --  -26.09505 -11.31771 -11.24181 -11.22818  -1.62485
 Alpha  occ. eigenvalues --   -1.06195  -0.94279  -0.82958  -0.73569  -0.73319
 Alpha  occ. eigenvalues --   -0.68822  -0.61158  -0.58796  -0.55430  -0.50181
 Alpha  occ. eigenvalues --   -0.49343  -0.48915
 Alpha virt. eigenvalues --    0.03469   0.04576   0.04778   0.05492   0.07193
 Alpha virt. eigenvalues --    0.07403   0.07974   0.11202   0.12204   0.14244
 Alpha virt. eigenvalues --    0.14867   0.15592   0.16620   0.17089   0.17741

 Mulliken charges:
               1
     1  C    0.729681
     2  C   -0.072270
     3  F   -0.443995
     4  C    0.328123
     5  H   -0.028616
     6  H   -0.077134
     7  H   -0.074263
     8  H   -0.122025
     9  H   -0.131175
    10  H   -0.028113
    11  H   -0.080213
 Sum of Mulliken charges =  -0.00000

 Dipole moment (field-independent basis, Debye):
    X=              1.2289    Y=              1.8899    Z=              0.6200  Tot=              2.3380

 Test job not archived.
 1\1\GINC-SE393\SP\RHF\Aug-CC-pVDZ\C3H7F1\OHZDE\08-Apr-2025\0\\#t hf au
 g-cc-pvdz iop(5/13=1,5/36=2,99/5=2) pseudo=read geom=check guess=(read
 ,tcheck) scf=(maxcycle=1)\\title\\0,1\C,0,-0.80012,0.518748,0.296017\C
 ,0,0.595559,0.658891,-0.28141\F,0,-1.394579,-0.662747,-0.169901\C,0,1.
 530376,-0.485081,0.118576\H,0,1.117643,-1.444658,-0.198968\H,0,1.66854
 ,-0.521823,1.20372\H,0,2.514901,-0.369271,-0.340774\H,0,-1.445003,1.34
 9021,-0.006011\H,0,-0.777221,0.459918,1.389362\H,0,1.001893,1.620508,0
 .054818\H,0,0.515568,0.715676,-1.372136\\Version=ES64L-G16RevC.01\Stat

 Normal termination of Gaussian 16 at Tue Apr  8 22:43:32 2025.
