 Gaussian 16, Revision C.01,

 ----------------------------------------------------------------------
 #t hf aug-cc-pvdz symm=none int=(grid=ultrafine) guess=(read,tcheck) s
 table=(opt,rrhf)
 ----------------------------------------------------------------------
 -----
 title
 -----
 Symbolic Z-matrix:
 Charge =  0 Multiplicity = 1

 SCF Done:  E(RHF) =  -1326.60527755     A.U. after   18 cycles
 Normal termination of Gaussian 16 at Wed Apr  9 00:18:19 2025.
 Gaussian 16:  ES64L-G16RevC.01  3-Jul-2019

 ----------------------------------------------------------------------
 #t hf aug-cc-pvdz iop(5/13=1,5/36=2,99/5=2) pseudo=read geom=check gue
 ss=(read,tcheck) scf=(maxcycle=1)
 ----------------------------------------------------------------------
 -----
 title
 -----
 Structure from the checkpoint file:  "BDE49_nonexpt_250_mol1.chk"
 Charge =  0 Multiplicity = 1

                         Standard orientation:
 ---------------------------------------------------------------------
 Center     Atomic      Atomic             Coordinates (Angstroms)
 Number     Number       Type             X           Y           Z
 ---------------------------------------------------------------------
      1         17           0        2.100427   -1.784686    0.737386
      2         17           0        3.266909    0.598868   -0.648964
      3          6           0        0.449585    0.529615    0.000838
      4          5           0        1.818229   -0.193464    0.007841
      5          6           0       -0.844382   -0.109049   -0.075685
      6          6           0       -1.025311   -1.490108   -0.350535
      7          1           0       -0.162799   -2.120408   -0.508964
      8          6           0       -2.280030   -2.047703   -0.432117
      9          1           0       -2.381946   -3.105826   -0.645218
     10          6           0       -3.434807   -1.258821   -0.247575
     11          1           0       -4.416984   -1.712850   -0.311179
     12          6           0       -3.304706    0.084584   -0.001265
     13          1           0       -4.182562    0.709297    0.125809
     14          6           0       -2.024550    0.691192    0.080552
     15          6           0       -1.901561    2.086734    0.299003
     16          1           0       -2.805133    2.674292    0.425369
     17          6           0       -0.669506    2.688171    0.334857
     18          1           0       -0.581809    3.757149    0.489871
     19          6           0        0.492354    1.911119    0.171308
     20          1           0        1.452854    2.410169    0.205629
 ---------------------------------------------------------------------

 SCF Done:  E(RHF) =  -1326.75391759     A.U. after    2 cycles

 The electronic state is 1-A.
 Alpha  occ. eigenvalues -- -103.66504-103.66339 -11.27388 -11.27120 -11.26972
 Alpha  occ. eigenvalues --  -11.26490 -11.25765 -11.25685 -11.25627 -11.25410
 Alpha  occ. eigenvalues --  -11.25152 -11.25092 -10.69985 -10.69806  -8.35675
 Alpha  occ. eigenvalues --   -8.35500  -8.35465  -8.35430  -8.35288  -8.35256
 Alpha  occ. eigenvalues --   -7.73029  -1.18468  -1.17145  -1.13921  -1.11507
 Alpha  occ. eigenvalues --   -1.05585  -1.01733  -0.99194  -0.87085  -0.85233
 Alpha  occ. eigenvalues --   -0.83065  -0.72963  -0.72211  -0.69704  -0.67719
 Alpha  occ. eigenvalues --   -0.63547  -0.62922  -0.60442  -0.59402  -0.58293
 Alpha  occ. eigenvalues --   -0.57268  -0.54688  -0.54081  -0.52348  -0.50958
 Alpha  occ. eigenvalues --   -0.50410  -0.47482  -0.46961  -0.46042  -0.45754
 Alpha  occ. eigenvalues --   -0.39998  -0.33540  -0.30739
 Alpha virt. eigenvalues --    0.02953   0.03468   0.03658   0.04088   0.05206
 Alpha virt. eigenvalues --    0.05325   0.05822   0.06855   0.07147   0.07623
 Alpha virt. eigenvalues --    0.08799   0.08835   0.09431   0.10154   0.10766

 Mulliken charges:
               1
     1  Cl  -0.351994
     2  Cl  -0.385649
     3  C    0.278242
     4  B    0.530559
     5  C    0.034865
     6  C    0.608017
     7  H   -0.729209
     8  C    0.273107
     9  H   -0.473943
    10  C    0.320725
    11  H   -0.444209
    12  C    1.031986
    13  H   -0.585913
    14  C   -0.004098
    15  C    0.749114
    16  H   -0.600163
    17  C    0.132080
    18  H   -0.460792
    19  C    0.749570
    20  H   -0.672294
 Sum of Mulliken charges =  -0.00000

 Dipole moment (field-independent basis, Debye):
    X=             -2.7345    Y=              1.1431    Z=              0.0256  Tot=              2.9639

 Test job not archived.
 1\1\GINC-SE177\SP\RHF\Aug-CC-pVDZ\C10H7B1Cl2\OHZDE\09-Apr-2025\0\\#t h
 f aug-cc-pvdz iop(5/13=1,5/36=2,99/5=2) pseudo=read geom=check guess=(
 read,tcheck) scf=(maxcycle=1)\\title\\0,1\Cl,0,2.100427,-1.784686,0.73
 7386\Cl,0,3.266909,0.598868,-0.648964\C,0,0.449585,0.529615,0.000838\B
 ,0,1.818229,-0.193464,0.007841\C,0,-0.844382,-0.109049,-0.075685\C,0,-
 1.025311,-1.490108,-0.350535\H,0,-0.162799,-2.120408,-0.508964\C,0,-2.
 28003,-2.047703,-0.432117\H,0,-2.381946,-3.105826,-0.645218\C,0,-3.434
 807,-1.258821,-0.247575\H,0,-4.416984,-1.71285,-0.311179\C,0,-3.304706

 Normal termination of Gaussian 16 at Wed Apr  9 00:18:37 2025.
