 Gaussian 16, Revision C.01,

 ----------------------------------------------------------------------
 #t hf aug-cc-pvdz symm=none int=(grid=ultrafine) guess=(read,tcheck) s
 table=(opt,rrhf)
 ----------------------------------------------------------------------
 -----
 title
 -----
 Symbolic Z-matrix:
 Charge =  0 Multiplicity = 1

 SCF Done:  E(RHF) =  -574.053416317     A.U. after   13 cycles
 Normal termination of Gaussian 16 at Tue Apr  8 22:53:41 2025.
 Gaussian 16:  ES64L-G16RevC.01  3-Jul-2019

 ----------------------------------------------------------------------
 #t hf aug-cc-pvdz iop(5/13=1,5/36=2,99/5=2) pseudo=read geom=check gue
 ss=(read,tcheck) scf=(maxcycle=1)
 ----------------------------------------------------------------------
 -----
 title
 -----
 Structure from the checkpoint file:  "BDE49_expt_1871_mol1.chk"
 Charge =  0 Multiplicity = 1

                         Standard orientation:
 ---------------------------------------------------------------------
 Center     Atomic      Atomic             Coordinates (Angstroms)
 Number     Number       Type             X           Y           Z
 ---------------------------------------------------------------------
      1          8           0       -0.621919    0.354875   -0.835434
      2          8           0        0.621913   -0.355243   -0.835262
      3          6           0        1.465808    0.203322    0.086099
      4          6           0       -1.465853   -0.203382    0.086073
      5          9           0       -2.598625    0.462498   -0.071040
      6          8           0       -1.261360   -1.069533    0.850850
      7          8           0        1.261372    1.069914    0.850391
      8          9           0        2.598650   -0.462470   -0.070892
 ---------------------------------------------------------------------

 SCF Done:  E(RHF) =  -574.251434837     A.U. after    2 cycles

 The electronic state is 1-A.
 Alpha  occ. eigenvalues --  -26.21814 -26.21813 -20.76266 -20.76235 -20.64229
 Alpha  occ. eigenvalues --  -20.64228 -11.54152 -11.54152  -1.77227  -1.77162
 Alpha  occ. eigenvalues --   -1.57280  -1.46415  -1.44575  -1.34313  -1.01245
 Alpha  occ. eigenvalues --   -0.95141  -0.89983  -0.86898  -0.84698  -0.83379
 Alpha  occ. eigenvalues --   -0.82289  -0.81827  -0.74341  -0.74340  -0.72232
 Alpha  occ. eigenvalues --   -0.67018  -0.66322  -0.59501  -0.58770  -0.57992
 Alpha  occ. eigenvalues --   -0.57428
 Alpha virt. eigenvalues --    0.06278   0.06959   0.08164   0.08415   0.10260
 Alpha virt. eigenvalues --    0.10568   0.10988   0.12612   0.13815   0.14277
 Alpha virt. eigenvalues --    0.16287   0.18062   0.20100   0.22777   0.22989

 Mulliken charges:
               1
     1  O   -0.289808
     2  O   -0.289839
     3  C    0.771512
     4  C    0.771505
     5  F   -0.230210
     6  O   -0.251478
     7  O   -0.251479
     8  F   -0.230202
 Sum of Mulliken charges =  -0.00000

 Dipole moment (field-independent basis, Debye):
    X=             -0.0003    Y=             -0.0008    Z=             -1.5871  Tot=              1.5871

 Test job not archived.
 1\1\GINC-SE403\SP\RHF\Aug-CC-pVDZ\C2F2O4\OHZDE\08-Apr-2025\0\\#t hf au
 g-cc-pvdz iop(5/13=1,5/36=2,99/5=2) pseudo=read geom=check guess=(read
 ,tcheck) scf=(maxcycle=1)\\title\\0,1\O,0,-0.621919,-0.354875,0.835434
 \O,0,0.621913,0.355243,0.835262\C,0,1.465808,-0.203322,-0.086099\C,0,-
 1.465853,0.203382,-0.086073\F,0,-2.598625,-0.462498,0.07104\O,0,-1.261
 36,1.069533,-0.85085\O,0,1.261372,-1.069914,-0.850391\F,0,2.59865,0.46
 247,0.070892\\Version=ES64L-G16RevC.01\State=1-A\HF=-574.2514348\RMSD=
 4.057e-03\Dipole=-0.0001028,0.0003104,0.6244189\Quadrupole=0.3873998,-

 Normal termination of Gaussian 16 at Tue Apr  8 22:53:44 2025.
