 Gaussian 16, Revision C.01,

 ----------------------------------------------------------------------
 #t hf aug-cc-pvdz symm=none int=(grid=ultrafine) guess=(read,tcheck) s
 table=opt
 ----------------------------------------------------------------------
 -----
 title
 -----
 Symbolic Z-matrix:
 Charge =  0 Multiplicity = 2

 SCF Done:  E(UHF) =  -464.463290641     A.U. after   16 cycles
 Normal termination of Gaussian 16 at Tue Apr  8 23:18:49 2025.
 Gaussian 16:  ES64L-G16RevC.01  3-Jul-2019

 ----------------------------------------------------------------------
 #t hf aug-cc-pvdz iop(5/13=1,5/36=2,99/5=2) pseudo=read geom=check gue
 ss=(read,tcheck) scf=(maxcycle=1)
 ----------------------------------------------------------------------
 -----
 title
 -----
 Structure from the checkpoint file:  "BDE49_nonexpt_1112_mol2.chk"
 Charge =  0 Multiplicity = 2

                         Standard orientation:
 ---------------------------------------------------------------------
 Center     Atomic      Atomic             Coordinates (Angstroms)
 Number     Number       Type             X           Y           Z
 ---------------------------------------------------------------------
      1          8           0        1.410073   -0.499391   -0.000034
      2         14           0        0.035752    0.398181    0.000012
      3          9           0       -1.326652   -0.439337    0.000003
      4          1           0        0.079421    1.187264    1.247832
      5          1           0        0.079332    1.187365   -1.247751
 ---------------------------------------------------------------------

 SCF Done:  E(UHF) =  -464.564253232     A.U. after    2 cycles

 The electronic state is 2-A.
 Alpha  occ. eigenvalues --  -69.15841 -26.12635 -20.65718  -6.90281  -4.01277
 Alpha  occ. eigenvalues --   -4.01147  -4.01006  -1.65434  -1.36013  -0.82224
 Alpha  occ. eigenvalues --   -0.74459  -0.73898  -0.70717  -0.70203  -0.61547
 Alpha  occ. eigenvalues --   -0.57736  -0.50954
 Alpha virt. eigenvalues --    0.04308   0.05353   0.05656   0.06046   0.08799
 Alpha virt. eigenvalues --    0.12402   0.15282   0.17020   0.20847   0.21640
 Alpha virt. eigenvalues --    0.21754   0.22770   0.23490   0.27489   0.28131

  Beta  occ. eigenvalues --  -69.15909 -26.12672 -20.61830  -6.90385  -4.01397
  Beta  occ. eigenvalues --   -4.01230  -4.01121  -1.65542  -1.20228  -0.81968
  Beta  occ. eigenvalues --   -0.74155  -0.73891  -0.67455  -0.57660  -0.54253
  Beta  occ. eigenvalues --   -0.51650
  Beta virt. eigenvalues --    0.01604   0.04329   0.05397   0.05703   0.06251
  Beta virt. eigenvalues --    0.09209   0.12486   0.15317   0.17143   0.20937
  Beta virt. eigenvalues --    0.21854   0.23162   0.23230   0.26924   0.27905

 Mulliken charges and spin densities:
               1          2
     1  O   -0.620278   1.037641
     2  Si   1.569366  -0.117703
     3  F   -0.755136  -0.000889
     4  H   -0.096975   0.040478
     5  H   -0.096976   0.040474
 Sum of Mulliken charges =  -0.00000   1.00000

 Dipole moment (field-independent basis, Debye):
    X=              0.0614    Y=              1.6476    Z=              0.0000  Tot=              1.6487
                          Isotropic Fermi Contact Couplings
        Atom                 a.u.       MegaHertz       Gauss      10(-4) cm-1
     1  O(17)              0.22862    -138.59047     -49.45253     -46.22880
     2  Si(29)            -0.07940      70.56766      25.18030      23.53884
     3  F(19)             -0.00711     -29.93023     -10.67985      -9.98365
     4  H(1)               0.01236      55.25604      19.71673      18.43143
     5  H(1)               0.01236      55.25111      19.71497      18.42979
 --------------------------------------------------------
       Center         ----  Spin Dipole Couplings  ----
                      3XX-RR        3YY-RR        3ZZ-RR

 Normal termination of Gaussian 16 at Tue Apr  8 23:18:51 2025.
