 Gaussian 16, Revision C.01,

 ----------------------------------------------------------------------
 #t hf aug-cc-pvdz symm=none int=(grid=ultrafine) guess=(read,tcheck) s
 table=(opt,rrhf)
 ----------------------------------------------------------------------
 -----
 title
 -----
 Symbolic Z-matrix:
 Charge =  0 Multiplicity = 1

 SCF Done:  E(RHF) =  -727.846187593     A.U. after   12 cycles
 Normal termination of Gaussian 16 at Tue Apr  8 23:55:19 2025.
 Gaussian 16:  ES64L-G16RevC.01  3-Jul-2019

 ----------------------------------------------------------------------
 #t hf aug-cc-pvdz iop(5/13=1,5/36=2,99/5=2) pseudo=read geom=check gue
 ss=(read,tcheck) scf=(maxcycle=1)
 ----------------------------------------------------------------------
 -----
 title
 -----
 Structure from the checkpoint file:  "BDE49_nonexpt_2008_mol1.chk"
 Charge =  0 Multiplicity = 1

                         Standard orientation:
 ---------------------------------------------------------------------
 Center     Atomic      Atomic             Coordinates (Angstroms)
 Number     Number       Type             X           Y           Z
 ---------------------------------------------------------------------
      1         16           0       -0.553731   -0.741005   -0.000001
      2         14           0        1.366814    0.228117   -0.000000
      3          6           0       -1.666317    0.726530    0.000002
      4          1           0       -2.685269    0.340122    0.000001
      5          1           0       -1.516752    1.331497   -0.894215
      6          1           0       -1.516752    1.331494    0.894220
      7          1           0        2.365920   -0.860698   -0.000002
      8          1           0        1.537528    1.080415    1.200550
      9          1           0        1.537528    1.080419   -1.200547
 ---------------------------------------------------------------------

 SCF Done:  E(RHF) =  -727.902875399     A.U. after    2 cycles

 The electronic state is 1-A.
 Alpha  occ. eigenvalues --  -93.52284 -69.08951 -11.27533  -8.82204  -6.84028
 Alpha  occ. eigenvalues --   -6.16302  -6.16121  -6.15837  -3.94846  -3.94778
 Alpha  occ. eigenvalues --   -3.94744  -1.02130  -0.85778  -0.69443  -0.59845
 Alpha  occ. eigenvalues --   -0.59649  -0.51655  -0.49521  -0.47342  -0.42049
 Alpha  occ. eigenvalues --   -0.35487
 Alpha virt. eigenvalues --    0.03434   0.04579   0.05463   0.05995   0.06480
 Alpha virt. eigenvalues --    0.07264   0.08391   0.09312   0.09693   0.11832
 Alpha virt. eigenvalues --    0.13405   0.14209   0.15064   0.16027   0.16727

 Mulliken charges:
               1
     1  S   -0.178435
     2  Si   0.505264
     3  C    0.108570
     4  H   -0.097969
     5  H   -0.104629
     6  H   -0.104631
     7  H   -0.070195
     8  H   -0.028988
     9  H   -0.028988
 Sum of Mulliken charges =  -0.00000

 Dipole moment (field-independent basis, Debye):
    X=             -0.3347    Y=              1.5706    Z=              0.0000  Tot=              1.6059

 Test job not archived.
 1\1\GINC-SE109\SP\RHF\Aug-CC-pVDZ\C1H6S1Si1\OHZDE\08-Apr-2025\0\\#t hf
  aug-cc-pvdz iop(5/13=1,5/36=2,99/5=2) pseudo=read geom=check guess=(r
 ead,tcheck) scf=(maxcycle=1)\\title\\0,1\S,0,-0.553731,-0.741005,-0.00
 0001\Si,0,1.366814,0.228117,0.\C,0,-1.666317,0.72653,0.000002\H,0,-2.6
 85269,0.340122,0.000001\H,0,-1.516752,1.331497,-0.894215\H,0,-1.516752
 ,1.331494,0.89422\H,0,2.36592,-0.860698,-0.000002\H,0,1.537528,1.08041
 5,1.20055\H,0,1.537528,1.080419,-1.200547\\Version=ES64L-G16RevC.01\St
 ate=1-A\HF=-727.9028754\RMSD=5.759e-03\Dipole=-0.1316938,0.6179316,0.0

 Normal termination of Gaussian 16 at Tue Apr  8 23:55:22 2025.
