 Gaussian 16, Revision C.01,

 ----------------------------------------------------------------------
 #t hf aug-cc-pvdz symm=none int=(grid=ultrafine) guess=(read,tcheck) s
 table=(opt,rrhf)
 ----------------------------------------------------------------------
 -----
 title
 -----
 Symbolic Z-matrix:
 Charge =  0 Multiplicity = 1

 SCF Done:  E(RHF) =  -447.400507221     A.U. after   11 cycles
 Normal termination of Gaussian 16 at Tue Apr  8 23:56:44 2025.
 Gaussian 16:  ES64L-G16RevC.01  3-Jul-2019

 ----------------------------------------------------------------------
 #t hf aug-cc-pvdz iop(5/13=1,5/36=2,99/5=2) pseudo=read geom=check gue
 ss=(read,tcheck) scf=(maxcycle=1)
 ----------------------------------------------------------------------
 -----
 title
 -----
 Structure from the checkpoint file:  "BDE49_nonexpt_2032_mol1.chk"
 Charge =  0 Multiplicity = 1

                         Standard orientation:
 ---------------------------------------------------------------------
 Center     Atomic      Atomic             Coordinates (Angstroms)
 Number     Number       Type             X           Y           Z
 ---------------------------------------------------------------------
      1         14           0       -1.142833   -1.089937    0.055675
      2          6           0       -0.161874    0.485181   -0.351520
      3          6           0        1.225178    0.553052    0.324934
      4          6           0       -1.000047    1.732216   -0.005318
      5          1           0       -1.202284    1.790432    1.069441
      6          1           0       -1.962848    1.736806   -0.523406
      7          1           0       -0.468037    2.647807   -0.285862
      8          1           0       -0.005249    0.474210   -1.439650
      9          6           0        2.221861   -0.520937   -0.122740
     10          1           0        1.099855    0.506581    1.414007
     11          1           0        1.655931    1.541382    0.118096
     12          1           0        1.888120   -1.528329    0.139542
     13          1           0        3.197096   -0.365877    0.346502
     14          1           0        2.367953   -0.494781   -1.207186
     15          1           0       -1.318582   -1.211747    1.525596
     16          1           0       -0.477689   -2.320381   -0.436606
     17          1           0       -2.485311   -1.014061   -0.572068
 ---------------------------------------------------------------------

 SCF Done:  E(RHF) =  -447.474793299     A.U. after    2 cycles

 The electronic state is 1-A.
 Alpha  occ. eigenvalues --  -69.05223 -11.23491 -11.23020 -11.22746 -11.22540
 Alpha  occ. eigenvalues --   -6.80593  -3.91361  -3.91352  -3.91329  -1.06294
 Alpha  occ. eigenvalues --   -0.98016  -0.86336  -0.79414  -0.69002  -0.62001
 Alpha  occ. eigenvalues --   -0.59169  -0.58539  -0.56812  -0.52229  -0.50022
 Alpha  occ. eigenvalues --   -0.48334  -0.47645  -0.46084  -0.45796  -0.40980
 Alpha virt. eigenvalues --    0.03338   0.04430   0.04715   0.04787   0.06429
 Alpha virt. eigenvalues --    0.06729   0.06796   0.06844   0.07712   0.09012
 Alpha virt. eigenvalues --    0.09431   0.10086   0.10437   0.10910   0.12447

 Mulliken charges:
               1
     1  Si  -0.282292
     2  C   -0.300039
     3  C    0.291807
     4  C    0.491403
     5  H   -0.059758
     6  H   -0.122888
     7  H   -0.092316
     8  H   -0.165543
     9  C    0.391409
    10  H   -0.148520
    11  H   -0.114223
    12  H   -0.106703
    13  H   -0.057421
    14  H   -0.094683
    15  H    0.166274
    16  H    0.104689
    17  H    0.098804
 Sum of Mulliken charges =   0.00000

 Dipole moment (field-independent basis, Debye):
    X=              0.5403    Y=              0.6761    Z=             -0.2295  Tot=              0.8954

 Test job not archived.
 1\1\GINC-SE102\SP\RHF\Aug-CC-pVDZ\C4H12Si1\OHZDE\08-Apr-2025\0\\#t hf
 aug-cc-pvdz iop(5/13=1,5/36=2,99/5=2) pseudo=read geom=check guess=(re
 ad,tcheck) scf=(maxcycle=1)\\title\\0,1\Si,0,-1.142833,-1.089937,0.055
 675\C,0,-0.161874,0.485181,-0.35152\C,0,1.225178,0.553052,0.324934\C,0
 ,-1.000048,1.732216,-0.005318\H,0,-1.202285,1.790432,1.069441\H,0,-1.9
 62849,1.736806,-0.523406\H,0,-0.468038,2.647807,-0.285862\H,0,-0.00524
 9,0.47421,-1.43965\C,0,2.221861,-0.520936,-0.12274\H,0,1.099855,0.5065
 81,1.414007\H,0,1.65593,1.541382,0.118096\H,0,1.88812,-1.528328,0.1395

 Normal termination of Gaussian 16 at Tue Apr  8 23:56:50 2025.
