 Gaussian 16, Revision C.01,

 ----------------------------------------------------------------------
 #t hf aug-cc-pvdz symm=none int=(grid=ultrafine) guess=(read,tcheck) s
 table=(opt,rrhf)
 ----------------------------------------------------------------------
 -----
 title
 -----
 Symbolic Z-matrix:
 Charge =  0 Multiplicity = 1

 SCF Done:  E(RHF) =  -636.127703283     A.U. after   13 cycles
 Normal termination of Gaussian 16 at Wed Apr  9 00:06:23 2025.
 Gaussian 16:  ES64L-G16RevC.01  3-Jul-2019

 ----------------------------------------------------------------------
 #t hf aug-cc-pvdz iop(5/13=1,5/36=2,99/5=2) pseudo=read geom=check gue
 ss=(read,tcheck) scf=(maxcycle=1)
 ----------------------------------------------------------------------
 -----
 title
 -----
 Structure from the checkpoint file:  "BDE49_nonexpt_2249_mol1.chk"
 Charge =  0 Multiplicity = 1

                         Standard orientation:
 ---------------------------------------------------------------------
 Center     Atomic      Atomic             Coordinates (Angstroms)
 Number     Number       Type             X           Y           Z
 ---------------------------------------------------------------------
      1         14           0       -2.192119   -0.854132    0.128560
      2          8           0       -2.715966    0.659720    0.671792
      3          8           0       -2.737950    1.535535   -0.507243
      4          1           0       -3.659286    1.826230   -0.475021
      5          6           0       -0.486428   -0.796264   -0.635472
      6          6           0        0.619641   -0.248196    0.285242
      7          1           0       -0.547658   -0.196902   -1.551489
      8          1           0       -0.240954   -1.817519   -0.959494
      9          6           0        2.003973   -0.223636   -0.374944
     10          1           0        0.669564   -0.851439    1.200252
     11          1           0        0.354800    0.765666    0.605195
     12          6           0        3.107569    0.324614    0.536769
     13          1           0        1.955235    0.381379   -1.289479
     14          1           0        2.269864   -1.239303   -0.696180
     15          6           0        4.486209    0.349033   -0.129524
     16          1           0        3.154295   -0.280385    1.450421
     17          1           0        2.838684    1.338186    0.857566
     18          1           0        4.798100   -0.656022   -0.430636
     19          1           0        5.249630    0.744682    0.545926
     20          1           0        4.480488    0.975285   -1.027141
     21          1           0       -3.174706   -1.406737   -0.833925
     22          1           0       -2.212855   -1.620622    1.395356
 ---------------------------------------------------------------------

 SCF Done:  E(RHF) =  -636.268873619     A.U. after    2 cycles

 The electronic state is 1-A.
 Alpha  occ. eigenvalues --  -69.08937 -20.64714 -20.62223 -11.23245 -11.22618
 Alpha  occ. eigenvalues --  -11.22510 -11.22122 -11.22116  -6.83825  -3.94728
 Alpha  occ. eigenvalues --   -3.94590  -3.94542  -1.40892  -1.17682  -1.07054
 Alpha  occ. eigenvalues --   -1.00906  -0.91783  -0.82433  -0.78837  -0.73138
 Alpha  occ. eigenvalues --   -0.72010  -0.65059  -0.63968  -0.61180  -0.59690
 Alpha  occ. eigenvalues --   -0.58394  -0.56296  -0.54051  -0.53193  -0.51481
 Alpha  occ. eigenvalues --   -0.49917  -0.48498  -0.48274  -0.47180  -0.46323
 Alpha  occ. eigenvalues --   -0.46132  -0.41824
 Alpha virt. eigenvalues --    0.03307   0.04038   0.04421   0.04694   0.05698
 Alpha virt. eigenvalues --    0.05805   0.06153   0.06838   0.07351   0.08053
 Alpha virt. eigenvalues --    0.08273   0.08711   0.09456   0.10796   0.11317

 Mulliken charges:
               1
     1  Si   1.021556
     2  O   -0.756450
     3  O   -0.335678
     4  H    0.248689
     5  C    0.379208
     6  C    0.212096
     7  H   -0.175278
     8  H   -0.228194
     9  C    0.058791
    10  H   -0.228132
    11  H   -0.220427
    12  C    0.292990
    13  H   -0.170830
    14  H   -0.177517
    15  C    0.531074
    16  H   -0.137541
    17  H   -0.149031
    18  H   -0.083434
    19  H   -0.058268
    20  H   -0.083055
    21  H   -0.021869
    22  H    0.081300
 Sum of Mulliken charges =   0.00000

 Dipole moment (field-independent basis, Debye):
    X=             -0.3468    Y=             -0.5430    Z=             -0.8317  Tot=              1.0520

 Test job not archived.
 1\1\GINC-SE094\SP\RHF\Aug-CC-pVDZ\C5H14O2Si1\OHZDE\09-Apr-2025\0\\#t h
 f aug-cc-pvdz iop(5/13=1,5/36=2,99/5=2) pseudo=read geom=check guess=(
 read,tcheck) scf=(maxcycle=1)\\title\\0,1\Si,0,-2.192119,-0.854132,0.1
 2856\O,0,-2.715966,0.65972,0.671792\O,0,-2.73795,1.535535,-0.507243\H,
 0,-3.659286,1.82623,-0.475021\C,0,-0.486428,-0.796264,-0.635472\C,0,0.
 619641,-0.248196,0.285242\H,0,-0.547658,-0.196902,-1.551489\H,0,-0.240
 954,-1.817519,-0.959494\C,0,2.003973,-0.223636,-0.374944\H,0,0.669564,
 -0.851439,1.200252\H,0,0.3548,0.765666,0.605195\C,0,3.107569,0.324614,

 Normal termination of Gaussian 16 at Wed Apr  9 00:06:34 2025.
