 Gaussian 16, Revision C.01,

 ----------------------------------------------------------------------
 #t hf aug-cc-pvdz symm=none int=(grid=ultrafine) guess=(read,tcheck) s
 table=(opt,rrhf)
 ----------------------------------------------------------------------
 -----
 title
 -----
 Symbolic Z-matrix:
 Charge =  0 Multiplicity = 1

 SCF Done:  E(RHF) =  -867.775947405     A.U. after   15 cycles
 Normal termination of Gaussian 16 at Wed Apr  9 00:44:43 2025.
 Gaussian 16:  ES64L-G16RevC.01  3-Jul-2019

 ----------------------------------------------------------------------
 #t hf aug-cc-pvdz iop(5/13=1,5/36=2,99/5=2) pseudo=read geom=check gue
 ss=(read,tcheck) scf=(maxcycle=1)
 ----------------------------------------------------------------------
 -----
 title
 -----
 Structure from the checkpoint file:  "BDE49_nonexpt_812_mol1.chk"
 Charge =  0 Multiplicity = 1

                         Standard orientation:
 ---------------------------------------------------------------------
 Center     Atomic      Atomic             Coordinates (Angstroms)
 Number     Number       Type             X           Y           Z
 ---------------------------------------------------------------------
      1         14           0        0.107182   -0.623862    0.000193
      2          5           0       -1.690872    0.316028    0.000050
      3          7           0        1.460673    0.679982    0.000197
      4          8           0       -1.767317    1.661342    0.000408
      5          8           0       -2.781255   -0.483638   -0.000411
      6          8           0        1.067769    1.860121   -0.000742
      7          8           0        2.630205    0.348694   -0.000425
      8          9           0        0.446497   -1.488120    1.288119
      9          9           0        0.446627   -1.488273   -1.287598
     10          1           0       -3.613612    0.007361   -0.000461
     11          1           0       -0.890614    2.082069    0.000799
 ---------------------------------------------------------------------

 SCF Done:  E(RHF) =  -868.013634345     A.U. after    2 cycles

 The electronic state is 1-A.
 Alpha  occ. eigenvalues --  -69.22941 -26.16491 -26.16489 -20.65469 -20.64367
 Alpha  occ. eigenvalues --  -20.62535 -20.61771 -15.90982  -7.71651  -6.96930
 Alpha  occ. eigenvalues --   -4.07862  -4.07824  -4.07564  -1.70047  -1.68797
 Alpha  occ. eigenvalues --   -1.56091  -1.38743  -1.38204  -1.35092  -0.97550
 Alpha  occ. eigenvalues --   -0.87462  -0.83097  -0.82116  -0.81760  -0.79577
 Alpha  occ. eigenvalues --   -0.78484  -0.76820  -0.76755  -0.75590  -0.75105
 Alpha  occ. eigenvalues --   -0.72565  -0.67974  -0.63007  -0.62977  -0.55921
 Alpha  occ. eigenvalues --   -0.55029  -0.54031  -0.49834  -0.48844
 Alpha virt. eigenvalues --    0.02754   0.02960   0.04649   0.04855   0.05556
 Alpha virt. eigenvalues --    0.07034   0.07114   0.07437   0.08854   0.10089
 Alpha virt. eigenvalues --    0.10275   0.12480   0.14497   0.16125   0.16349

 Mulliken charges:
               1
     1  Si   2.099366
     2  B    0.631601
     3  N    0.307992
     4  O   -0.460744
     5  O   -0.421178
     6  O   -0.604221
     7  O   -0.477292
     8  F   -0.781729
     9  F   -0.781830
    10  H    0.198687
    11  H    0.289347
 Sum of Mulliken charges =  -0.00000

 Dipole moment (field-independent basis, Debye):
    X=             -3.7369    Y=              0.0978    Z=              0.0027  Tot=              3.7382

 Test job not archived.
 1\1\GINC-SE159\SP\RHF\Aug-CC-pVDZ\B1F2H2N1O4Si1\OHZDE\09-Apr-2025\0\\#
 t hf aug-cc-pvdz iop(5/13=1,5/36=2,99/5=2) pseudo=read geom=check gues
 s=(read,tcheck) scf=(maxcycle=1)\\title\\0,1\Si,0,-0.107182,-0.623862,
 -0.000193\B,0,1.690872,0.316028,-0.00005\N,0,-1.460673,0.679982,-0.000
 197\O,0,1.767317,1.661342,-0.000408\O,0,2.781255,-0.483638,0.000411\O,
 0,-1.067769,1.860121,0.000742\O,0,-2.630205,0.348694,0.000425\F,0,-0.4
 46497,-1.48812,-1.288119\F,0,-0.446627,-1.488273,1.287598\H,0,3.613612
 ,0.00736,0.000461\H,0,0.890614,2.082069,-0.000799\\Version=ES64L-G16Re

 Normal termination of Gaussian 16 at Wed Apr  9 00:44:50 2025.
