 Gaussian 16, Revision C.01,

 ----------------------------------------------------------------------
 #t hf aug-cc-pvdz symm=none int=(grid=ultrafine) guess=(read,tcheck) s
 table=(opt,rrhf)
 ----------------------------------------------------------------------
 -----
 title
 -----
 Symbolic Z-matrix:
 Charge =  0 Multiplicity = 1

 SCF Done:  E(RHF) =  -421.556888370     A.U. after   15 cycles

 1\1\GINC-SE094\Stability\RHF\Aug-CC-pVDZ\C9H10O1\OHZDE\08-Apr-2025\0\\
 #t hf aug-cc-pvdz symm=none int=(grid=ultrafine) guess=(read,tcheck) s
 table=(opt,rrhf)\\title\\0,1\C,0,2.396894,-1.079624,-0.105262\C,0,1.10
 2001,-1.219312,0.392095\C,0,2.874058,0.177096,-0.467185\C,0,2.049047,1
 .292812,-0.329284\C,0,0.756881,1.152112,0.167396\C,0,0.268466,-0.10701
 8,0.536949\H,0,0.739749,-2.20135,0.679235\H,0,2.413239,2.275272,-0.608
 378\H,0,0.114746,2.020565,0.266904\H,0,3.031911,-1.952815,-0.206101\H,
 0,3.881368,0.287944,-0.852262\C,0,-2.176524,0.104941,-0.006419\O,0,-2.

 Normal termination of Gaussian 16 at Tue Apr  8 22:33:18 2025.
 Gaussian 16:  ES64L-G16RevC.01  3-Jul-2019

 ----------------------------------------------------------------------
 #t hf aug-cc-pvdz iop(5/13=1,5/36=2,99/5=2) pseudo=read geom=check gue
 ss=(read,tcheck) scf=(maxcycle=1)
 ----------------------------------------------------------------------
 -----
 title
 -----
 Structure from the checkpoint file:  "BDE49_expt_1096_mol1.chk"
 Charge =  0 Multiplicity = 1

                         Standard orientation:
 ---------------------------------------------------------------------
 Center     Atomic      Atomic             Coordinates (Angstroms)
 Number     Number       Type             X           Y           Z
 ---------------------------------------------------------------------
      1          6           0        2.396894   -1.079624   -0.105262
      2          6           0        1.102001   -1.219312    0.392095
      3          6           0        2.874058    0.177096   -0.467185
      4          6           0        2.049047    1.292812   -0.329284
      5          6           0        0.756881    1.152112    0.167396
      6          6           0        0.268466   -0.107018    0.536949
      7          1           0        0.739749   -2.201350    0.679235
      8          1           0        2.413239    2.275272   -0.608378
      9          1           0        0.114746    2.020565    0.266904
     10          1           0        3.031911   -1.952815   -0.206101
     11          1           0        3.881368    0.287944   -0.852262
     12          6           0       -2.176524    0.104941   -0.006419
     13          8           0       -2.661212    1.211411   -0.067566
     14          6           0       -2.529257   -0.989121   -0.993503
     15          1           0       -1.624304   -1.447248   -1.402238
     16          1           0       -3.139986   -0.580293   -1.797206
     17          1           0       -3.087747   -1.779212   -0.479781
     18          6           0       -1.146048   -0.246303    1.073033
     19          1           0       -1.306812    0.440926    1.906521
     20          1           0       -1.305573   -1.268571    1.426907
 ---------------------------------------------------------------------

 SCF Done:  E(RHF) =  -421.683132840     A.U. after    2 cycles

 The electronic state is 1-A.
 Alpha  occ. eigenvalues --  -20.56315 -11.34604 -11.26319 -11.25507 -11.25203
 Alpha  occ. eigenvalues --  -11.25083 -11.25053 -11.24878 -11.24667 -11.24554
 Alpha  occ. eigenvalues --   -1.35552  -1.15392  -1.06444  -1.01563  -1.00652
 Alpha  occ. eigenvalues --   -0.94949  -0.83692  -0.81783  -0.74842  -0.70612
 Alpha  occ. eigenvalues --   -0.66576  -0.65404  -0.64686  -0.62971  -0.61295
 Alpha  occ. eigenvalues --   -0.59661  -0.57445  -0.56166  -0.54564  -0.51725
 Alpha  occ. eigenvalues --   -0.50870  -0.49871  -0.49383  -0.42908  -0.34648
 Alpha  occ. eigenvalues --   -0.33794
 Alpha virt. eigenvalues --    0.03006   0.03654   0.04261   0.04578   0.05474
 Alpha virt. eigenvalues --    0.05832   0.06731   0.07288   0.07832   0.08207
 Alpha virt. eigenvalues --    0.09625   0.10094   0.10157   0.11513   0.12752

 Mulliken charges:
               1
     1  C    0.271945
     2  C    0.664844
     3  C    0.686292
     4  C    0.243265
     5  C    0.367957
     6  C    0.136042
     7  H   -0.606060
     8  H   -0.455415
     9  H   -0.613604
    10  H   -0.448078
    11  H   -0.438965
    12  C   -0.003965
    13  O   -0.556697
    14  C    0.318462
    15  H    0.005197
    16  H   -0.093466
    17  H    0.064349
    18  C    0.684425
    19  H   -0.068986
    20  H   -0.157541
 Sum of Mulliken charges =  -0.00000

 Dipole moment (field-independent basis, Debye):
    X=              1.4933    Y=             -2.9629    Z=              0.0997  Tot=              3.3195

 Test job not archived.
 1\1\GINC-SE094\SP\RHF\Aug-CC-pVDZ\C9H10O1\OHZDE\08-Apr-2025\0\\#t hf a
 ug-cc-pvdz iop(5/13=1,5/36=2,99/5=2) pseudo=read geom=check guess=(rea
 d,tcheck) scf=(maxcycle=1)\\title\\0,1\C,0,2.396894,-1.079624,-0.10526
 2\C,0,1.102001,-1.219312,0.392095\C,0,2.874058,0.177096,-0.467185\C,0,
 2.049047,1.292812,-0.329284\C,0,0.756881,1.152112,0.167396\C,0,0.26846
 6,-0.107018,0.536949\H,0,0.739749,-2.20135,0.679235\H,0,2.413239,2.275
 272,-0.608378\H,0,0.114746,2.020565,0.266904\H,0,3.031911,-1.952815,-0
 .206101\H,0,3.881368,0.287944,-0.852262\C,0,-2.176524,0.104941,-0.0064

 Normal termination of Gaussian 16 at Tue Apr  8 22:33:30 2025.
