 Gaussian 16, Revision C.01,

 ----------------------------------------------------------------------
 #t hf aug-cc-pvdz symm=none int=(grid=ultrafine) guess=(read,tcheck) s
 table=opt
 ----------------------------------------------------------------------
 -----
 title
 -----
 Symbolic Z-matrix:
 Charge =  0 Multiplicity = 2

 SCF Done:  E(UHF) =  -497.504780208     A.U. after   18 cycles
 Normal termination of Gaussian 16 at Wed Apr  9 00:10:46 2025.
 Gaussian 16:  ES64L-G16RevC.01  3-Jul-2019

 ----------------------------------------------------------------------
 #t hf aug-cc-pvdz iop(5/13=1,5/36=2,99/5=2) pseudo=read geom=check gue
 ss=(read,tcheck) scf=(maxcycle=1)
 ----------------------------------------------------------------------
 -----
 title
 -----
 Structure from the checkpoint file:  "BDE49_nonexpt_2388_mol2.chk"
 Charge =  0 Multiplicity = 2

                         Standard orientation:
 ---------------------------------------------------------------------
 Center     Atomic      Atomic             Coordinates (Angstroms)
 Number     Number       Type             X           Y           Z
 ---------------------------------------------------------------------
      1         14           0        1.852735   -0.007770   -0.068775
      2          7           0        0.222382   -0.672506   -0.001537
      3          1           0        2.079904    0.945886    1.043418
      4          1           0        2.721900   -1.206561    0.074500
      5          6           0       -0.880934    0.159834   -0.015495
      6          8           0       -0.740776    1.367965   -0.062211
      7          1           0        0.055391   -1.669715   -0.015736
      8          6           0       -2.237424   -0.516916    0.045372
      9          1           0       -2.347661   -1.243129   -0.765076
     10          1           0       -3.013932    0.240418   -0.037410
     11          1           0       -2.354204   -1.051804    0.992344
 ---------------------------------------------------------------------

 SCF Done:  E(UHF) =  -497.595133048     A.U. after    2 cycles

 The electronic state is 2-A.
 Alpha  occ. eigenvalues --  -69.09662 -20.54733 -15.64359 -11.37462 -11.25556
 Alpha  occ. eigenvalues --   -6.84711  -3.95956  -3.95247  -3.95109  -1.35760
 Alpha  occ. eigenvalues --   -1.17054  -1.00295  -0.79705  -0.73603  -0.68756
 Alpha  occ. eigenvalues --   -0.63281  -0.62731  -0.58584  -0.54686  -0.53950
 Alpha  occ. eigenvalues --   -0.49088  -0.45152  -0.44004  -0.32334
 Alpha virt. eigenvalues --    0.02704   0.04235   0.04828   0.05045   0.06835
 Alpha virt. eigenvalues --    0.07501   0.07613   0.08569   0.09964   0.11057
 Alpha virt. eigenvalues --    0.12582   0.13885   0.14529   0.14973   0.15940

  Beta  occ. eigenvalues --  -69.09094 -20.54698 -15.64152 -11.37463 -11.25558
  Beta  occ. eigenvalues --   -6.83823  -3.94872  -3.94743  -3.93881  -1.35652
  Beta  occ. eigenvalues --   -1.16494  -1.00208  -0.79286  -0.71955  -0.68211
  Beta  occ. eigenvalues --   -0.62670  -0.61688  -0.58274  -0.53994  -0.53302
  Beta  occ. eigenvalues --   -0.47785  -0.44696  -0.42364
  Beta virt. eigenvalues --    0.02721   0.03292   0.04373   0.05076   0.05867
  Beta virt. eigenvalues --    0.06963   0.07633   0.08303   0.09828   0.10188
  Beta virt. eigenvalues --    0.11244   0.12916   0.14102   0.14992   0.15677

 Mulliken charges and spin densities:
               1          2
     1  Si   0.340585   0.925914
     2  N   -0.536462  -0.028357
     3  H    0.038242   0.058141
     4  H   -0.022220   0.024562
     5  C    0.433495   0.027367
     6  O   -0.469626   0.003159
     7  H   -0.075774  -0.003537
     8  C    0.308070  -0.008405
     9  H    0.002981   0.001801
    10  H   -0.053312  -0.000945
    11  H    0.034022   0.000300
 Sum of Mulliken charges =  -0.00000   1.00000

 Dipole moment (field-independent basis, Debye):
    X=             -0.7235    Y=             -4.0307    Z=              0.0560  Tot=              4.0955
                          Isotropic Fermi Contact Couplings
        Atom                 a.u.       MegaHertz       Gauss      10(-4) cm-1
     1  Si(29)             0.64921    -576.96822    -205.87661    -192.45588
     2  N(14)              0.02804       9.05833       3.23224       3.02153
     3  H(1)               0.01465      65.50322      23.37318      21.84952
     4  H(1)               0.00836      37.34827      13.32679      12.45804
     5  C(13)             -0.00170      -1.91431      -0.68307      -0.63855
     6  O(17)              0.00341      -2.06544      -0.73700      -0.68896
     7  H(1)              -0.00008      -0.35902      -0.12811      -0.11976
     8  C(13)             -0.00034      -0.38492      -0.13735      -0.12839

 1\1\GINC-SE128\SP\UHF\Aug-CC-pVDZ\C2H6N1O1Si1(2)\OHZDE\09-Apr-2025\0\\
 #t hf aug-cc-pvdz iop(5/13=1,5/36=2,99/5=2) pseudo=read geom=check gue
 ss=(read,tcheck) scf=(maxcycle=1)\\title\\0,2\Si,0,1.852735,-0.00777,-
 0.068775\N,0,0.222382,-0.672506,-0.001537\H,0,2.079904,0.945886,1.0434
 18\H,0,2.7219,-1.206561,0.0745\C,0,-0.880934,0.159834,-0.015495\O,0,-0
 .740776,1.367965,-0.062211\H,0,0.055391,-1.669715,-0.015736\C,0,-2.237
 424,-0.516916,0.045372\H,0,-2.347661,-1.243129,-0.765076\H,0,-3.013932
 ,0.240418,-0.03741\H,0,-2.354204,-1.051804,0.992344\\Version=ES64L-G16

 Normal termination of Gaussian 16 at Wed Apr  9 00:10:50 2025.
