 Gaussian 16, Revision C.01,

 ----------------------------------------------------------------------
 #t hf aug-cc-pvdz symm=none int=(grid=ultrafine) guess=(read,tcheck) s
 table=(opt,rrhf)
 ----------------------------------------------------------------------
 -----
 title
 -----
 Symbolic Z-matrix:
 Charge =  0 Multiplicity = 1

 SCF Done:  E(RHF) =  -444.175180995     A.U. after   12 cycles
 Normal termination of Gaussian 16 at Tue Apr  8 23:49:25 2025.
 Gaussian 16:  ES64L-G16RevC.01  3-Jul-2019

 ----------------------------------------------------------------------
 #t hf aug-cc-pvdz iop(5/13=1,5/36=2,99/5=2) pseudo=read geom=check gue
 ss=(read,tcheck) scf=(maxcycle=1)
 ----------------------------------------------------------------------
 -----
 title
 -----
 Structure from the checkpoint file:  "BDE49_nonexpt_1883_mol1.chk"
 Charge =  0 Multiplicity = 1

                         Standard orientation:
 ---------------------------------------------------------------------
 Center     Atomic      Atomic             Coordinates (Angstroms)
 Number     Number       Type             X           Y           Z
 ---------------------------------------------------------------------
      1          6           0       -0.045893    0.618300    0.000004
      2         14           0        1.702278   -0.109992    0.000003
      3          1           0        2.680046    1.006127    0.000013
      4          1           0        1.914356   -0.938448   -1.208000
      5          1           0        1.914350   -0.938467    1.207993
      6          8           0       -0.966728   -0.463692   -0.000005
      7          6           0       -2.318182   -0.045158   -0.000005
      8          1           0       -2.935385   -0.944331   -0.000012
      9          1           0       -2.553691    0.552029   -0.892713
     10          1           0       -2.553694    0.552016    0.892710
     11          1           0       -0.189800    1.260830   -0.884211
     12          1           0       -0.189804    1.260818    0.884228
 ---------------------------------------------------------------------

 SCF Done:  E(RHF) =  -444.250556659     A.U. after    2 cycles

 The electronic state is 1-A.
 Alpha  occ. eigenvalues --  -69.05857 -20.57694 -11.28537 -11.27726  -6.81213
 Alpha  occ. eigenvalues --   -3.91999  -3.91981  -3.91974  -1.33409  -0.96946
 Alpha  occ. eigenvalues --   -0.87336  -0.70339  -0.67185  -0.65792  -0.62226
 Alpha  occ. eigenvalues --   -0.56100  -0.50772  -0.47658  -0.47306  -0.44286
 Alpha  occ. eigenvalues --   -0.44151
 Alpha virt. eigenvalues --    0.03394   0.04481   0.05061   0.05130   0.06634
 Alpha virt. eigenvalues --    0.07164   0.07466   0.08820   0.09148   0.09991
 Alpha virt. eigenvalues --    0.10677   0.11948   0.15080   0.15899   0.16211

 Mulliken charges:
               1
     1  C    0.420617
     2  Si   0.421025
     3  H   -0.028987
     4  H   -0.054433
     5  H   -0.054432
     6  O   -0.581916
     7  C    0.665344
     8  H   -0.266017
     9  H   -0.076569
    10  H   -0.076572
    11  H   -0.184031
    12  H   -0.184028
 Sum of Mulliken charges =  -0.00000

 Dipole moment (field-independent basis, Debye):
    X=             -0.9992    Y=              1.4992    Z=              0.0000  Tot=              1.8017

 Test job not archived.
 1\1\GINC-SE364\SP\RHF\Aug-CC-pVDZ\C2H8O1Si1\OHZDE\08-Apr-2025\0\\#t hf
  aug-cc-pvdz iop(5/13=1,5/36=2,99/5=2) pseudo=read geom=check guess=(r
 ead,tcheck) scf=(maxcycle=1)\\title\\0,1\C,0,0.045893,0.6183,-0.000004
 \Si,0,-1.702278,-0.109992,-0.000003\H,0,-2.680046,1.006127,-0.000013\H
 ,0,-1.914356,-0.938448,1.208\H,0,-1.91435,-0.938467,-1.207993\O,0,0.96
 6728,-0.463692,0.000005\C,0,2.318182,-0.045158,0.000005\H,0,2.935385,-
 0.944331,0.000012\H,0,2.553691,0.552029,0.892713\H,0,2.553694,0.552016
 ,-0.89271\H,0,0.1898,1.26083,0.884211\H,0,0.189804,1.260818,-0.884228\

 Normal termination of Gaussian 16 at Tue Apr  8 23:49:29 2025.
