 Gaussian 16, Revision C.01,

 ----------------------------------------------------------------------
 #t hf aug-cc-pvdz symm=none int=(grid=ultrafine) guess=(read,tcheck) s
 table=(opt,rrhf)
 ----------------------------------------------------------------------
 -----
 title
 -----
 Symbolic Z-matrix:
 Charge =  0 Multiplicity = 1

 SCF Done:  E(RHF) =  -680.116129664     A.U. after   18 cycles
 Normal termination of Gaussian 16 at Tue Apr  8 22:55:58 2025.
 Gaussian 16:  ES64L-G16RevC.01  3-Jul-2019

 ----------------------------------------------------------------------
 #t hf aug-cc-pvdz iop(5/13=1,5/36=2,99/5=2) pseudo=read geom=check gue
 ss=(read,tcheck) scf=(maxcycle=1)
 ----------------------------------------------------------------------
 -----
 title
 -----
 Structure from the checkpoint file:  "BDE49_expt_1750_mol1.chk"
 Charge =  0 Multiplicity = 1

                         Standard orientation:
 ---------------------------------------------------------------------
 Center     Atomic      Atomic             Coordinates (Angstroms)
 Number     Number       Type             X           Y           Z
 ---------------------------------------------------------------------
      1          6           0       -2.586268   -0.958365    0.224149
      2          7           0       -1.786220    0.181377   -0.076215
      3          6           0       -0.352609    0.145426    0.028932
      4          7           0       -2.466040    1.316176   -0.492735
      5          8           0       -1.772215    2.261698   -0.750489
      6          8           0       -2.058185   -1.985532    0.568443
      7          6           0        0.398159   -0.562755   -0.899419
      8          6           0        1.787548   -0.597707   -0.804313
      9          6           0        2.427838    0.092222    0.229552
     10          6           0        1.665564    0.809810    1.161743
     11          6           0        0.285756    0.832892    1.063123
     12          1           0       -0.301713    1.385380    1.785976
     13          1           0        2.181953    1.336457    1.954392
     14          1           0       -0.099970   -1.097517   -1.698522
     15          1           0        2.351905   -1.161961   -1.533620
     16          6           0       -4.082078   -0.790363    0.082986
     17          1           0       -4.453048    0.002060    0.734820
     18          1           0       -4.539401   -1.741154    0.350038
     19          1           0       -4.352714   -0.515760   -0.937648
     20          8           0        3.773338    0.128675    0.416972
     21          6           0        4.608051   -0.581125   -0.489877
     22          1           0        4.394113   -1.655250   -0.474012
     23          1           0        5.627278   -0.412122   -0.147366
     24          1           0        4.502153   -0.201946   -1.512075
 ---------------------------------------------------------------------

 SCF Done:  E(RHF) =  -680.323046639     A.U. after    2 cycles

 The electronic state is 1-A.
 Alpha  occ. eigenvalues --  -20.64074 -20.60820 -20.57080 -15.82230 -15.71496
 Alpha  occ. eigenvalues --  -11.39504 -11.32414 -11.30368 -11.28867 -11.26459
 Alpha  occ. eigenvalues --  -11.26280 -11.25997 -11.25074 -11.24664  -1.49977
 Alpha  occ. eigenvalues --   -1.38385  -1.37874  -1.25437  -1.15109  -1.04538
 Alpha  occ. eigenvalues --   -1.02934  -1.00978  -0.96464  -0.92271  -0.86117
 Alpha  occ. eigenvalues --   -0.84078  -0.78573  -0.75178  -0.73113  -0.71890
 Alpha  occ. eigenvalues --   -0.70302  -0.67331  -0.66045  -0.65664  -0.64064
 Alpha  occ. eigenvalues --   -0.63660  -0.61478  -0.61088  -0.59682  -0.59274
 Alpha  occ. eigenvalues --   -0.56794  -0.54690  -0.54084  -0.53694  -0.50327
 Alpha  occ. eigenvalues --   -0.48969  -0.46943  -0.44403  -0.43223  -0.35536
 Alpha  occ. eigenvalues --   -0.32873
 Alpha virt. eigenvalues --    0.03113   0.03470   0.03704   0.04810   0.05186
 Alpha virt. eigenvalues --    0.05642   0.06080   0.06867   0.07166   0.08339
 Alpha virt. eigenvalues --    0.08831   0.09584   0.09675   0.10204   0.11183

 Mulliken charges:
               1
     1  C    0.243704
     2  N   -0.316219
     3  C   -0.122384
     4  N    0.000546
     5  O   -0.450289
     6  O   -0.493390
     7  C    0.209338
     8  C    0.880226
     9  C    0.480169
    10  C    1.272722
    11  C    0.809701
    12  H   -0.616750
    13  H   -0.588892
    14  H   -0.620122
    15  H   -0.713452
    16  C    0.203911
    17  H    0.092667
    18  H   -0.070642
    19  H    0.090855
    20  O   -0.690905
    21  C    0.892453
    22  H   -0.089343
    23  H   -0.310566
    24  H   -0.093338
 Sum of Mulliken charges =   0.00000

 Dipole moment (field-independent basis, Debye):
    X=              0.2267    Y=             -0.7132    Z=             -1.1342  Tot=              1.3588

 Test job not archived.
 1\1\GINC-SE343\SP\RHF\Aug-CC-pVDZ\C9H10N2O3\OHZDE\08-Apr-2025\0\\#t hf
  aug-cc-pvdz iop(5/13=1,5/36=2,99/5=2) pseudo=read geom=check guess=(r
 ead,tcheck) scf=(maxcycle=1)\\title\\0,1\C,0,-2.586268,-0.958365,0.224
 149\N,0,-1.78622,0.181377,-0.076215\C,0,-0.352609,0.145426,0.028932\N,
 0,-2.46604,1.316176,-0.492735\O,0,-1.772215,2.261698,-0.750489\O,0,-2.
 058185,-1.985532,0.568443\C,0,0.398159,-0.562755,-0.899419\C,0,1.78754
 8,-0.597707,-0.804313\C,0,2.427838,0.092222,0.229552\C,0,1.665564,0.80
 981,1.161743\C,0,0.285756,0.832892,1.063123\H,0,-0.301713,1.38538,1.78

 Normal termination of Gaussian 16 at Tue Apr  8 22:56:19 2025.
