 Gaussian 16, Revision C.01,

 ----------------------------------------------------------------------
 #t hf aug-cc-pvdz symm=none int=(grid=ultrafine) guess=(read,tcheck) s
 table=(opt,rrhf)
 ----------------------------------------------------------------------
 -----
 title
 -----
 Symbolic Z-matrix:
 Charge =  0 Multiplicity = 1

 SCF Done:  E(RHF) =  -1215.82812956     A.U. after   17 cycles
 Normal termination of Gaussian 16 at Tue Apr  8 22:53:46 2025.
 Gaussian 16:  ES64L-G16RevC.01  3-Jul-2019

 ----------------------------------------------------------------------
 #t hf aug-cc-pvdz iop(5/13=1,5/36=2,99/5=2) pseudo=read geom=check gue
 ss=(read,tcheck) scf=(maxcycle=1)
 ----------------------------------------------------------------------
 -----
 title
 -----
 Structure from the checkpoint file:  "BDE49_expt_1827_mol1.chk"
 Charge =  0 Multiplicity = 1

                         Standard orientation:
 ---------------------------------------------------------------------
 Center     Atomic      Atomic             Coordinates (Angstroms)
 Number     Number       Type             X           Y           Z
 ---------------------------------------------------------------------
      1          7           0       -3.243970   -0.005209    0.954337
      2          8           0       -2.439548   -0.009642    1.791507
      3         16           0       -2.565186    0.004813   -0.885905
      4          6           0       -0.827400    0.003174   -0.584128
      5          6           0       -0.134239    1.211333   -0.428834
      6          6           0        1.229041    1.214288   -0.157411
      7          6           0        1.898552    0.000157   -0.031951
      8          6           0        1.228915   -1.212527   -0.170001
      9          6           0       -0.134372   -1.206603   -0.441394
     10          1           0       -0.666028    2.149405   -0.528396
     11          1           0        1.768164    2.145518   -0.042290
     12         17           0        3.617668   -0.001692    0.307668
     13          1           0       -0.666256   -2.143533   -0.550721
     14          1           0        1.767934   -2.144964   -0.064569
 ---------------------------------------------------------------------

 SCF Done:  E(RHF) =  -1215.97176185     A.U. after    2 cycles

 The electronic state is 1-A.
 Alpha  occ. eigenvalues -- -103.67908 -93.57080 -20.70097 -15.83976 -11.33380
 Alpha  occ. eigenvalues --  -11.29511 -11.28045 -11.28037 -11.27433 -11.27430
 Alpha  occ. eigenvalues --  -10.71180  -8.86629  -8.36916  -8.36606  -8.36592
 Alpha  occ. eigenvalues --   -6.20739  -6.20508  -6.20205  -1.55086  -1.21412
 Alpha  occ. eigenvalues --   -1.15610  -1.05672  -1.04559  -0.98210  -0.89522
 Alpha  occ. eigenvalues --   -0.86864  -0.81848  -0.73660  -0.71962  -0.68591
 Alpha  occ. eigenvalues --   -0.68139  -0.66530  -0.65550  -0.62510  -0.57413
 Alpha  occ. eigenvalues --   -0.56433  -0.53967  -0.50233  -0.49062  -0.48014
 Alpha  occ. eigenvalues --   -0.40508  -0.38611  -0.37134  -0.34520
 Alpha virt. eigenvalues --    0.03525   0.03846   0.04890   0.05141   0.05907
 Alpha virt. eigenvalues --    0.06549   0.07824   0.08129   0.08375   0.09327
 Alpha virt. eigenvalues --    0.10669   0.12048   0.12587   0.12981   0.13269

 Mulliken charges:
               1
     1  N   -0.057437
     2  O   -0.297435
     3  S    0.356446
     4  C    0.575812
     5  C    0.362506
     6  C    0.777709
     7  C   -0.687717
     8  C    0.777660
     9  C    0.362725
    10  H   -0.473183
    11  H   -0.440110
    12  Cl  -0.343650
    13  H   -0.473217
    14  H   -0.440109
 Sum of Mulliken charges =  -0.00000

 Dipole moment (field-independent basis, Debye):
    X=             -0.0088    Y=              0.0035    Z=             -0.6506  Tot=              0.6507

 Test job not archived.
 1\1\GINC-SE103\SP\RHF\Aug-CC-pVDZ\C6H4Cl1N1O1S1\OHZDE\08-Apr-2025\0\\#
 t hf aug-cc-pvdz iop(5/13=1,5/36=2,99/5=2) pseudo=read geom=check gues
 s=(read,tcheck) scf=(maxcycle=1)\\title\\0,1\N,0,3.24397,0.005209,0.95
 4337\O,0,2.439548,0.009642,1.791507\S,0,2.565186,-0.004813,-0.885905\C
 ,0,0.8274,-0.003174,-0.584128\C,0,0.134239,-1.211333,-0.428834\C,0,-1.
 229041,-1.214288,-0.157411\C,0,-1.898552,-0.000157,-0.031951\C,0,-1.22
 8915,1.212527,-0.170001\C,0,0.134372,1.206603,-0.441394\H,0,0.666028,-
 2.149405,-0.528396\H,0,-1.768164,-2.145518,-0.04229\Cl,0,-3.617668,0.0

 Normal termination of Gaussian 16 at Tue Apr  8 22:53:58 2025.
