 Gaussian 16, Revision C.01,

 ----------------------------------------------------------------------
 #t hf aug-cc-pvdz symm=none int=(grid=ultrafine) guess=(read,tcheck) s
 table=(opt,rrhf)
 ----------------------------------------------------------------------
 -----
 title
 -----
 Symbolic Z-matrix:
 Charge =  0 Multiplicity = 1

 SCF Done:  E(RHF) =  -1348.24042843     A.U. after   13 cycles
 Normal termination of Gaussian 16 at Tue Apr  8 23:30:32 2025.
 Gaussian 16:  ES64L-G16RevC.01  3-Jul-2019

 ----------------------------------------------------------------------
 #t hf aug-cc-pvdz iop(5/13=1,5/36=2,99/5=2) pseudo=read geom=check gue
 ss=(read,tcheck) scf=(maxcycle=1)
 ----------------------------------------------------------------------
 -----
 title
 -----
 Structure from the checkpoint file:  "BDE49_nonexpt_1359_mol1.chk"
 Charge =  0 Multiplicity = 1

                         Standard orientation:
 ---------------------------------------------------------------------
 Center     Atomic      Atomic             Coordinates (Angstroms)
 Number     Number       Type             X           Y           Z
 ---------------------------------------------------------------------
      1          9           0       -2.840796    0.527383   -0.662082
      2          9           0       -2.878996   -1.333707    0.945621
      3          8           0        0.777135    3.043203    0.118359
      4          6           0       -0.257693    2.290162   -0.549599
      5          1           0       -0.220046    2.412169   -1.636146
      6          1           0       -1.256688    2.554299   -0.189614
      7          6           0        0.285652    0.948734    0.025230
      8         15           0       -1.962527   -0.790046   -0.274814
      9          6           0       -0.723026    0.076432    0.783267
     10          1           0       -1.294106    0.683784    1.492163
     11          1           0       -0.209951   -0.704810    1.350926
     12          6           0        1.158324    1.891497    0.901398
     13          1           0        0.813575    1.969313    1.938933
     14          1           0        2.236689    1.723543    0.889777
     15          6           0        1.123569    0.193138   -1.026853
     16         15           0        2.135271   -1.267874   -0.535889
     17          9           0        0.918133   -2.286599   -0.168912
     18          9           0        2.498318   -0.821872    0.985707
     19          1           0        1.833006    0.894006   -1.484340
     20          1           0        0.498404   -0.175747   -1.851689
 ---------------------------------------------------------------------

 SCF Done:  E(RHF) =  -1348.53120754     A.U. after    2 cycles

 The electronic state is 1-A.
 Alpha  occ. eigenvalues --  -81.41084 -81.39725 -26.15113 -26.15046 -26.13887
 Alpha  occ. eigenvalues --  -26.13786 -20.57983 -11.30621 -11.30581 -11.29187
 Alpha  occ. eigenvalues --  -11.27985 -11.26542  -7.89779  -7.88449  -5.03867
 Alpha  occ. eigenvalues --   -5.03658  -5.03192  -5.02571  -5.02344  -5.01864
 Alpha  occ. eigenvalues --   -1.68260  -1.66963  -1.66869  -1.65634  -1.35718
 Alpha  occ. eigenvalues --   -1.10966  -1.00213  -0.95445  -0.94738  -0.88553
 Alpha  occ. eigenvalues --   -0.87009  -0.80495  -0.79360  -0.78637  -0.78206
 Alpha  occ. eigenvalues --   -0.77153  -0.76798  -0.75327  -0.74829  -0.74007
 Alpha  occ. eigenvalues --   -0.72385  -0.71179  -0.70111  -0.68236  -0.64856
 Alpha  occ. eigenvalues --   -0.61906  -0.60485  -0.59331  -0.58097  -0.56731
 Alpha  occ. eigenvalues --   -0.53477  -0.48889  -0.48186  -0.44891  -0.40550
 Alpha  occ. eigenvalues --   -0.39496
 Alpha virt. eigenvalues --    0.03310   0.04198   0.04739   0.05098   0.06067
 Alpha virt. eigenvalues --    0.06326   0.06536   0.06940   0.07194   0.08671
 Alpha virt. eigenvalues --    0.08862   0.09922   0.10350   0.11237   0.12169

 Mulliken charges:
               1
     1  F   -0.674394
     2  F   -0.622592
     3  O   -0.782937
     4  C    1.389212
     5  H   -0.203384
     6  H   -0.226942
     7  C   -1.472085
     8  P    1.340111
     9  C    0.293752
    10  H   -0.198815
    11  H   -0.068074
    12  C    1.310533
    13  H   -0.251409
    14  H   -0.184928
    15  C    0.421063
    16  P    1.461561
    17  F   -0.640485
    18  F   -0.665588
    19  H   -0.105874
    20  H   -0.118726
 Sum of Mulliken charges =  -0.00000

 Dipole moment (field-independent basis, Debye):
    X=              2.0015    Y=             -0.2435    Z=             -1.5941  Tot=              2.5703

 Test job not archived.
 1\1\GINC-SE340\SP\RHF\Aug-CC-pVDZ\C5H8F4O1P2\OHZDE\08-Apr-2025\0\\#t h
 f aug-cc-pvdz iop(5/13=1,5/36=2,99/5=2) pseudo=read geom=check guess=(
 read,tcheck) scf=(maxcycle=1)\\title\\0,1\F,0,-2.840796,0.527383,-0.66
 2082\F,0,-2.878996,-1.333707,0.945621\O,0,0.777135,3.043203,0.118359\C
 ,0,-0.257693,2.290162,-0.549599\H,0,-0.220046,2.412169,-1.636146\H,0,-
 1.256688,2.554299,-0.189614\C,0,0.285652,0.948734,0.02523\P,0,-1.96252
 7,-0.790046,-0.274814\C,0,-0.723026,0.076432,0.783267\H,0,-1.294106,0.
 683784,1.492163\H,0,-0.209951,-0.70481,1.350926\C,0,1.158324,1.891497,

 Normal termination of Gaussian 16 at Tue Apr  8 23:30:45 2025.
