 Gaussian 16, Revision C.01,

 ----------------------------------------------------------------------
 #t hf aug-cc-pvdz symm=none int=(grid=ultrafine) guess=(read,tcheck) s
 table=(opt,rrhf)
 ----------------------------------------------------------------------
 -----
 title
 -----
 Symbolic Z-matrix:
 Charge =  0 Multiplicity = 1

 SCF Done:  E(RHF) =  -1662.50542149     A.U. after   15 cycles
 Normal termination of Gaussian 16 at Tue Apr  8 22:49:53 2025.
 Gaussian 16:  ES64L-G16RevC.01  3-Jul-2019

 ----------------------------------------------------------------------
 #t hf aug-cc-pvdz iop(5/13=1,5/36=2,99/5=2) pseudo=read geom=check gue
 ss=(read,tcheck) scf=(maxcycle=1)
 ----------------------------------------------------------------------
 -----
 title
 -----
 Structure from the checkpoint file:  "BDE49_expt_1730_mol1.chk"
 Charge =  0 Multiplicity = 1

                         Standard orientation:
 ---------------------------------------------------------------------
 Center     Atomic      Atomic             Coordinates (Angstroms)
 Number     Number       Type             X           Y           Z
 ---------------------------------------------------------------------
      1          6           0        2.738890    1.156852   -0.000016
      2          6           0        1.344933    1.234662   -0.000016
      3          7           0        3.421995    0.013901   -0.000006
      4          6           0        2.707185   -1.117280    0.000005
      5          6           0        1.319230   -1.155150    0.000006
      6          6           0        0.613267    0.051888   -0.000005
      7          1           0        3.327558    2.069635   -0.000025
      8          1           0        0.859645    2.199571   -0.000025
      9          1           0        3.274452   -2.043120    0.000013
     10          1           0        0.802339   -2.105912    0.000015
     11          6           0       -0.907574    0.016840   -0.000000
     12         17           0       -1.659024    1.646712   -0.000043
     13         17           0       -1.497350   -0.862854    1.466727
     14         17           0       -1.497364   -0.862937   -1.466670
 ---------------------------------------------------------------------

 SCF Done:  E(RHF) =  -1662.63933079     A.U. after    2 cycles

 The electronic state is 1-A.
 Alpha  occ. eigenvalues -- -103.69758-103.69430-103.69430 -15.64960 -11.46689
 Alpha  occ. eigenvalues --  -11.31099 -11.30320 -11.30169 -11.27412 -11.27274
 Alpha  occ. eigenvalues --  -10.73058 -10.72696 -10.72682  -8.38774  -8.38453
 Alpha  occ. eigenvalues --   -8.38436  -8.38407  -8.38402  -8.38077  -8.38074
 Alpha  occ. eigenvalues --   -8.38071  -8.38069  -1.27484  -1.24749  -1.16392
 Alpha  occ. eigenvalues --   -1.15969  -1.10888  -1.04809  -0.93541  -0.88024
 Alpha  occ. eigenvalues --   -0.82439  -0.73353  -0.70196  -0.67427  -0.64833
 Alpha  occ. eigenvalues --   -0.63139  -0.62666  -0.61890  -0.56263  -0.54270
 Alpha  occ. eigenvalues --   -0.52310  -0.51782  -0.49442  -0.48076  -0.47918
 Alpha  occ. eigenvalues --   -0.46883  -0.43311  -0.40009  -0.36701
 Alpha virt. eigenvalues --    0.03465   0.03744   0.05064   0.05414   0.06253
 Alpha virt. eigenvalues --    0.07689   0.07757   0.09075   0.09239   0.09546
 Alpha virt. eigenvalues --    0.10651   0.10948   0.11816   0.12914   0.13446

 Mulliken charges:
               1
     1  C    0.201742
     2  C    1.198478
     3  N   -0.393693
     4  C    0.290535
     5  C    0.930835
     6  C    0.447277
     7  H   -0.315593
     8  H   -0.488599
     9  H   -0.313979
    10  H   -0.557561
    11  C   -1.067069
    12  Cl  -0.056580
    13  Cl   0.062104
    14  Cl   0.062102
 Sum of Mulliken charges =  -0.00000

 Dipole moment (field-independent basis, Debye):
    X=              0.0638    Y=              0.1659    Z=             -0.0000  Tot=              0.1778

 Test job not archived.
 1\1\GINC-SE141\SP\RHF\Aug-CC-pVDZ\C6H4Cl3N1\OHZDE\08-Apr-2025\0\\#t hf
  aug-cc-pvdz iop(5/13=1,5/36=2,99/5=2) pseudo=read geom=check guess=(r
 ead,tcheck) scf=(maxcycle=1)\\title\\0,1\C,0,2.73889,1.156852,-0.00001
 6\C,0,1.344933,1.234662,-0.000016\N,0,3.421995,0.013901,-0.000006\C,0,
 2.707185,-1.11728,0.000005\C,0,1.31923,-1.15515,0.000006\C,0,0.613267,
 0.051888,-0.000005\H,0,3.327558,2.069635,-0.000025\H,0,0.859645,2.1995
 71,-0.000025\H,0,3.274452,-2.04312,0.000013\H,0,0.802339,-2.105912,0.0
 00015\C,0,-0.907574,0.01684,0.\Cl,0,-1.659024,1.646712,-0.000043\Cl,0,

 Normal termination of Gaussian 16 at Tue Apr  8 22:50:01 2025.
