 Gaussian 16, Revision C.01,

 ----------------------------------------------------------------------
 #t hf aug-cc-pvdz symm=none int=(grid=ultrafine) guess=(read,tcheck) s
 table=(opt,rrhf)
 ----------------------------------------------------------------------
 -----
 title
 -----
 Symbolic Z-matrix:
 Charge =  0 Multiplicity = 1

 SCF Done:  E(RHF) =  -256.296398511     A.U. after   14 cycles
 Normal termination of Gaussian 16 at Wed Apr  9 00:26:33 2025.
 Gaussian 16:  ES64L-G16RevC.01  3-Jul-2019

 ----------------------------------------------------------------------
 #t hf aug-cc-pvdz iop(5/13=1,5/36=2,99/5=2) pseudo=read geom=check gue
 ss=(read,tcheck) scf=(maxcycle=1)
 ----------------------------------------------------------------------
 -----
 title
 -----
 Structure from the checkpoint file:  "BDE49_nonexpt_315_mol1.chk"
 Charge =  0 Multiplicity = 1

                         Standard orientation:
 ---------------------------------------------------------------------
 Center     Atomic      Atomic             Coordinates (Angstroms)
 Number     Number       Type             X           Y           Z
 ---------------------------------------------------------------------
      1          6           0        0.825608   -0.008015    0.164330
      2          5           0       -0.741472    0.007955   -0.081051
      3          6           0       -1.497364    1.382431   -0.068156
      4          1           0       -0.981730    2.170696    0.486178
      5          1           0       -2.529312    1.306300    0.286985
      6          1           0       -1.558577    1.724489   -1.113871
      7          8           0        1.102019   -0.092104    1.355282
      8          6           0        1.901685    0.065608   -0.895577
      9          1           0        1.781564   -0.752252   -1.614504
     10          1           0        2.888928    0.011987   -0.432894
     11          1           0        1.806901    1.000626   -1.459210
     12          6           0       -1.484770   -1.368818   -0.205111
     13          1           0       -0.970386   -2.098336   -0.839276
     14          1           0       -2.526119   -1.284649   -0.526498
     15          1           0       -1.491015   -1.809047    0.803173
 ---------------------------------------------------------------------

 SCF Done:  E(RHF) =  -256.378061148     A.U. after    2 cycles

 The electronic state is 1-A.
 Alpha  occ. eigenvalues --  -20.55878 -11.31608 -11.24509 -11.21476 -11.21397
 Alpha  occ. eigenvalues --   -7.61643  -1.33832  -1.00358  -0.97030  -0.92966
 Alpha  occ. eigenvalues --   -0.78735  -0.67808  -0.62090  -0.60485  -0.59592
 Alpha  occ. eigenvalues --   -0.56921  -0.56406  -0.55366  -0.54249  -0.51784
 Alpha  occ. eigenvalues --   -0.50683  -0.46246  -0.39471
 Alpha virt. eigenvalues --    0.02755   0.04393   0.04773   0.04992   0.06272
 Alpha virt. eigenvalues --    0.06398   0.07109   0.07312   0.08726   0.09371
 Alpha virt. eigenvalues --    0.09476   0.09884   0.10792   0.12871   0.13360

 Mulliken charges:
               1
     1  C    0.229918
     2  B    0.619772
     3  C    0.515460
     4  H   -0.298460
     5  H   -0.291005
     6  H   -0.132572
     7  O   -0.594325
     8  C    0.103922
     9  H    0.037157
    10  H   -0.061415
    11  H    0.013581
    12  C    0.452439
    13  H   -0.239824
    14  H   -0.283306
    15  H   -0.071343
 Sum of Mulliken charges =  -0.00000

 Dipole moment (field-independent basis, Debye):
    X=             -0.9991    Y=              0.2301    Z=             -3.3470  Tot=              3.5006

 Test job not archived.
 1\1\GINC-SE249\SP\RHF\Aug-CC-pVDZ\C4H9B1O1\OHZDE\09-Apr-2025\0\\#t hf
 aug-cc-pvdz iop(5/13=1,5/36=2,99/5=2) pseudo=read geom=check guess=(re
 ad,tcheck) scf=(maxcycle=1)\\title\\0,1\C,0,0.825608,-0.008015,0.16433
 \B,0,-0.741472,0.007955,-0.081051\C,0,-1.497364,1.382431,-0.068156\H,0
 ,-0.98173,2.170696,0.486178\H,0,-2.529312,1.3063,0.286985\H,0,-1.55857
 7,1.724489,-1.113871\O,0,1.102019,-0.092104,1.355282\C,0,1.901685,0.06
 5608,-0.895577\H,0,1.781564,-0.752252,-1.614504\H,0,2.888928,0.011987,
 -0.432894\H,0,1.806901,1.000626,-1.45921\C,0,-1.48477,-1.368818,-0.205

 Normal termination of Gaussian 16 at Wed Apr  9 00:26:39 2025.
