 Gaussian 16, Revision C.01,

 ----------------------------------------------------------------------
 #t hf aug-cc-pvdz symm=none int=(grid=ultrafine) guess=(read,tcheck) s
 table=(opt,rrhf)
 ----------------------------------------------------------------------
 -----
 title
 -----
 Symbolic Z-matrix:
 Charge =  0 Multiplicity = 1

 SCF Done:  E(RHF) =  -1124.39292122     A.U. after   14 cycles
 Normal termination of Gaussian 16 at Tue Apr  8 22:59:06 2025.
 Gaussian 16:  ES64L-G16RevC.01  3-Jul-2019

 ----------------------------------------------------------------------
 #t hf aug-cc-pvdz iop(5/13=1,5/36=2,99/5=2) pseudo=read geom=check gue
 ss=(read,tcheck) scf=(maxcycle=1)
 ----------------------------------------------------------------------
 -----
 title
 -----
 Structure from the checkpoint file:  "BDE49_expt_1982_mol1.chk"
 Charge =  0 Multiplicity = 1

                         Standard orientation:
 ---------------------------------------------------------------------
 Center     Atomic      Atomic             Coordinates (Angstroms)
 Number     Number       Type             X           Y           Z
 ---------------------------------------------------------------------
      1         16           0        0.769459   -0.544706    0.035678
      2          8           0        1.579058   -1.224415   -0.935609
      3          8           0        0.784011   -0.902329    1.426589
      4          6           0       -0.933758   -0.454841   -0.570222
      5         17           0        1.319628    1.513552   -0.063560
      6          6           0       -1.904516    0.235440    0.382968
      7          1           0       -1.179864   -1.511427   -0.719801
      8          1           0       -0.862007    0.027164   -1.546424
      9          6           0       -3.335489    0.200683   -0.167873
     10          1           0       -1.589996    1.270537    0.535615
     11          1           0       -1.861640   -0.259510    1.355582
     12          1           0       -3.406659    0.712798   -1.131481
     13          1           0       -4.019264    0.697273    0.523703
     14          1           0       -3.687570   -0.825670   -0.304582
 ---------------------------------------------------------------------

 SCF Done:  E(RHF) =  -1124.57063699     A.U. after    2 cycles

 The electronic state is 1-A.
 Alpha  occ. eigenvalues -- -103.68522 -93.83633 -20.60085 -20.60026 -11.31896
 Alpha  occ. eigenvalues --  -11.27342 -11.25691 -10.71817  -9.10056  -8.37519
 Alpha  occ. eigenvalues --   -8.37207  -8.37190  -6.44640  -6.44478  -6.44279
 Alpha  occ. eigenvalues --   -1.46258  -1.34976  -1.16656  -1.10952  -1.00370
 Alpha  occ. eigenvalues --   -0.87659  -0.83076  -0.72744  -0.71827  -0.69435
 Alpha  occ. eigenvalues --   -0.67561  -0.61821  -0.59399  -0.58011  -0.56538
 Alpha  occ. eigenvalues --   -0.54210  -0.53433  -0.52663  -0.51828  -0.49577
 Alpha  occ. eigenvalues --   -0.48459  -0.47808
 Alpha virt. eigenvalues --    0.02605   0.04079   0.04375   0.04613   0.05981
 Alpha virt. eigenvalues --    0.07027   0.07361   0.07926   0.09798   0.10954
 Alpha virt. eigenvalues --    0.11600   0.12627   0.13224   0.14706   0.14919

 Mulliken charges:
               1
     1  S    2.618513
     2  O   -1.039691
     3  O   -1.065105
     4  C   -0.399114
     5  Cl  -0.277370
     6  C    0.210972
     7  H   -0.004717
     8  H   -0.087924
     9  C    0.400309
    10  H   -0.108649
    11  H   -0.067698
    12  H   -0.059168
    13  H   -0.054611
    14  H   -0.065745
 Sum of Mulliken charges =   0.00000

 Dipole moment (field-independent basis, Debye):
    X=             -4.8412    Y=              1.0494    Z=             -1.2485  Tot=              5.1086

 Test job not archived.
 1\1\GINC-SE435\SP\RHF\Aug-CC-pVDZ\C3H7Cl1O2S1\OHZDE\08-Apr-2025\0\\#t
 hf aug-cc-pvdz iop(5/13=1,5/36=2,99/5=2) pseudo=read geom=check guess=
 (read,tcheck) scf=(maxcycle=1)\\title\\0,1\S,0,0.769459,-0.544706,0.03
 5678\O,0,1.579058,-1.224415,-0.935609\O,0,0.784011,-0.902329,1.426589\
 C,0,-0.933758,-0.454841,-0.570222\Cl,0,1.319628,1.513552,-0.06356\C,0,
 -1.904516,0.23544,0.382968\H,0,-1.179864,-1.511427,-0.719801\H,0,-0.86
 2007,0.027164,-1.546424\C,0,-3.335489,0.200683,-0.167873\H,0,-1.589996
 ,1.270537,0.535615\H,0,-1.86164,-0.25951,1.355582\H,0,-3.406659,0.7127

 Normal termination of Gaussian 16 at Tue Apr  8 22:59:11 2025.
