 Gaussian 16, Revision C.01,

 ----------------------------------------------------------------------
 #t hf aug-cc-pvdz symm=none int=(grid=ultrafine) guess=(read,tcheck) s
 table=opt
 ----------------------------------------------------------------------
 -----
 title
 -----
 Symbolic Z-matrix:
 Charge =  0 Multiplicity = 2

 SCF Done:  E(UHF) =  -710.930053893     A.U. after   17 cycles
 Normal termination of Gaussian 16 at Wed Apr  9 00:31:27 2025.
 Gaussian 16:  ES64L-G16RevC.01  3-Jul-2019

 ----------------------------------------------------------------------
 #t hf aug-cc-pvdz iop(5/13=1,5/36=2,99/5=2) pseudo=read geom=check gue
 ss=(read,tcheck) scf=(maxcycle=1)
 ----------------------------------------------------------------------
 -----
 title
 -----
 Structure from the checkpoint file:  "BDE49_nonexpt_404_mol2.chk"
 Charge =  0 Multiplicity = 2

                         Standard orientation:
 ---------------------------------------------------------------------
 Center     Atomic      Atomic             Coordinates (Angstroms)
 Number     Number       Type             X           Y           Z
 ---------------------------------------------------------------------
      1          9           0       -2.405809    0.226102   -0.000029
      2          5           0       -1.283072    0.868500   -0.000025
      3         16           0        0.357223   -0.163885    0.000012
      4          8           0        0.414023   -0.874208   -1.269715
      5          6           0        1.662595    1.063978   -0.000058
      6          8           0        0.414039   -0.874081    1.269810
      7          1           0        1.575543    1.670178   -0.901112
      8          1           0        2.600915    0.506743   -0.000034
      9          1           0        1.575553    1.670271    0.900935
 ---------------------------------------------------------------------

 SCF Done:  E(UHF) =  -711.111981357     A.U. after    2 cycles

 The electronic state is 2-A.
 Alpha  occ. eigenvalues --  -93.78461 -26.19842 -20.57178 -20.57177 -11.29932
 Alpha  occ. eigenvalues --   -9.05422  -7.78336  -6.39977  -6.39884  -6.39708
 Alpha  occ. eigenvalues --   -1.74464  -1.42697  -1.31673  -1.05146  -0.92251
 Alpha  occ. eigenvalues --   -0.87274  -0.81963  -0.79653  -0.72840  -0.68643
 Alpha  occ. eigenvalues --   -0.67752  -0.62331  -0.61414  -0.54091  -0.54008
 Alpha  occ. eigenvalues --   -0.50511  -0.49385  -0.40092
 Alpha virt. eigenvalues --    0.02096   0.02758   0.04468   0.05465   0.05792
 Alpha virt. eigenvalues --    0.06726   0.07386   0.08400   0.12350   0.13129
 Alpha virt. eigenvalues --    0.13850   0.14571   0.16201   0.16390   0.17200

  Beta  occ. eigenvalues --  -93.78313 -26.19558 -20.56978 -20.56977 -11.29942
  Beta  occ. eigenvalues --   -9.05222  -7.76372  -6.39922  -6.39636  -6.39343
  Beta  occ. eigenvalues --   -1.73649  -1.42083  -1.31070  -1.04948  -0.90930
  Beta  occ. eigenvalues --   -0.85632  -0.79859  -0.79521  -0.71592  -0.68146
  Beta  occ. eigenvalues --   -0.67341  -0.61912  -0.61227  -0.52965  -0.51827
  Beta  occ. eigenvalues --   -0.50394  -0.45711
  Beta virt. eigenvalues --    0.00634   0.03490   0.03831   0.05402   0.05763
  Beta virt. eigenvalues --    0.06325   0.06761   0.08505   0.09180   0.12399
  Beta virt. eigenvalues --    0.13840   0.14085   0.15710   0.16463   0.16799

 Mulliken charges and spin densities:
               1          2
     1  F   -0.278593  -0.033407
     2  B    0.477245   0.946221
     3  S    1.985979   0.031177
     4  O   -1.061850   0.035182
     5  C   -0.042923  -0.006799
     6  O   -1.061850   0.035180
     7  H   -0.020988  -0.001650
     8  H    0.023966  -0.004253
     9  H   -0.020985  -0.001650
 Sum of Mulliken charges =  -0.00000   1.00000

 Dipole moment (field-independent basis, Debye):
    X=              0.9097    Y=              5.1709    Z=             -0.0002  Tot=              5.2503
                          Isotropic Fermi Contact Couplings
        Atom                 a.u.       MegaHertz       Gauss      10(-4) cm-1
     1  F(19)              0.05500     231.41146      82.57336      77.19055
     2  B(11)              0.40031     574.19480     204.88698     191.53077
     3  S(33)              0.24197      83.11057      29.65592      27.72270
     4  O(17)              0.01579      -9.57102      -3.41518      -3.19255
     5  C(13)             -0.00451      -5.07531      -1.81100      -1.69294
     6  O(17)              0.01579      -9.57007      -3.41484      -3.19223
     7  H(1)               0.00002       0.09168       0.03271       0.03058
     8  H(1)              -0.00069      -3.08210      -1.09977      -1.02808

 Normal termination of Gaussian 16 at Wed Apr  9 00:31:31 2025.
