 Gaussian 16, Revision C.01,

 ----------------------------------------------------------------------
 #t hf aug-cc-pvdz symm=none int=(grid=ultrafine) guess=(read,tcheck) s
 table=opt
 ----------------------------------------------------------------------
 -----
 title
 -----
 Symbolic Z-matrix:
 Charge =  0 Multiplicity = 2

 SCF Done:  E(UHF) =  -306.361592070     A.U. after   20 cycles
 Normal termination of Gaussian 16 at Tue Apr  8 22:43:08 2025.
 Gaussian 16:  ES64L-G16RevC.01  3-Jul-2019

 ----------------------------------------------------------------------
 #t hf aug-cc-pvdz iop(5/13=1,5/36=2,99/5=2) pseudo=read geom=check gue
 ss=(read,tcheck) scf=(maxcycle=1)
 ----------------------------------------------------------------------
 -----
 title
 -----
 Structure from the checkpoint file:  "BDE49_expt_1474_mol2.chk"
 Charge =  0 Multiplicity = 2

                         Standard orientation:
 ---------------------------------------------------------------------
 Center     Atomic      Atomic             Coordinates (Angstroms)
 Number     Number       Type             X           Y           Z
 ---------------------------------------------------------------------
      1          8           0       -1.972131   -0.000000   -0.196463
      2          8           0       -0.833566   -0.000008   -0.851343
      3          6           0        0.369445    0.000000    0.048916
      4          6           0        0.316707    1.269091    0.892524
      5          1           0        0.327354    2.156674    0.255815
      6          1           0        1.181575    1.310833    1.559170
      7          1           0       -0.591430    1.281883    1.496213
      8          6           0        0.316696   -1.269066    0.892559
      9          1           0        0.327336   -2.156667    0.255875
     10          1           0        1.181564   -1.310797    1.559207
     11          1           0       -0.591441   -1.281834    1.496248
     12          6           0        1.524063   -0.000018   -0.945104
     13          1           0        1.486475    0.886325   -1.582001
     14          1           0        1.486468   -0.886378   -1.581976
     15          1           0        2.476215   -0.000015   -0.409476
 ---------------------------------------------------------------------

 SCF Done:  E(UHF) =  -306.458881587     A.U. after    2 cycles

 The electronic state is 2-A.
 Alpha  occ. eigenvalues --  -20.67561 -20.66031 -11.31562 -11.23890 -11.23571
 Alpha  occ. eigenvalues --  -11.23563  -1.50618  -1.19031  -1.05674  -0.95138
 Alpha  occ. eigenvalues --   -0.95073  -0.79479  -0.76270  -0.69640  -0.69110
 Alpha  occ. eigenvalues --   -0.62708  -0.60577  -0.57833  -0.55867  -0.55371
 Alpha  occ. eigenvalues --   -0.53231  -0.52475  -0.50007  -0.47979  -0.47302
 Alpha virt. eigenvalues --    0.03351   0.04602   0.04654   0.05364   0.06752
 Alpha virt. eigenvalues --    0.06819   0.07364   0.07518   0.09548   0.10963
 Alpha virt. eigenvalues --    0.14137   0.14198   0.15005   0.15116   0.15608

  Beta  occ. eigenvalues --  -20.65041 -20.63530 -11.31637 -11.23893 -11.23554
  Beta  occ. eigenvalues --  -11.23547  -1.44146  -1.13071  -1.01597  -0.94974
  Beta  occ. eigenvalues --   -0.94895  -0.78092  -0.68435  -0.67284  -0.64000
  Beta  occ. eigenvalues --   -0.60279  -0.57971  -0.56786  -0.55245  -0.53172
  Beta  occ. eigenvalues --   -0.52952  -0.49425  -0.47753  -0.45522
  Beta virt. eigenvalues --    0.03354   0.04598   0.04659   0.05371   0.06732
  Beta virt. eigenvalues --    0.06820   0.07359   0.07369   0.09497   0.10536
  Beta virt. eigenvalues --    0.10982   0.14182   0.14266   0.15055   0.15159

 Mulliken charges and spin densities:
               1          2
     1  O   -0.172451   0.929201
     2  O   -0.423138   0.083906
     3  C   -2.067946   0.007998
     4  C    0.810473  -0.001820
     5  H    0.004181  -0.001904
     6  H    0.066548  -0.001467
     7  H    0.003723  -0.006898
     8  C    0.810471  -0.001820
     9  H    0.004181  -0.001904
    10  H    0.066550  -0.001467
    11  H    0.003723  -0.006898
    12  C    0.832531   0.002465
    13  H   -0.010352   0.001098
    14  H   -0.010353   0.001098
    15  H    0.081858  -0.001588
 Sum of Mulliken charges =   0.00000   1.00000

 Dipole moment (field-independent basis, Debye):
    X=              2.5659    Y=              0.0000    Z=              1.2527  Tot=              2.8554
                          Isotropic Fermi Contact Couplings
        Atom                 a.u.       MegaHertz       Gauss      10(-4) cm-1
     1  O(17)              0.30062    -182.23381     -65.02556     -60.78666
     2  O(17)              0.10471     -63.47478     -22.64938     -21.17291
     3  C(13)             -0.01112     -12.50133      -4.46079      -4.17000
     4  C(13)              0.00070       0.78968       0.28178       0.26341
     5  H(1)              -0.00019      -0.84714      -0.30228      -0.28257
     6  H(1)              -0.00071      -3.17062      -1.13136      -1.05760
     7  H(1)              -0.00015      -0.68134      -0.24312      -0.22727
     8  C(13)              0.00070       0.78963       0.28176       0.26339

 Normal termination of Gaussian 16 at Tue Apr  8 22:43:13 2025.
