 Gaussian 16, Revision C.01,

 ----------------------------------------------------------------------
 #t hf aug-cc-pvdz symm=none int=(grid=ultrafine) guess=(read,tcheck) s
 table=(opt,rrhf)
 ----------------------------------------------------------------------
 -----
 title
 -----
 Symbolic Z-matrix:
 Charge =  0 Multiplicity = 1

 SCF Done:  E(RHF) =  -424.349004813     A.U. after   12 cycles
 Normal termination of Gaussian 16 at Tue Apr  8 23:50:25 2025.
 Gaussian 16:  ES64L-G16RevC.01  3-Jul-2019

 ----------------------------------------------------------------------
 #t hf aug-cc-pvdz iop(5/13=1,5/36=2,99/5=2) pseudo=read geom=check gue
 ss=(read,tcheck) scf=(maxcycle=1)
 ----------------------------------------------------------------------
 -----
 title
 -----
 Structure from the checkpoint file:  "BDE49_nonexpt_1898_mol1.chk"
 Charge =  0 Multiplicity = 1

                         Standard orientation:
 ---------------------------------------------------------------------
 Center     Atomic      Atomic             Coordinates (Angstroms)
 Number     Number       Type             X           Y           Z
 ---------------------------------------------------------------------
      1         14           0       -1.734078   -0.094431    0.034533
      2          6           0        0.017413    0.608282   -0.093527
      3          1           0       -1.879152   -1.233405   -0.907102
      4          1           0       -2.728606    0.944189   -0.331567
      5          1           0       -2.013590   -0.573746    1.406624
      6          7           0        1.004028   -0.464490    0.044207
      7          6           0        2.386482    0.004408    0.057940
      8          1           0        0.883410   -1.133546   -0.708769
      9          1           0        2.557964    0.605564    0.955683
     10          1           0        2.658410    0.622338   -0.815701
     11          1           0        3.063328   -0.852564    0.099465
     12          1           0        0.150794    1.311033    0.738279
     13          1           0        0.132974    1.207454   -1.016296
 ---------------------------------------------------------------------

 SCF Done:  E(RHF) =  -424.415772237     A.U. after    2 cycles

 The electronic state is 1-A.
 Alpha  occ. eigenvalues --  -69.05653 -15.61495 -11.25626 -11.25020  -6.80998
 Alpha  occ. eigenvalues --   -3.91780  -3.91769  -3.91754  -1.16939  -0.94377
 Alpha  occ. eigenvalues --   -0.85033  -0.69845  -0.65008  -0.60181  -0.59061
 Alpha  occ. eigenvalues --   -0.55034  -0.51633  -0.47287  -0.46907  -0.44156
 Alpha  occ. eigenvalues --   -0.36627
 Alpha virt. eigenvalues --    0.03427   0.04244   0.04609   0.04772   0.06613
 Alpha virt. eigenvalues --    0.07328   0.07517   0.08328   0.09256   0.09852
 Alpha virt. eigenvalues --    0.09997   0.10588   0.13042   0.15393   0.15995

 Mulliken charges:
               1
     1  Si   0.398781
     2  C    0.437456
     3  H   -0.063956
     4  H   -0.025714
     5  H   -0.011896
     6  N   -0.531218
     7  C    0.699823
     8  H   -0.011976
     9  H   -0.159945
    10  H   -0.061693
    11  H   -0.221097
    12  H   -0.230018
    13  H   -0.218550
 Sum of Mulliken charges =  -0.00000

 Dipole moment (field-independent basis, Debye):
    X=              0.8590    Y=              0.5637    Z=             -0.8815  Tot=              1.3538

 Test job not archived.
 1\1\GINC-SE424\SP\RHF\Aug-CC-pVDZ\C2H9N1Si1\OHZDE\08-Apr-2025\0\\#t hf
  aug-cc-pvdz iop(5/13=1,5/36=2,99/5=2) pseudo=read geom=check guess=(r
 ead,tcheck) scf=(maxcycle=1)\\title\\0,1\Si,0,-1.734078,-0.094431,0.03
 4533\C,0,0.017413,0.608282,-0.093527\H,0,-1.879152,-1.233405,-0.907102
 \H,0,-2.728606,0.944189,-0.331567\H,0,-2.01359,-0.573746,1.406624\N,0,
 1.004028,-0.46449,0.044207\C,0,2.386482,0.004408,0.05794\H,0,0.88341,-
 1.133546,-0.708769\H,0,2.557964,0.605564,0.955683\H,0,2.65841,0.622338
 ,-0.815701\H,0,3.063328,-0.852564,0.099465\H,0,0.150794,1.311033,0.738

 Normal termination of Gaussian 16 at Tue Apr  8 23:50:28 2025.
