 Gaussian 16, Revision C.01,

 ----------------------------------------------------------------------
 #t hf aug-cc-pvdz symm=none int=(grid=ultrafine) guess=(read,tcheck) s
 table=(opt,rrhf)
 ----------------------------------------------------------------------
 -----
 title
 -----
 Symbolic Z-matrix:
 Charge =  0 Multiplicity = 1

 SCF Done:  E(RHF) =  -390.927653471     A.U. after   13 cycles
 Normal termination of Gaussian 16 at Wed Apr  9 00:32:15 2025.
 Gaussian 16:  ES64L-G16RevC.01  3-Jul-2019

 ----------------------------------------------------------------------
 #t hf aug-cc-pvdz iop(5/13=1,5/36=2,99/5=2) pseudo=read geom=check gue
 ss=(read,tcheck) scf=(maxcycle=1)
 ----------------------------------------------------------------------
 -----
 title
 -----
 Structure from the checkpoint file:  "BDE49_nonexpt_409_mol1.chk"
 Charge =  0 Multiplicity = 1

                         Standard orientation:
 ---------------------------------------------------------------------
 Center     Atomic      Atomic             Coordinates (Angstroms)
 Number     Number       Type             X           Y           Z
 ---------------------------------------------------------------------
      1          9           0       -0.801375    1.331305    0.000000
      2          5           0       -0.853190    0.020851    0.000001
      3          6           0        1.492838   -0.244593   -0.000001
      4          7           0        2.581842    0.136928    0.000000
      5          8           0        0.297218   -0.745623    0.000000
      6          9           0       -1.992150   -0.623550    0.000000
 ---------------------------------------------------------------------

 SCF Done:  E(RHF) =  -391.077175980     A.U. after    2 cycles

 The electronic state is 1-A.
 Alpha  occ. eigenvalues --  -26.19307 -26.18974 -20.71374 -15.66462 -11.38190
 Alpha  occ. eigenvalues --   -7.83823  -1.74720  -1.72791  -1.48644  -1.21657
 Alpha  occ. eigenvalues --   -0.96855  -0.91487  -0.88498  -0.83001  -0.80166
 Alpha  occ. eigenvalues --   -0.77508  -0.77227  -0.72849  -0.71670  -0.57591
 Alpha  occ. eigenvalues --   -0.48761  -0.47978
 Alpha virt. eigenvalues --    0.03460   0.04483   0.04973   0.05411   0.10064
 Alpha virt. eigenvalues --    0.10878   0.11031   0.14348   0.14420   0.17366
 Alpha virt. eigenvalues --    0.18439   0.19277   0.20665   0.21559   0.22837

 Mulliken charges:
               1
     1  F   -0.358623
     2  B    1.033631
     3  C    0.031414
     4  N   -0.054142
     5  O   -0.210863
     6  F   -0.441418
 Sum of Mulliken charges =  -0.00000

 Dipole moment (field-independent basis, Debye):
    X=             -2.4251    Y=             -0.6518    Z=              0.0000  Tot=              2.5112

 Test job not archived.
 1\1\GINC-SE120\SP\RHF\Aug-CC-pVDZ\C1B1F2N1O1\OHZDE\09-Apr-2025\0\\#t h
 f aug-cc-pvdz iop(5/13=1,5/36=2,99/5=2) pseudo=read geom=check guess=(
 read,tcheck) scf=(maxcycle=1)\\title\\0,1\F,0,-0.801375,1.331305,0.\B,
 0,-0.85319,0.020851,0.000001\C,0,1.492838,-0.244593,-0.000001\N,0,2.58
 1842,0.136928,0.\O,0,0.297218,-0.745623,0.\F,0,-1.99215,-0.62355,0.\\V
 ersion=ES64L-G16RevC.01\State=1-A\HF=-391.077176\RMSD=4.714e-03\Dipole
 =-0.9541159,-0.2564295,0.0000018\Quadrupole=-5.8020343,1.1077595,4.694
 2748,-1.456576,-0.0000048,0.0000009\PG=C01 [X(C1B1F2N1O1)]\\@

 Normal termination of Gaussian 16 at Wed Apr  9 00:32:18 2025.
