 Gaussian 16, Revision C.01,

 ----------------------------------------------------------------------
 #t hf aug-cc-pvdz symm=none int=(grid=ultrafine) guess=(read,tcheck) s
 table=(opt,rrhf)
 ----------------------------------------------------------------------
 -----
 title
 -----
 Symbolic Z-matrix:
 Charge =  0 Multiplicity = 1

 SCF Done:  E(RHF) =  -787.034607877     A.U. after   15 cycles
 Normal termination of Gaussian 16 at Wed Apr  9 00:45:44 2025.
 Gaussian 16:  ES64L-G16RevC.01  3-Jul-2019

 ----------------------------------------------------------------------
 #t hf aug-cc-pvdz iop(5/13=1,5/36=2,99/5=2) pseudo=read geom=check gue
 ss=(read,tcheck) scf=(maxcycle=1)
 ----------------------------------------------------------------------
 -----
 title
 -----
 Structure from the checkpoint file:  "BDE49_nonexpt_793_mol1.chk"
 Charge =  0 Multiplicity = 1

                         Standard orientation:
 ---------------------------------------------------------------------
 Center     Atomic      Atomic             Coordinates (Angstroms)
 Number     Number       Type             X           Y           Z
 ---------------------------------------------------------------------
      1         14           0        0.095477    0.104799   -0.992877
      2          7           0       -0.680610    1.602405   -0.096848
      3          5           0        1.852759   -0.215373   -0.014933
      4          8           0        0.023543    2.252540    0.693425
      5          8           0       -1.840418    1.891444   -0.345203
      6          8           0        2.304899    0.633575    0.935360
      7          8           0        2.551539   -1.333573   -0.353360
      8          6           0       -1.202173   -1.251814   -0.984320
      9          6           0       -1.276623   -2.116774    0.290131
     10          1           0       -0.982262   -1.884024   -1.853613
     11          1           0       -2.167778   -0.776375   -1.190526
     12          6           0       -1.645490   -1.334134    1.554521
     13          1           0       -0.317513   -2.624140    0.439959
     14          1           0       -2.016443   -2.908256    0.129985
     15          1           0       -0.880496   -0.595234    1.816761
     16          1           0       -1.749510   -2.003681    2.411875
     17          1           0       -2.590547   -0.798234    1.429769
     18          1           0        3.374372   -1.416743    0.146823
     19          1           0        1.690240    1.378111    1.065836
     20          1           0        0.232953    0.685864   -2.347760
 ---------------------------------------------------------------------

 SCF Done:  E(RHF) =  -787.218061485     A.U. after    2 cycles

 The electronic state is 1-A.
 Alpha  occ. eigenvalues --  -69.11002 -20.62629 -20.61812 -20.60272 -20.59098
 Alpha  occ. eigenvalues --  -15.88308 -11.25322 -11.24731 -11.23821  -7.68248
 Alpha  occ. eigenvalues --   -6.86243  -3.97084  -3.96882  -3.96832  -1.53316
 Alpha  occ. eigenvalues --   -1.36145  -1.35425  -1.32353  -1.06649  -0.95247
 Alpha  occ. eigenvalues --   -0.92952  -0.82797  -0.80053  -0.79647  -0.75916
 Alpha  occ. eigenvalues --   -0.73250  -0.70847  -0.67030  -0.64204  -0.62455
 Alpha  occ. eigenvalues --   -0.61827  -0.60616  -0.60267  -0.57404  -0.53633
 Alpha  occ. eigenvalues --   -0.52977  -0.52322  -0.50809  -0.49738  -0.48070
 Alpha  occ. eigenvalues --   -0.47546  -0.46172  -0.43487
 Alpha virt. eigenvalues --    0.02559   0.03604   0.03978   0.05018   0.05669
 Alpha virt. eigenvalues --    0.05926   0.06170   0.06650   0.06854   0.07585
 Alpha virt. eigenvalues --    0.08586   0.08608   0.09134   0.09307   0.09847

 Mulliken charges:
               1
     1  Si   0.581804
     2  N    0.456223
     3  B    0.960149
     4  O   -0.686292
     5  O   -0.606288
     6  O   -0.509590
     7  O   -0.509783
     8  C    0.132858
     9  C    0.177529
    10  H   -0.196852
    11  H   -0.144382
    12  C    0.458940
    13  H   -0.158872
    14  H   -0.075934
    15  H   -0.153697
    16  H   -0.133644
    17  H   -0.089323
    18  H    0.180582
    19  H    0.302917
    20  H    0.013656
 Sum of Mulliken charges =  -0.00000

 Dipole moment (field-independent basis, Debye):
    X=              1.0347    Y=             -3.7094    Z=             -1.1517  Tot=              4.0195

 Test job not archived.
 1\1\GINC-SE150\SP\RHF\Aug-CC-pVDZ\C3H10B1N1O4Si1\OHZDE\09-Apr-2025\0\\
 #t hf aug-cc-pvdz iop(5/13=1,5/36=2,99/5=2) pseudo=read geom=check gue
 ss=(read,tcheck) scf=(maxcycle=1)\\title\\0,1\Si,0,-0.095477,-0.104799
 ,-0.992877\N,0,0.68061,-1.602405,-0.096848\B,0,-1.852759,0.215373,-0.0
 14933\O,0,-0.023543,-2.25254,0.693425\O,0,1.840418,-1.891444,-0.345203
 \O,0,-2.304899,-0.633575,0.93536\O,0,-2.551539,1.333573,-0.35336\C,0,1
 .202173,1.251814,-0.98432\C,0,1.276623,2.116774,0.290131\H,0,0.982262,
 1.884024,-1.853613\H,0,2.167778,0.776375,-1.190526\C,0,1.64549,1.33413

 Normal termination of Gaussian 16 at Wed Apr  9 00:45:57 2025.
