 Gaussian 16, Revision C.01,

 ----------------------------------------------------------------------
 #t hf aug-cc-pvdz symm=none int=(grid=ultrafine) guess=(read,tcheck) s
 table=(opt,rrhf)
 ----------------------------------------------------------------------
 -----
 title
 -----
 Symbolic Z-matrix:
 Charge =  0 Multiplicity = 1

 SCF Done:  E(RHF) =  -935.685521684     A.U. after   14 cycles
 Normal termination of Gaussian 16 at Wed Apr  9 00:15:34 2025.
 Gaussian 16:  ES64L-G16RevC.01  3-Jul-2019

 ----------------------------------------------------------------------
 #t hf aug-cc-pvdz iop(5/13=1,5/36=2,99/5=2) pseudo=read geom=check gue
 ss=(read,tcheck) scf=(maxcycle=1)
 ----------------------------------------------------------------------
 -----
 title
 -----
 Structure from the checkpoint file:  "BDE49_nonexpt_2543_mol1.chk"
 Charge =  0 Multiplicity = 1

                         Standard orientation:
 ---------------------------------------------------------------------
 Center     Atomic      Atomic             Coordinates (Angstroms)
 Number     Number       Type             X           Y           Z
 ---------------------------------------------------------------------
      1         17           0        1.525921   -0.593048    0.068198
      2         16           0        0.196528    0.988820   -0.204692
      3          6           0       -1.330889    0.291947    0.507149
      4          6           0       -1.944087   -0.867871   -0.267477
      5          1           0       -1.137818    0.037700    1.550987
      6          1           0       -2.167243   -0.579988   -1.296654
      7          1           0       -2.873767   -1.187391    0.213161
      8          1           0       -1.266725   -1.723496   -0.290932
      9          1           0       -1.989698    1.169419    0.501114
 ---------------------------------------------------------------------

 SCF Done:  E(RHF) =  -935.751897324     A.U. after    2 cycles

 The electronic state is 1-A.
 Alpha  occ. eigenvalues -- -103.67263 -93.59058 -11.29208 -11.24554 -10.70423
 Alpha  occ. eigenvalues --   -8.88413  -8.36152  -8.35818  -8.35787  -6.22498
 Alpha  occ. eigenvalues --   -6.22214  -6.21824  -1.16309  -1.06197  -0.92991
 Alpha  occ. eigenvalues --   -0.81468  -0.65041  -0.61035  -0.56943  -0.54000
 Alpha  occ. eigenvalues --   -0.51881  -0.50353  -0.49846  -0.44102  -0.36216
 Alpha virt. eigenvalues --    0.03341   0.04412   0.05038   0.06092   0.06389
 Alpha virt. eigenvalues --    0.07696   0.08768   0.12160   0.12949   0.13218
 Alpha virt. eigenvalues --    0.14691   0.15238   0.16071   0.16503   0.16770

 Mulliken charges:
               1
     1  Cl  -0.336771
     2  S    0.442001
     3  C   -0.259713
     4  C    0.300135
     5  H   -0.033605
     6  H   -0.047882
     7  H   -0.044494
     8  H   -0.043622
     9  H    0.023951
 Sum of Mulliken charges =  -0.00000

 Dipole moment (field-independent basis, Debye):
    X=             -2.6785    Y=              0.1508    Z=              0.5148  Tot=              2.7316

 Test job not archived.
 1\1\GINC-SE398\SP\RHF\Aug-CC-pVDZ\C2H5Cl1S1\OHZDE\09-Apr-2025\0\\#t hf
  aug-cc-pvdz iop(5/13=1,5/36=2,99/5=2) pseudo=read geom=check guess=(r
 ead,tcheck) scf=(maxcycle=1)\\title\\0,1\Cl,0,1.525921,-0.593049,0.068
 198\S,0,0.196528,0.98882,-0.204692\C,0,-1.330889,0.291947,0.507149\C,0
 ,-1.944087,-0.867871,-0.267477\H,0,-1.137818,0.0377,1.550987\H,0,-2.16
 7243,-0.579988,-1.296654\H,0,-2.873767,-1.187391,0.213161\H,0,-1.26672
 5,-1.723496,-0.290932\H,0,-1.989698,1.169419,0.501114\\Version=ES64L-G
 16RevC.01\State=1-A\HF=-935.7518973\RMSD=4.377e-03\Dipole=-1.0537844,0

 Normal termination of Gaussian 16 at Wed Apr  9 00:15:37 2025.
