 Gaussian 16, Revision C.01,

 ----------------------------------------------------------------------
 #t hf aug-cc-pvdz symm=none int=(grid=ultrafine) guess=(read,tcheck) s
 table=opt
 ----------------------------------------------------------------------
 -----
 title
 -----
 Symbolic Z-matrix:
 Charge =  0 Multiplicity = 2

 SCF Done:  E(UHF) =  -666.959694489     A.U. after   19 cycles
 Normal termination of Gaussian 16 at Tue Apr  8 23:04:57 2025.
 Gaussian 16:  ES64L-G16RevC.01  3-Jul-2019

 ----------------------------------------------------------------------
 #t hf aug-cc-pvdz iop(5/13=1,5/36=2,99/5=2) pseudo=read geom=check gue
 ss=(read,tcheck) scf=(maxcycle=1)
 ----------------------------------------------------------------------
 -----
 title
 -----
 Structure from the checkpoint file:  "BDE49_expt_389_mol2.chk"
 Charge =  0 Multiplicity = 2

                         Standard orientation:
 ---------------------------------------------------------------------
 Center     Atomic      Atomic             Coordinates (Angstroms)
 Number     Number       Type             X           Y           Z
 ---------------------------------------------------------------------
      1          8           0       -0.013301   -1.172841   -0.593585
      2          6           0        1.345842   -1.217459   -0.162445
      3          6           0        1.820082    0.197185   -0.020085
      4          1           0        1.896239   -1.775656   -0.926444
      5          1           0        1.433241   -1.780052    0.783788
      6         16           0        0.517191    1.321564    0.067185
      7          1           0        2.824658    0.482884    0.253437
      8          6           0       -0.731696   -0.108088   -0.005771
      9          6           0       -1.886513    0.238909   -0.932384
     10          1           0       -2.574961   -0.609022   -0.984405
     11          1           0       -1.512787    0.449532   -1.934233
     12          1           0       -2.436444    1.107930   -0.564992
     13          6           0       -1.191814   -0.448261    1.412896
     14          1           0       -0.345350   -0.683541    2.059771
     15          1           0       -1.856062   -1.317246    1.375287
     16          1           0       -1.732589    0.389165    1.858255
 ---------------------------------------------------------------------

 SCF Done:  E(UHF) =  -667.063357924     A.U. after    2 cycles

 The electronic state is 2-A.
 Alpha  occ. eigenvalues --  -93.53447 -20.58642 -11.33928 -11.30298 -11.26493
 Alpha  occ. eigenvalues --  -11.23643 -11.23458  -8.83260  -6.17322  -6.17157
 Alpha  occ. eigenvalues --   -6.17128  -1.35905  -1.07109  -1.06420  -0.95092
 Alpha  occ. eigenvalues --   -0.92737  -0.80911  -0.76893  -0.68032  -0.67745
 Alpha  occ. eigenvalues --   -0.64002  -0.60676  -0.57680  -0.56076  -0.54624
 Alpha  occ. eigenvalues --   -0.52961  -0.51996  -0.50063  -0.47786  -0.43134
 Alpha  occ. eigenvalues --   -0.42280  -0.29165
 Alpha virt. eigenvalues --    0.03526   0.04249   0.04937   0.05108   0.06193
 Alpha virt. eigenvalues --    0.06380   0.06937   0.07725   0.09189   0.09357
 Alpha virt. eigenvalues --    0.11217   0.12311   0.12608   0.13589   0.14852

  Beta  occ. eigenvalues --  -93.53373 -20.58647 -11.33927 -11.30612 -11.23967
  Beta  occ. eigenvalues --  -11.23637 -11.23460  -8.83177  -6.17423  -6.17208
  Beta  occ. eigenvalues --   -6.16573  -1.35859  -1.06915  -1.02612  -0.95012
  Beta  occ. eigenvalues --   -0.92530  -0.77123  -0.76242  -0.67314  -0.67078
  Beta  occ. eigenvalues --   -0.63513  -0.60135  -0.56922  -0.55778  -0.54515
  Beta  occ. eigenvalues --   -0.52344  -0.51590  -0.48312  -0.45866  -0.42136
  Beta  occ. eigenvalues --   -0.36344
  Beta virt. eigenvalues --    0.03542   0.04280   0.04954   0.05123   0.06215
  Beta virt. eigenvalues --    0.06349   0.06936   0.07715   0.09205   0.09387
  Beta virt. eigenvalues --    0.10195   0.11324   0.12451   0.12782   0.13882

 Mulliken charges and spin densities:
               1          2
     1  O   -0.700481  -0.002066
     2  C    0.762950  -0.203091
     3  C   -0.065664   1.275553
     4  H   -0.225027   0.017214
     5  H   -0.118059   0.032622
     6  S    0.421508   0.020343
     7  H   -0.318062  -0.103880
     8  C   -0.867806  -0.069723
     9  C    0.713695   0.014403
    10  H    0.031199   0.000668
    11  H   -0.052190   0.001451
    12  H    0.000075  -0.002569
    13  C    0.503495   0.021430
    14  H   -0.115713  -0.002791
    15  H    0.022441   0.000227
    16  H    0.007637   0.000210
 Sum of Mulliken charges =  -0.00000   1.00000

 Dipole moment (field-independent basis, Debye):
    X=              0.0881    Y=             -0.7783    Z=              1.0403  Tot=              1.3022
                          Isotropic Fermi Contact Couplings
        Atom                 a.u.       MegaHertz       Gauss      10(-4) cm-1
     1  O(17)             -0.00090       0.54461       0.19433       0.18166
     2  C(13)             -0.05941     -66.79341     -23.83355     -22.27988
     3  C(13)              0.24404     274.34549      97.89329      91.51180
     4  H(1)               0.01357      60.65806      21.64431      20.23335
     5  H(1)               0.01968      87.96348      31.38756      29.34146
     6  S(33)              0.04107      14.10525       5.03310       4.70500
     7  H(1)              -0.02344    -104.79013     -37.39173     -34.95423
     8  C(13)             -0.00109      -1.22023      -0.43541      -0.40702

 Normal termination of Gaussian 16 at Tue Apr  8 23:05:05 2025.
