 Gaussian 16, Revision C.01,

 ----------------------------------------------------------------------
 #t hf aug-cc-pvdz symm=none int=(grid=ultrafine) guess=(read,tcheck) s
 table=(opt,rrhf)
 ----------------------------------------------------------------------
 -----
 title
 -----
 Symbolic Z-matrix:
 Charge =  0 Multiplicity = 1

 SCF Done:  E(RHF) =  -118.156717247     A.U. after   12 cycles
 Normal termination of Gaussian 16 at Wed Apr  9 00:24:55 2025.
 Gaussian 16:  ES64L-G16RevC.01  3-Jul-2019

 ----------------------------------------------------------------------
 #t hf aug-cc-pvdz iop(5/13=1,5/36=2,99/5=2) pseudo=read geom=check gue
 ss=(read,tcheck) scf=(maxcycle=1)
 ----------------------------------------------------------------------
 -----
 title
 -----
 Structure from the checkpoint file:  "BDE49_nonexpt_294_mol1.chk"
 Charge =  0 Multiplicity = 1

                         Standard orientation:
 ---------------------------------------------------------------------
 Center     Atomic      Atomic             Coordinates (Angstroms)
 Number     Number       Type             X           Y           Z
 ---------------------------------------------------------------------
      1          5           0        1.338050   -0.000000   -0.000035
      2          6           0       -0.185518   -0.000000   -0.000003
      3          7           0       -1.343005    0.000000    0.000021
      4          1           0        1.911946    1.036593    0.000021
      5          1           0        1.911947   -1.036592    0.000021
 ---------------------------------------------------------------------

 SCF Done:  E(RHF) =  -118.192892974     A.U. after    2 cycles

 The electronic state is 1-A.
 Alpha  occ. eigenvalues --  -15.66872 -11.28119  -7.68453  -1.20479  -0.82529
 Alpha  occ. eigenvalues --   -0.62631  -0.57018  -0.55918  -0.49150  -0.47237
 Alpha virt. eigenvalues --    0.00783   0.03922   0.04160   0.05441   0.06318
 Alpha virt. eigenvalues --    0.09206   0.09679   0.11867   0.13617   0.15775
 Alpha virt. eigenvalues --    0.15924   0.18226   0.21692   0.22471   0.22960

 Mulliken charges:
               1
     1  B   -0.214825
     2  C    0.000914
     3  N   -0.205786
     4  H    0.209849
     5  H    0.209849
 Sum of Mulliken charges =  -0.00000

 Dipole moment (field-independent basis, Debye):
    X=              3.0112    Y=             -0.0000    Z=             -0.0002  Tot=              3.0112

 Test job not archived.
 1\1\GINC-SE090\SP\RHF\Aug-CC-pVDZ\C1H2B1N1\OHZDE\09-Apr-2025\0\\#t hf
 aug-cc-pvdz iop(5/13=1,5/36=2,99/5=2) pseudo=read geom=check guess=(re
 ad,tcheck) scf=(maxcycle=1)\\title\\0,1\B,0,-1.33805,0.,0.000035\C,0,0
 .185518,0.,0.000003\N,0,1.343005,0.,-0.000021\H,0,-1.911946,1.036593,-
 0.000021\H,0,-1.911947,-1.036592,-0.000021\\Version=ES64L-G16RevC.01\S
 tate=1-A\HF=-118.192893\RMSD=2.218e-03\Dipole=-1.1846795,-0.0000003,0.
 0000655\Quadrupole=-1.569965,0.1654358,1.4045293,0.0000013,-0.000085,0
 .\PG=C01 [X(C1H2B1N1)]\\@

 Normal termination of Gaussian 16 at Wed Apr  9 00:24:56 2025.
