 Gaussian 16, Revision C.01,

 ----------------------------------------------------------------------
 #t hf aug-cc-pvdz symm=none int=(grid=ultrafine) guess=(read,tcheck) s
 table=(opt,rrhf)
 ----------------------------------------------------------------------
 -----
 title
 -----
 Symbolic Z-matrix:
 Charge =  0 Multiplicity = 1

 SCF Done:  E(RHF) =  -1601.88277603     A.U. after   16 cycles
 Normal termination of Gaussian 16 at Wed Apr  9 00:12:17 2025.
 Gaussian 16:  ES64L-G16RevC.01  3-Jul-2019

 ----------------------------------------------------------------------
 #t hf aug-cc-pvdz iop(5/13=1,5/36=2,99/5=2) pseudo=read geom=check gue
 ss=(read,tcheck) scf=(maxcycle=1)
 ----------------------------------------------------------------------
 -----
 title
 -----
 Structure from the checkpoint file:  "BDE49_nonexpt_2434_mol1.chk"
 Charge =  0 Multiplicity = 1

                         Standard orientation:
 ---------------------------------------------------------------------
 Center     Atomic      Atomic             Coordinates (Angstroms)
 Number     Number       Type             X           Y           Z
 ---------------------------------------------------------------------
      1         14           0        0.892183   -1.115960    0.624937
      2         14           0       -1.133213   -1.306956   -0.590099
      3          6           0       -2.341671    0.064030   -0.022970
      4          1           0       -1.837629   -2.603597   -0.375543
      5          1           0       -0.949952   -1.117311   -2.046678
      6         16           0       -1.827007    1.614562    0.146322
      7          8           0       -3.621091   -0.233893    0.236961
      8          6           0        1.942437    0.348532   -0.012453
      9          1           0        1.652295   -2.370510    0.488190
     10          1           0        0.523801   -0.877679    2.040731
     11         16           0        3.560961    0.129324   -0.116394
     12          8           0        1.373946    1.508454   -0.331386
     13          1           0       -3.781388   -1.177627    0.095177
     14          1           0        0.396583    1.493519   -0.200522
 ---------------------------------------------------------------------

 SCF Done:  E(RHF) =  -1602.03039612     A.U. after    2 cycles

 The electronic state is 1-A.
 Alpha  occ. eigenvalues --  -93.54121 -93.50815 -69.11222 -69.10381 -20.67658
 Alpha  occ. eigenvalues --  -20.63276 -11.40825 -11.37828  -8.84110  -8.80762
 Alpha  occ. eigenvalues --   -6.86625  -6.85698  -6.18276  -6.17868  -6.17767
 Alpha  occ. eigenvalues --   -6.14928  -6.14531  -6.14328  -3.97419  -3.97352
 Alpha  occ. eigenvalues --   -3.97304  -3.96468  -3.96432  -3.96423  -1.44016
 Alpha  occ. eigenvalues --   -1.39959  -1.05897  -1.02526  -0.85414  -0.82444
 Alpha  occ. eigenvalues --   -0.81524  -0.78138  -0.69764  -0.66158  -0.65561
 Alpha  occ. eigenvalues --   -0.62223  -0.62066  -0.58857  -0.52916  -0.52497
 Alpha  occ. eigenvalues --   -0.50654  -0.48018  -0.45029  -0.40200  -0.37761
 Alpha  occ. eigenvalues --   -0.37264  -0.33392
 Alpha virt. eigenvalues --    0.01853   0.02314   0.03492   0.04018   0.05140
 Alpha virt. eigenvalues --    0.05675   0.06156   0.06522   0.07159   0.07269
 Alpha virt. eigenvalues --    0.08103   0.08449   0.08732   0.09898   0.10446

 Mulliken charges:
               1
     1  Si   0.163453
     2  Si   0.201379
     3  C    0.011258
     4  H   -0.037770
     5  H    0.088989
     6  S   -0.003817
     7  O   -0.498917
     8  C   -0.107762
     9  H    0.085005
    10  H    0.148485
    11  S    0.020412
    12  O   -0.433421
    13  H    0.174346
    14  H    0.188363
 Sum of Mulliken charges =  -0.00000

 Dipole moment (field-independent basis, Debye):
    X=             -4.5218    Y=             -4.6234    Z=              0.0620  Tot=              6.4673

 Test job not archived.
 1\1\GINC-SE345\SP\RHF\Aug-CC-pVDZ\C2H6O2S2Si2\OHZDE\09-Apr-2025\0\\#t
 hf aug-cc-pvdz iop(5/13=1,5/36=2,99/5=2) pseudo=read geom=check guess=
 (read,tcheck) scf=(maxcycle=1)\\title\\0,1\Si,0,0.892183,-1.11596,0.62
 4937\Si,0,-1.133213,-1.306956,-0.590099\C,0,-2.341671,0.06403,-0.02297
 \H,0,-1.837629,-2.603597,-0.375543\H,0,-0.949952,-1.117311,-2.046678\S
 ,0,-1.827007,1.614562,0.146322\O,0,-3.621091,-0.233893,0.236961\C,0,1.
 942437,0.348532,-0.012453\H,0,1.652295,-2.37051,0.48819\H,0,0.523801,-
 0.877679,2.040731\S,0,3.560961,0.129324,-0.116394\O,0,1.373946,1.50845

 Normal termination of Gaussian 16 at Wed Apr  9 00:12:23 2025.
