 Gaussian 16, Revision C.01,

 ----------------------------------------------------------------------
 #t hf aug-cc-pvdz symm=none int=(grid=ultrafine) guess=(read,tcheck) s
 table=opt
 ----------------------------------------------------------------------
 -----
 title
 -----
 Symbolic Z-matrix:
 Charge =  0 Multiplicity = 2

 SCF Done:  E(UHF) =  -435.945923836     A.U. after   16 cycles
 Normal termination of Gaussian 16 at Tue Apr  8 23:36:06 2025.
 Gaussian 16:  ES64L-G16RevC.01  3-Jul-2019

 ----------------------------------------------------------------------
 #t hf aug-cc-pvdz iop(5/13=1,5/36=2,99/5=2) pseudo=read geom=check gue
 ss=(read,tcheck) scf=(maxcycle=1)
 ----------------------------------------------------------------------
 -----
 title
 -----
 Structure from the checkpoint file:  "BDE49_nonexpt_1538_mol2.chk"
 Charge =  0 Multiplicity = 2

                         Standard orientation:
 ---------------------------------------------------------------------
 Center     Atomic      Atomic             Coordinates (Angstroms)
 Number     Number       Type             X           Y           Z
 ---------------------------------------------------------------------
      1         15           0        1.153796   -0.249946   -0.000004
      2          6           0       -0.511169    0.626341    0.000004
      3          7           0       -1.674420   -0.256184    0.000004
      4          1           0       -0.564999    1.285236   -0.873824
      5          1           0       -0.564993    1.285231    0.873835
      6          1           0       -1.670523   -0.859999    0.815887
      7          1           0       -1.670544   -0.859972   -0.815899
      8          1           0        1.952067    0.933936    0.000011
 ---------------------------------------------------------------------

 SCF Done:  E(UHF) =  -435.993652028     A.U. after    2 cycles

 The electronic state is 2-A.
 Alpha  occ. eigenvalues --  -81.26079 -15.61913 -11.27794  -7.76569  -4.91268
 Alpha  occ. eigenvalues --   -4.90182  -4.89876  -1.15461  -0.91635  -0.75574
 Alpha  occ. eigenvalues --   -0.68084  -0.58775  -0.54553  -0.54489  -0.41387
 Alpha  occ. eigenvalues --   -0.36550  -0.34388
 Alpha virt. eigenvalues --    0.03608   0.04724   0.04962   0.05869   0.08046
 Alpha virt. eigenvalues --    0.09252   0.10776   0.11929   0.12414   0.14320
 Alpha virt. eigenvalues --    0.16940   0.17907   0.18460   0.19522   0.20614

  Beta  occ. eigenvalues --  -81.25388 -15.61933 -11.27938  -7.75742  -4.89679
  Beta  occ. eigenvalues --   -4.89506  -4.88118  -1.15467  -0.90769  -0.70216
  Beta  occ. eigenvalues --   -0.67723  -0.58490  -0.54207  -0.53413  -0.39527
  Beta  occ. eigenvalues --   -0.35697
  Beta virt. eigenvalues --    0.03352   0.03706   0.04742   0.05971   0.06069
  Beta virt. eigenvalues --    0.08130   0.09340   0.10847   0.12944   0.14295
  Beta virt. eigenvalues --    0.14484   0.17243   0.18550   0.18938   0.19988

 Mulliken charges and spin densities:
               1          2
     1  P    0.344115   1.282645
     2  C    0.407957  -0.124973
     3  N   -0.395759  -0.005604
     4  H   -0.173020   0.007892
     5  H   -0.173027   0.007892
     6  H    0.019161   0.000127
     7  H    0.019160   0.000128
     8  H   -0.048586  -0.168108
 Sum of Mulliken charges =  -0.00000   1.00000

 Dipole moment (field-independent basis, Debye):
    X=              0.1893    Y=              0.1794    Z=             -0.0000  Tot=              0.2608
                          Isotropic Fermi Contact Couplings
        Atom                 a.u.       MegaHertz       Gauss      10(-4) cm-1
     1  P(31)              0.21989     398.23891     142.10155     132.83820
     2  C(13)             -0.02964     -33.31963     -11.88927     -11.11423
     3  N(14)             -0.00047      -0.15265      -0.05447      -0.05092
     4  H(1)               0.01020      45.57464      16.26217      15.20206
     5  H(1)               0.01020      45.57398      16.26193      15.20184
     6  H(1)              -0.00011      -0.49623      -0.17707      -0.16552
     7  H(1)              -0.00011      -0.49619      -0.17705      -0.16551
     8  H(1)              -0.01476     -65.99359     -23.54815     -22.01309

 Normal termination of Gaussian 16 at Tue Apr  8 23:36:08 2025.
