 Gaussian 16, Revision C.01,

 ----------------------------------------------------------------------
 #t hf aug-cc-pvdz symm=none int=(grid=ultrafine) guess=(read,tcheck) s
 table=(opt,rrhf)
 ----------------------------------------------------------------------
 -----
 title
 -----
 Symbolic Z-matrix:
 Charge =  0 Multiplicity = 1

 SCF Done:  E(RHF) =  -390.177171319     A.U. after   10 cycles

 1\1\GINC-SE080\Stability\RHF\Aug-CC-pVDZ\F1H3Si1\OHZDE\08-Apr-2025\0\\
 #t hf aug-cc-pvdz symm=none int=(grid=ultrafine) guess=(read,tcheck) s
 table=(opt,rrhf)\\title\\0,1\Si,0,-0.504038,-0.000003,-0.000001\F,0,1.
 106723,0.000007,-0.000003\H,0,-0.968051,0.882662,-1.088519\H,0,-0.9679
 8,0.501371,1.308683\H,0,-0.967941,-1.384057,-0.22012\\Version=ES64L-G1
 6RevC.01\HF=-390.1771713\RMSD=4.292e-09\Dipole=-0.6163956,0.000005,-0.
 0000261\Quadrupole=-0.7480922,0.3740474,0.3740448,0.0000167,0.000021,-
 0.0000178\PG=Unknown\\@

 Normal termination of Gaussian 16 at Tue Apr  8 22:55:33 2025.
 Gaussian 16:  ES64L-G16RevC.01  3-Jul-2019

 ----------------------------------------------------------------------
 #t hf aug-cc-pvdz iop(5/13=1,5/36=2,99/5=2) pseudo=read geom=check gue
 ss=(read,tcheck) scf=(maxcycle=1)
 ----------------------------------------------------------------------
 -----
 title
 -----
 Structure from the checkpoint file:  "BDE49_expt_1928_mol1.chk"
 Charge =  0 Multiplicity = 1

                         Standard orientation:
 ---------------------------------------------------------------------
 Center     Atomic      Atomic             Coordinates (Angstroms)
 Number     Number       Type             X           Y           Z
 ---------------------------------------------------------------------
      1         14           0        0.504038    0.000003   -0.000001
      2          9           0       -1.106723   -0.000007   -0.000003
      3          1           0        0.968052   -0.882947   -1.088288
      4          1           0        0.967980   -0.501029    1.308814
      5          1           0        0.967941    1.383999   -0.220482
 ---------------------------------------------------------------------

 SCF Done:  E(RHF) =  -390.245788883     A.U. after    2 cycles

 The electronic state is 1-A.
 Alpha  occ. eigenvalues --  -69.12175 -26.10907  -6.86855  -3.97791  -3.97593
 Alpha  occ. eigenvalues --   -3.97593  -1.63508  -0.80629  -0.72220  -0.72220
 Alpha  occ. eigenvalues --   -0.65591  -0.49614  -0.49614
 Alpha virt. eigenvalues --    0.03894   0.05089   0.06179   0.06179   0.08953
 Alpha virt. eigenvalues --    0.08953   0.15047   0.15527   0.18505   0.18506
 Alpha virt. eigenvalues --    0.21596   0.24963   0.24963   0.28686   0.32138

 Mulliken charges:
               1
     1  Si   1.141476
     2  F   -0.765032
     3  H   -0.125483
     4  H   -0.125482
     5  H   -0.125479
 Sum of Mulliken charges =  -0.00000

 Dipole moment (field-independent basis, Debye):
    X=              1.7069    Y=             -0.0000    Z=             -0.0001  Tot=              1.7069

 Test job not archived.
 1\1\GINC-SE080\SP\RHF\Aug-CC-pVDZ\F1H3Si1\OHZDE\08-Apr-2025\0\\#t hf a
 ug-cc-pvdz iop(5/13=1,5/36=2,99/5=2) pseudo=read geom=check guess=(rea
 d,tcheck) scf=(maxcycle=1)\\title\\0,1\Si,0,-0.504038,-0.000003,-0.000
 001\F,0,1.106723,0.000007,-0.000003\H,0,-0.968051,0.882662,-1.088519\H
 ,0,-0.96798,0.501371,1.308683\H,0,-0.967941,-1.384057,-0.22012\\Versio
 n=ES64L-G16RevC.01\State=1-A\HF=-390.2457889\RMSD=6.749e-03\Dipole=-0.
 6715614,0.0000053,-0.0000275\Quadrupole=-0.8208264,0.4104124,0.410414,
 0.0000207,0.0000189,-0.0000174\PG=C01 [X(F1H3Si1)]\\@

 Normal termination of Gaussian 16 at Tue Apr  8 22:55:34 2025.
