 Gaussian 16, Revision C.01,

 ----------------------------------------------------------------------
 #t hf aug-cc-pvdz symm=none int=(grid=ultrafine) guess=(read,tcheck) s
 table=(opt,rrhf)
 ----------------------------------------------------------------------
 -----
 title
 -----
 Symbolic Z-matrix:
 Charge =  0 Multiplicity = 1

 SCF Done:  E(RHF) =  -193.959459312     A.U. after   12 cycles
 Normal termination of Gaussian 16 at Tue Apr  8 23:05:52 2025.
 Gaussian 16:  ES64L-G16RevC.01  3-Jul-2019

 ----------------------------------------------------------------------
 #t hf aug-cc-pvdz iop(5/13=1,5/36=2,99/5=2) pseudo=read geom=check gue
 ss=(read,tcheck) scf=(maxcycle=1)
 ----------------------------------------------------------------------
 -----
 title
 -----
 Structure from the checkpoint file:  "BDE49_expt_45_mol1.chk"
 Charge =  0 Multiplicity = 1

                         Standard orientation:
 ---------------------------------------------------------------------
 Center     Atomic      Atomic             Coordinates (Angstroms)
 Number     Number       Type             X           Y           Z
 ---------------------------------------------------------------------
      1          6           0       -2.335767    0.459379    0.185195
      2          6           0       -1.245947   -0.411776   -0.390259
      3          6           0        0.000001   -0.413027   -0.000005
      4          6           0        1.245947   -0.411770    0.390256
      5          6           0        2.335782    0.459332   -0.185240
      6          1           0        1.536860   -1.090571    1.191731
      7          1           0        1.951611    1.102135   -0.978535
      8          1           0        3.144961   -0.152258   -0.598553
      9          1           0        2.777301    1.094452    0.590149
     10          1           0       -2.777488    1.094231   -0.590297
     11          1           0       -1.951512    1.102447    0.978233
     12          1           0       -3.144815   -0.152167    0.598836
     13          1           0       -1.537017   -1.091088   -1.191244
 ---------------------------------------------------------------------

 SCF Done:  E(RHF) =  -194.022851826     A.U. after    2 cycles

 The electronic state is 1-A.
 Alpha  occ. eigenvalues --  -11.24911 -11.24653 -11.24544 -11.23567 -11.23566
 Alpha  occ. eigenvalues --   -1.08147  -1.02106  -0.92885  -0.86138  -0.69443
 Alpha  occ. eigenvalues --   -0.64747  -0.58462  -0.57589  -0.56518  -0.55943
 Alpha  occ. eigenvalues --   -0.52846  -0.52214  -0.35712  -0.35701
 Alpha virt. eigenvalues --    0.03508   0.04152   0.04938   0.04938   0.06622
 Alpha virt. eigenvalues --    0.06647   0.07270   0.07516   0.11806   0.12027
 Alpha virt. eigenvalues --    0.12120   0.12656   0.13644   0.14539   0.15767

 Mulliken charges:
               1
     1  C    0.181739
     2  C    0.637886
     3  C   -0.728529
     4  C    0.637890
     5  C    0.181730
     6  H   -0.338612
     7  H   -0.145360
     8  H    0.010397
     9  H    0.018220
    10  H    0.018206
    11  H   -0.145373
    12  H    0.010426
    13  H   -0.338619
 Sum of Mulliken charges =   0.00000

 Dipole moment (field-independent basis, Debye):
    X=             -0.0001    Y=              0.2340    Z=              0.0004  Tot=              0.2340

 Test job not archived.
 1\1\GINC-SE126\SP\RHF\Aug-CC-pVDZ\C5H8\OHZDE\08-Apr-2025\0\\#t hf aug-
 cc-pvdz iop(5/13=1,5/36=2,99/5=2) pseudo=read geom=check guess=(read,t
 check) scf=(maxcycle=1)\\title\\0,1\C,0,-2.335767,-0.459379,-0.185195\
 C,0,-1.245947,0.411776,0.390259\C,0,0.000001,0.413027,0.000005\C,0,1.2
 45947,0.41177,-0.390256\C,0,2.335782,-0.459332,0.18524\H,0,1.53686,1.0
 90571,-1.191731\H,0,1.951611,-1.102135,0.978535\H,0,3.144961,0.152258,
 0.598553\H,0,2.777301,-1.094452,-0.590149\H,0,-2.777488,-1.094231,0.59
 0297\H,0,-1.951512,-1.102447,-0.978233\H,0,-3.144815,0.152167,-0.59883

 Normal termination of Gaussian 16 at Tue Apr  8 23:05:56 2025.
