 Gaussian 16, Revision C.01,

 ----------------------------------------------------------------------
 #t hf aug-cc-pvdz symm=none int=(grid=ultrafine) guess=(read,tcheck) s
 table=opt
 ----------------------------------------------------------------------
 -----
 title
 -----
 Symbolic Z-matrix:
 Charge =  0 Multiplicity = 2

 SCF Done:  E(UHF) =  -787.147468845     A.U. after   14 cycles
 Normal termination of Gaussian 16 at Wed Apr  9 00:19:36 2025.
 Gaussian 16:  ES64L-G16RevC.01  3-Jul-2019

 ----------------------------------------------------------------------
 #t hf aug-cc-pvdz iop(5/13=1,5/36=2,99/5=2) pseudo=read geom=check gue
 ss=(read,tcheck) scf=(maxcycle=1)
 ----------------------------------------------------------------------
 -----
 title
 -----
 Structure from the checkpoint file:  "BDE49_nonexpt_2626_mol2.chk"
 Charge =  0 Multiplicity = 2

                         Standard orientation:
 ---------------------------------------------------------------------
 Center     Atomic      Atomic             Coordinates (Angstroms)
 Number     Number       Type             X           Y           Z
 ---------------------------------------------------------------------
      1         16           0        1.472851   -0.195958   -0.000031
      2         14           0       -0.533537    0.487119    0.000014
      3          9           0       -1.625349   -0.692092    0.000024
      4          1           0       -0.733948    1.272212    1.233535
      5          1           0       -0.734012    1.272278   -1.233456
 ---------------------------------------------------------------------

 SCF Done:  E(UHF) =  -787.232409472     A.U. after    2 cycles

 The electronic state is 2-A.
 Alpha  occ. eigenvalues --  -93.56928 -69.15195 -26.11930  -8.86840  -6.89642
 Alpha  occ. eigenvalues --   -6.22172  -6.20416  -6.20106  -4.00558  -4.00438
 Alpha  occ. eigenvalues --   -4.00355  -1.64590  -0.97820  -0.80847  -0.73342
 Alpha  occ. eigenvalues --   -0.73010  -0.64603  -0.53643  -0.48054  -0.45920
 Alpha  occ. eigenvalues --   -0.41560
 Alpha virt. eigenvalues --    0.04300   0.05113   0.05809   0.06148   0.08917
 Alpha virt. eigenvalues --    0.10084   0.13038   0.13130   0.14414   0.15372
 Alpha virt. eigenvalues --    0.16609   0.19757   0.20405   0.23663   0.24642

  Beta  occ. eigenvalues --  -93.56058 -69.15240 -26.11955  -8.85875  -6.89710
  Beta  occ. eigenvalues --   -6.19910  -6.19562  -6.18324  -4.00620  -4.00521
  Beta  occ. eigenvalues --   -4.00421  -1.64662  -0.89194  -0.80085  -0.73358
  Beta  occ. eigenvalues --   -0.73039  -0.63536  -0.51172  -0.46333  -0.39215
  Beta virt. eigenvalues --   -0.02116   0.04348   0.05224   0.05831   0.06354
  Beta virt. eigenvalues --    0.09103   0.10233   0.13082   0.14396   0.14603
  Beta virt. eigenvalues --    0.15627   0.17018   0.20966   0.22832   0.24190

 Mulliken charges and spin densities:
               1          2
     1  S   -0.361190   1.084598
     2  Si   1.319877  -0.146177
     3  F   -0.755524   0.003260
     4  H   -0.101581   0.029160
     5  H   -0.101582   0.029158
 Sum of Mulliken charges =   0.00000   1.00000

 Dipole moment (field-independent basis, Debye):
    X=              0.3372    Y=              1.4413    Z=             -0.0000  Tot=              1.4802
                          Isotropic Fermi Contact Couplings
        Atom                 a.u.       MegaHertz       Gauss      10(-4) cm-1
     1  S(33)              0.15184      52.15257      18.60933      17.39623
     2  Si(29)            -0.05280      46.92629      16.74447      15.65292
     3  F(19)             -0.00499     -20.99527      -7.49163      -7.00327
     4  H(1)               0.00845      37.78609      13.48302      12.60408
     5  H(1)               0.00845      37.78374      13.48218      12.60330
 --------------------------------------------------------
       Center         ----  Spin Dipole Couplings  ----
                      3XX-RR        3YY-RR        3ZZ-RR

 Normal termination of Gaussian 16 at Wed Apr  9 00:19:38 2025.
