 Gaussian 16, Revision C.01,

 ----------------------------------------------------------------------
 #t hf aug-cc-pvdz symm=none int=(grid=ultrafine) guess=(read,tcheck) s
 table=(opt,rrhf)
 ----------------------------------------------------------------------
 -----
 title
 -----
 Symbolic Z-matrix:
 Charge =  0 Multiplicity = 1

 SCF Done:  E(RHF) =  -749.956144466     A.U. after   18 cycles
 Normal termination of Gaussian 16 at Wed Apr  9 00:44:16 2025.
 Gaussian 16:  ES64L-G16RevC.01  3-Jul-2019

 ----------------------------------------------------------------------
 #t hf aug-cc-pvdz iop(5/13=1,5/36=2,99/5=2) pseudo=read geom=check gue
 ss=(read,tcheck) scf=(maxcycle=1)
 ----------------------------------------------------------------------
 -----
 title
 -----
 Structure from the checkpoint file:  "BDE49_nonexpt_683_mol1.chk"
 Charge =  0 Multiplicity = 1

                         Standard orientation:
 ---------------------------------------------------------------------
 Center     Atomic      Atomic             Coordinates (Angstroms)
 Number     Number       Type             X           Y           Z
 ---------------------------------------------------------------------
      1          6           0        0.466008   -1.564515   -0.236344
      2          6           0        1.708157   -2.147519   -0.163865
      3          6           0        2.859879   -1.356220    0.041554
      4          6           0        2.742472    0.006365    0.157387
      5          6           0        1.475693    0.642075    0.081988
      6          6           0        0.302318   -0.159429   -0.109429
      7          1           0       -0.404482   -2.186939   -0.403716
      8          1           0        1.806359   -3.222041   -0.268644
      9          1           0        3.834234   -1.827773    0.100570
     10          1           0        3.622747    0.623013    0.306171
     11          6           0       -0.974520    0.489582   -0.165706
     12          6           0       -1.042847    1.866201   -0.070170
     13          6           0        1.350623    2.051093    0.181974
     14          6           0        0.119251    2.649269    0.098217
     15          1           0        2.245945    2.647066    0.323242
     16          1           0        0.026176    3.726820    0.172387
     17          1           0       -2.005065    2.363751   -0.112772
     18          5           0       -3.089479   -1.394817    1.056439
     19         15           0       -2.513218   -0.469018   -0.437150
     20          1           0       -4.258757   -1.585633    1.166657
     21          1           0       -2.308130   -1.937589    1.767552
     22          1           0       -3.455575    0.547259   -0.670030
 ---------------------------------------------------------------------

 SCF Done:  E(RHF) =  -750.093146224     A.U. after    2 cycles

 The electronic state is 1-A.
 Alpha  occ. eigenvalues --  -81.24692 -11.26683 -11.26288 -11.25931 -11.25481
 Alpha  occ. eigenvalues --  -11.25263 -11.25145 -11.25120 -11.25070 -11.24981
 Alpha  occ. eigenvalues --  -11.24903  -7.75470  -7.62570  -4.89692  -4.89589
 Alpha  occ. eigenvalues --   -4.89282  -1.17176  -1.10879  -1.05193  -1.01030
 Alpha  occ. eigenvalues --   -0.98621  -0.86569  -0.84720  -0.83901  -0.77808
 Alpha  occ. eigenvalues --   -0.71588  -0.70530  -0.68883  -0.65576  -0.62723
 Alpha  occ. eigenvalues --   -0.61410  -0.59696  -0.57559  -0.56465  -0.54600
 Alpha  occ. eigenvalues --   -0.53105  -0.50983  -0.49988  -0.48101  -0.46443
 Alpha  occ. eigenvalues --   -0.45136  -0.40419  -0.33836  -0.32930  -0.28680
 Alpha virt. eigenvalues --    0.03036   0.03527   0.03855   0.04554   0.04886
 Alpha virt. eigenvalues --    0.05096   0.05973   0.06324   0.06569   0.07298
 Alpha virt. eigenvalues --    0.07869   0.08624   0.09061   0.09134   0.09826

 Mulliken charges:
               1
     1  C    0.581409
     2  C    0.539249
     3  C    0.371407
     4  C    0.846774
     5  C   -0.142013
     6  C    0.711106
     7  H   -0.701678
     8  H   -0.471079
     9  H   -0.448729
    10  H   -0.586887
    11  C   -1.176179
    12  C    1.121652
    13  C    0.735796
    14  C    0.276403
    15  H   -0.588230
    16  H   -0.460475
    17  H   -0.612077
    18  B   -0.554061
    19  P   -0.121299
    20  H    0.340769
    21  H    0.336080
    22  H    0.002062
 Sum of Mulliken charges =  -0.00000

 Dipole moment (field-independent basis, Debye):
    X=              0.7842    Y=              0.9462    Z=              0.3812  Tot=              1.2867

 Test job not archived.
 1\1\GINC-SE247\SP\RHF\Aug-CC-pVDZ\C10H10B1P1\OHZDE\09-Apr-2025\0\\#t h
 f aug-cc-pvdz iop(5/13=1,5/36=2,99/5=2) pseudo=read geom=check guess=(
 read,tcheck) scf=(maxcycle=1)\\title\\0,1\C,0,0.466008,-1.564515,-0.23
 6344\C,0,1.708157,-2.147519,-0.163865\C,0,2.859879,-1.35622,0.041554\C
 ,0,2.742472,0.006365,0.157387\C,0,1.475693,0.642075,0.081988\C,0,0.302
 318,-0.159429,-0.109429\H,0,-0.404482,-2.186939,-0.403716\H,0,1.806359
 ,-3.222041,-0.268644\H,0,3.834234,-1.827773,0.10057\H,0,3.622747,0.623
 013,0.306171\C,0,-0.97452,0.489582,-0.165706\C,0,-1.042847,1.866201,-0

 Normal termination of Gaussian 16 at Wed Apr  9 00:44:35 2025.
