 Gaussian 16, Revision C.01,

 ----------------------------------------------------------------------
 #t hf aug-cc-pvdz symm=none int=(grid=ultrafine) guess=(read,tcheck) s
 table=(opt,rrhf)
 ----------------------------------------------------------------------
 -----
 title
 -----
 Symbolic Z-matrix:
 Charge =  0 Multiplicity = 1

 SCF Done:  E(RHF) =  -1330.86091805     A.U. after   16 cycles
 Normal termination of Gaussian 16 at Wed Apr  9 00:52:07 2025.
 Gaussian 16:  ES64L-G16RevC.01  3-Jul-2019

 ----------------------------------------------------------------------
 #t hf aug-cc-pvdz iop(5/13=1,5/36=2,99/5=2) pseudo=read geom=check gue
 ss=(read,tcheck) scf=(maxcycle=1)
 ----------------------------------------------------------------------
 -----
 title
 -----
 Structure from the checkpoint file:  "BDE49_nonexpt_928_mol1.chk"
 Charge =  0 Multiplicity = 1

                         Standard orientation:
 ---------------------------------------------------------------------
 Center     Atomic      Atomic             Coordinates (Angstroms)
 Number     Number       Type             X           Y           Z
 ---------------------------------------------------------------------
      1         17           0        1.865452    1.725317    0.458349
      2         16           0        0.812918   -0.706906   -0.723411
      3          8           0        1.152936   -0.061911   -1.959444
      4          8           0        0.960732   -2.125717   -0.512285
      5          7           0        1.864389   -0.037047    0.467285
      6          6           0       -0.852316   -0.243765   -0.283100
      7          6           0       -1.597268   -1.083407    0.546446
      8          1           0       -1.171905   -2.017089    0.890176
      9          6           0       -2.895851   -0.716168    0.887953
     10          1           0       -3.486806   -1.363463    1.525165
     11          6           0       -3.437602    0.472295    0.400596
     12          1           0       -4.450590    0.751989    0.666317
     13          6           0       -2.687728    1.296212   -0.437741
     14          1           0       -3.116632    2.212217   -0.826478
     15          6           0       -1.388393    0.941727   -0.788016
     16          1           0       -0.799502    1.557295   -1.454443
     17          6           0        1.725923   -0.554286    1.836553
     18          1           0        1.758456   -1.640710    1.770963
     19          1           0        0.802361   -0.228931    2.327190
     20          1           0        2.584588   -0.206496    2.410455
 ---------------------------------------------------------------------

 SCF Done:  E(RHF) =  -1331.10033068     A.U. after    2 cycles

 The electronic state is 1-A.
 Alpha  occ. eigenvalues -- -103.70365 -93.81700 -20.57478 -20.57242 -15.72688
 Alpha  occ. eigenvalues --  -11.29823 -11.29497 -11.28561 -11.28391 -11.28114
 Alpha  occ. eigenvalues --  -11.27406 -11.27310 -10.73325  -9.08023  -8.39075
 Alpha  occ. eigenvalues --   -8.38706  -8.38672  -6.42699  -6.42510  -6.42398
 Alpha  occ. eigenvalues --   -1.44783  -1.32880  -1.26340  -1.18051  -1.09667
 Alpha  occ. eigenvalues --   -1.05899  -1.04503  -0.96131  -0.88975  -0.86437
 Alpha  occ. eigenvalues --   -0.80814  -0.75161  -0.72446  -0.69673  -0.68817
 Alpha  occ. eigenvalues --   -0.66185  -0.65463  -0.64348  -0.62865  -0.62697
 Alpha  occ. eigenvalues --   -0.58197  -0.56337  -0.54478  -0.53726  -0.53406
 Alpha  occ. eigenvalues --   -0.53143  -0.52130  -0.51576  -0.49575  -0.47341
 Alpha  occ. eigenvalues --   -0.41845  -0.37898  -0.37061
 Alpha virt. eigenvalues --    0.02522   0.03456   0.03967   0.04833   0.05709
 Alpha virt. eigenvalues --    0.06110   0.06451   0.06991   0.07886   0.08075
 Alpha virt. eigenvalues --    0.08542   0.09811   0.11029   0.11642   0.12694

 Mulliken charges:
               1
     1  Cl   0.104726
     2  S    2.769680
     3  O   -1.007683
     4  O   -1.026880
     5  N   -1.086197
     6  C    0.515443
     7  C    0.022982
     8  H   -0.591993
     9  C    0.680474
    10  H   -0.441543
    11  C    0.472868
    12  H   -0.436544
    13  C    0.734659
    14  H   -0.433116
    15  C   -0.164948
    16  H   -0.559466
    17  C    0.859396
    18  H   -0.124747
    19  H   -0.081329
    20  H   -0.205783
 Sum of Mulliken charges =  -0.00000

 Dipole moment (field-independent basis, Debye):
    X=             -4.0504    Y=              1.5105    Z=              4.3079  Tot=              6.1029

 Test job not archived.
 1\1\GINC-SE457\SP\RHF\Aug-CC-pVDZ\C7H8Cl1N1O2S1\OHZDE\09-Apr-2025\0\\#
 t hf aug-cc-pvdz iop(5/13=1,5/36=2,99/5=2) pseudo=read geom=check gues
 s=(read,tcheck) scf=(maxcycle=1)\\title\\0,1\Cl,0,1.865452,1.725317,0.
 458349\S,0,0.812918,-0.706906,-0.723411\O,0,1.152936,-0.061911,-1.9594
 44\O,0,0.960732,-2.125717,-0.512285\N,0,1.864389,-0.037047,0.467285\C,
 0,-0.852316,-0.243765,-0.2831\C,0,-1.597268,-1.083407,0.546446\H,0,-1.
 171905,-2.017089,0.890176\C,0,-2.895851,-0.716168,0.887953\H,0,-3.4868
 06,-1.363463,1.525165\C,0,-3.437602,0.472295,0.400596\H,0,-4.45059,0.7

 Normal termination of Gaussian 16 at Wed Apr  9 00:52:22 2025.
