 Gaussian 16, Revision C.01,

 ----------------------------------------------------------------------
 #t hf aug-cc-pvdz symm=none int=(grid=ultrafine) guess=(read,tcheck) s
 table=(opt,rrhf)
 ----------------------------------------------------------------------
 -----
 title
 -----
 Symbolic Z-matrix:
 Charge =  0 Multiplicity = 1

 SCF Done:  E(RHF) =  -825.799468362     A.U. after   17 cycles
 Normal termination of Gaussian 16 at Wed Apr  9 00:29:35 2025.
 Gaussian 16:  ES64L-G16RevC.01  3-Jul-2019

 ----------------------------------------------------------------------
 #t hf aug-cc-pvdz iop(5/13=1,5/36=2,99/5=2) pseudo=read geom=check gue
 ss=(read,tcheck) scf=(maxcycle=1)
 ----------------------------------------------------------------------
 -----
 title
 -----
 Structure from the checkpoint file:  "BDE49_nonexpt_340_mol1.chk"
 Charge =  0 Multiplicity = 1

                         Standard orientation:
 ---------------------------------------------------------------------
 Center     Atomic      Atomic             Coordinates (Angstroms)
 Number     Number       Type             X           Y           Z
 ---------------------------------------------------------------------
      1          6           0        0.016428    0.004152   -0.029623
      2          7           0        0.365306   -0.161322    1.466048
      3          5           0       -1.606932   -0.093759   -0.236776
      4          7           0        0.829346   -1.086147   -0.741816
      5          8           0        0.359081   -2.212436   -0.623569
      6          8           0       -2.226815   -1.272950   -0.397066
      7          8           0       -0.558059    0.050867    2.227209
      8          8           0       -2.227564    1.097864   -0.235699
      9          8           0        1.501074   -0.470399    1.741755
     10          8           0        1.851886   -0.785766   -1.298646
     11          7           0        0.533584    1.364516   -0.496710
     12          8           0        0.378584    1.560671   -1.683096
     13          8           0        1.002648    2.109012    0.333465
     14          1           0       -3.185197    1.038942   -0.326453
     15          1           0       -1.623047   -2.029277   -0.419399
 ---------------------------------------------------------------------

 SCF Done:  E(RHF) =  -826.055119437     A.U. after    2 cycles

 The electronic state is 1-A.
 Alpha  occ. eigenvalues --  -20.69971 -20.68386 -20.68357 -20.68333 -20.67999
 Alpha  occ. eigenvalues --  -20.67418 -20.63833 -20.63794 -15.99360 -15.98620
 Alpha  occ. eigenvalues --  -15.98186 -11.47541  -7.74962  -1.63798  -1.61509
 Alpha  occ. eigenvalues --   -1.60897  -1.44611  -1.43980  -1.43457  -1.40432
 Alpha  occ. eigenvalues --   -1.37215  -1.21466  -1.01070  -1.00365  -0.89472
 Alpha  occ. eigenvalues --   -0.87510  -0.85999  -0.85241  -0.82646  -0.80811
 Alpha  occ. eigenvalues --   -0.80014  -0.79245  -0.78534  -0.77979  -0.76747
 Alpha  occ. eigenvalues --   -0.71848  -0.65124  -0.65069  -0.64589  -0.59645
 Alpha  occ. eigenvalues --   -0.59237  -0.58345  -0.57757  -0.56157  -0.55702
 Alpha  occ. eigenvalues --   -0.55133  -0.53935  -0.52768  -0.51769
 Alpha virt. eigenvalues --    0.00282   0.01787   0.02353   0.03369   0.04364
 Alpha virt. eigenvalues --    0.04929   0.06079   0.07681   0.08521   0.10067
 Alpha virt. eigenvalues --    0.11166   0.12288   0.13786   0.13896   0.14713

 Mulliken charges:
               1
     1  C    2.056896
     2  N    0.218054
     3  B    0.806326
     4  N    0.229148
     5  O   -0.589032
     6  O   -0.409777
     7  O   -0.499414
     8  O   -0.462490
     9  O   -0.537572
    10  O   -0.464964
    11  N    0.227765
    12  O   -0.541259
    13  O   -0.491024
    14  H    0.197650
    15  H    0.259694
 Sum of Mulliken charges =  -0.00000

 Dipole moment (field-independent basis, Debye):
    X=             -3.5961    Y=             -1.2174    Z=             -0.8569  Tot=              3.8920

 Test job not archived.
 1\1\GINC-SE366\SP\RHF\Aug-CC-pVDZ\C1H2B1N3O8\OHZDE\09-Apr-2025\0\\#t h
 f aug-cc-pvdz iop(5/13=1,5/36=2,99/5=2) pseudo=read geom=check guess=(
 read,tcheck) scf=(maxcycle=1)\\title\\0,1\C,0,0.016428,0.004152,-0.029
 623\N,0,0.365306,-0.161322,1.466048\B,0,-1.606932,-0.093761,-0.236776\
 N,0,0.829347,-1.086146,-0.741816\O,0,0.359083,-2.212436,-0.623569\O,0,
 -2.226814,-1.272952,-0.397066\O,0,-0.558059,0.050866,2.227209\O,0,-2.2
 27565,1.097862,-0.235699\O,0,1.501075,-0.470398,1.741755\O,0,1.851887,
 -0.785764,-1.298646\N,0,0.533583,1.364516,-0.49671\O,0,0.378583,1.5606

 Normal termination of Gaussian 16 at Wed Apr  9 00:29:44 2025.
