 Gaussian 16, Revision C.01,

 ----------------------------------------------------------------------
 #t hf aug-cc-pvdz symm=none int=(grid=ultrafine) guess=(read,tcheck) s
 table=(opt,rrhf)
 ----------------------------------------------------------------------
 -----
 title
 -----
 Symbolic Z-matrix:
 Charge =  0 Multiplicity = 1

 SCF Done:  E(RHF) =  -1409.50952094     A.U. after   16 cycles
 Normal termination of Gaussian 16 at Wed Apr  9 00:52:49 2025.
 Gaussian 16:  ES64L-G16RevC.01  3-Jul-2019

 ----------------------------------------------------------------------
 #t hf aug-cc-pvdz iop(5/13=1,5/36=2,99/5=2) pseudo=read geom=check gue
 ss=(read,tcheck) scf=(maxcycle=1)
 ----------------------------------------------------------------------
 -----
 title
 -----
 Structure from the checkpoint file:  "BDE49_nonexpt_945_mol1.chk"
 Charge =  0 Multiplicity = 1

                         Standard orientation:
 ---------------------------------------------------------------------
 Center     Atomic      Atomic             Coordinates (Angstroms)
 Number     Number       Type             X           Y           Z
 ---------------------------------------------------------------------
      1         17           0       -2.934169   -1.004116    0.114801
      2         17           0        0.985376    2.623054   -0.298257
      3          8           0       -1.895257    1.877319    0.360963
      4          8           0       -0.240695   -2.298937   -0.673965
      5          7           0       -1.375714   -0.359648   -0.101740
      6          7           0        0.288519    1.088129    0.062860
      7          6           0       -1.100192    1.017628    0.134729
      8          6           0       -0.268579   -1.120482   -0.453717
      9          6           0        0.901131   -0.120001   -0.508273
     10          1           0        1.127491    0.044613   -1.569665
     11          6           0        2.177744   -0.566448    0.232748
     12          1           0        2.820848    0.321722    0.241227
     13          6           0        1.897445   -0.966579    1.686136
     14          1           0        2.836519   -1.154880    2.211458
     15          1           0        1.301212   -1.882021    1.736752
     16          1           0        1.368630   -0.175675    2.223132
     17          6           0        2.906138   -1.670423   -0.546010
     18          1           0        3.848472   -1.916072   -0.050569
     19          1           0        2.301802   -2.576942   -0.605023
     20          1           0        3.140365   -1.351291   -1.566064
 ---------------------------------------------------------------------

 SCF Done:  E(RHF) =  -1409.69795069     A.U. after    2 cycles

 The electronic state is 1-A.
 Alpha  occ. eigenvalues -- -103.73279-103.72836 -20.59443 -20.58959 -15.75136
 Alpha  occ. eigenvalues --  -15.73709 -11.44953 -11.42099 -11.33829 -11.27409
 Alpha  occ. eigenvalues --  -11.24258 -11.24099 -10.76135 -10.75712  -8.41924
 Alpha  occ. eigenvalues --   -8.41483  -8.41481  -8.41453  -8.41082  -8.41048
 Alpha  occ. eigenvalues --   -1.43281  -1.40419  -1.32414  -1.28858  -1.18055
 Alpha  occ. eigenvalues --   -1.11185  -1.06747  -0.99447  -0.94906  -0.87985
 Alpha  occ. eigenvalues --   -0.83127  -0.80009  -0.73923  -0.72435  -0.69903
 Alpha  occ. eigenvalues --   -0.68986  -0.66324  -0.64068  -0.63488  -0.62909
 Alpha  occ. eigenvalues --   -0.60803  -0.56870  -0.55722  -0.55330  -0.54167
 Alpha  occ. eigenvalues --   -0.53630  -0.52117  -0.51362  -0.50365  -0.50340
 Alpha  occ. eigenvalues --   -0.49489  -0.46492  -0.44267  -0.41654
 Alpha virt. eigenvalues --    0.02879   0.03750   0.04715   0.04768   0.05856
 Alpha virt. eigenvalues --    0.06462   0.07116   0.07299   0.07674   0.07876
 Alpha virt. eigenvalues --    0.10214   0.10273   0.11177   0.11769   0.12652

 Mulliken charges:
               1
     1  Cl   0.379074
     2  Cl   0.262139
     3  O   -0.357592
     4  O   -0.444729
     5  N   -0.813076
     6  N   -0.713713
     7  C    0.643937
     8  C    0.514966
     9  C    0.409345
    10  H   -0.189919
    11  C   -1.066480
    12  H   -0.115198
    13  C    0.925029
    14  H   -0.069488
    15  H    0.005889
    16  H   -0.040323
    17  C    0.766399
    18  H   -0.036764
    19  H   -0.026823
    20  H   -0.032673
 Sum of Mulliken charges =  -0.00000

 Dipole moment (field-independent basis, Debye):
    X=              3.3650    Y=             -0.2339    Z=             -0.3891  Tot=              3.3955

 Test job not archived.
 1\1\GINC-SE368\SP\RHF\Aug-CC-pVDZ\C6H8Cl2N2O2\OHZDE\09-Apr-2025\0\\#t
 hf aug-cc-pvdz iop(5/13=1,5/36=2,99/5=2) pseudo=read geom=check guess=
 (read,tcheck) scf=(maxcycle=1)\\title\\0,1\Cl,0,-2.934169,-1.004114,0.
 114801\Cl,0,0.985377,2.623054,-0.298257\O,0,-1.895256,1.87732,0.360963
 \O,0,-0.240696,-2.298937,-0.673965\N,0,-1.375714,-0.359647,-0.10174\N,
 0,0.288519,1.088129,0.06286\C,0,-1.100192,1.017629,0.134729\C,0,-0.268
 58,-1.120482,-0.453717\C,0,0.901131,-0.120001,-0.508273\H,0,1.127491,0
 .044613,-1.569665\C,0,2.177744,-0.566449,0.232748\H,0,2.820848,0.32172

 Normal termination of Gaussian 16 at Wed Apr  9 00:53:01 2025.
