 Gaussian 16, Revision C.01,

 ----------------------------------------------------------------------
 #t hf aug-cc-pvdz symm=none int=(grid=ultrafine) guess=(read,tcheck) s
 table=(opt,rrhf)
 ----------------------------------------------------------------------
 -----
 title
 -----
 Symbolic Z-matrix:
 Charge =  0 Multiplicity = 1

 SCF Done:  E(RHF) =  -198.615451885     A.U. after   12 cycles
 Normal termination of Gaussian 16 at Wed Apr  9 00:37:03 2025.
 Gaussian 16:  ES64L-G16RevC.01  3-Jul-2019

 ----------------------------------------------------------------------
 #t hf aug-cc-pvdz iop(5/13=1,5/36=2,99/5=2) pseudo=read geom=check gue
 ss=(read,tcheck) scf=(maxcycle=1)
 ----------------------------------------------------------------------
 -----
 title
 -----
 Structure from the checkpoint file:  "BDE49_nonexpt_586_mol1.chk"
 Charge =  0 Multiplicity = 1

                         Standard orientation:
 ---------------------------------------------------------------------
 Center     Atomic      Atomic             Coordinates (Angstroms)
 Number     Number       Type             X           Y           Z
 ---------------------------------------------------------------------
      1          5           0        2.210128   -0.000000   -0.189395
      2          7           0        0.945355   -0.000002    0.380833
      3          6           0       -0.349266   -0.000000   -0.308273
      4          6           0       -1.143024   -1.268965    0.024806
      5          1           0       -1.366412   -1.319027    1.096414
      6          1           0       -0.575818   -2.162512   -0.244847
      7          6           0       -1.143022    1.268967    0.024807
      8          1           0       -2.094334   -1.286831   -0.514057
      9          1           0       -0.119089    0.000000   -1.377362
     10          1           0       -2.094332    1.286833   -0.514056
     11          1           0       -1.366409    1.319028    1.096415
     12          1           0       -0.575815    2.162513   -0.244846
     13          1           0        3.166181    0.000001    0.524516
     14          1           0        2.312077    0.000004   -1.379270
     15          1           0        0.857700   -0.000003    1.390197
 ---------------------------------------------------------------------

 SCF Done:  E(RHF) =  -198.681452394     A.U. after    2 cycles

 The electronic state is 1-A.
 Alpha  occ. eigenvalues --  -15.61624 -11.27519 -11.22886 -11.22878  -7.59050
 Alpha  occ. eigenvalues --   -1.16645  -1.01386  -0.93464  -0.80723  -0.72515
 Alpha  occ. eigenvalues --   -0.63410  -0.60819  -0.58439  -0.56588  -0.54508
 Alpha  occ. eigenvalues --   -0.51771  -0.50120  -0.48325  -0.45405  -0.39527
 Alpha virt. eigenvalues --    0.03328   0.03986   0.04454   0.04511   0.06466
 Alpha virt. eigenvalues --    0.06661   0.07033   0.07309   0.07594   0.09135
 Alpha virt. eigenvalues --    0.09339   0.10832   0.12024   0.13436   0.14245

 Mulliken charges:
               1
     1  B   -0.598029
     2  N   -0.197855
     3  C   -0.495644
     4  C    0.679732
     5  H   -0.060122
     6  H   -0.070354
     7  C    0.679729
     8  H   -0.036161
     9  H   -0.252129
    10  H   -0.036161
    11  H   -0.060122
    12  H   -0.070352
    13  H    0.360895
    14  H    0.159038
    15  H   -0.002466
 Sum of Mulliken charges =  -0.00000

 Dipole moment (field-independent basis, Debye):
    X=             -1.7049    Y=             -0.0000    Z=              0.5705  Tot=              1.7978

 Test job not archived.
 1\1\GINC-SE419\SP\RHF\Aug-CC-pVDZ\C3H10B1N1\OHZDE\09-Apr-2025\0\\#t hf
  aug-cc-pvdz iop(5/13=1,5/36=2,99/5=2) pseudo=read geom=check guess=(r
 ead,tcheck) scf=(maxcycle=1)\\title\\0,1\B,0,2.210128,-0.000001,-0.189
 395\N,0,0.945355,-0.000002,0.380833\C,0,-0.349266,0.,-0.308273\C,0,-1.
 143024,-1.268965,0.024806\H,0,-1.366412,-1.319027,1.096414\H,0,-0.5758
 19,-2.162512,-0.244847\C,0,-1.143022,1.268967,0.024807\H,0,-2.094334,-
 1.28683,-0.514057\H,0,-0.119089,0.,-1.377362\H,0,-2.094332,1.286834,-0
 .514056\H,0,-1.366409,1.319028,1.096415\H,0,-0.575814,2.162513,-0.2448

 Normal termination of Gaussian 16 at Wed Apr  9 00:37:06 2025.
