 Gaussian 16, Revision C.01,

 ----------------------------------------------------------------------
 #t hf aug-cc-pvdz symm=none int=(grid=ultrafine) guess=(read,tcheck) s
 table=(opt,rrhf)
 ----------------------------------------------------------------------
 -----
 title
 -----
 Symbolic Z-matrix:
 Charge =  0 Multiplicity = 1

 SCF Done:  E(RHF) =  -1420.94246520     A.U. after   17 cycles
 Normal termination of Gaussian 16 at Tue Apr  8 23:48:47 2025.
 Gaussian 16:  ES64L-G16RevC.01  3-Jul-2019

 ----------------------------------------------------------------------
 #t hf aug-cc-pvdz iop(5/13=1,5/36=2,99/5=2) pseudo=read geom=check gue
 ss=(read,tcheck) scf=(maxcycle=1)
 ----------------------------------------------------------------------
 -----
 title
 -----
 Structure from the checkpoint file:  "BDE49_nonexpt_1717_mol1.chk"
 Charge =  0 Multiplicity = 1

                         Standard orientation:
 ---------------------------------------------------------------------
 Center     Atomic      Atomic             Coordinates (Angstroms)
 Number     Number       Type             X           Y           Z
 ---------------------------------------------------------------------
      1          6           0        3.733845    0.160419    0.031579
      2          6           0        3.124025    1.426147   -0.014563
      3          6           0        1.750837    1.531447   -0.060999
      4          6           0        2.939263   -0.993568    0.033892
      5          6           0        1.556135   -0.875459   -0.014408
      6          6           0        0.939729    0.379286   -0.067057
      7          1           0        3.759246    2.303061   -0.013819
      8          1           0        1.274100    2.502486   -0.096579
      9          1           0        3.385216   -1.977268    0.078175
     10          1           0        0.956037   -1.776591    0.003479
     11          6           0       -0.521491    0.567945   -0.123251
     12         16           0       -1.504563   -0.933915   -0.414259
     13         15           0       -3.504254   -0.249986    0.013866
     14          8           0       -4.444921   -1.240086   -0.501396
     15          8           0       -1.037928    1.671317   -0.023059
     16          8           0        5.083576    0.162902    0.074683
     17          6           0        5.778814   -1.081812    0.115700
     18          1           0        5.522170   -1.650158    1.015164
     19          1           0        6.835946   -0.825963    0.138806
     20          1           0        5.568816   -1.682907   -0.774466
     21          8           0       -3.566285    1.216310   -0.532647
     22          1           0       -2.702592    1.677871   -0.366957
     23          8           0       -3.538360   -0.025537    1.602042
     24          1           0       -3.737716   -0.843774    2.074018
 ---------------------------------------------------------------------

 SCF Done:  E(RHF) =  -1421.23933738     A.U. after    2 cycles

 The electronic state is 1-A.
 Alpha  occ. eigenvalues --  -93.56944 -81.44247 -20.63202 -20.62407 -20.60823
 Alpha  occ. eigenvalues --  -20.60293 -20.53539 -11.41429 -11.35395 -11.32141
 Alpha  occ. eigenvalues --  -11.29318 -11.28454 -11.27678 -11.27017 -11.26463
 Alpha  occ. eigenvalues --   -8.86934  -7.92383  -6.21060  -6.20836  -6.20527
 Alpha  occ. eigenvalues --   -5.07041  -5.06913  -5.06615  -1.40377  -1.40245
 Alpha  occ. eigenvalues --   -1.38304  -1.34890  -1.27113  -1.17819  -1.07403
 Alpha  occ. eigenvalues --   -1.04959  -1.01803  -0.97405  -0.88883  -0.86459
 Alpha  occ. eigenvalues --   -0.83915  -0.80414  -0.76755  -0.75845  -0.71815
 Alpha  occ. eigenvalues --   -0.71210  -0.69368  -0.68706  -0.66754  -0.65982
 Alpha  occ. eigenvalues --   -0.64953  -0.62912  -0.62258  -0.61210  -0.60266
 Alpha  occ. eigenvalues --   -0.59715  -0.59228  -0.56994  -0.55881  -0.55770
 Alpha  occ. eigenvalues --   -0.52401  -0.51761  -0.50504  -0.50120  -0.46104
 Alpha  occ. eigenvalues --   -0.45099  -0.41086  -0.37744  -0.35197
 Alpha virt. eigenvalues --    0.02226   0.03362   0.03610   0.03927   0.04572
 Alpha virt. eigenvalues --    0.04740   0.05574   0.06313   0.07551   0.07824
 Alpha virt. eigenvalues --    0.08328   0.08497   0.09957   0.10127   0.10865

 Mulliken charges:
               1
     1  C    0.186755
     2  C    1.067703
     3  C    0.272235
     4  C    0.493030
     5  C    0.249428
     6  C    1.443989
     7  H   -0.579643
     8  H   -0.658395
     9  H   -0.678978
    10  H   -0.565950
    11  C   -0.548738
    12  S   -0.125605
    13  P    2.126639
    14  O   -0.850030
    15  O   -0.641700
    16  O   -0.647916
    17  C    0.849612
    18  H   -0.082222
    19  H   -0.302956
    20  H   -0.079552
    21  O   -0.737910
    22  H    0.329689
    23  O   -0.675880
    24  H    0.156396
 Sum of Mulliken charges =  -0.00000

 Dipole moment (field-independent basis, Debye):
    X=              8.2104    Y=             -2.0101    Z=              2.1894  Tot=              8.7318

 Test job not archived.
 1\1\GINC-SE049\SP\RHF\Aug-CC-pVDZ\C8H9O5P1S1\OHZDE\08-Apr-2025\0\\#t h
 f aug-cc-pvdz iop(5/13=1,5/36=2,99/5=2) pseudo=read geom=check guess=(
 read,tcheck) scf=(maxcycle=1)\\title\\0,1\C,0,3.733845,0.160419,0.0315
 79\C,0,3.124025,1.426147,-0.014563\C,0,1.750837,1.531447,-0.060999\C,0
 ,2.939263,-0.993568,0.033892\C,0,1.556135,-0.875459,-0.014408\C,0,0.93
 9729,0.379286,-0.067057\H,0,3.759246,2.303061,-0.013819\H,0,1.2741,2.5
 02486,-0.096579\H,0,3.385216,-1.977268,0.078175\H,0,0.956037,-1.776591
 ,0.003479\C,0,-0.521491,0.567945,-0.123251\S,0,-1.504563,-0.933915,-0.

 Normal termination of Gaussian 16 at Tue Apr  8 23:49:11 2025.
