 Gaussian 16, Revision C.01,

 ----------------------------------------------------------------------
 #t hf aug-cc-pvdz symm=none int=(grid=ultrafine) guess=(read,tcheck) s
 table=(opt,rrhf)
 ----------------------------------------------------------------------
 -----
 title
 -----
 Symbolic Z-matrix:
 Charge =  0 Multiplicity = 1

 SCF Done:  E(RHF) =  -1137.68852468     A.U. after   17 cycles
 Normal termination of Gaussian 16 at Tue Apr  8 23:32:34 2025.
 Gaussian 16:  ES64L-G16RevC.01  3-Jul-2019

 ----------------------------------------------------------------------
 #t hf aug-cc-pvdz iop(5/13=1,5/36=2,99/5=2) pseudo=read geom=check gue
 ss=(read,tcheck) scf=(maxcycle=1)
 ----------------------------------------------------------------------
 -----
 title
 -----
 Structure from the checkpoint file:  "BDE49_nonexpt_1402_mol1.chk"
 Charge =  0 Multiplicity = 1

                         Standard orientation:
 ---------------------------------------------------------------------
 Center     Atomic      Atomic             Coordinates (Angstroms)
 Number     Number       Type             X           Y           Z
 ---------------------------------------------------------------------
      1          6           0        1.956531    1.384321   -0.077358
      2          6           0        3.160167    0.696417   -0.041456
      3          6           0        3.160162   -0.696441    0.041471
      4          6           0        1.956521   -1.384338    0.077351
      5          6           0        0.729801   -0.706443    0.030893
      6          6           0        0.729806    0.706433   -0.030922
      7          6           0       -0.487533    1.590166   -0.022466
      8         15           0       -2.136374    0.940423    0.604969
      9          1           0        4.095876   -1.242695    0.072642
     10          1           0        4.095885    1.242664   -0.072610
     11          1           0        1.932588   -2.465198    0.129854
     12          6           0       -0.487544   -1.590170    0.022415
     13         15           0       -2.136400   -0.940405   -0.604960
     14          8           0       -0.406294   -2.769427    0.291612
     15          8           0       -0.406254    2.769440   -0.291580
     16          1           0        1.932605    2.465181   -0.129862
     17          1           0       -2.886212    1.738650   -0.288750
     18          1           0       -2.886218   -1.738624    0.288782
 ---------------------------------------------------------------------

 SCF Done:  E(RHF) =  -1137.85822352     A.U. after    2 cycles

 The electronic state is 1-A.
 Alpha  occ. eigenvalues --  -81.28929 -81.28929 -20.58878 -20.58878 -11.37563
 Alpha  occ. eigenvalues --  -11.37559 -11.29186 -11.29084 -11.27791 -11.27684
 Alpha  occ. eigenvalues --  -11.27392 -11.27386  -7.79386  -7.79377  -4.93337
 Alpha  occ. eigenvalues --   -4.93324  -4.93322  -4.93241  -4.92993  -4.92944
 Alpha  occ. eigenvalues --   -1.38010  -1.37864  -1.17970  -1.06649  -1.05050
 Alpha  occ. eigenvalues --   -0.92629  -0.92159  -0.84738  -0.82870  -0.79944
 Alpha  occ. eigenvalues --   -0.72918  -0.71798  -0.68269  -0.67396  -0.65389
 Alpha  occ. eigenvalues --   -0.63274  -0.61257  -0.61072  -0.58611  -0.57199
 Alpha  occ. eigenvalues --   -0.55873  -0.53307  -0.52191  -0.50849  -0.46673
 Alpha  occ. eigenvalues --   -0.42629  -0.40218  -0.37631  -0.36763  -0.34374
 Alpha virt. eigenvalues --    0.02465   0.02875   0.04152   0.04209   0.04534
 Alpha virt. eigenvalues --    0.05609   0.05675   0.07239   0.07394   0.07702
 Alpha virt. eigenvalues --    0.09109   0.09912   0.10051   0.10751   0.10925

 Mulliken charges:
               1
     1  C    0.476695
     2  C    0.347469
     3  C    0.347433
     4  C    0.476744
     5  C    0.896252
     6  C    0.896256
     7  C   -0.290887
     8  P   -0.105836
     9  H   -0.444006
    10  H   -0.444009
    11  H   -0.604903
    12  C   -0.290887
    13  P   -0.105854
    14  O   -0.537166
    15  O   -0.537164
    16  H   -0.604908
    17  H    0.262382
    18  H    0.262389
 Sum of Mulliken charges =  -0.00000

 Dipole moment (field-independent basis, Debye):
    X=              1.4537    Y=             -0.0000    Z=             -0.0001  Tot=              1.4537

 Test job not archived.
 1\1\GINC-SE173\SP\RHF\Aug-CC-pVDZ\C8H6O2P2\OHZDE\08-Apr-2025\0\\#t hf
 aug-cc-pvdz iop(5/13=1,5/36=2,99/5=2) pseudo=read geom=check guess=(re
 ad,tcheck) scf=(maxcycle=1)\\title\\0,1\C,0,-1.956531,-1.384321,-0.077
 358\C,0,-3.160167,-0.696417,-0.041456\C,0,-3.160162,0.696441,0.041471\
 C,0,-1.956521,1.384338,0.077351\C,0,-0.729801,0.706443,0.030893\C,0,-0
 .729806,-0.706433,-0.030922\C,0,0.487533,-1.590166,-0.022466\P,0,2.136
 374,-0.940423,0.604969\H,0,-4.095876,1.242695,0.072642\H,0,-4.095885,-
 1.242664,-0.07261\H,0,-1.932588,2.465198,0.129854\C,0,0.487544,1.59017

 Normal termination of Gaussian 16 at Tue Apr  8 23:32:47 2025.
