 Gaussian 16, Revision C.01,

 ----------------------------------------------------------------------
 #t hf aug-cc-pvdz symm=none int=(grid=ultrafine) guess=(read,tcheck) s
 table=(opt,rrhf)
 ----------------------------------------------------------------------
 -----
 title
 -----
 Symbolic Z-matrix:
 Charge =  0 Multiplicity = 1

 SCF Done:  E(RHF) =  -626.895686367     A.U. after   11 cycles
 Normal termination of Gaussian 16 at Tue Apr  8 23:48:16 2025.
 Gaussian 16:  ES64L-G16RevC.01  3-Jul-2019

 ----------------------------------------------------------------------
 #t hf aug-cc-pvdz iop(5/13=1,5/36=2,99/5=2) pseudo=read geom=check gue
 ss=(read,tcheck) scf=(maxcycle=1)
 ----------------------------------------------------------------------
 -----
 title
 -----
 Structure from the checkpoint file:  "BDE49_nonexpt_1839_mol1.chk"
 Charge =  0 Multiplicity = 1

                         Standard orientation:
 ---------------------------------------------------------------------
 Center     Atomic      Atomic             Coordinates (Angstroms)
 Number     Number       Type             X           Y           Z
 ---------------------------------------------------------------------
      1         14           0       -1.518104   -0.000002    0.000011
      2          6           0        0.407256   -0.000000    0.000004
      3          9           0        0.914557   -0.755161   -1.006829
      4          1           0       -1.961178    0.552419   -1.294017
      5          9           0        0.914603   -0.494356    1.157390
      6          1           0       -1.961203    0.844443    1.125426
      7          9           0        0.914565    1.249521   -0.150583
      8          1           0       -1.961216   -1.396863    0.168601
 ---------------------------------------------------------------------

 SCF Done:  E(RHF) =  -627.041382372     A.U. after    2 cycles

 The electronic state is 1-A.
 Alpha  occ. eigenvalues --  -69.10340 -26.16163 -26.16163 -26.16149 -11.50489
 Alpha  occ. eigenvalues --   -6.85716  -3.96526  -3.96463  -3.96463  -1.75140
 Alpha  occ. eigenvalues --   -1.68322  -1.68322  -1.02036  -0.86978  -0.86787
 Alpha  occ. eigenvalues --   -0.86787  -0.76670  -0.76670  -0.72381  -0.72381
 Alpha  occ. eigenvalues --   -0.71953  -0.71263  -0.52486  -0.51816  -0.51816
 Alpha virt. eigenvalues --    0.03320   0.05203   0.05585   0.05585   0.08460
 Alpha virt. eigenvalues --    0.08460   0.09656   0.12024   0.12024   0.14707
 Alpha virt. eigenvalues --    0.15855   0.17115   0.17115   0.21311   0.21790

 Mulliken charges:
               1
     1  Si   0.554580
     2  C    0.702951
     3  F   -0.359377
     4  H   -0.059798
     5  F   -0.359375
     6  H   -0.059799
     7  F   -0.359381
     8  H   -0.059800
 Sum of Mulliken charges =  -0.00000

 Dipole moment (field-independent basis, Debye):
    X=             -2.8983    Y=             -0.0000    Z=              0.0001  Tot=              2.8983

 Test job not archived.
 1\1\GINC-SE339\SP\RHF\Aug-CC-pVDZ\C1H3F3Si1\OHZDE\08-Apr-2025\0\\#t hf
  aug-cc-pvdz iop(5/13=1,5/36=2,99/5=2) pseudo=read geom=check guess=(r
 ead,tcheck) scf=(maxcycle=1)\\title\\0,1\Si,0,1.518104,-0.000002,-0.00
 0012\C,0,-0.407256,0.,-0.000004\F,0,-0.914557,-0.776535,0.990437\H,0,1
 .961178,0.5246,1.305542\F,0,-0.914603,-0.469473,-1.167705\H,0,1.961203
 ,0.868335,-1.107097\F,0,-0.914565,1.246012,0.177289\H,0,1.961216,-1.39
 2935,-0.198457\\Version=ES64L-G16RevC.01\State=1-A\HF=-627.0413824\RMS
 D=6.055e-03\Dipole=1.1402728,-0.0000084,-0.0000277\Quadrupole=1.286618

 Normal termination of Gaussian 16 at Tue Apr  8 23:48:19 2025.
