 Gaussian 16, Revision C.01,

 ----------------------------------------------------------------------
 #t hf aug-cc-pvdz symm=none int=(grid=ultrafine) guess=(read,tcheck) s
 table=(opt,rrhf)
 ----------------------------------------------------------------------
 -----
 title
 -----
 Symbolic Z-matrix:
 Charge =  0 Multiplicity = 1

 SCF Done:  E(RHF) =  -1895.04733224     A.U. after   11 cycles
 Normal termination of Gaussian 16 at Wed Apr  9 00:07:38 2025.
 Gaussian 16:  ES64L-G16RevC.01  3-Jul-2019

 ----------------------------------------------------------------------
 #t hf aug-cc-pvdz iop(5/13=1,5/36=2,99/5=2) pseudo=read geom=check gue
 ss=(read,tcheck) scf=(maxcycle=1)
 ----------------------------------------------------------------------
 -----
 title
 -----
 Structure from the checkpoint file:  "BDE49_nonexpt_2326_mol1.chk"
 Charge =  0 Multiplicity = 1

                         Standard orientation:
 ---------------------------------------------------------------------
 Center     Atomic      Atomic             Coordinates (Angstroms)
 Number     Number       Type             X           Y           Z
 ---------------------------------------------------------------------
      1         14           0       -1.510464    0.000000   -0.063136
      2         14           0        0.796163   -0.000000    0.317131
      3          9           0        1.064316   -0.000000    1.889118
      4         17           0        1.651221    1.679543   -0.477927
      5          9           0       -2.191267   -1.282309    0.570048
      6          9           0       -2.191259    1.282339    0.569996
      7         17           0        1.651220   -1.679543   -0.477927
      8          9           0       -1.808599   -0.000030   -1.618763
 ---------------------------------------------------------------------

 SCF Done:  E(RHF) =  -1895.31312571     A.U. after    2 cycles

 The electronic state is 1-A.
 Alpha  occ. eigenvalues -- -103.69727-103.69727 -69.24039 -69.23627 -26.16007
 Alpha  occ. eigenvalues --  -26.16000 -26.15998 -26.15893 -10.73203 -10.73191
 Alpha  occ. eigenvalues --   -8.38891  -8.38885  -8.38645  -8.38644  -8.38642
 Alpha  occ. eigenvalues --   -8.38638  -6.97665  -6.97431  -4.08682  -4.08682
 Alpha  occ. eigenvalues --   -4.08421  -4.08350  -4.08303  -4.08105  -1.70268
 Alpha  occ. eigenvalues --   -1.68775  -1.68483  -1.68469  -1.19495  -1.17299
 Alpha  occ. eigenvalues --   -0.89485  -0.84903  -0.82545  -0.82532  -0.79958
 Alpha  occ. eigenvalues --   -0.77474  -0.77436  -0.77041  -0.77032  -0.75137
 Alpha  occ. eigenvalues --   -0.75135  -0.73707  -0.68371  -0.59219  -0.57069
 Alpha  occ. eigenvalues --   -0.53721  -0.51966  -0.50496  -0.48537
 Alpha virt. eigenvalues --    0.04689   0.04937   0.05127   0.05137   0.07755
 Alpha virt. eigenvalues --    0.07882   0.08074   0.09386   0.09952   0.10708
 Alpha virt. eigenvalues --    0.12434   0.13896   0.16085   0.16121   0.16776

 Mulliken charges:
               1
     1  Si   2.485790
     2  Si   1.414222
     3  F   -0.736020
     4  Cl  -0.442080
     5  F   -0.761303
     6  F   -0.761303
     7  Cl  -0.442079
     8  F   -0.757227
 Sum of Mulliken charges =  -0.00000

 Dipole moment (field-independent basis, Debye):
    X=              0.7926    Y=             -0.0000    Z=             -0.4626  Tot=              0.9177

 Test job not archived.
 1\1\GINC-SE074\SP\RHF\Aug-CC-pVDZ\Cl2F4Si2\OHZDE\09-Apr-2025\0\\#t hf
 aug-cc-pvdz iop(5/13=1,5/36=2,99/5=2) pseudo=read geom=check guess=(re
 ad,tcheck) scf=(maxcycle=1)\\title\\0,1\Si,0,-1.510464,0.,-0.063136\Si
 ,0,0.796163,0.,0.317131\F,0,1.064316,0.,1.889118\Cl,0,1.651221,1.67954
 3,-0.477927\F,0,-2.191267,-1.282309,0.570048\F,0,-2.191259,1.282339,0.
 569996\Cl,0,1.65122,-1.679543,-0.477927\F,0,-1.808599,-0.00003,-1.6187
 63\\Version=ES64L-G16RevC.01\State=1-A\HF=-1895.3131257\RMSD=4.358e-03
 \Dipole=0.3118158,-0.0000007,-0.1819853\Quadrupole=-0.4802942,1.244699

 Normal termination of Gaussian 16 at Wed Apr  9 00:07:42 2025.
