 Gaussian 16, Revision C.01,

 ----------------------------------------------------------------------
 #t hf aug-cc-pvdz symm=none int=(grid=ultrafine) guess=(read,tcheck) s
 table=(opt,rrhf)
 ----------------------------------------------------------------------
 -----
 title
 -----
 Symbolic Z-matrix:
 Charge =  0 Multiplicity = 1

 SCF Done:  E(RHF) =  -851.803370870     A.U. after   16 cycles
 Normal termination of Gaussian 16 at Tue Apr  8 23:28:43 2025.
 Gaussian 16:  ES64L-G16RevC.01  3-Jul-2019

 ----------------------------------------------------------------------
 #t hf aug-cc-pvdz iop(5/13=1,5/36=2,99/5=2) pseudo=read geom=check gue
 ss=(read,tcheck) scf=(maxcycle=1)
 ----------------------------------------------------------------------
 -----
 title
 -----
 Structure from the checkpoint file:  "BDE49_nonexpt_1324_mol1.chk"
 Charge =  0 Multiplicity = 1

                         Standard orientation:
 ---------------------------------------------------------------------
 Center     Atomic      Atomic             Coordinates (Angstroms)
 Number     Number       Type             X           Y           Z
 ---------------------------------------------------------------------
      1          6           0        1.982307   -1.209804    0.036176
      2          6           0        0.598556   -1.179236    0.023919
      3          6           0        2.726100   -0.014677    0.012822
      4          6           0        2.033431    1.207440   -0.020077
      5          6           0        0.647322    1.231586   -0.033060
      6          6           0       -0.090370    0.041597   -0.012933
      7          1           0        0.117763    2.176279   -0.062946
      8          1           0        2.502843   -2.161562    0.067316
      9          1           0        0.045570   -2.111022    0.040066
     10         15           0       -1.870106    0.132301   -0.016702
     11          8           0       -2.422544    1.494079    0.031005
     12          8           0       -2.411125   -0.816566    1.182852
     13          7           0        4.108895   -0.044446    0.077786
     14          1           0        4.556331   -0.902103   -0.206570
     15          1           0        4.593137    0.782422   -0.236053
     16          1           0        2.590942    2.138342   -0.033899
     17          1           0       -2.598809   -0.293615    1.971231
     18          8           0       -2.253204   -0.787482   -1.275074
     19          1           0       -3.207543   -0.883813   -1.384477
 ---------------------------------------------------------------------

 SCF Done:  E(RHF) =  -852.023132795     A.U. after    2 cycles

 The electronic state is 1-A.
 Alpha  occ. eigenvalues --  -81.40641 -20.60670 -20.60432 -20.51419 -15.64844
 Alpha  occ. eigenvalues --  -11.31289 -11.26812 -11.26458 -11.24746 -11.24471
 Alpha  occ. eigenvalues --  -11.24273  -7.88989  -5.03660  -5.03525  -5.03345
 Alpha  occ. eigenvalues --   -1.36985  -1.33402  -1.24868  -1.21601  -1.13311
 Alpha  occ. eigenvalues --   -1.02446  -1.00190  -0.86208  -0.85160  -0.81048
 Alpha  occ. eigenvalues --   -0.75433  -0.72577  -0.70981  -0.68533  -0.66385
 Alpha  occ. eigenvalues --   -0.63663  -0.62286  -0.61312  -0.60292  -0.59072
 Alpha  occ. eigenvalues --   -0.57472  -0.56159  -0.54730  -0.51258  -0.50618
 Alpha  occ. eigenvalues --   -0.48111  -0.46673  -0.46168  -0.35624  -0.31487
 Alpha virt. eigenvalues --    0.02592   0.03526   0.03795   0.05311   0.05633
 Alpha virt. eigenvalues --    0.06330   0.07489   0.08980   0.09132   0.09427
 Alpha virt. eigenvalues --    0.10018   0.11544   0.11965   0.12283   0.12896

 Mulliken charges:
               1
     1  C    0.966667
     2  C    0.413329
     3  C    0.289444
     4  C    0.993825
     5  C    0.265047
     6  C   -0.184069
     7  H   -0.655874
     8  H   -0.591638
     9  H   -0.623058
    10  P    2.112802
    11  O   -0.919730
    12  O   -0.690415
    13  N   -0.277270
    14  H   -0.038102
    15  H   -0.035724
    16  H   -0.593321
    17  H    0.134005
    18  O   -0.722419
    19  H    0.156500
 Sum of Mulliken charges =  -0.00000

 Dipole moment (field-independent basis, Debye):
    X=              3.5246    Y=             -2.1148    Z=              0.0723  Tot=              4.1110

 Test job not archived.
 1\1\GINC-SE036\SP\RHF\Aug-CC-pVDZ\C6H8N1O3P1\OHZDE\08-Apr-2025\0\\#t h
 f aug-cc-pvdz iop(5/13=1,5/36=2,99/5=2) pseudo=read geom=check guess=(
 read,tcheck) scf=(maxcycle=1)\\title\\0,1\C,0,1.982307,-1.209804,0.036
 176\C,0,0.598556,-1.179236,0.023919\C,0,2.7261,-0.014677,0.012822\C,0,
 2.033431,1.20744,-0.020077\C,0,0.647322,1.231586,-0.03306\C,0,-0.09037
 ,0.041597,-0.012933\H,0,0.117763,2.176279,-0.062946\H,0,2.502843,-2.16
 1562,0.067316\H,0,0.04557,-2.111022,0.040066\P,0,-1.870106,0.132301,-0
 .016702\O,0,-2.422544,1.494079,0.031005\O,0,-2.411125,-0.816566,1.1828

 Normal termination of Gaussian 16 at Tue Apr  8 23:28:55 2025.
