 Gaussian 16, Revision C.01,

 ----------------------------------------------------------------------
 #t hf aug-cc-pvdz symm=none int=(grid=ultrafine) guess=(read,tcheck) s
 table=(opt,rrhf)
 ----------------------------------------------------------------------
 -----
 title
 -----
 Symbolic Z-matrix:
 Charge =  0 Multiplicity = 1

 SCF Done:  E(RHF) =  -613.300593010     A.U. after   12 cycles
 Normal termination of Gaussian 16 at Wed Apr  9 00:33:46 2025.
 Gaussian 16:  ES64L-G16RevC.01  3-Jul-2019

 ----------------------------------------------------------------------
 #t hf aug-cc-pvdz iop(5/13=1,5/36=2,99/5=2) pseudo=read geom=check gue
 ss=(read,tcheck) scf=(maxcycle=1)
 ----------------------------------------------------------------------
 -----
 title
 -----
 Structure from the checkpoint file:  "BDE49_nonexpt_457_mol1.chk"
 Charge =  0 Multiplicity = 1

                         Standard orientation:
 ---------------------------------------------------------------------
 Center     Atomic      Atomic             Coordinates (Angstroms)
 Number     Number       Type             X           Y           Z
 ---------------------------------------------------------------------
      1          1           0        2.613842   -1.023294   -0.229042
      2          1           0        2.613827    1.023346   -0.229072
      3          5           0        2.012127    0.000022   -0.192785
      4         14           0        0.016110    0.000002   -0.015514
      5          9           0       -0.368849   -0.000051    1.530531
      6          9           0       -0.677470    1.271720   -0.674156
      7          9           0       -0.677441   -1.271691   -0.674238
 ---------------------------------------------------------------------

 SCF Done:  E(RHF) =  -613.466924986     A.U. after    2 cycles

 The electronic state is 1-A.
 Alpha  occ. eigenvalues --  -69.20301 -26.13632 -26.13440 -26.13439  -7.66354
 Alpha  occ. eigenvalues --   -6.94080  -4.05089  -4.05069  -4.04786  -1.67743
 Alpha  occ. eigenvalues --   -1.65979  -1.65841  -0.87095  -0.80141  -0.80011
 Alpha  occ. eigenvalues --   -0.78165  -0.75076  -0.75001  -0.72693  -0.72591
 Alpha  occ. eigenvalues --   -0.71258  -0.71236  -0.53575  -0.48781
 Alpha virt. eigenvalues --    0.00431   0.03924   0.04951   0.05051   0.07527
 Alpha virt. eigenvalues --    0.07902   0.07934   0.08169   0.11273   0.12924
 Alpha virt. eigenvalues --    0.15375   0.17830   0.19829   0.20968   0.23025

 Mulliken charges:
               1
     1  H    0.294763
     2  H    0.294763
     3  B   -0.691496
     4  Si   2.397962
     5  F   -0.758537
     6  F   -0.768728
     7  F   -0.768727
 Sum of Mulliken charges =   0.00000

 Dipole moment (field-independent basis, Debye):
    X=              2.6443    Y=              0.0000    Z=             -0.3691  Tot=              2.6699

 Test job not archived.
 1\1\GINC-SE103\SP\RHF\Aug-CC-pVDZ\B1F3H2Si1\OHZDE\09-Apr-2025\0\\#t hf
  aug-cc-pvdz iop(5/13=1,5/36=2,99/5=2) pseudo=read geom=check guess=(r
 ead,tcheck) scf=(maxcycle=1)\\title\\0,1\H,0,2.613842,-1.023293,-0.229
 042\H,0,2.613826,1.023347,-0.229072\B,0,2.012127,0.000023,-0.192785\Si
 ,0,0.01611,0.000002,-0.015514\F,0,-0.368849,-0.000051,1.530531\F,0,-0.
 677471,1.27172,-0.674156\F,0,-0.677441,-1.271691,-0.674238\\Version=ES
 64L-G16RevC.01\State=1-A\HF=-613.466925\RMSD=5.428e-03\Dipole=1.040333
 2,0.0000178,-0.1452118\Quadrupole=1.5659048,-1.5138424,-0.0520624,0.00

 Normal termination of Gaussian 16 at Wed Apr  9 00:33:49 2025.
