 Gaussian 16, Revision C.01,

 ----------------------------------------------------------------------
 #t hf aug-cc-pvdz symm=none int=(grid=ultrafine) guess=(read,tcheck) s
 table=opt
 ----------------------------------------------------------------------
 -----
 title
 -----
 Symbolic Z-matrix:
 Charge =  0 Multiplicity = 2

 SCF Done:  E(UHF) =  -627.924003755     A.U. after   18 cycles
 Normal termination of Gaussian 16 at Tue Apr  8 23:03:10 2025.
 Gaussian 16:  ES64L-G16RevC.01  3-Jul-2019

 ----------------------------------------------------------------------
 #t hf aug-cc-pvdz iop(5/13=1,5/36=2,99/5=2) pseudo=read geom=check gue
 ss=(read,tcheck) scf=(maxcycle=1)
 ----------------------------------------------------------------------
 -----
 title
 -----
 Structure from the checkpoint file:  "BDE49_expt_385_mol2.chk"
 Charge =  0 Multiplicity = 2

                         Standard orientation:
 ---------------------------------------------------------------------
 Center     Atomic      Atomic             Coordinates (Angstroms)
 Number     Number       Type             X           Y           Z
 ---------------------------------------------------------------------
      1          8           0        0.166833    1.306327    0.087671
      2          6           0       -1.225378    1.159436   -0.192300
      3          6           0       -1.645553   -0.222980    0.311454
      4          1           0       -1.393581    1.241765   -1.271951
      5          1           0       -1.741829    1.969376    0.323562
      6         16           0       -0.206152   -1.286045   -0.099470
      7          1           0       -2.538101   -0.591551   -0.193173
      8          1           0       -1.802406   -0.229352    1.390842
      9          6           0        0.842691    0.162355   -0.268175
     10          6           0        2.275955    0.128548    0.136501
     11          1           0        2.393960    0.118721    1.230854
     12          1           0        2.790853    1.012101   -0.249871
     13          1           0        2.768571   -0.759102   -0.264984
 ---------------------------------------------------------------------

 SCF Done:  E(UHF) =  -628.016631282     A.U. after    2 cycles

 The electronic state is 2-A.
 Alpha  occ. eigenvalues --  -93.53538 -20.60144 -11.31767 -11.30834 -11.27936
 Alpha  occ. eigenvalues --  -11.23683  -8.83338  -6.17437  -6.17277  -6.17005
 Alpha  occ. eigenvalues --   -1.37881  -1.06097  -1.05125  -0.93207  -0.83871
 Alpha  occ. eigenvalues --   -0.77923  -0.69735  -0.67755  -0.63976  -0.59875
 Alpha  occ. eigenvalues --   -0.57850  -0.55178  -0.53918  -0.50950  -0.48857
 Alpha  occ. eigenvalues --   -0.45499  -0.39963  -0.29512
 Alpha virt. eigenvalues --    0.03503   0.04493   0.04941   0.05240   0.06645
 Alpha virt. eigenvalues --    0.06783   0.07190   0.09047   0.10822   0.12320
 Alpha virt. eigenvalues --    0.12376   0.13574   0.14754   0.15162   0.15623

  Beta  occ. eigenvalues --  -93.53489 -20.59727 -11.30844 -11.29127 -11.27937
  Beta  occ. eigenvalues --  -11.23863  -8.83277  -6.17451  -6.17297  -6.16726
  Beta  occ. eigenvalues --   -1.36381  -1.05829  -1.02359  -0.92933  -0.83421
  Beta  occ. eigenvalues --   -0.74998  -0.67984  -0.67187  -0.60374  -0.58608
  Beta  occ. eigenvalues --   -0.56287  -0.54713  -0.53319  -0.48596  -0.47916
  Beta  occ. eigenvalues --   -0.44692  -0.35613
  Beta virt. eigenvalues --    0.03470   0.04447   0.04958   0.05243   0.06611
  Beta virt. eigenvalues --    0.06711   0.07221   0.09059   0.10851   0.12164
  Beta virt. eigenvalues --    0.12406   0.12624   0.14051   0.15019   0.15297

 Mulliken charges and spin densities:
               1          2
     1  O   -0.675161   0.040603
     2  C    0.838825  -0.017834
     3  C   -0.218302   0.003876
     4  H   -0.117221  -0.008620
     5  H   -0.218122   0.001490
     6  S    0.405671  -0.006214
     7  H   -0.041008   0.002910
     8  H   -0.103493  -0.003777
     9  C   -0.195502   1.102026
    10  C    0.352381  -0.167777
    11  H    0.064241   0.050623
    12  H   -0.044397   0.002048
    13  H   -0.047914   0.000646
 Sum of Mulliken charges =  -0.00000   1.00000

 Dipole moment (field-independent basis, Debye):
    X=             -1.4181    Y=              0.5537    Z=              0.1788  Tot=              1.5328
                          Isotropic Fermi Contact Couplings
        Atom                 a.u.       MegaHertz       Gauss      10(-4) cm-1
     1  O(17)              0.04061     -24.61597      -8.78359      -8.21101
     2  C(13)             -0.00191      -2.14648      -0.76592      -0.71599
     3  C(13)             -0.00099      -1.11385      -0.39745      -0.37154
     4  H(1)              -0.00002      -0.08451      -0.03016      -0.02819
     5  H(1)              -0.00072      -3.19722      -1.14085      -1.06648
     6  S(33)              0.05716      19.63317       7.00560       6.54892
     7  H(1)              -0.00064      -2.84824      -1.01632      -0.95007
     8  H(1)               0.00112       5.00695       1.78660       1.67014

 Normal termination of Gaussian 16 at Tue Apr  8 23:03:15 2025.
