 Gaussian 16, Revision C.01,

 ----------------------------------------------------------------------
 #t hf aug-cc-pvdz symm=none int=(grid=ultrafine) guess=(read,tcheck) s
 table=(opt,rrhf)
 ----------------------------------------------------------------------
 -----
 title
 -----
 Symbolic Z-matrix:
 Charge =  0 Multiplicity = 1

 SCF Done:  E(RHF) =  -749.959378792     A.U. after   17 cycles
 Normal termination of Gaussian 16 at Wed Apr  9 00:43:31 2025.
 Gaussian 16:  ES64L-G16RevC.01  3-Jul-2019

 ----------------------------------------------------------------------
 #t hf aug-cc-pvdz iop(5/13=1,5/36=2,99/5=2) pseudo=read geom=check gue
 ss=(read,tcheck) scf=(maxcycle=1)
 ----------------------------------------------------------------------
 -----
 title
 -----
 Structure from the checkpoint file:  "BDE49_nonexpt_692_mol1.chk"
 Charge =  0 Multiplicity = 1

                         Standard orientation:
 ---------------------------------------------------------------------
 Center     Atomic      Atomic             Coordinates (Angstroms)
 Number     Number       Type             X           Y           Z
 ---------------------------------------------------------------------
      1          6           0       -2.040429   -1.536394    0.083224
      2          6           0       -3.350459   -1.129320    0.157017
      3          6           0       -3.673896    0.247353    0.136608
      4          6           0       -2.679186    1.190916    0.042988
      5          6           0       -1.317319    0.804258   -0.034231
      6          6           0       -0.989507   -0.587246   -0.015131
      7          1           0       -1.792145   -2.592519    0.098960
      8          1           0       -4.143967   -1.864317    0.231554
      9          1           0       -4.711803    0.554695    0.195641
     10          1           0       -2.924379    2.247774    0.027318
     11          6           0        0.373075   -0.975462   -0.089364
     12          6           0        1.381668   -0.039184   -0.178525
     13          6           0       -0.260673    1.747357   -0.133852
     14          6           0        1.046780    1.343312   -0.211392
     15          1           0       -0.503012    2.804849   -0.153247
     16          1           0        1.834720    2.083444   -0.295344
     17          5           0        4.264720    0.255938    0.868862
     18          1           0        0.606503   -2.035188   -0.065971
     19         15           0        3.126936   -0.534551   -0.344125
     20          1           0        4.081205    1.377367    1.216886
     21          1           0        5.277520   -0.311608    1.126111
     22          1           0        3.107384   -1.919464   -0.108396
 ---------------------------------------------------------------------

 SCF Done:  E(RHF) =  -750.096586710     A.U. after    2 cycles

 The electronic state is 1-A.
 Alpha  occ. eigenvalues --  -81.24935 -11.26708 -11.25985 -11.25779 -11.25501
 Alpha  occ. eigenvalues --  -11.25447 -11.25370 -11.25214 -11.25190 -11.25075
 Alpha  occ. eigenvalues --  -11.25000  -7.75747  -7.62677  -4.89959  -4.89864
 Alpha  occ. eigenvalues --   -4.89509  -1.17269  -1.11007  -1.05106  -1.01285
 Alpha  occ. eigenvalues --   -0.98633  -0.87102  -0.85198  -0.82188  -0.79488
 Alpha  occ. eigenvalues --   -0.71395  -0.70800  -0.68344  -0.65115  -0.63337
 Alpha  occ. eigenvalues --   -0.61315  -0.59887  -0.59180  -0.55865  -0.54539
 Alpha  occ. eigenvalues --   -0.53051  -0.51191  -0.49165  -0.48213  -0.47241
 Alpha  occ. eigenvalues --   -0.45667  -0.39936  -0.36096  -0.31275  -0.28677
 Alpha virt. eigenvalues --    0.03076   0.03579   0.03752   0.04457   0.04788
 Alpha virt. eigenvalues --    0.05070   0.06185   0.06245   0.06833   0.07544
 Alpha virt. eigenvalues --    0.08246   0.08519   0.08700   0.09433   0.09869

 Mulliken charges:
               1
     1  C    0.576538
     2  C    0.299802
     3  C    0.324821
     4  C    0.674920
     5  C    0.022921
     6  C    0.714388
     7  H   -0.578344
     8  H   -0.450279
     9  H   -0.447194
    10  H   -0.576719
    11  C    0.447345
    12  C   -0.294387
    13  C    0.818988
    14  C    0.272347
    15  H   -0.642368
    16  H   -0.649206
    17  B   -0.516268
    18  H   -0.648045
    19  P   -0.017504
    20  H    0.287259
    21  H    0.320088
    22  H    0.060895
 Sum of Mulliken charges =  -0.00000

 Dipole moment (field-independent basis, Debye):
    X=             -1.2595    Y=             -0.2202    Z=              0.4731  Tot=              1.3634

 Test job not archived.
 1\1\GINC-SE458\SP\RHF\Aug-CC-pVDZ\C10H10B1P1\OHZDE\09-Apr-2025\0\\#t h
 f aug-cc-pvdz iop(5/13=1,5/36=2,99/5=2) pseudo=read geom=check guess=(
 read,tcheck) scf=(maxcycle=1)\\title\\0,1\C,0,-2.040429,-1.536394,0.08
 3224\C,0,-3.350459,-1.12932,0.157017\C,0,-3.673896,0.247353,0.136608\C
 ,0,-2.679186,1.190916,0.042988\C,0,-1.317319,0.804258,-0.034231\C,0,-0
 .989507,-0.587246,-0.015131\H,0,-1.792145,-2.592519,0.09896\H,0,-4.143
 967,-1.864317,0.231554\H,0,-4.711803,0.554695,0.195641\H,0,-2.924379,2
 .247774,0.027318\C,0,0.373075,-0.975462,-0.089364\C,0,1.381668,-0.0391

 Normal termination of Gaussian 16 at Wed Apr  9 00:43:48 2025.
