 Gaussian 16, Revision C.01,

 ----------------------------------------------------------------------
 #t hf aug-cc-pvdz symm=none int=(grid=ultrafine) guess=(read,tcheck) s
 table=(opt,rrhf)
 ----------------------------------------------------------------------
 -----
 title
 -----
 Symbolic Z-matrix:
 Charge =  0 Multiplicity = 1

 SCF Done:  E(RHF) =  -776.367319233     A.U. after   17 cycles
 Normal termination of Gaussian 16 at Tue Apr  8 23:59:41 2025.
 Gaussian 16:  ES64L-G16RevC.01  3-Jul-2019

 ----------------------------------------------------------------------
 #t hf aug-cc-pvdz iop(5/13=1,5/36=2,99/5=2) pseudo=read geom=check gue
 ss=(read,tcheck) scf=(maxcycle=1)
 ----------------------------------------------------------------------
 -----
 title
 -----
 Structure from the checkpoint file:  "BDE49_nonexpt_2114_mol1.chk"
 Charge =  0 Multiplicity = 1

                         Standard orientation:
 ---------------------------------------------------------------------
 Center     Atomic      Atomic             Coordinates (Angstroms)
 Number     Number       Type             X           Y           Z
 ---------------------------------------------------------------------
      1         14           0        0.020316    0.043810   -0.807914
      2          7           0        1.058673   -1.144689    0.168896
      3          7           0       -1.664385   -0.097987   -0.026864
      4          8           0        0.703120   -1.658834    1.214216
      5          8           0        2.165834   -1.279432   -0.360137
      6          8           0       -2.109370    0.858971    0.601137
      7          8           0       -2.243896   -1.163414   -0.202844
      8          6           0        0.730832    1.742477   -0.618114
      9          6           0        1.073391    2.170847    0.822163
     10          1           0        0.002263    2.431624   -1.061880
     11          1           0        1.619303    1.776960   -1.259066
     12          1           0        0.189189    2.149315    1.460432
     13          1           0        1.468768    3.188725    0.825845
     14          1           0        1.833050    1.520734    1.261904
     15          1           0       -0.107862   -0.520235   -2.153938
 ---------------------------------------------------------------------

 SCF Done:  E(RHF) =  -776.544009052     A.U. after    2 cycles

 The electronic state is 1-A.
 Alpha  occ. eigenvalues --  -69.19355 -20.64950 -20.64283 -20.64203 -20.64195
 Alpha  occ. eigenvalues --  -15.91142 -15.90843 -11.28378 -11.26592  -6.94165
 Alpha  occ. eigenvalues --   -4.05014  -4.04908  -4.04754  -1.56132  -1.55498
 Alpha  occ. eigenvalues --   -1.38486  -1.38033  -1.06707  -0.98827  -0.94152
 Alpha  occ. eigenvalues --   -0.89197  -0.82379  -0.79820  -0.75565  -0.75262
 Alpha  occ. eigenvalues --   -0.73634  -0.72990  -0.65740  -0.65169  -0.62109
 Alpha  occ. eigenvalues --   -0.56217  -0.55161  -0.54442  -0.54007  -0.51865
 Alpha  occ. eigenvalues --   -0.49614  -0.49475  -0.48820  -0.48645
 Alpha virt. eigenvalues --    0.02035   0.03413   0.03500   0.04429   0.04607
 Alpha virt. eigenvalues --    0.05032   0.06533   0.06814   0.07234   0.07793
 Alpha virt. eigenvalues --    0.09928   0.11440   0.11784   0.12575   0.13729

 Mulliken charges:
               1
     1  Si   1.601773
     2  N    0.292965
     3  N    0.377200
     4  O   -0.502386
     5  O   -0.606615
     6  O   -0.531208
     7  O   -0.581067
     8  C    0.075505
     9  C    0.349045
    10  H   -0.135962
    11  H   -0.139978
    12  H   -0.100724
    13  H   -0.069814
    14  H   -0.113691
    15  H    0.084958
 Sum of Mulliken charges =  -0.00000

 Dipole moment (field-independent basis, Debye):
    X=              1.6629    Y=              4.1817    Z=             -3.2873  Tot=              5.5730

 Test job not archived.
 1\1\GINC-SE343\SP\RHF\Aug-CC-pVDZ\C2H6N2O4Si1\OHZDE\08-Apr-2025\0\\#t
 hf aug-cc-pvdz iop(5/13=1,5/36=2,99/5=2) pseudo=read geom=check guess=
 (read,tcheck) scf=(maxcycle=1)\\title\\0,1\Si,0,0.020316,0.04381,-0.80
 7914\N,0,1.058673,-1.144689,0.168896\N,0,-1.664385,-0.097987,-0.026864
 \O,0,0.70312,-1.658834,1.214216\O,0,2.165834,-1.279432,-0.360137\O,0,-
 2.10937,0.858971,0.601137\O,0,-2.243896,-1.163414,-0.202844\C,0,0.7308
 32,1.742477,-0.618114\C,0,1.073391,2.170847,0.822163\H,0,0.002263,2.43
 1624,-1.06188\H,0,1.619303,1.77696,-1.259066\H,0,0.189189,2.149315,1.4

 Normal termination of Gaussian 16 at Tue Apr  8 23:59:48 2025.
