 Gaussian 16, Revision C.01,

 ----------------------------------------------------------------------
 #t hf aug-cc-pvdz symm=none int=(grid=ultrafine) guess=(read,tcheck) s
 table=(opt,rrhf)
 ----------------------------------------------------------------------
 -----
 title
 -----
 Symbolic Z-matrix:
 Charge =  0 Multiplicity = 1

 SCF Done:  E(RHF) =  -564.550453107     A.U. after   12 cycles
 Normal termination of Gaussian 16 at Tue Apr  8 22:46:34 2025.
 Gaussian 16:  ES64L-G16RevC.01  3-Jul-2019

 ----------------------------------------------------------------------
 #t hf aug-cc-pvdz iop(5/13=1,5/36=2,99/5=2) pseudo=read geom=check gue
 ss=(read,tcheck) scf=(maxcycle=1)
 ----------------------------------------------------------------------
 -----
 title
 -----
 Structure from the checkpoint file:  "BDE49_expt_1542_mol1.chk"
 Charge =  0 Multiplicity = 1

                         Standard orientation:
 ---------------------------------------------------------------------
 Center     Atomic      Atomic             Coordinates (Angstroms)
 Number     Number       Type             X           Y           Z
 ---------------------------------------------------------------------
      1         14           0        1.026668   -0.116102   -0.019889
      2          6           0        1.388720   -0.070799    1.832143
      3          1           0        2.434204   -0.329453    2.028130
      4          1           0        0.765994   -0.781863    2.383180
      5          1           0        1.212467    0.923009    2.254526
      6          6           0        1.377567   -1.850705   -0.677688
      7          6           0        2.170367    1.098640   -0.903381
      8          6           0       -0.791675    0.349263   -0.365885
      9          1           0        2.435213   -2.103405   -0.551552
     10          1           0        1.146847   -1.926652   -1.745066
     11          1           0        0.794752   -2.615379   -0.156341
     12          1           0        3.217109    0.803828   -0.777954
     13          1           0        2.068153    2.115718   -0.514269
     14          1           0        1.964768    1.131251   -1.978096
     15          6           0       -1.100887    1.809668    0.020755
     16          1           0       -1.025301    1.957746    1.103519
     17          1           0       -2.110871    2.106875   -0.276654
     18          1           0       -0.410307    2.510630   -0.455727
     19          6           0       -1.786510   -0.646155    0.275780
     20          1           0       -0.901848    0.263310   -1.458347
     21          6           0       -3.240543   -0.495499   -0.192319
     22          1           0       -1.748972   -0.538800    1.367193
     23          1           0       -1.465354   -1.671934    0.063384
     24          1           0       -3.659142    0.478651    0.072126
     25          1           0       -3.878288   -1.258841    0.262976
     26          1           0       -3.315016   -0.605736   -1.279013
 ---------------------------------------------------------------------

 SCF Done:  E(RHF) =  -564.665622619     A.U. after    2 cycles

 The electronic state is 1-A.
 Alpha  occ. eigenvalues --  -69.03696 -11.22787 -11.22161 -11.21926 -11.21282
 Alpha  occ. eigenvalues --  -11.20383 -11.20369 -11.20365  -6.78934  -3.89698
 Alpha  occ. eigenvalues --   -3.89693  -3.89681  -1.05540  -0.97056  -0.94822
 Alpha  occ. eigenvalues --   -0.91328  -0.91306  -0.86619  -0.77222  -0.63370
 Alpha  occ. eigenvalues --   -0.62425  -0.58352  -0.57632  -0.56276  -0.55939
 Alpha  occ. eigenvalues --   -0.55336  -0.54273  -0.53513  -0.52934  -0.52380
 Alpha  occ. eigenvalues --   -0.51553  -0.50369  -0.46414  -0.46037  -0.42255
 Alpha  occ. eigenvalues --   -0.42150  -0.38659
 Alpha virt. eigenvalues --    0.02861   0.04128   0.04367   0.04457   0.05875
 Alpha virt. eigenvalues --    0.05999   0.06189   0.06420   0.06537   0.08008
 Alpha virt. eigenvalues --    0.08234   0.08339   0.08711   0.08929   0.09242

 Mulliken charges:
               1
     1  Si   0.295281
     2  C    0.690857
     3  H   -0.325374
     4  H   -0.239483
     5  H   -0.245585
     6  C    0.698360
     7  C    0.686843
     8  C   -0.095014
     9  H   -0.334998
    10  H   -0.206009
    11  H   -0.288685
    12  H   -0.357704
    13  H   -0.286463
    14  H   -0.218733
    15  C    0.647304
    16  H   -0.092495
    17  H   -0.121061
    18  H   -0.111244
    19  C    0.294508
    20  H   -0.283580
    21  C    0.541570
    22  H   -0.187211
    23  H   -0.200944
    24  H   -0.124441
    25  H   -0.065690
    26  H   -0.070008
 Sum of Mulliken charges =   0.00000

 Dipole moment (field-independent basis, Debye):
    X=             -0.0176    Y=             -0.0420    Z=             -0.0500  Tot=              0.0677

 Test job not archived.
 1\1\GINC-SE044\SP\RHF\Aug-CC-pVDZ\C7H18Si1\OHZDE\08-Apr-2025\0\\#t hf
 aug-cc-pvdz iop(5/13=1,5/36=2,99/5=2) pseudo=read geom=check guess=(re
 ad,tcheck) scf=(maxcycle=1)\\title\\0,1\Si,0,1.026668,-0.116102,-0.019
 889\C,0,1.38872,-0.070799,1.832143\H,0,2.434204,-0.329453,2.02813\H,0,
 0.765994,-0.781863,2.38318\H,0,1.212467,0.923009,2.254526\C,0,1.377567
 ,-1.850705,-0.677688\C,0,2.170367,1.09864,-0.903381\C,0,-0.791675,0.34
 9263,-0.365885\H,0,2.435213,-2.103405,-0.551552\H,0,1.146847,-1.926652
 ,-1.745066\H,0,0.794752,-2.615379,-0.156341\H,0,3.217109,0.803828,-0.7

 Normal termination of Gaussian 16 at Tue Apr  8 22:46:50 2025.
