 Gaussian 16, Revision C.01,

 ----------------------------------------------------------------------
 #t hf aug-cc-pvdz symm=none int=(grid=ultrafine) guess=(read,tcheck) s
 table=(opt,rrhf)
 ----------------------------------------------------------------------
 -----
 title
 -----
 Symbolic Z-matrix:
 Charge =  0 Multiplicity = 1

 SCF Done:  E(RHF) =  -759.601159428     A.U. after   12 cycles
 Normal termination of Gaussian 16 at Wed Apr  9 00:13:05 2025.
 Gaussian 16:  ES64L-G16RevC.01  3-Jul-2019

 ----------------------------------------------------------------------
 #t hf aug-cc-pvdz iop(5/13=1,5/36=2,99/5=2) pseudo=read geom=check gue
 ss=(read,tcheck) scf=(maxcycle=1)
 ----------------------------------------------------------------------
 -----
 title
 -----
 Structure from the checkpoint file:  "BDE49_nonexpt_2457_mol1.chk"
 Charge =  0 Multiplicity = 1

                         Standard orientation:
 ---------------------------------------------------------------------
 Center     Atomic      Atomic             Coordinates (Angstroms)
 Number     Number       Type             X           Y           Z
 ---------------------------------------------------------------------
      1         14           0        2.379208   -0.229368   -0.536971
      2         14           0        0.638676    0.326813    0.962496
      3          5           0       -1.164186    0.512916   -0.011495
      4          1           0        1.002017    1.625308    1.589895
      5          1           0        0.660759   -0.696580    2.044704
      6          1           0        2.135489   -1.561648   -1.146698
      7          1           0        3.695863   -0.270760    0.146088
      8          8           0       -1.973264   -0.526890   -0.314570
      9          6           0       -1.640236    1.941293   -0.469828
     10          1           0        2.458872    0.764368   -1.636895
     11          1           0       -0.864124    2.457220   -1.047672
     12          1           0       -1.823397    2.578383    0.404629
     13          1           0       -2.555455    1.904827   -1.067137
     14          6           0       -1.738716   -1.898575   -0.007519
     15          1           0       -1.623131   -2.451283   -0.942055
     16          1           0       -2.609111   -2.284899    0.525971
     17          1           0       -0.847396   -2.034952    0.609937
 ---------------------------------------------------------------------

 SCF Done:  E(RHF) =  -759.702742414     A.U. after    2 cycles

 The electronic state is 1-A.
 Alpha  occ. eigenvalues --  -69.05791 -69.04299 -20.58774 -11.30006 -11.20299
 Alpha  occ. eigenvalues --   -7.63687  -6.81178  -6.79878  -3.91936  -3.91932
 Alpha  occ. eigenvalues --   -3.91904  -3.90635  -3.90609  -3.90557  -1.33836
 Alpha  occ. eigenvalues --   -0.96671  -0.92731  -0.74725  -0.71657  -0.66557
 Alpha  occ. eigenvalues --   -0.65038  -0.64052  -0.56382  -0.54879  -0.52451
 Alpha  occ. eigenvalues --   -0.51885  -0.48904  -0.48846  -0.48083  -0.46270
 Alpha  occ. eigenvalues --   -0.40897  -0.36899
 Alpha virt. eigenvalues --    0.03296   0.04067   0.04672   0.04843   0.05920
 Alpha virt. eigenvalues --    0.06409   0.06703   0.06801   0.07619   0.08365
 Alpha virt. eigenvalues --    0.08465   0.08872   0.09250   0.09528   0.09829

 Mulliken charges:
               1
     1  Si  -0.155118
     2  Si  -0.854467
     3  B    0.771173
     4  H    0.115219
     5  H    0.175586
     6  H    0.055835
     7  H    0.037610
     8  O   -0.471068
     9  C    0.494195
    10  H    0.077906
    11  H   -0.143914
    12  H   -0.161609
    13  H   -0.365969
    14  C    0.973134
    15  H   -0.164831
    16  H   -0.177170
    17  H   -0.206512
 Sum of Mulliken charges =  -0.00000

 Dipole moment (field-independent basis, Debye):
    X=             -0.5024    Y=             -0.9907    Z=              0.2894  Tot=              1.1479

 Test job not archived.
 1\1\GINC-SE454\SP\RHF\Aug-CC-pVDZ\C2H11B1O1Si2\OHZDE\09-Apr-2025\0\\#t
  hf aug-cc-pvdz iop(5/13=1,5/36=2,99/5=2) pseudo=read geom=check guess
 =(read,tcheck) scf=(maxcycle=1)\\title\\0,1\Si,0,-2.379208,0.229368,-0
 .536971\Si,0,-0.638676,-0.326813,0.962496\B,0,1.164186,-0.512916,-0.01
 1495\H,0,-1.002017,-1.625308,1.589895\H,0,-0.660759,0.69658,2.044704\H
 ,0,-2.135489,1.561648,-1.146698\H,0,-3.695863,0.27076,0.146088\O,0,1.9
 73264,0.52689,-0.31457\C,0,1.640236,-1.941293,-0.469828\H,0,-2.458872,
 -0.764368,-1.636895\H,0,0.864124,-2.45722,-1.047672\H,0,1.823397,-2.57

 Normal termination of Gaussian 16 at Wed Apr  9 00:13:11 2025.
