 Gaussian 16, Revision C.01,

 ----------------------------------------------------------------------
 #t hf aug-cc-pvdz symm=none int=(grid=ultrafine) guess=(read,tcheck) s
 table=(opt,rrhf)
 ----------------------------------------------------------------------
 -----
 title
 -----
 Symbolic Z-matrix:
 Charge =  0 Multiplicity = 1

 SCF Done:  E(RHF) =  -1248.86895405     A.U. after   15 cycles
 Normal termination of Gaussian 16 at Wed Apr  9 00:49:27 2025.
 Gaussian 16:  ES64L-G16RevC.01  3-Jul-2019

 ----------------------------------------------------------------------
 #t hf aug-cc-pvdz iop(5/13=1,5/36=2,99/5=2) pseudo=read geom=check gue
 ss=(read,tcheck) scf=(maxcycle=1)
 ----------------------------------------------------------------------
 -----
 title
 -----
 Structure from the checkpoint file:  "BDE49_nonexpt_892_mol1.chk"
 Charge =  0 Multiplicity = 1

                         Standard orientation:
 ---------------------------------------------------------------------
 Center     Atomic      Atomic             Coordinates (Angstroms)
 Number     Number       Type             X           Y           Z
 ---------------------------------------------------------------------
      1          9           0        4.127852   -0.240787    0.076415
      2          9           0        0.162448    2.156133   -0.541593
      3         16           0       -2.680612    1.227067    0.473808
      4          6           0       -0.028865   -0.144670    0.039321
      5          6           0        2.144511    0.976302   -0.239545
      6          1           0        2.702563    1.873069   -0.471671
      7          6           0        0.759338    0.978797   -0.238942
      8          6           0        0.690565   -1.322820    0.333168
      9          1           0        0.138107   -2.224619    0.567551
     10          6           0        2.783114   -0.215094    0.064740
     11          6           0        2.077980   -1.373432    0.357318
     12          1           0        2.612346   -2.284071    0.594288
     13          5           0       -1.592162   -0.154718    0.035593
     14         16           0       -2.397648   -1.727071   -0.420103
     15          1           0       -1.741878    2.150663    0.732426
     16          1           0       -3.670727   -1.373984   -0.169593
 ---------------------------------------------------------------------

 SCF Done:  E(RHF) =  -1249.04931080     A.U. after    2 cycles

 The electronic state is 1-A.
 Alpha  occ. eigenvalues --  -93.54501 -93.54288 -26.15858 -26.15856 -11.37441
 Alpha  occ. eigenvalues --  -11.37326 -11.28821 -11.27429 -11.26923 -11.26079
 Alpha  occ. eigenvalues --   -8.84473  -8.84266  -7.68380  -6.18669  -6.18473
 Alpha  occ. eigenvalues --   -6.18408  -6.18213  -6.18174  -6.17979  -1.69824
 Alpha  occ. eigenvalues --   -1.69771  -1.18494  -1.05940  -1.05480  -0.99782
 Alpha  occ. eigenvalues --   -0.95146  -0.90277  -0.90207  -0.82890  -0.79954
 Alpha  occ. eigenvalues --   -0.77522  -0.77043  -0.74055  -0.73000  -0.71713
 Alpha  occ. eigenvalues --   -0.64317  -0.63266  -0.62001  -0.58254  -0.55869
 Alpha  occ. eigenvalues --   -0.54431  -0.53084  -0.46581  -0.45478  -0.43619
 Alpha  occ. eigenvalues --   -0.37569  -0.37046  -0.36397
 Alpha virt. eigenvalues --    0.03280   0.04100   0.04519   0.05277   0.05656
 Alpha virt. eigenvalues --    0.06228   0.06395   0.07384   0.08154   0.08421
 Alpha virt. eigenvalues --    0.09264   0.10021   0.10813   0.11769   0.12093

 Mulliken charges:
               1
     1  F   -0.316041
     2  F   -0.349658
     3  S   -0.240953
     4  C   -0.061124
     5  C    0.708339
     6  H   -0.405539
     7  C    0.084799
     8  C    0.551870
     9  H   -0.620617
    10  C    0.287306
    11  C    0.502870
    12  H   -0.422247
    13  B    0.513120
    14  S   -0.233764
    15  H    0.023389
    16  H   -0.021751
 Sum of Mulliken charges =   0.00000

 Dipole moment (field-independent basis, Debye):
    X=              0.2665    Y=             -0.7287    Z=              0.7112  Tot=              1.0525

 Test job not archived.
 1\1\GINC-SE174\SP\RHF\Aug-CC-pVDZ\C6H5B1F2S2\OHZDE\09-Apr-2025\0\\#t h
 f aug-cc-pvdz iop(5/13=1,5/36=2,99/5=2) pseudo=read geom=check guess=(
 read,tcheck) scf=(maxcycle=1)\\title\\0,1\F,0,4.127852,-0.240787,0.076
 415\F,0,0.162448,2.156133,-0.541593\S,0,-2.680612,1.227067,0.473808\C,
 0,-0.028865,-0.14467,0.039321\C,0,2.144511,0.976302,-0.239545\H,0,2.70
 2563,1.873069,-0.471671\C,0,0.759338,0.978797,-0.238942\C,0,0.690565,-
 1.32282,0.333168\H,0,0.138107,-2.224619,0.567551\C,0,2.783114,-0.21509
 4,0.06474\C,0,2.07798,-1.373432,0.357318\H,0,2.612346,-2.284071,0.5942

 Normal termination of Gaussian 16 at Wed Apr  9 00:49:37 2025.
