 Gaussian 16, Revision C.01,

 ----------------------------------------------------------------------
 #t hf aug-cc-pvdz symm=none int=(grid=ultrafine) guess=(read,tcheck) s
 table=(opt,rrhf)
 ----------------------------------------------------------------------
 -----
 title
 -----
 Symbolic Z-matrix:
 Charge =  0 Multiplicity = 1

 SCF Done:  E(RHF) =  -404.463382138     A.U. after   15 cycles
 Normal termination of Gaussian 16 at Tue Apr  8 23:09:13 2025.
 Gaussian 16:  ES64L-G16RevC.01  3-Jul-2019

 ----------------------------------------------------------------------
 #t hf aug-cc-pvdz iop(5/13=1,5/36=2,99/5=2) pseudo=read geom=check gue
 ss=(read,tcheck) scf=(maxcycle=1)
 ----------------------------------------------------------------------
 -----
 title
 -----
 Structure from the checkpoint file:  "BDE49_expt_721_mol1.chk"
 Charge =  0 Multiplicity = 1

                         Standard orientation:
 ---------------------------------------------------------------------
 Center     Atomic      Atomic             Coordinates (Angstroms)
 Number     Number       Type             X           Y           Z
 ---------------------------------------------------------------------
      1          6           0        1.386436   -0.007644   -0.000000
      2          6           0        0.717956    1.208584   -0.000000
      3          6           0       -0.671908    1.219956   -0.000000
      4          6           0        0.701425   -1.210911   -0.000000
      5          6           0       -0.692316   -1.196181   -0.000000
      6          6           0       -1.382752    0.017276   -0.000000
      7          9           0        2.741011   -0.017143   -0.000000
      8          1           0        1.286438    2.130281   -0.000000
      9          1           0       -1.221727    2.152790   -0.000000
     10          1           0        1.253239   -2.142531   -0.000000
     11          1           0       -1.239228   -2.134174   -0.000000
     12          8           0       -2.747976    0.094466   -0.000000
     13          1           0       -3.117066   -0.794286    0.000001
 ---------------------------------------------------------------------

 SCF Done:  E(RHF) =  -404.591363394     A.U. after    2 cycles

 The electronic state is 1-A.
 Alpha  occ. eigenvalues --  -26.13114 -20.61273 -11.33447 -11.32257 -11.26404
 Alpha  occ. eigenvalues --  -11.26254 -11.26133 -11.25576  -1.66843  -1.37548
 Alpha  occ. eigenvalues --   -1.15788  -1.03497  -1.01926  -0.88134  -0.86292
 Alpha  occ. eigenvalues --   -0.77602  -0.76584  -0.74646  -0.73720  -0.66808
 Alpha  occ. eigenvalues --   -0.63633  -0.61535  -0.61489  -0.59781  -0.57602
 Alpha  occ. eigenvalues --   -0.51556  -0.50198  -0.36244  -0.32944
 Alpha virt. eigenvalues --    0.02893   0.04088   0.04359   0.05872   0.06539
 Alpha virt. eigenvalues --    0.09031   0.10112   0.10664   0.12006   0.13018
 Alpha virt. eigenvalues --    0.13453   0.13648   0.13946   0.14121   0.14595

 Mulliken charges:
               1
     1  C    0.230315
     2  C    0.494259
     3  C    0.581786
     4  C    0.334777
     5  C    0.541791
     6  C    0.435560
     7  F   -0.338634
     8  H   -0.409608
     9  H   -0.455882
    10  H   -0.407110
    11  H   -0.562378
    12  O   -0.574673
    13  H    0.129797
 Sum of Mulliken charges =  -0.00000

 Dipole moment (field-independent basis, Debye):
    X=             -1.7850    Y=             -1.3936    Z=              0.0000  Tot=              2.2646

 Test job not archived.
 1\1\GINC-SE060\SP\RHF\Aug-CC-pVDZ\C6H5F1O1\OHZDE\08-Apr-2025\0\\#t hf
 aug-cc-pvdz iop(5/13=1,5/36=2,99/5=2) pseudo=read geom=check guess=(re
 ad,tcheck) scf=(maxcycle=1)\\title\\0,1\C,0,-1.386436,-0.007644,0.\C,0
 ,-0.717956,1.208584,0.\C,0,0.671908,1.219956,0.\C,0,-0.701425,-1.21091
 1,0.\C,0,0.692316,-1.196181,0.\C,0,1.382752,0.017276,0.\F,0,-2.741011,
 -0.017142,0.\H,0,-1.286437,2.130281,0.\H,0,1.221728,2.15279,0.\H,0,-1.
 253239,-2.142531,0.\H,0,1.239228,-2.134174,0.\O,0,2.747976,0.094465,0.
 \H,0,3.117066,-0.794287,-0.000001\\Version=ES64L-G16RevC.01\State=1-A\

 Normal termination of Gaussian 16 at Tue Apr  8 23:09:17 2025.
