 Gaussian 16, Revision C.01,

 ----------------------------------------------------------------------
 #t hf aug-cc-pvdz symm=none int=(grid=ultrafine) guess=(read,tcheck) s
 table=opt
 ----------------------------------------------------------------------
 -----
 title
 -----
 Symbolic Z-matrix:
 Charge =  0 Multiplicity = 2

 SCF Done:  E(UHF) =  -384.700602661     A.U. after   15 cycles
 Normal termination of Gaussian 16 at Tue Apr  8 23:40:53 2025.
 Gaussian 16:  ES64L-G16RevC.01  3-Jul-2019

 ----------------------------------------------------------------------
 #t hf aug-cc-pvdz iop(5/13=1,5/36=2,99/5=2) pseudo=read geom=check gue
 ss=(read,tcheck) scf=(maxcycle=1)
 ----------------------------------------------------------------------
 -----
 title
 -----
 Structure from the checkpoint file:  "BDE49_nonexpt_1664_mol2.chk"
 Charge =  0 Multiplicity = 2

                         Standard orientation:
 ---------------------------------------------------------------------
 Center     Atomic      Atomic             Coordinates (Angstroms)
 Number     Number       Type             X           Y           Z
 ---------------------------------------------------------------------
      1         14           0       -1.171378   -0.135531   -0.115815
      2          6           0        0.557153    0.626193    0.098565
      3          7           0        1.595410   -0.388058   -0.130702
      4          1           0        0.603415    1.128481    1.081677
      5          1           0        0.667896    1.416309   -0.651313
      6          1           0        1.573536   -1.089428    0.602248
      7          1           0        2.519899    0.030803   -0.108680
      8          1           0       -2.219415    0.793221    0.392044
      9          1           0       -1.256823   -1.422702    0.628965
 ---------------------------------------------------------------------

 SCF Done:  E(UHF) =  -384.751144997     A.U. after    2 cycles

 The electronic state is 2-A.
 Alpha  occ. eigenvalues --  -69.06583 -15.61580 -11.25786  -6.81958  -3.93278
 Alpha  occ. eigenvalues --   -3.92405  -3.92395  -1.14453  -0.89337  -0.69662
 Alpha  occ. eigenvalues --   -0.64595  -0.61673  -0.55691  -0.47802  -0.45638
 Alpha  occ. eigenvalues --   -0.38980  -0.31834
 Alpha virt. eigenvalues --    0.03326   0.04668   0.04820   0.05241   0.06858
 Alpha virt. eigenvalues --    0.07836   0.08960   0.09117   0.10715   0.12274
 Alpha virt. eigenvalues --    0.14594   0.15897   0.16425   0.17413   0.18780

  Beta  occ. eigenvalues --  -69.06013 -15.61598 -11.25751  -6.81097  -3.92013
  Beta  occ. eigenvalues --   -3.91998  -3.91121  -1.14415  -0.88840  -0.67842
  Beta  occ. eigenvalues --   -0.62242  -0.61248  -0.55294  -0.46874  -0.45157
  Beta  occ. eigenvalues --   -0.38488
  Beta virt. eigenvalues --    0.03309   0.03672   0.04850   0.04939   0.06471
  Beta virt. eigenvalues --    0.07026   0.07963   0.09255   0.10827   0.10913
  Beta virt. eigenvalues --    0.12603   0.14848   0.16505   0.17505   0.17955

 Mulliken charges and spin densities:
               1          2
     1  Si   0.429942   0.981169
     2  C    0.407917  -0.012390
     3  N   -0.357965  -0.000457
     4  H   -0.168809   0.006524
     5  H   -0.213649   0.006070
     6  H    0.003403  -0.001744
     7  H   -0.000664  -0.001965
     8  H   -0.017902   0.021276
     9  H   -0.082273   0.001516
 Sum of Mulliken charges =  -0.00000   1.00000

 Dipole moment (field-independent basis, Debye):
    X=              1.0032    Y=              0.8083    Z=              1.0862  Tot=              1.6851
                          Isotropic Fermi Contact Couplings
        Atom                 a.u.       MegaHertz       Gauss      10(-4) cm-1
     1  Si(29)             0.55587    -494.01791    -176.27788    -164.78664
     2  C(13)              0.00470       5.28427       1.88556       1.76264
     3  N(14)             -0.00490      -1.58315      -0.56491      -0.52808
     4  H(1)               0.00808      36.10108      12.88176      12.04202
     5  H(1)               0.00194       8.65535       3.08844       2.88711
     6  H(1)              -0.00002      -0.09495      -0.03388      -0.03167
     7  H(1)              -0.00026      -1.15473      -0.41204      -0.38518
     8  H(1)               0.00416      18.59805       6.63625       6.20364

 Normal termination of Gaussian 16 at Tue Apr  8 23:40:55 2025.
