 Gaussian 16, Revision C.01,

 ----------------------------------------------------------------------
 #t hf aug-cc-pvdz symm=none int=(grid=ultrafine) guess=(read,tcheck) s
 table=(opt,rrhf)
 ----------------------------------------------------------------------
 -----
 title
 -----
 Symbolic Z-matrix:
 Charge =  0 Multiplicity = 1

 SCF Done:  E(RHF) =  -431.125799525     A.U. after   13 cycles
 Normal termination of Gaussian 16 at Wed Apr  9 00:30:50 2025.
 Gaussian 16:  ES64L-G16RevC.01  3-Jul-2019

 ----------------------------------------------------------------------
 #t hf aug-cc-pvdz iop(5/13=1,5/36=2,99/5=2) pseudo=read geom=check gue
 ss=(read,tcheck) scf=(maxcycle=1)
 ----------------------------------------------------------------------
 -----
 title
 -----
 Structure from the checkpoint file:  "BDE49_nonexpt_390_mol1.chk"
 Charge =  0 Multiplicity = 1

                         Standard orientation:
 ---------------------------------------------------------------------
 Center     Atomic      Atomic             Coordinates (Angstroms)
 Number     Number       Type             X           Y           Z
 ---------------------------------------------------------------------
      1          9           0        1.495686   -1.433652    0.000096
      2          9           0        2.258861    0.696237    0.000211
      3          5           0        1.239469   -0.128741   -0.000228
      4          6           0       -0.264674    0.404035   -0.000114
      5          8           0       -0.515849    1.601862   -0.000081
      6          7           0       -1.215611   -0.576363   -0.000070
      7          6           0       -2.641657   -0.293736    0.000024
      8          1           0       -0.905732   -1.535947   -0.000102
      9          1           0       -2.759422    0.788466    0.000041
     10          1           0       -3.124473   -0.707118    0.889909
     11          1           0       -3.124588   -0.707103   -0.889805
 ---------------------------------------------------------------------

 SCF Done:  E(RHF) =  -431.282782200     A.U. after    2 cycles

 The electronic state is 1-A.
 Alpha  occ. eigenvalues --  -26.16512 -26.15622 -20.55481 -15.66956 -11.36635
 Alpha  occ. eigenvalues --  -11.28268  -7.76695  -1.71459  -1.69176  -1.35610
 Alpha  occ. eigenvalues --   -1.21052  -0.97554  -0.90168  -0.84289  -0.83337
 Alpha  occ. eigenvalues --   -0.80080  -0.79020  -0.74123  -0.73803  -0.71564
 Alpha  occ. eigenvalues --   -0.66129  -0.63598  -0.60117  -0.56130  -0.55762
 Alpha  occ. eigenvalues --   -0.45188  -0.40631
 Alpha virt. eigenvalues --    0.02814   0.04046   0.04364   0.05502   0.06291
 Alpha virt. eigenvalues --    0.06789   0.07494   0.07718   0.08649   0.12234
 Alpha virt. eigenvalues --    0.13552   0.13600   0.14735   0.16543   0.18337

 Mulliken charges:
               1
     1  F   -0.437101
     2  F   -0.386171
     3  B    0.968661
     4  C    0.461320
     5  O   -0.514422
     6  N   -0.379639
     7  C    0.732560
     8  H   -0.065732
     9  H   -0.163889
    10  H   -0.107792
    11  H   -0.107794
 Sum of Mulliken charges =   0.00000

 Dipole moment (field-independent basis, Debye):
    X=             -1.9901    Y=             -3.7301    Z=             -0.0015  Tot=              4.2277

 Test job not archived.
 1\1\GINC-SE462\SP\RHF\Aug-CC-pVDZ\C2H4B1F2N1O1\OHZDE\09-Apr-2025\0\\#t
  hf aug-cc-pvdz iop(5/13=1,5/36=2,99/5=2) pseudo=read geom=check guess
 =(read,tcheck) scf=(maxcycle=1)\\title\\0,1\F,0,1.495686,-1.433652,0.0
 00096\F,0,2.258861,0.696237,0.000211\B,0,1.239469,-0.128741,-0.000228\
 C,0,-0.264674,0.404035,-0.000114\O,0,-0.515849,1.601862,-0.000081\N,0,
 -1.215611,-0.576363,-0.00007\C,0,-2.641657,-0.293736,0.000024\H,0,-0.9
 05732,-1.535947,-0.000102\H,0,-2.759422,0.788466,0.000041\H,0,-3.12447
 3,-0.707118,0.889909\H,0,-3.124588,-0.707103,-0.889805\\Version=ES64L-

 Normal termination of Gaussian 16 at Wed Apr  9 00:30:54 2025.
