 Gaussian 16, Revision C.01,

 ----------------------------------------------------------------------
 #t hf aug-cc-pvdz symm=none int=(grid=ultrafine) guess=(read,tcheck) s
 table=(opt,rrhf)
 ----------------------------------------------------------------------
 -----
 title
 -----
 Symbolic Z-matrix:
 Charge =  0 Multiplicity = 1

 SCF Done:  E(RHF) =  -648.418844293     A.U. after   16 cycles
 Normal termination of Gaussian 16 at Wed Apr  9 00:30:07 2025.
 Gaussian 16:  ES64L-G16RevC.01  3-Jul-2019

 ----------------------------------------------------------------------
 #t hf aug-cc-pvdz iop(5/13=1,5/36=2,99/5=2) pseudo=read geom=check gue
 ss=(read,tcheck) scf=(maxcycle=1)
 ----------------------------------------------------------------------
 -----
 title
 -----
 Structure from the checkpoint file:  "BDE49_nonexpt_323_mol1.chk"
 Charge =  0 Multiplicity = 1

                         Standard orientation:
 ---------------------------------------------------------------------
 Center     Atomic      Atomic             Coordinates (Angstroms)
 Number     Number       Type             X           Y           Z
 ---------------------------------------------------------------------
      1          6           0        0.964040   -1.374827   -0.131315
      2          6           0       -0.425169   -1.401891   -0.120607
      3          6           0        1.581875   -0.138662   -0.018699
      4          6           0        0.856969    1.041142    0.093251
      5          6           0       -0.538512    1.012413    0.089864
      6          6           0       -1.200370   -0.234880   -0.014540
      7          1           0       -0.918331   -2.363720   -0.224061
      8          5           0       -2.769062   -0.396393   -0.032941
      9          8           0       -3.395403   -1.482000    0.522827
     10          8           0       -3.551393    0.536458   -0.642776
     11          1           0        1.560170   -2.271396   -0.223549
     12          1           0        1.395009    1.975442    0.179758
     13          6           0       -1.293644    2.315790    0.210589
     14          1           0       -0.603167    3.154348    0.312110
     15          1           0       -1.954527    2.313250    1.081781
     16          1           0       -1.927091    2.485043   -0.661554
     17          7           0        3.062134   -0.073170   -0.017968
     18          8           0        3.582403    1.029558    0.081896
     19          8           0        3.674557   -1.127925   -0.116716
     20          1           0       -4.485683    0.303445   -0.597644
     21          1           0       -2.808461   -2.065486    1.010547
 ---------------------------------------------------------------------

 SCF Done:  E(RHF) =  -648.618273320     A.U. after    2 cycles

 The electronic state is 1-A.
 Alpha  occ. eigenvalues --  -20.61973 -20.61942 -20.60303 -20.59616 -15.92169
 Alpha  occ. eigenvalues --  -11.32304 -11.28394 -11.28035 -11.27845 -11.27627
 Alpha  occ. eigenvalues --  -11.26014 -11.24509  -7.68162  -1.55150  -1.36717
 Alpha  occ. eigenvalues --   -1.36454  -1.32603  -1.18841  -1.08914  -1.05993
 Alpha  occ. eigenvalues --   -0.96034  -0.95138  -0.85263  -0.82687  -0.80009
 Alpha  occ. eigenvalues --   -0.77505  -0.76842  -0.74082  -0.72799  -0.70068
 Alpha  occ. eigenvalues --   -0.67306  -0.64632  -0.62450  -0.61220  -0.60431
 Alpha  occ. eigenvalues --   -0.60064  -0.58682  -0.55729  -0.53799  -0.52486
 Alpha  occ. eigenvalues --   -0.52158  -0.52025  -0.51570  -0.49940  -0.47617
 Alpha  occ. eigenvalues --   -0.37945  -0.35943
 Alpha virt. eigenvalues --    0.02256   0.02390   0.03471   0.04358   0.04604
 Alpha virt. eigenvalues --    0.05568   0.06022   0.06317   0.06600   0.08001
 Alpha virt. eigenvalues --    0.08209   0.08807   0.09381   0.09874   0.11548

 Mulliken charges:
               1
     1  C    0.357720
     2  C    0.697061
     3  C    0.863210
     4  C    0.501030
     5  C   -0.524086
     6  C    0.365268
     7  H   -0.722409
     8  B    0.676881
     9  O   -0.531865
    10  O   -0.563698
    11  H   -0.459576
    12  H   -0.572144
    13  C    0.602685
    14  H   -0.249657
    15  H    0.062043
    16  H    0.110406
    17  N    0.063878
    18  O   -0.550529
    19  O   -0.565789
    20  H    0.222607
    21  H    0.216966
 Sum of Mulliken charges =  -0.00000

 Dipole moment (field-independent basis, Debye):
    X=             -5.1571    Y=             -0.7896    Z=              0.8176  Tot=              5.2809

 Test job not archived.
 1\1\GINC-SE339\SP\RHF\Aug-CC-pVDZ\C7H8B1N1O4\OHZDE\09-Apr-2025\0\\#t h
 f aug-cc-pvdz iop(5/13=1,5/36=2,99/5=2) pseudo=read geom=check guess=(
 read,tcheck) scf=(maxcycle=1)\\title\\0,1\C,0,0.96404,-1.374827,-0.131
 315\C,0,-0.425169,-1.401891,-0.120607\C,0,1.581875,-0.138662,-0.018699
 \C,0,0.856969,1.041142,0.093251\C,0,-0.538512,1.012413,0.089864\C,0,-1
 .20037,-0.23488,-0.01454\H,0,-0.918331,-2.36372,-0.224061\B,0,-2.76906
 2,-0.396393,-0.032941\O,0,-3.395403,-1.482,0.522827\O,0,-3.551393,0.53
 6458,-0.642776\H,0,1.56017,-2.271396,-0.223549\H,0,1.395009,1.975442,0

 Normal termination of Gaussian 16 at Wed Apr  9 00:30:22 2025.
