 Gaussian 16, Revision C.01,

 ----------------------------------------------------------------------
 #t hf aug-cc-pvdz symm=none int=(grid=ultrafine) guess=(read,tcheck) s
 table=(opt,rrhf)
 ----------------------------------------------------------------------
 -----
 title
 -----
 Symbolic Z-matrix:
 Charge =  0 Multiplicity = 1

 SCF Done:  E(RHF) =  -497.523427954     A.U. after   12 cycles
 Normal termination of Gaussian 16 at Tue Apr  8 22:55:38 2025.
 Gaussian 16:  ES64L-G16RevC.01  3-Jul-2019

 ----------------------------------------------------------------------
 #t hf aug-cc-pvdz iop(5/13=1,5/36=2,99/5=2) pseudo=read geom=check gue
 ss=(read,tcheck) scf=(maxcycle=1)
 ----------------------------------------------------------------------
 -----
 title
 -----
 Structure from the checkpoint file:  "BDE49_expt_1933_mol1.chk"
 Charge =  0 Multiplicity = 1

                         Standard orientation:
 ---------------------------------------------------------------------
 Center     Atomic      Atomic             Coordinates (Angstroms)
 Number     Number       Type             X           Y           Z
 ---------------------------------------------------------------------
      1         16           0        0.051548   -0.571098    0.000000
      2          9           0        0.051548    1.094082    0.000000
      3          1           0       -1.288704   -0.709166    0.000000
 ---------------------------------------------------------------------

 SCF Done:  E(RHF) =  -497.582939970     A.U. after    2 cycles

 The electronic state is 1-A'.
 Alpha  occ. eigenvalues --  -93.63632 -26.13923  -8.92475  -6.26680  -6.26292
 Alpha  occ. eigenvalues --   -6.25855  -1.64976  -0.98759  -0.75178  -0.74273
 Alpha  occ. eigenvalues --   -0.70851  -0.53473  -0.40422
 Alpha virt. eigenvalues --    0.03511   0.04537   0.10448   0.11535   0.15173
 Alpha virt. eigenvalues --    0.17505   0.18988   0.26152   0.26933   0.28699
 Alpha virt. eigenvalues --    0.29264   0.37796   0.42901   0.44792   0.47283

 Mulliken charges:
               1
     1  S    0.527136
     2  F   -0.592250
     3  H    0.065114
 Sum of Mulliken charges =  -0.00000

 Dipole moment (field-independent basis, Debye):
    X=             -1.0110    Y=             -1.9935    Z=              0.0000  Tot=              2.2352

 Test job not archived.
 1\1\GINC-SE143\SP\RHF\Aug-CC-pVDZ\F1H1S1\OHZDE\08-Apr-2025\0\\#t hf au
 g-cc-pvdz iop(5/13=1,5/36=2,99/5=2) pseudo=read geom=check guess=(read
 ,tcheck) scf=(maxcycle=1)\\title\\0,1\S,0,0.051548,-0.571098,0.\F,0,0.
 051548,1.094082,0.\H,0,-1.288704,-0.709166,0.\\Version=ES64L-G16RevC.0
 1\State=1-A'\HF=-497.58294\RMSD=6.863e-03\Dipole=-0.3977646,-0.7843163
 ,0.\Quadrupole=1.5302848,-0.2356607,-1.2946242,0.7733471,0.,0.\PG=CS [
 SG(F1H1S1)]\\@

 Normal termination of Gaussian 16 at Tue Apr  8 22:55:40 2025.
