 Gaussian 16, Revision C.01,

 ----------------------------------------------------------------------
 #t hf aug-cc-pvdz symm=none int=(grid=ultrafine) guess=(read,tcheck) s
 table=opt
 ----------------------------------------------------------------------
 -----
 title
 -----
 Symbolic Z-matrix:
 Charge =  0 Multiplicity = 2

 SCF Done:  E(UHF) =  -134.695834310     A.U. after   19 cycles
 Normal termination of Gaussian 16 at Wed Apr  9 00:34:46 2025.
 Gaussian 16:  ES64L-G16RevC.01  3-Jul-2019

 ----------------------------------------------------------------------
 #t hf aug-cc-pvdz iop(5/13=1,5/36=2,99/5=2) pseudo=read geom=check gue
 ss=(read,tcheck) scf=(maxcycle=1)
 ----------------------------------------------------------------------
 -----
 title
 -----
 Structure from the checkpoint file:  "BDE49_nonexpt_522_mol2.chk"
 Charge =  0 Multiplicity = 2

                         Standard orientation:
 ---------------------------------------------------------------------
 Center     Atomic      Atomic             Coordinates (Angstroms)
 Number     Number       Type             X           Y           Z
 ---------------------------------------------------------------------
      1          1           0       -2.512255    0.018104   -0.000002
      2          5           0       -1.348533    0.004638    0.000003
      3          7           0       -0.091572    0.024417   -0.000000
      4          7           0        1.182781   -0.143435   -0.000002
      5          1           0        1.616462    0.791835    0.000003
 ---------------------------------------------------------------------

 SCF Done:  E(UHF) =  -134.736812679     A.U. after    2 cycles

 The electronic state is 2-A.
 Alpha  occ. eigenvalues --  -15.69494 -15.65833  -7.64716  -1.28391  -0.99142
 Alpha  occ. eigenvalues --   -0.73448  -0.62925  -0.60215  -0.58736  -0.37400
 Alpha  occ. eigenvalues --   -0.35588
 Alpha virt. eigenvalues --    0.03816   0.04464   0.04698   0.05329   0.07809
 Alpha virt. eigenvalues --    0.10514   0.14755   0.15841   0.16690   0.18079
 Alpha virt. eigenvalues --    0.19233   0.20832   0.22802   0.22925   0.23231

  Beta  occ. eigenvalues --  -15.66910 -15.66524  -7.63968  -1.24938  -0.94808
  Beta  occ. eigenvalues --   -0.71596  -0.62275  -0.57206  -0.50362  -0.36653
  Beta virt. eigenvalues --    0.03844   0.04475   0.04497   0.05350   0.07903
  Beta virt. eigenvalues --    0.07985   0.10593   0.14748   0.15985   0.17444
  Beta virt. eigenvalues --    0.19652   0.21114   0.23265   0.23337   0.23534

 Mulliken charges and spin densities:
               1          2
     1  H    0.300531  -0.022527
     2  B   -0.515250   0.436157
     3  N   -0.033609  -0.354360
     4  N    0.150782   1.026062
     5  H    0.097546  -0.085333
 Sum of Mulliken charges =  -0.00000   1.00000

 Dipole moment (field-independent basis, Debye):
    X=             -1.2737    Y=              1.4259    Z=              0.0000  Tot=              1.9120
                          Isotropic Fermi Contact Couplings
        Atom                 a.u.       MegaHertz       Gauss      10(-4) cm-1
     1  H(1)              -0.01256     -56.16332     -20.04047     -18.73407
     2  B(11)              0.05431      77.89968      27.79654      25.98454
     3  N(14)             -0.17166     -55.46562     -19.79151     -18.50134
     4  N(14)              0.25537      82.51045      29.44178      27.52252
     5  H(1)              -0.02524    -112.80450     -40.25145     -37.62753
 --------------------------------------------------------
       Center         ----  Spin Dipole Couplings  ----
                      3XX-RR        3YY-RR        3ZZ-RR

 Normal termination of Gaussian 16 at Wed Apr  9 00:34:48 2025.
