 Gaussian 16, Revision C.01,

 ----------------------------------------------------------------------
 #t hf aug-cc-pvdz symm=none int=(grid=ultrafine) guess=(read,tcheck) s
 table=opt
 ----------------------------------------------------------------------
 -----
 title
 -----
 Symbolic Z-matrix:
 Charge =  0 Multiplicity = 2

 SCF Done:  E(UHF) =  -442.408705709     A.U. after   22 cycles
 Normal termination of Gaussian 16 at Tue Apr  8 23:49:21 2025.
 Gaussian 16:  ES64L-G16RevC.01  3-Jul-2019

 ----------------------------------------------------------------------
 #t hf aug-cc-pvdz iop(5/13=1,5/36=2,99/5=2) pseudo=read geom=check gue
 ss=(read,tcheck) scf=(maxcycle=1)
 ----------------------------------------------------------------------
 -----
 title
 -----
 Structure from the checkpoint file:  "BDE49_nonexpt_1874_mol2.chk"
 Charge =  0 Multiplicity = 2

                         Standard orientation:
 ---------------------------------------------------------------------
 Center     Atomic      Atomic             Coordinates (Angstroms)
 Number     Number       Type             X           Y           Z
 ---------------------------------------------------------------------
      1         14           0        1.398808   -0.192197   -0.086735
      2          6           0       -0.481146    0.208763    0.004435
      3          1           0        2.202490    0.974429    0.340946
      4          1           0        1.794619   -1.432638    0.630434
      5          8           0       -0.811207    1.377274    0.029121
      6          6           0       -1.497421   -0.918715   -0.000488
      7          1           0       -1.335477   -1.581846    0.854817
      8          1           0       -1.377832   -1.523400   -0.905346
      9          1           0       -2.506051   -0.504262    0.036786
 ---------------------------------------------------------------------

 SCF Done:  E(UHF) =  -442.476629418     A.U. after    2 cycles

 The electronic state is 2-A.
 Alpha  occ. eigenvalues --  -69.08675 -20.58520 -11.33935 -11.25225  -6.84131
 Alpha  occ. eigenvalues --   -3.95492  -3.94593  -3.94574  -1.37127  -1.00966
 Alpha  occ. eigenvalues --   -0.80136  -0.71285  -0.64166  -0.62134  -0.61541
 Alpha  occ. eigenvalues --   -0.55299  -0.54363  -0.49884  -0.41179  -0.33598
 Alpha virt. eigenvalues --    0.03110   0.04835   0.05513   0.05625   0.06427
 Alpha virt. eigenvalues --    0.07333   0.08194   0.09252   0.09370   0.11986
 Alpha virt. eigenvalues --    0.13372   0.14169   0.15106   0.15336   0.16292

  Beta  occ. eigenvalues --  -69.08104 -20.57588 -11.34354 -11.25183  -6.83292
  Beta  occ. eigenvalues --   -3.94175  -3.94164  -3.93285  -1.35181  -1.00885
  Beta  occ. eigenvalues --   -0.78775  -0.69326  -0.63553  -0.61223  -0.60345
  Beta  occ. eigenvalues --   -0.54958  -0.49957  -0.49236  -0.39963
  Beta virt. eigenvalues --    0.01782   0.03299   0.05037   0.05690   0.06089
  Beta virt. eigenvalues --    0.06649   0.08195   0.08311   0.09708   0.10695
  Beta virt. eigenvalues --    0.13481   0.13921   0.14851   0.15531   0.16050

 Mulliken charges and spin densities:
               1          2
     1  Si   0.295475   1.021639
     2  C    0.045260  -0.246109
     3  H   -0.017860  -0.005204
     4  H   -0.018041  -0.014341
     5  O   -0.492571   0.220318
     6  C    0.220129   0.045259
     7  H    0.005365  -0.007655
     8  H    0.019158  -0.012179
     9  H   -0.056916  -0.001727
 Sum of Mulliken charges =  -0.00000   1.00000

 Dipole moment (field-independent basis, Debye):
    X=              0.5367    Y=             -3.0347    Z=             -0.0392  Tot=              3.0820
                          Isotropic Fermi Contact Couplings
        Atom                 a.u.       MegaHertz       Gauss      10(-4) cm-1
     1  Si(29)             0.49091    -436.28926    -155.67886    -145.53043
     2  C(13)             -0.03892     -43.75755     -15.61378     -14.59595
     3  H(1)              -0.00145      -6.46467      -2.30675      -2.15638
     4  H(1)              -0.00259     -11.58156      -4.13259      -3.86319
     5  O(17)              0.07737     -46.90345     -16.73632     -15.64531
     6  C(13)              0.00591       6.64166       2.36991       2.21542
     7  H(1)              -0.00274     -12.26027      -4.37477      -4.08958
     8  H(1)              -0.00218      -9.73454      -3.47353      -3.24709

 Normal termination of Gaussian 16 at Tue Apr  8 23:49:24 2025.
