 Gaussian 16, Revision C.01,

 ----------------------------------------------------------------------
 #t hf aug-cc-pvdz symm=none int=(grid=ultrafine) guess=(read,tcheck) s
 table=(opt,rrhf)
 ----------------------------------------------------------------------
 -----
 title
 -----
 Symbolic Z-matrix:
 Charge =  0 Multiplicity = 1

 SCF Done:  E(RHF) =  -824.825950014     A.U. after   11 cycles
 Normal termination of Gaussian 16 at Tue Apr  8 23:54:23 2025.
 Gaussian 16:  ES64L-G16RevC.01  3-Jul-2019

 ----------------------------------------------------------------------
 #t hf aug-cc-pvdz iop(5/13=1,5/36=2,99/5=2) pseudo=read geom=check gue
 ss=(read,tcheck) scf=(maxcycle=1)
 ----------------------------------------------------------------------
 -----
 title
 -----
 Structure from the checkpoint file:  "BDE49_nonexpt_1999_mol1.chk"
 Charge =  0 Multiplicity = 1

                         Standard orientation:
 ---------------------------------------------------------------------
 Center     Atomic      Atomic             Coordinates (Angstroms)
 Number     Number       Type             X           Y           Z
 ---------------------------------------------------------------------
      1          6           0        1.190798   -0.000000   -0.467600
      2         14           0       -0.643521    0.000000   -0.005323
      3          9           0        1.784873    1.113105    0.074982
      4          1           0        1.397167   -0.000000   -1.542028
      5          9           0        1.784873   -1.113105    0.074982
      6          9           0       -0.832273   -0.000001    1.559265
      7          9           0       -1.342774   -1.281295   -0.608941
      8          9           0       -1.342773    1.281297   -0.608939
 ---------------------------------------------------------------------

 SCF Done:  E(RHF) =  -825.072463995     A.U. after    2 cycles

 The electronic state is 1-A.
 Alpha  occ. eigenvalues --  -69.24184 -26.16431 -26.16424 -26.16343 -26.16341
 Alpha  occ. eigenvalues --  -26.16164 -11.44349  -6.97908  -4.08954  -4.08952
 Alpha  occ. eigenvalues --   -4.08731  -1.72243  -1.70600  -1.68909  -1.68806
 Alpha  occ. eigenvalues --   -1.68017  -1.02496  -0.89830  -0.84468  -0.83770
 Alpha  occ. eigenvalues --   -0.83523  -0.82561  -0.82458  -0.78318  -0.77734
 Alpha  occ. eigenvalues --   -0.77718  -0.76016  -0.75393  -0.75201  -0.74046
 Alpha  occ. eigenvalues --   -0.72205  -0.67397  -0.54632
 Alpha virt. eigenvalues --    0.03251   0.05450   0.05913   0.05970   0.09308
 Alpha virt. eigenvalues --    0.10306   0.10540   0.14145   0.16814   0.17888
 Alpha virt. eigenvalues --    0.19036   0.19129   0.20358   0.23483   0.24383

 Mulliken charges:
               1
     1  C    0.746646
     2  Si   2.651088
     3  F   -0.388584
     4  H   -0.244840
     5  F   -0.388584
     6  F   -0.790718
     7  F   -0.792503
     8  F   -0.792503
 Sum of Mulliken charges =  -0.00000

 Dipole moment (field-independent basis, Debye):
    X=              0.0036    Y=              0.0000    Z=             -1.9649  Tot=              1.9649

 Test job not archived.
 1\1\GINC-SE080\SP\RHF\Aug-CC-pVDZ\C1H1F5Si1\OHZDE\08-Apr-2025\0\\#t hf
  aug-cc-pvdz iop(5/13=1,5/36=2,99/5=2) pseudo=read geom=check guess=(r
 ead,tcheck) scf=(maxcycle=1)\\title\\0,1\C,0,1.190798,0.,-0.4676\Si,0,
 -0.643521,0.,-0.005323\F,0,1.784873,1.113105,0.074982\H,0,1.397167,0.,
 -1.542028\F,0,1.784873,-1.113105,0.074982\F,0,-0.832273,-0.000001,1.55
 9265\F,0,-1.342774,-1.281296,-0.608941\F,0,-1.342773,1.281296,-0.60893
 9\\Version=ES64L-G16RevC.01\State=1-A\HF=-825.072464\RMSD=5.045e-03\Di
 pole=0.0014056,0.0000018,-0.7730416\Quadrupole=-1.1745585,-1.3891066,2

 Normal termination of Gaussian 16 at Tue Apr  8 23:54:26 2025.
