 Gaussian 16, Revision C.01,

 ----------------------------------------------------------------------
 #t hf aug-cc-pvdz symm=none int=(grid=ultrafine) guess=(read,tcheck) s
 table=(opt,rrhf)
 ----------------------------------------------------------------------
 -----
 title
 -----
 Symbolic Z-matrix:
 Charge =  0 Multiplicity = 1

 SCF Done:  E(RHF) =  -675.403926977     A.U. after   16 cycles
 Normal termination of Gaussian 16 at Wed Apr  9 00:43:03 2025.
 Gaussian 16:  ES64L-G16RevC.01  3-Jul-2019

 ----------------------------------------------------------------------
 #t hf aug-cc-pvdz iop(5/13=1,5/36=2,99/5=2) pseudo=read geom=check gue
 ss=(read,tcheck) scf=(maxcycle=1)
 ----------------------------------------------------------------------
 -----
 title
 -----
 Structure from the checkpoint file:  "BDE49_nonexpt_714_mol1.chk"
 Charge =  0 Multiplicity = 1

                         Standard orientation:
 ---------------------------------------------------------------------
 Center     Atomic      Atomic             Coordinates (Angstroms)
 Number     Number       Type             X           Y           Z
 ---------------------------------------------------------------------
      1          5           0       -2.313564    0.241284    0.208431
      2          6           0       -2.022389    1.682969    0.758599
      3          6           0        0.613837   -0.317360   -0.375872
      4          6           0       -3.701750   -0.450698    0.478373
      5          1           0       -3.946146   -1.290852   -0.176709
      6          1           0       -3.669877   -0.846465    1.504689
      7          1           0       -4.533632    0.262697    0.461412
      8          1           0       -0.965917    1.951255    0.828360
      9          1           0       -2.494991    1.847007    1.733431
     10          1           0       -2.494743    2.406205    0.076878
     11          6           0        1.274928    0.840806   -0.807914
     12          6           0        1.299294   -1.202444    0.467840
     13          6           0        2.603832   -0.931962    0.872478
     14          6           0        3.243526    0.232822    0.452177
     15          6           0        2.573434    1.119649   -0.387037
     16          1           0        3.065811    2.023756   -0.727901
     17          1           0        0.775275    1.524684   -1.485962
     18          1           0        3.118778   -1.629879    1.523644
     19          1           0        4.257655    0.443999    0.771753
     20          1           0        0.810040   -2.106245    0.813516
     21         15           0       -1.093516   -0.643390   -0.970400
     22          1           0       -1.259961   -1.984414   -0.561123
 ---------------------------------------------------------------------

 SCF Done:  E(RHF) =  -675.523340780     A.U. after    2 cycles

 The electronic state is 1-A.
 Alpha  occ. eigenvalues --  -81.23400 -11.25606 -11.24905 -11.24875 -11.24799
 Alpha  occ. eigenvalues --  -11.24756 -11.24662 -11.20949 -11.20617  -7.74078
 Alpha  occ. eigenvalues --   -7.61543  -4.88264  -4.88112  -4.87856  -1.14421
 Alpha  occ. eigenvalues --   -1.01574  -1.01261  -0.96610  -0.92098  -0.84143
 Alpha  occ. eigenvalues --   -0.83057  -0.76650  -0.69736  -0.63642  -0.63374
 Alpha  occ. eigenvalues --   -0.60772  -0.59419  -0.57864  -0.56285  -0.56206
 Alpha  occ. eigenvalues --   -0.53884  -0.53361  -0.50948  -0.50085  -0.48603
 Alpha  occ. eigenvalues --   -0.45769  -0.42693  -0.36902  -0.34359  -0.30353
 Alpha virt. eigenvalues --    0.02969   0.03834   0.04130   0.05069   0.05330
 Alpha virt. eigenvalues --    0.05432   0.06619   0.07037   0.07169   0.07536
 Alpha virt. eigenvalues --    0.08233   0.08991   0.09200   0.09915   0.10084

 Mulliken charges:
               1
     1  B    0.643693
     2  C    0.557732
     3  C   -0.571205
     4  C    0.484070
     5  H   -0.361170
     6  H   -0.112359
     7  H   -0.270289
     8  H   -0.338133
     9  H   -0.233052
    10  H   -0.097761
    11  C    0.635357
    12  C    0.755156
    13  C    0.577034
    14  C    0.652572
    15  C    0.436684
    16  H   -0.466251
    17  H   -0.585640
    18  H   -0.462783
    19  H   -0.432791
    20  H   -0.581330
    21  P   -0.396656
    22  H    0.167123
 Sum of Mulliken charges =   0.00000

 Dipole moment (field-independent basis, Debye):
    X=              0.1378    Y=              0.2982    Z=              1.2534  Tot=              1.2957

 Test job not archived.
 1\1\GINC-SE339\SP\RHF\Aug-CC-pVDZ\C8H12B1P1\OHZDE\09-Apr-2025\0\\#t hf
  aug-cc-pvdz iop(5/13=1,5/36=2,99/5=2) pseudo=read geom=check guess=(r
 ead,tcheck) scf=(maxcycle=1)\\title\\0,1\B,0,-2.313564,0.241284,0.2084
 31\C,0,-2.022389,1.682969,0.758599\C,0,0.613837,-0.31736,-0.375872\C,0
 ,-3.70175,-0.450698,0.478373\H,0,-3.946146,-1.290852,-0.176709\H,0,-3.
 669877,-0.846465,1.504689\H,0,-4.533632,0.262697,0.461412\H,0,-0.96591
 7,1.951255,0.82836\H,0,-2.494991,1.847007,1.733431\H,0,-2.494743,2.406
 205,0.076878\C,0,1.274928,0.840806,-0.807914\C,0,1.299294,-1.202444,0.

 Normal termination of Gaussian 16 at Wed Apr  9 00:43:17 2025.
