 Gaussian 16, Revision C.01,

 ----------------------------------------------------------------------
 #t hf aug-cc-pvdz symm=none int=(grid=ultrafine) guess=(read,tcheck) s
 table=(opt,rrhf)
 ----------------------------------------------------------------------
 -----
 title
 -----
 Symbolic Z-matrix:
 Charge =  0 Multiplicity = 1

 SCF Done:  E(RHF) =  -408.377772498     A.U. after   11 cycles
 Normal termination of Gaussian 16 at Tue Apr  8 23:47:25 2025.
 Gaussian 16:  ES64L-G16RevC.01  3-Jul-2019

 ----------------------------------------------------------------------
 #t hf aug-cc-pvdz iop(5/13=1,5/36=2,99/5=2) pseudo=read geom=check gue
 ss=(read,tcheck) scf=(maxcycle=1)
 ----------------------------------------------------------------------
 -----
 title
 -----
 Structure from the checkpoint file:  "BDE49_nonexpt_1829_mol1.chk"
 Charge =  0 Multiplicity = 1

                         Standard orientation:
 ---------------------------------------------------------------------
 Center     Atomic      Atomic             Coordinates (Angstroms)
 Number     Number       Type             X           Y           Z
 ---------------------------------------------------------------------
      1          6           0       -1.098813   -0.475693   -0.446333
      2         14           0        0.677614   -0.622728    0.178386
      3          6           0       -1.929236    0.641025    0.211070
      4          1           0       -1.994741    0.505244    1.294711
      5          1           0       -2.951434    0.662588   -0.178151
      6          1           0       -1.493071    1.627953    0.031181
      7          6           0        1.682896    0.934327   -0.150794
      8          1           0        1.330570   -1.779817   -0.488324
      9          1           0        0.661083   -0.894371    1.640598
     10          1           0        1.725415    1.156683   -1.221102
     11          1           0        2.709578    0.815274    0.206439
     12          1           0        1.253277    1.802281    0.357084
     13          1           0       -1.587563   -1.444671   -0.290250
     14          1           0       -1.068800   -0.330925   -1.533248
 ---------------------------------------------------------------------

 SCF Done:  E(RHF) =  -408.443096399     A.U. after    2 cycles

 The electronic state is 1-A.
 Alpha  occ. eigenvalues --  -69.04856 -11.23020 -11.21829 -11.21404  -6.80137
 Alpha  occ. eigenvalues --   -3.90919  -3.90908  -3.90898  -1.01156  -0.93550
 Alpha  occ. eigenvalues --   -0.84093  -0.66132  -0.60696  -0.58018  -0.55929
 Alpha  occ. eigenvalues --   -0.54725  -0.51697  -0.49711  -0.45325  -0.44424
 Alpha  occ. eigenvalues --   -0.41875
 Alpha virt. eigenvalues --    0.03308   0.04598   0.04891   0.04947   0.06559
 Alpha virt. eigenvalues --    0.06854   0.07090   0.07388   0.08442   0.09487
 Alpha virt. eigenvalues --    0.09860   0.10773   0.12110   0.14034   0.15132

 Mulliken charges:
               1
     1  C    0.116101
     2  Si   0.743246
     3  C    0.227578
     4  H   -0.092713
     5  H   -0.093634
     6  H   -0.106375
     7  C    0.265298
     8  H   -0.055549
     9  H    0.038965
    10  H   -0.156663
    11  H   -0.298565
    12  H   -0.207322
    13  H   -0.239450
    14  H   -0.140918
 Sum of Mulliken charges =  -0.00000

 Dipole moment (field-independent basis, Debye):
    X=             -0.3302    Y=              0.5573    Z=             -0.3687  Tot=              0.7454

 Test job not archived.
 1\1\GINC-SE069\SP\RHF\Aug-CC-pVDZ\C3H10Si1\OHZDE\08-Apr-2025\0\\#t hf
 aug-cc-pvdz iop(5/13=1,5/36=2,99/5=2) pseudo=read geom=check guess=(re
 ad,tcheck) scf=(maxcycle=1)\\title\\0,1\C,0,-1.098813,-0.475693,-0.446
 333\Si,0,0.677614,-0.622728,0.178386\C,0,-1.929236,0.641025,0.21107\H,
 0,-1.994741,0.505244,1.294711\H,0,-2.951434,0.662587,-0.178151\H,0,-1.
 493072,1.627953,0.031181\C,0,1.682896,0.934327,-0.150794\H,0,1.33057,-
 1.779817,-0.488324\H,0,0.661083,-0.894371,1.640598\H,0,1.725415,1.1566
 83,-1.221102\H,0,2.709578,0.815274,0.206439\H,0,1.253276,1.802281,0.35

 Normal termination of Gaussian 16 at Tue Apr  8 23:47:29 2025.
