 Gaussian 16, Revision C.01,

 ----------------------------------------------------------------------
 #t hf aug-cc-pvdz symm=none int=(grid=ultrafine) guess=(read,tcheck) s
 table=(opt,rrhf)
 ----------------------------------------------------------------------
 -----
 title
 -----
 Symbolic Z-matrix:
 Charge =  0 Multiplicity = 1

 SCF Done:  E(RHF) =  -1913.70550534     A.U. after   11 cycles
 Normal termination of Gaussian 16 at Tue Apr  8 22:46:31 2025.
 Gaussian 16:  ES64L-G16RevC.01  3-Jul-2019

 ----------------------------------------------------------------------
 #t hf aug-cc-pvdz iop(5/13=1,5/36=2,99/5=2) pseudo=read geom=check gue
 ss=(read,tcheck) scf=(maxcycle=1)
 ----------------------------------------------------------------------
 -----
 title
 -----
 Structure from the checkpoint file:  "BDE49_expt_1627_mol1.chk"
 Charge =  0 Multiplicity = 1

                         Standard orientation:
 ---------------------------------------------------------------------
 Center     Atomic      Atomic             Coordinates (Angstroms)
 Number     Number       Type             X           Y           Z
 ---------------------------------------------------------------------
      1          6           0        0.362572    0.564965    0.000000
      2          6           0       -0.362572   -0.564965    0.000000
      3         17           0        2.089916    0.558826    0.000000
      4         17           0       -0.362572    2.132739    0.000000
      5         17           0        0.362572   -2.132739    0.000000
      6         17           0       -2.089916   -0.558826    0.000000
 ---------------------------------------------------------------------

 SCF Done:  E(RHF) =  -1913.80647567     A.U. after    2 cycles

 The electronic state is 1-AG.
 Alpha  occ. eigenvalues -- -103.70593-103.70592-103.70591-103.70591 -11.40217
 Alpha  occ. eigenvalues --  -11.40056 -10.73883 -10.73878 -10.73874 -10.73868
 Alpha  occ. eigenvalues --   -8.39619  -8.39618  -8.39617  -8.39607  -8.39269
 Alpha  occ. eigenvalues --   -8.39269  -8.39262  -8.39260  -8.39254  -8.39253
 Alpha  occ. eigenvalues --   -8.39253  -8.39250  -1.28510  -1.23180  -1.18882
 Alpha  occ. eigenvalues --   -1.16615  -1.01196  -0.77192  -0.69464  -0.68249
 Alpha  occ. eigenvalues --   -0.62625  -0.59104  -0.54746  -0.52695  -0.51885
 Alpha  occ. eigenvalues --   -0.51435  -0.50649  -0.50030  -0.46934  -0.37992
 Alpha virt. eigenvalues --    0.05698   0.07031   0.07083   0.08647   0.09569
 Alpha virt. eigenvalues --    0.11285   0.11415   0.12243   0.12969   0.14673
 Alpha virt. eigenvalues --    0.15066   0.15173   0.16866   0.17308   0.17641

 Mulliken charges:
               1
     1  C    0.252071
     2  C    0.252071
     3  Cl  -0.126037
     4  Cl  -0.126034
     5  Cl  -0.126034
     6  Cl  -0.126037
 Sum of Mulliken charges =  -0.00000

 Dipole moment (field-independent basis, Debye):
    X=              0.0000    Y=             -0.0000    Z=             -0.0000  Tot=              0.0000

 Test job not archived.
 1\1\GINC-SE174\SP\RHF\Aug-CC-pVDZ\C2Cl4\OHZDE\08-Apr-2025\0\\#t hf aug
 -cc-pvdz iop(5/13=1,5/36=2,99/5=2) pseudo=read geom=check guess=(read,
 tcheck) scf=(maxcycle=1)\\title\\0,1\C,0,-0.000001,-0.6713,0.\C,0,0.00
 0001,0.6713,0.\Cl,0,1.457043,-1.599081,0.\Cl,0,-1.457043,-1.599081,0.\
 Cl,0,1.457043,1.599081,0.\Cl,0,-1.457043,1.599081,0.\\Version=ES64L-G1
 6RevC.01\State=1-AG\HF=-1913.8064757\RMSD=5.725e-03\Dipole=0.,0.,0.\Qu
 adrupole=1.3808352,-0.2858128,-1.0950224,0.0000225,0.,0.\PG=C02H [SGH(
 C2Cl4)]\\@

 Normal termination of Gaussian 16 at Tue Apr  8 22:46:33 2025.
