 Gaussian 16, Revision C.01,

 ----------------------------------------------------------------------
 #t hf aug-cc-pvdz symm=none int=(grid=ultrafine) guess=(read,tcheck) s
 table=opt
 ----------------------------------------------------------------------
 -----
 title
 -----
 Symbolic Z-matrix:
 Charge =  0 Multiplicity = 2

 SCF Done:  E(UHF) =  -1085.72908548     A.U. after   19 cycles

 1\1\GINC-SE335\Stability\UHF\Aug-CC-pVDZ\H3S2Si1\OHZDE\08-Apr-2025\0\\
 #t hf aug-cc-pvdz symm=none int=(grid=ultrafine) guess=(read,tcheck) s
 table=opt\\title\\0,2\Si,0,-1.688674,-0.361087,0.001935\S,0,0.007857,0
 .970514,0.012505\H,0,-1.746531,-1.169916,-1.240041\H,0,-1.691976,-1.24
 3544,1.195711\S,0,1.576517,-0.463015,-0.088718\H,0,1.729942,-0.651319,
 1.236655\\Version=ES64L-G16RevC.01\HF=-1085.7290855\S2=0.758644\S2-1=0
 .\S2A=0.750037\RMSD=6.147e-09\Dipole=-0.2773888,-0.3706615,0.3372254\Q
 uadrupole=1.0794105,-1.2486929,0.1692824,-0.6651462,1.446989,-0.659095

 Normal termination of Gaussian 16 at Tue Apr  8 23:51:18 2025.
 Gaussian 16:  ES64L-G16RevC.01  3-Jul-2019

 ----------------------------------------------------------------------
 #t hf aug-cc-pvdz iop(5/13=1,5/36=2,99/5=2) pseudo=read geom=check gue
 ss=(read,tcheck) scf=(maxcycle=1)
 ----------------------------------------------------------------------
 -----
 title
 -----
 Structure from the checkpoint file:  "BDE49_nonexpt_1928_mol2.chk"
 Charge =  0 Multiplicity = 2

                         Standard orientation:
 ---------------------------------------------------------------------
 Center     Atomic      Atomic             Coordinates (Angstroms)
 Number     Number       Type             X           Y           Z
 ---------------------------------------------------------------------
      1         14           0       -1.688674   -0.361087    0.001935
      2         16           0        0.007857    0.970514    0.012505
      3          1           0       -1.746531   -1.169916   -1.240041
      4          1           0       -1.691976   -1.243544    1.195711
      5         16           0        1.576517   -0.463015   -0.088718
      6          1           0        1.729942   -0.651319    1.236655
 ---------------------------------------------------------------------

 SCF Done:  E(UHF) =  -1085.78789955     A.U. after    2 cycles

 The electronic state is 2-A.
 Alpha  occ. eigenvalues --  -93.57743 -93.56184 -69.10912  -8.87271  -8.85908
 Alpha  occ. eigenvalues --   -6.86036  -6.21448  -6.21160  -6.20791  -6.19904
 Alpha  occ. eigenvalues --   -6.19729  -6.19435  -3.97356  -3.96511  -3.96402
 Alpha  occ. eigenvalues --   -1.03032  -0.87593  -0.69631  -0.57442  -0.51535
 Alpha  occ. eigenvalues --   -0.49682  -0.47767  -0.38858  -0.38049  -0.33334
 Alpha virt. eigenvalues --    0.03600   0.04730   0.04847   0.06198   0.07019
 Alpha virt. eigenvalues --    0.08554   0.09182   0.10735   0.12110   0.12438
 Alpha virt. eigenvalues --    0.13757   0.14906   0.15780   0.16193   0.17580

  Beta  occ. eigenvalues --  -93.57652 -93.56194 -69.10340  -8.87169  -8.85904
  Beta  occ. eigenvalues --   -6.85174  -6.21235  -6.21018  -6.20656  -6.20033
  Beta  occ. eigenvalues --   -6.19704  -6.19442  -3.96117  -3.96009  -3.95182
  Beta  occ. eigenvalues --   -1.02487  -0.86759  -0.65885  -0.57210  -0.50579
  Beta  occ. eigenvalues --   -0.49126  -0.46431  -0.38121  -0.37277
  Beta virt. eigenvalues --    0.01405   0.03748   0.05138   0.06190   0.06481
  Beta virt. eigenvalues --    0.07740   0.09145   0.09666   0.10888   0.12666
  Beta virt. eigenvalues --    0.13090   0.14565   0.15721   0.16282   0.16765

 Mulliken charges and spin densities:
               1          2
     1  Si   0.592650   0.964864
     2  S   -0.443130  -0.055022
     3  H   -0.059263   0.015643
     4  H   -0.051383   0.014866
     5  S   -0.164643   0.071842
     6  H    0.125769  -0.012192
 Sum of Mulliken charges =  -0.00000   1.00000

 Dipole moment (field-independent basis, Debye):
    X=             -0.7059    Y=             -0.8661    Z=              0.8194  Tot=              1.3856
                          Isotropic Fermi Contact Couplings
        Atom                 a.u.       MegaHertz       Gauss      10(-4) cm-1
     1  Si(29)             0.55870    -496.52877    -177.17381    -165.62417
     2  S(33)              0.07530      25.86473       9.22918       8.62755
     3  H(1)               0.00522      23.34674       8.33070       7.78763
     4  H(1)               0.00488      21.82437       7.78748       7.27983
     5  S(33)              0.02994      10.28483       3.66988       3.43065
     6  H(1)              -0.00108      -4.84863      -1.73011      -1.61733
 --------------------------------------------------------
       Center         ----  Spin Dipole Couplings  ----

 Normal termination of Gaussian 16 at Tue Apr  8 23:51:19 2025.
