 Gaussian 16, Revision C.01,

 ----------------------------------------------------------------------
 #t hf aug-cc-pvdz symm=none int=(grid=ultrafine) guess=(read,tcheck) s
 table=(opt,rrhf)
 ----------------------------------------------------------------------
 -----
 title
 -----
 Symbolic Z-matrix:
 Charge =  0 Multiplicity = 1

 SCF Done:  E(RHF) =  -636.134061506     A.U. after   14 cycles
 Normal termination of Gaussian 16 at Wed Apr  9 00:07:18 2025.
 Gaussian 16:  ES64L-G16RevC.01  3-Jul-2019

 ----------------------------------------------------------------------
 #t hf aug-cc-pvdz iop(5/13=1,5/36=2,99/5=2) pseudo=read geom=check gue
 ss=(read,tcheck) scf=(maxcycle=1)
 ----------------------------------------------------------------------
 -----
 title
 -----
 Structure from the checkpoint file:  "BDE49_nonexpt_2251_mol1.chk"
 Charge =  0 Multiplicity = 1

                         Standard orientation:
 ---------------------------------------------------------------------
 Center     Atomic      Atomic             Coordinates (Angstroms)
 Number     Number       Type             X           Y           Z
 ---------------------------------------------------------------------
      1         14           0       -0.161540   -0.160113    0.499162
      2          8           0       -0.896776   -1.366109   -0.443004
      3          8           0       -2.224681   -1.618535    0.127994
      4          1           0       -2.145085   -2.564355    0.310321
      5          6           0        1.515748    0.050574   -0.342112
      6          6           0        2.354885    1.131138    0.369007
      7          6           0       -1.219526    1.388218    0.537536
      8          1           0        1.857177    2.105097    0.377075
      9          1           0        3.320831    1.261106   -0.130805
     10          1           0        2.563250    0.856000    1.408471
     11          6           0        2.283481   -1.281756   -0.434758
     12          1           0        1.310188    0.395520   -1.363664
     13          1           0        2.500235   -1.684538    0.560399
     14          1           0        3.242462   -1.142718   -0.946214
     15          1           0        1.715839   -2.037089   -0.982526
     16          6           0       -1.514730    2.016551   -0.836453
     17          1           0       -0.731429    2.117000    1.197171
     18          1           0       -2.157858    1.119812    1.035328
     19          1           0       -0.598680    2.337930   -1.340557
     20          1           0       -2.159785    2.894742   -0.741448
     21          1           0       -2.019486    1.304953   -1.494346
     22          1           0        0.016405   -0.673076    1.883296
 ---------------------------------------------------------------------

 SCF Done:  E(RHF) =  -636.275677580     A.U. after    2 cycles

 The electronic state is 1-A.
 Alpha  occ. eigenvalues --  -69.07613 -20.64197 -20.61525 -11.23176 -11.22770
 Alpha  occ. eigenvalues --  -11.22630 -11.22468 -11.21741  -6.82582  -3.93475
 Alpha  occ. eigenvalues --   -3.93315  -3.93280  -1.40300  -1.17110  -1.04639
 Alpha  occ. eigenvalues --   -1.00901  -0.92714  -0.84430  -0.80033  -0.72586
 Alpha  occ. eigenvalues --   -0.70390  -0.63386  -0.63014  -0.61258  -0.59385
 Alpha  occ. eigenvalues --   -0.58657  -0.55637  -0.55085  -0.53931  -0.52766
 Alpha  occ. eigenvalues --   -0.50844  -0.49361  -0.48775  -0.48056  -0.47847
 Alpha  occ. eigenvalues --   -0.42825  -0.40253
 Alpha virt. eigenvalues --    0.03251   0.04205   0.04445   0.04764   0.05830
 Alpha virt. eigenvalues --    0.06205   0.06601   0.06729   0.07272   0.08345
 Alpha virt. eigenvalues --    0.08686   0.08837   0.09085   0.10183   0.10620

 Mulliken charges:
               1
     1  Si   1.193272
     2  O   -0.760964
     3  O   -0.374918
     4  H    0.238229
     5  C   -0.286123
     6  C    0.457510
     7  C    0.207778
     8  H   -0.149241
     9  H   -0.091556
    10  H   -0.053439
    11  C    0.409717
    12  H   -0.142300
    13  H   -0.086304
    14  H   -0.090839
    15  H   -0.133327
    16  C    0.330839
    17  H   -0.179421
    18  H   -0.293085
    19  H   -0.148353
    20  H   -0.097972
    21  H   -0.136522
    22  H    0.187018
 Sum of Mulliken charges =   0.00000

 Dipole moment (field-independent basis, Debye):
    X=              0.7364    Y=              0.0245    Z=              0.7493  Tot=              1.0509

 Test job not archived.
 1\1\GINC-SE126\SP\RHF\Aug-CC-pVDZ\C5H14O2Si1\OHZDE\09-Apr-2025\0\\#t h
 f aug-cc-pvdz iop(5/13=1,5/36=2,99/5=2) pseudo=read geom=check guess=(
 read,tcheck) scf=(maxcycle=1)\\title\\0,1\Si,0,-0.16154,-0.160113,0.49
 9162\O,0,-0.896776,-1.366109,-0.443004\O,0,-2.224681,-1.618535,0.12799
 4\H,0,-2.145085,-2.564355,0.310321\C,0,1.515748,0.050574,-0.342112\C,0
 ,2.354885,1.131138,0.369007\C,0,-1.219526,1.388218,0.537536\H,0,1.8571
 77,2.105097,0.377075\H,0,3.320831,1.261106,-0.130805\H,0,2.56325,0.856
 ,1.408471\C,0,2.283481,-1.281756,-0.434758\H,0,1.310188,0.39552,-1.363

 Normal termination of Gaussian 16 at Wed Apr  9 00:07:30 2025.
