 Gaussian 16, Revision C.01,

 ----------------------------------------------------------------------
 #t hf aug-cc-pvdz symm=none int=(grid=ultrafine) guess=(read,tcheck) s
 table=(opt,rrhf)
 ----------------------------------------------------------------------
 -----
 title
 -----
 Symbolic Z-matrix:
 Charge =  0 Multiplicity = 1

 SCF Done:  E(RHF) =  -478.920488933     A.U. after   12 cycles
 Normal termination of Gaussian 16 at Wed Apr  9 00:05:27 2025.
 Gaussian 16:  ES64L-G16RevC.01  3-Jul-2019

 ----------------------------------------------------------------------
 #t hf aug-cc-pvdz iop(5/13=1,5/36=2,99/5=2) pseudo=read geom=check gue
 ss=(read,tcheck) scf=(maxcycle=1)
 ----------------------------------------------------------------------
 -----
 title
 -----
 Structure from the checkpoint file:  "BDE49_nonexpt_2266_mol1.chk"
 Charge =  0 Multiplicity = 1

                         Standard orientation:
 ---------------------------------------------------------------------
 Center     Atomic      Atomic             Coordinates (Angstroms)
 Number     Number       Type             X           Y           Z
 ---------------------------------------------------------------------
      1          6           0        1.307798    0.376179   -0.000006
      2          8           0        1.590531   -0.790143    0.000018
      3          8           0        0.053674    0.857829   -0.000013
      4          1           0        2.038274    1.196558   -0.000007
      5         14           0       -1.288573   -0.191709   -0.000000
      6          1           0       -2.433003    0.735162   -0.000010
      7          1           0       -1.282834   -1.023166    1.217219
      8          1           0       -1.282836   -1.023194   -1.217200
 ---------------------------------------------------------------------

 SCF Done:  E(RHF) =  -479.012845153     A.U. after    2 cycles

 The electronic state is 1-A.
 Alpha  occ. eigenvalues --  -69.11430 -20.61758 -20.58290 -11.41251  -6.86230
 Alpha  occ. eigenvalues --   -3.97147  -3.96979  -3.96958  -1.42376  -1.33103
 Alpha  occ. eigenvalues --   -0.89483  -0.74931  -0.72774  -0.67011  -0.65881
 Alpha  occ. eigenvalues --   -0.57383  -0.52704  -0.49492  -0.49129  -0.48427
 Alpha virt. eigenvalues --    0.03337   0.04378   0.05814   0.05870   0.06970
 Alpha virt. eigenvalues --    0.09219   0.09286   0.09505   0.11246   0.13981
 Alpha virt. eigenvalues --    0.14701   0.15457   0.16464   0.18224   0.19430

 Mulliken charges:
               1
     1  C    0.698341
     2  O   -0.357120
     3  O   -0.724296
     4  H   -0.192512
     5  Si   0.658803
     6  H   -0.054125
     7  H   -0.014545
     8  H   -0.014546
 Sum of Mulliken charges =  -0.00000

 Dipole moment (field-independent basis, Debye):
    X=             -1.0318    Y=              1.6513    Z=             -0.0000  Tot=              1.9471

 Test job not archived.
 1\1\GINC-SE455\SP\RHF\Aug-CC-pVDZ\C1H4O2Si1\OHZDE\09-Apr-2025\0\\#t hf
  aug-cc-pvdz iop(5/13=1,5/36=2,99/5=2) pseudo=read geom=check guess=(r
 ead,tcheck) scf=(maxcycle=1)\\title\\0,1\C,0,1.307798,0.376179,-0.0000
 06\O,0,1.590531,-0.790143,0.000018\O,0,0.053674,0.857829,-0.000013\H,0
 ,2.038274,1.196558,-0.000007\Si,0,-1.288573,-0.191709,0.\H,0,-2.433003
 ,0.735162,-0.00001\H,0,-1.282834,-1.023166,1.217219\H,0,-1.282836,-1.0
 23194,-1.2172\\Version=ES64L-G16RevC.01\State=1-A\HF=-479.0128452\RMSD
 =4.342e-03\Dipole=-0.4059349,0.6496614,-0.0000145\Quadrupole=0.8944745

 Normal termination of Gaussian 16 at Wed Apr  9 00:05:29 2025.
