 Gaussian 16, Revision C.01,

 ----------------------------------------------------------------------
 #t hf aug-cc-pvdz symm=none int=(grid=ultrafine) guess=(read,tcheck) s
 table=(opt,rrhf)
 ----------------------------------------------------------------------
 -----
 title
 -----
 Symbolic Z-matrix:
 Charge =  0 Multiplicity = 1

 SCF Done:  E(RHF) =  -1904.06925935     A.U. after   16 cycles
 Normal termination of Gaussian 16 at Tue Apr  8 23:24:17 2025.
 Gaussian 16:  ES64L-G16RevC.01  3-Jul-2019

 ----------------------------------------------------------------------
 #t hf aug-cc-pvdz iop(5/13=1,5/36=2,99/5=2) pseudo=read geom=check gue
 ss=(read,tcheck) scf=(maxcycle=1)
 ----------------------------------------------------------------------
 -----
 title
 -----
 Structure from the checkpoint file:  "BDE49_nonexpt_1262_mol1.chk"
 Charge =  0 Multiplicity = 1

                         Standard orientation:
 ---------------------------------------------------------------------
 Center     Atomic      Atomic             Coordinates (Angstroms)
 Number     Number       Type             X           Y           Z
 ---------------------------------------------------------------------
      1         17           0        2.102927   -0.896305    1.213878
      2         17           0       -3.001039    0.235047   -0.109937
      3          8           0       -0.935880   -2.249015   -1.002604
      4          8           0       -0.270431    2.386466    0.694616
      5         15           0        1.424780   -0.821014   -0.794648
      6         15           0       -1.191212   -0.184184    0.850472
      7          6           0       -0.404419   -1.343546   -0.436022
      8          6           0       -0.141572    1.295879    0.216574
      9          6           0        0.888965    0.969348   -0.876757
     10          1           0        0.305892    0.974215   -1.813968
     11          6           0        2.023268    1.992824   -0.965941
     12          1           0        2.646839    1.958931   -0.070440
     13          1           0        1.610980    2.999085   -1.047228
     14          1           0        2.653726    1.800481   -1.835926
 ---------------------------------------------------------------------

 SCF Done:  E(RHF) =  -1904.23775073     A.U. after    2 cycles

 The electronic state is 1-A.
 Alpha  occ. eigenvalues -- -103.68932-103.68372 -81.35628 -81.35077 -20.63349
 Alpha  occ. eigenvalues --  -20.61538 -11.39694 -11.39271 -11.30898 -11.26586
 Alpha  occ. eigenvalues --  -10.72227 -10.71651  -8.37922  -8.37650  -8.37648
 Alpha  occ. eigenvalues --   -8.37360  -8.37061  -8.37053  -7.85479  -7.85005
 Alpha  occ. eigenvalues --   -4.99300  -4.99190  -4.98968  -4.98833  -4.98723
 Alpha  occ. eigenvalues --   -4.98487  -1.41995  -1.40716  -1.17217  -1.16295
 Alpha  occ. eigenvalues --   -1.09506  -0.97090  -0.88471  -0.85065  -0.76002
 Alpha  occ. eigenvalues --   -0.75233  -0.70559  -0.68112  -0.66746  -0.62907
 Alpha  occ. eigenvalues --   -0.61604  -0.61284  -0.58596  -0.57605  -0.55829
 Alpha  occ. eigenvalues --   -0.52940  -0.52035  -0.51164  -0.51029  -0.50365
 Alpha  occ. eigenvalues --   -0.47891  -0.43673  -0.39555  -0.36638
 Alpha virt. eigenvalues --    0.02015   0.02990   0.04252   0.05182   0.05823
 Alpha virt. eigenvalues --    0.06246   0.06628   0.07080   0.07535   0.08721
 Alpha virt. eigenvalues --    0.08936   0.09686   0.10567   0.11073   0.12292

 Mulliken charges:
               1
     1  Cl  -0.420240
     2  Cl  -0.396931
     3  O   -0.471089
     4  O   -0.480783
     5  P    0.677331
     6  P    0.620049
     7  C    0.231141
     8  C    0.345680
     9  C   -0.618736
    10  H    0.033365
    11  C    0.565237
    12  H   -0.019657
    13  H   -0.012825
    14  H   -0.052542
 Sum of Mulliken charges =  -0.00000

 Dipole moment (field-independent basis, Debye):
    X=              2.4971    Y=              0.6671    Z=             -1.6065  Tot=              3.0432

 Test job not archived.
 1\1\GINC-SE336\SP\RHF\Aug-CC-pVDZ\C4H4Cl2O2P2\OHZDE\08-Apr-2025\0\\#t
 hf aug-cc-pvdz iop(5/13=1,5/36=2,99/5=2) pseudo=read geom=check guess=
 (read,tcheck) scf=(maxcycle=1)\\title\\0,1\Cl,0,2.102927,-0.896305,1.2
 13878\Cl,0,-3.001039,0.235047,-0.109937\O,0,-0.93588,-2.249015,-1.0026
 04\O,0,-0.270431,2.386466,0.694616\P,0,1.42478,-0.821014,-0.794648\P,0
 ,-1.191212,-0.184184,0.850472\C,0,-0.404419,-1.343546,-0.436022\C,0,-0
 .141572,1.295879,0.216574\C,0,0.888965,0.969348,-0.876757\H,0,0.305892
 ,0.974215,-1.813968\C,0,2.023268,1.992824,-0.965941\H,0,2.646839,1.958

 Normal termination of Gaussian 16 at Tue Apr  8 23:24:26 2025.
