 Gaussian 16, Revision C.01,

 ----------------------------------------------------------------------
 #t hf aug-cc-pvdz symm=none int=(grid=ultrafine) guess=(read,tcheck) s
 table=(opt,rrhf)
 ----------------------------------------------------------------------
 -----
 title
 -----
 Symbolic Z-matrix:
 Charge =  0 Multiplicity = 1

 SCF Done:  E(RHF) =  -481.669035570     A.U. after   14 cycles

 1\1\GINC-SE058\Stability\RHF\Aug-CC-pVDZ\C5H6Si1\OHZDE\08-Apr-2025\0\\
 #t hf aug-cc-pvdz symm=none int=(grid=ultrafine) guess=(read,tcheck) s
 table=(opt,rrhf)\\title\\0,1\C,0,0.786382,-0.807506,0.000093\Si,0,-0.4
 19967,0.659769,-0.000082\C,0,-2.135639,0.01905,0.000027\H,0,-0.210342,
 1.480184,-1.210146\H,0,-0.210339,1.480465,1.209792\C,0,2.167692,-0.354
 856,0.000032\C,0,3.292992,0.068939,0.000013\C,0,-3.261444,-0.420021,0.
 000123\H,0,-4.254267,-0.803071,-0.0004\H,0,4.293041,0.4266,-0.000187\H
 ,0,0.580772,-1.427409,-0.879365\H,0,0.580779,-1.427167,0.879726\\Versi

 Normal termination of Gaussian 16 at Tue Apr  8 23:48:01 2025.
 Gaussian 16:  ES64L-G16RevC.01  3-Jul-2019

 ----------------------------------------------------------------------
 #t hf aug-cc-pvdz iop(5/13=1,5/36=2,99/5=2) pseudo=read geom=check gue
 ss=(read,tcheck) scf=(maxcycle=1)
 ----------------------------------------------------------------------
 -----
 title
 -----
 Structure from the checkpoint file:  "BDE49_nonexpt_1833_mol1.chk"
 Charge =  0 Multiplicity = 1

                         Standard orientation:
 ---------------------------------------------------------------------
 Center     Atomic      Atomic             Coordinates (Angstroms)
 Number     Number       Type             X           Y           Z
 ---------------------------------------------------------------------
      1          6           0       -0.786382   -0.807506   -0.000093
      2         14           0        0.419967    0.659769    0.000082
      3          6           0        2.135639    0.019050   -0.000027
      4          1           0        0.210342    1.480184    1.210146
      5          1           0        0.210339    1.480465   -1.209792
      6          6           0       -2.167692   -0.354856   -0.000032
      7          6           0       -3.292992    0.068939   -0.000013
      8          6           0        3.261444   -0.420021   -0.000123
      9          1           0        4.254267   -0.803071    0.000400
     10          1           0       -4.293041    0.426600    0.000187
     11          1           0       -0.580772   -1.427409    0.879365
     12          1           0       -0.580779   -1.427167   -0.879726
 ---------------------------------------------------------------------

 SCF Done:  E(RHF) =  -481.755531763     A.U. after    2 cycles

 The electronic state is 1-A.
 Alpha  occ. eigenvalues --  -69.08916 -11.26164 -11.25875 -11.25422 -11.23752
 Alpha  occ. eigenvalues --  -11.23640  -6.84030  -3.94891  -3.94796  -3.94779
 Alpha  occ. eigenvalues --   -1.05696  -1.02671  -0.95794  -0.77131  -0.72480
 Alpha  occ. eigenvalues --   -0.70547  -0.63623  -0.60860  -0.56063  -0.50834
 Alpha  occ. eigenvalues --   -0.49528  -0.41704  -0.41011  -0.39329  -0.37594
 Alpha virt. eigenvalues --    0.03064   0.03812   0.04789   0.05155   0.05218
 Alpha virt. eigenvalues --    0.07463   0.07822   0.08086   0.09217   0.10117
 Alpha virt. eigenvalues --    0.10594   0.10956   0.12117   0.12398   0.13238

 Mulliken charges:
               1
     1  C   -0.298958
     2  Si   0.416033
     3  C   -0.994040
     4  H    0.022440
     5  H    0.022444
     6  C   -0.647367
     7  C    1.141518
     8  C    1.325903
     9  H   -0.420444
    10  H   -0.545969
    11  H   -0.010795
    12  H   -0.010766
 Sum of Mulliken charges =   0.00000

 Dipole moment (field-independent basis, Debye):
    X=              0.9125    Y=             -0.6552    Z=              0.0008  Tot=              1.1233

 Test job not archived.
 1\1\GINC-SE058\SP\RHF\Aug-CC-pVDZ\C5H6Si1\OHZDE\08-Apr-2025\0\\#t hf a
 ug-cc-pvdz iop(5/13=1,5/36=2,99/5=2) pseudo=read geom=check guess=(rea
 d,tcheck) scf=(maxcycle=1)\\title\\0,1\C,0,0.786382,-0.807506,0.000093
 \Si,0,-0.419967,0.659769,-0.000082\C,0,-2.135639,0.01905,0.000027\H,0,
 -0.210342,1.480184,-1.210146\H,0,-0.210339,1.480465,1.209792\C,0,2.167
 692,-0.354856,0.000032\C,0,3.292992,0.068939,0.000013\C,0,-3.261444,-0
 .420021,0.000123\H,0,-4.254267,-0.803071,-0.0004\H,0,4.293041,0.4266,-
 0.000187\H,0,0.580772,-1.427409,-0.879365\H,0,0.580779,-1.427167,0.879

 Normal termination of Gaussian 16 at Tue Apr  8 23:48:06 2025.
