 Gaussian 16, Revision C.01,

 ----------------------------------------------------------------------
 #t hf aug-cc-pvdz symm=none int=(grid=ultrafine) guess=(read,tcheck) s
 table=opt
 ----------------------------------------------------------------------
 -----
 title
 -----
 Symbolic Z-matrix:
 Charge =  0 Multiplicity = 2

 SCF Done:  E(UHF) =  -257.858588026     A.U. after   16 cycles
 Normal termination of Gaussian 16 at Wed Apr  9 00:28:50 2025.
 Gaussian 16:  ES64L-G16RevC.01  3-Jul-2019

 ----------------------------------------------------------------------
 #t hf aug-cc-pvdz iop(5/13=1,5/36=2,99/5=2) pseudo=read geom=check gue
 ss=(read,tcheck) scf=(maxcycle=1)
 ----------------------------------------------------------------------
 -----
 title
 -----
 Structure from the checkpoint file:  "BDE49_nonexpt_353_mol2.chk"
 Charge =  0 Multiplicity = 2

                         Standard orientation:
 ---------------------------------------------------------------------
 Center     Atomic      Atomic             Coordinates (Angstroms)
 Number     Number       Type             X           Y           Z
 ---------------------------------------------------------------------
      1          9           0       -2.023946   -0.198115   -0.000000
      2          7           0        0.367595   -0.083633   -0.000000
      3          5           0       -0.825603   -0.792240   -0.000000
      4          6           0        1.665308   -0.744301   -0.000000
      5          1           0        2.246215   -0.466193   -0.887451
      6          1           0        1.524117   -1.824992   -0.000001
      7          1           0        2.246214   -0.466194    0.887452
      8          6           0        0.414127    1.379287   -0.000000
      9          1           0       -0.600341    1.775296    0.000001
     10          1           0        0.938771    1.750915   -0.887632
     11          1           0        0.938772    1.750915    0.887632
 ---------------------------------------------------------------------

 SCF Done:  E(UHF) =  -257.953014377     A.U. after    2 cycles

 The electronic state is 2-A.
 Alpha  occ. eigenvalues --  -26.11428 -15.63227 -11.27415 -11.27317  -7.68198
 Alpha  occ. eigenvalues --   -1.65545  -1.19281  -0.96936  -0.89223  -0.81234
 Alpha  occ. eigenvalues --   -0.74649  -0.72458  -0.68136  -0.63498  -0.61858
 Alpha  occ. eigenvalues --   -0.56029  -0.54855  -0.53427  -0.38611  -0.35725
 Alpha virt. eigenvalues --    0.03247   0.04344   0.04534   0.05618   0.07474
 Alpha virt. eigenvalues --    0.07595   0.07645   0.07820   0.09485   0.09852
 Alpha virt. eigenvalues --    0.14012   0.14504   0.14604   0.15204   0.16975

  Beta  occ. eigenvalues --  -26.11066 -15.63262 -11.27370 -11.27215  -7.66089
  Beta  occ. eigenvalues --   -1.64447  -1.19080  -0.96696  -0.88213  -0.80053
  Beta  occ. eigenvalues --   -0.72476  -0.72137  -0.66690  -0.63815  -0.61457
  Beta  occ. eigenvalues --   -0.56032  -0.54165  -0.53296  -0.39176
  Beta virt. eigenvalues --    0.03098   0.04347   0.04479   0.04963   0.07492
  Beta virt. eigenvalues --    0.07607   0.07786   0.07834   0.08299   0.09660
  Beta virt. eigenvalues --    0.13243   0.14233   0.14548   0.15332   0.16591

 Mulliken charges and spin densities:
               1          2
     1  F   -0.475616  -0.027533
     2  N   -0.236039  -0.093752
     3  B    0.158872   1.101619
     4  C    0.655295   0.055666
     5  H   -0.093577  -0.001040
     6  H   -0.278357  -0.007831
     7  H   -0.093577  -0.001040
     8  C    0.786040  -0.014485
     9  H   -0.253603  -0.002672
    10  H   -0.084720  -0.004466
    11  H   -0.084718  -0.004466
 Sum of Mulliken charges =  -0.00000   1.00000

 Dipole moment (field-independent basis, Debye):
    X=              2.6417    Y=              0.7906    Z=             -0.0000  Tot=              2.7575
                          Isotropic Fermi Contact Couplings
        Atom                 a.u.       MegaHertz       Gauss      10(-4) cm-1
     1  F(19)              0.09097     382.76243     136.57915     127.67580
     2  N(14)              0.06186      19.98802       7.13222       6.66729
     3  B(11)              0.41987     602.25184     214.89843     200.88959
     4  C(13)              0.01142      12.83917       4.58134       4.28269
     5  H(1)              -0.00072      -3.22517      -1.15082      -1.07580
     6  H(1)              -0.00057      -2.54463      -0.90799      -0.84880
     7  H(1)              -0.00072      -3.22517      -1.15082      -1.07580
     8  C(13)              0.01895      21.30410       7.60183       7.10628

 Normal termination of Gaussian 16 at Wed Apr  9 00:28:53 2025.
