 Gaussian 16, Revision C.01,

 ----------------------------------------------------------------------
 #t hf aug-cc-pvdz symm=none int=(grid=ultrafine) guess=(read,tcheck) s
 table=(opt,rrhf)
 ----------------------------------------------------------------------
 -----
 title
 -----
 Symbolic Z-matrix:
 Charge =  0 Multiplicity = 1

 SCF Done:  E(RHF) =  -572.904730080     A.U. after   16 cycles
 Normal termination of Gaussian 16 at Wed Apr  9 00:05:46 2025.
 Gaussian 16:  ES64L-G16RevC.01  3-Jul-2019

 ----------------------------------------------------------------------
 #t hf aug-cc-pvdz iop(5/13=1,5/36=2,99/5=2) pseudo=read geom=check gue
 ss=(read,tcheck) scf=(maxcycle=1)
 ----------------------------------------------------------------------
 -----
 title
 -----
 Structure from the checkpoint file:  "BDE49_nonexpt_2259_mol1.chk"
 Charge =  0 Multiplicity = 1

                         Standard orientation:
 ---------------------------------------------------------------------
 Center     Atomic      Atomic             Coordinates (Angstroms)
 Number     Number       Type             X           Y           Z
 ---------------------------------------------------------------------
      1         14           0        0.790355    0.008134    0.356547
      2          8           0       -0.723414   -0.435964   -0.294435
      3          7           0       -1.883567    0.167238    0.312009
      4          8           0       -2.863467   -0.176405   -0.216026
      5          6           0        1.271901    1.702873   -0.262468
      6          1           0        1.339162    1.723215   -1.353917
      7          1           0        2.246326    1.995154    0.142137
      8          1           0        0.542683    2.456581    0.047193
      9          6           0        1.961279   -1.329523   -0.204680
     10          1           0        2.025275   -1.366771   -1.295412
     11          1           0        1.633933   -2.309919    0.149968
     12          1           0        2.965610   -1.143945    0.188708
     13          1           0        0.662990    0.019995    1.832174
 ---------------------------------------------------------------------

 SCF Done:  E(RHF) =  -573.027215721     A.U. after    2 cycles

 The electronic state is 1-A.
 Alpha  occ. eigenvalues --  -69.09661 -20.67445 -20.61123 -15.85657 -11.22539
 Alpha  occ. eigenvalues --  -11.22519  -6.84493  -3.95413  -3.95261  -3.95226
 Alpha  occ. eigenvalues --   -1.54960  -1.32040  -0.96770  -0.93736  -0.92052
 Alpha  occ. eigenvalues --   -0.77697  -0.73185  -0.68607  -0.65014  -0.58525
 Alpha  occ. eigenvalues --   -0.58238  -0.56447  -0.56034  -0.54227  -0.53445
 Alpha  occ. eigenvalues --   -0.47363  -0.45409  -0.44417
 Alpha virt. eigenvalues --    0.03032   0.04532   0.04978   0.05532   0.06768
 Alpha virt. eigenvalues --    0.07152   0.07460   0.08557   0.08738   0.09267
 Alpha virt. eigenvalues --    0.09885   0.13288   0.13938   0.15199   0.15712

 Mulliken charges:
               1
     1  Si   1.705749
     2  O   -0.941348
     3  N    0.431455
     4  O   -0.302579
     5  C    0.287790
     6  H   -0.175698
     7  H   -0.240809
     8  H   -0.288921
     9  C    0.303585
    10  H   -0.160971
    11  H   -0.285961
    12  H   -0.239198
    13  H   -0.093097
 Sum of Mulliken charges =   0.00000

 Dipole moment (field-independent basis, Debye):
    X=              2.6754    Y=              0.7664    Z=              0.4993  Tot=              2.8275

 Test job not archived.
 1\1\GINC-SE333\SP\RHF\Aug-CC-pVDZ\C2H7N1O2Si1\OHZDE\09-Apr-2025\0\\#t
 hf aug-cc-pvdz iop(5/13=1,5/36=2,99/5=2) pseudo=read geom=check guess=
 (read,tcheck) scf=(maxcycle=1)\\title\\0,1\Si,0,0.790355,0.008134,0.35
 6547\O,0,-0.723414,-0.435964,-0.294435\N,0,-1.883567,0.167238,0.312009
 \O,0,-2.863467,-0.176405,-0.216026\C,0,1.271901,1.702873,-0.262468\H,0
 ,1.339162,1.723215,-1.353917\H,0,2.246326,1.995154,0.142137\H,0,0.5426
 83,2.456581,0.047193\C,0,1.961279,-1.329523,-0.20468\H,0,2.025275,-1.3
 66771,-1.295412\H,0,1.633933,-2.309919,0.149968\H,0,2.96561,-1.143945,

 Normal termination of Gaussian 16 at Wed Apr  9 00:05:50 2025.
