 Gaussian 16, Revision C.01,

 ----------------------------------------------------------------------
 #t hf aug-cc-pvdz symm=none int=(grid=ultrafine) guess=(read,tcheck) s
 table=opt
 ----------------------------------------------------------------------
 -----
 title
 -----
 Symbolic Z-matrix:
 Charge =  0 Multiplicity = 2

 SCF Done:  E(UHF) =  -680.482545516     A.U. after   16 cycles
 Normal termination of Gaussian 16 at Tue Apr  8 23:52:31 2025.
 Gaussian 16:  ES64L-G16RevC.01  3-Jul-2019

 ----------------------------------------------------------------------
 #t hf aug-cc-pvdz iop(5/13=1,5/36=2,99/5=2) pseudo=read geom=check gue
 ss=(read,tcheck) scf=(maxcycle=1)
 ----------------------------------------------------------------------
 -----
 title
 -----
 Structure from the checkpoint file:  "BDE49_nonexpt_1955_mol3.chk"
 Charge =  0 Multiplicity = 2

                         Standard orientation:
 ---------------------------------------------------------------------
 Center     Atomic      Atomic             Coordinates (Angstroms)
 Number     Number       Type             X           Y           Z
 ---------------------------------------------------------------------
      1          6           0       -2.246198   -0.004726   -0.044850
      2         15           0        0.350419   -0.035370    0.109977
      3          8           0        0.679842   -1.131475   -0.994472
      4          8           0        1.354300    1.137673   -0.276723
      5          1           0        1.276667   -1.810905   -0.658727
      6          1           0        1.442579    1.785756    0.432241
      7          8           0        0.366802   -0.481332    1.502331
      8          8           0       -1.041574    0.554438   -0.426098
      9          1           0       -2.275309   -0.532287    0.898693
     10          1           0       -3.098009    0.481904   -0.493076
 ---------------------------------------------------------------------

 SCF Done:  E(UHF) =  -680.670388726     A.U. after    2 cycles

 The electronic state is 2-A.
 Alpha  occ. eigenvalues --  -81.45860 -20.62843 -20.62767 -20.62728 -20.54025
 Alpha  occ. eigenvalues --  -11.31606  -7.93776  -5.08479  -5.08370  -5.08343
 Alpha  occ. eigenvalues --   -1.41530  -1.37410  -1.36300  -1.27581  -0.97487
 Alpha  occ. eigenvalues --   -0.85341  -0.77847  -0.75417  -0.69877  -0.68702
 Alpha  occ. eigenvalues --   -0.66080  -0.64946  -0.60859  -0.59525  -0.57682
 Alpha  occ. eigenvalues --   -0.55295  -0.50425  -0.50300  -0.37867
 Alpha virt. eigenvalues --    0.03125   0.04521   0.04694   0.06350   0.09379
 Alpha virt. eigenvalues --    0.09885   0.10697   0.11576   0.13599   0.14635
 Alpha virt. eigenvalues --    0.17063   0.18165   0.18667   0.19375   0.20095

  Beta  occ. eigenvalues --  -81.45861 -20.62775 -20.62728 -20.62446 -20.54036
  Beta  occ. eigenvalues --  -11.29024  -7.93776  -5.08477  -5.08370  -5.08345
  Beta  occ. eigenvalues --   -1.40945  -1.36426  -1.36302  -1.27578  -0.92625
  Beta  occ. eigenvalues --   -0.83514  -0.77543  -0.74094  -0.69386  -0.67933
  Beta  occ. eigenvalues --   -0.65528  -0.61057  -0.60029  -0.59325  -0.56634
  Beta  occ. eigenvalues --   -0.54623  -0.50441  -0.50175
  Beta virt. eigenvalues --    0.03157   0.04610   0.04687   0.06403   0.07642
  Beta virt. eigenvalues --    0.09454   0.10221   0.11321   0.12955   0.14482
  Beta virt. eigenvalues --    0.17424   0.17490   0.18270   0.19386   0.19666

 Mulliken charges and spin densities:
               1          2
     1  C    0.624403   1.205338
     2  P    2.363001  -0.006689
     3  O   -0.642558   0.001692
     4  O   -0.642433  -0.001433
     5  H    0.161452   0.000299
     6  H    0.165265   0.000501
     7  O   -0.860701   0.001208
     8  O   -0.783794   0.000550
     9  H   -0.133777  -0.104521
    10  H   -0.250858  -0.096943
 Sum of Mulliken charges =  -0.00000   1.00000

 Dipole moment (field-independent basis, Debye):
    X=             -0.0346    Y=              0.4648    Z=             -0.3931  Tot=              0.6097
                          Isotropic Fermi Contact Couplings
        Atom                 a.u.       MegaHertz       Gauss      10(-4) cm-1
     1  C(13)              0.25426     285.83267     101.99220      95.34352
     2  P(31)             -0.00288      -5.22362      -1.86392      -1.74241
     3  O(17)             -0.00037       0.22480       0.08022       0.07499
     4  O(17)             -0.00155       0.94010       0.33545       0.31358
     5  H(1)               0.00021       0.91843       0.32772       0.30635
     6  H(1)               0.00005       0.23972       0.08554       0.07996
     7  O(17)             -0.00148       0.89902       0.32079       0.29988
     8  O(17)              0.03058     -18.53695      -6.61445      -6.18326

 Normal termination of Gaussian 16 at Tue Apr  8 23:52:35 2025.
