 Gaussian 16, Revision C.01,

 ----------------------------------------------------------------------
 #t hf aug-cc-pvdz symm=none int=(grid=ultrafine) guess=(read,tcheck) s
 table=(opt,rrhf)
 ----------------------------------------------------------------------
 -----
 title
 -----
 Symbolic Z-matrix:
 Charge =  0 Multiplicity = 1

 SCF Done:  E(RHF) =  -1331.43354881     A.U. after   16 cycles
 Normal termination of Gaussian 16 at Wed Apr  9 00:51:09 2025.
 Gaussian 16:  ES64L-G16RevC.01  3-Jul-2019

 ----------------------------------------------------------------------
 #t hf aug-cc-pvdz iop(5/13=1,5/36=2,99/5=2) pseudo=read geom=check gue
 ss=(read,tcheck) scf=(maxcycle=1)
 ----------------------------------------------------------------------
 -----
 title
 -----
 Structure from the checkpoint file:  "BDE49_nonexpt_944_mol1.chk"
 Charge =  0 Multiplicity = 1

                         Standard orientation:
 ---------------------------------------------------------------------
 Center     Atomic      Atomic             Coordinates (Angstroms)
 Number     Number       Type             X           Y           Z
 ---------------------------------------------------------------------
      1         17           0        2.623833   -0.888183   -0.205399
      2         17           0       -2.726794   -0.679354    0.072957
      3          8           0       -0.080347   -2.235819    0.217900
      4          8           0       -1.467410    2.128422   -0.340229
      5          7           0        1.086600   -0.206719    0.175902
      6          7           0       -1.115539   -0.152356   -0.060875
      7          6           0       -0.021750   -1.049095    0.118463
      8          6           0       -0.749773    1.175362   -0.234053
      9          6           0        0.788447    1.160762   -0.267420
     10          1           0        1.083794    1.287148   -1.316863
     11          6           0        1.410611    2.244479    0.600955
     12          1           0        1.132719    2.105173    1.647146
     13          1           0        1.054780    3.220560    0.268055
     14          1           0        2.498453    2.218874    0.518936
 ---------------------------------------------------------------------

 SCF Done:  E(RHF) =  -1331.59887800     A.U. after    2 cycles

 The electronic state is 1-A.
 Alpha  occ. eigenvalues -- -103.73431-103.72993 -20.59723 -20.59171 -15.75356
 Alpha  occ. eigenvalues --  -15.73980 -11.45189 -11.42231 -11.34461 -11.26722
 Alpha  occ. eigenvalues --  -10.76291 -10.75878  -8.42079  -8.41648  -8.41636
 Alpha  occ. eigenvalues --   -8.41606  -8.41245  -8.41209  -1.43497  -1.40663
 Alpha  occ. eigenvalues --   -1.32649  -1.29061  -1.18216  -1.09517  -1.05154
 Alpha  occ. eigenvalues --   -0.94000  -0.86384  -0.82080  -0.74650  -0.72546
 Alpha  occ. eigenvalues --   -0.69778  -0.69151  -0.66565  -0.64618  -0.62336
 Alpha  occ. eigenvalues --   -0.60450  -0.58138  -0.57273  -0.54367  -0.53711
 Alpha  occ. eigenvalues --   -0.52716  -0.51849  -0.50151  -0.47459  -0.44612
 Alpha  occ. eigenvalues --   -0.41997
 Alpha virt. eigenvalues --    0.02919   0.03974   0.05173   0.05471   0.06126
 Alpha virt. eigenvalues --    0.07454   0.08934   0.09083   0.09922   0.11164
 Alpha virt. eigenvalues --    0.11646   0.12226   0.12772   0.13388   0.13632

 Mulliken charges:
               1
     1  Cl   0.259758
     2  Cl   0.399378
     3  O   -0.351564
     4  O   -0.421698
     5  N   -0.747906
     6  N   -0.796329
     7  C    0.707922
     8  C    0.389114
     9  C   -0.037751
    10  H   -0.057586
    11  C    0.632384
    12  H    0.039826
    13  H    0.015043
    14  H   -0.030591
 Sum of Mulliken charges =  -0.00000

 Dipole moment (field-independent basis, Debye):
    X=              2.3934    Y=              2.0661    Z=             -0.3221  Tot=              3.1782

 Test job not archived.
 1\1\GINC-SE336\SP\RHF\Aug-CC-pVDZ\C4H4Cl2N2O2\OHZDE\09-Apr-2025\0\\#t
 hf aug-cc-pvdz iop(5/13=1,5/36=2,99/5=2) pseudo=read geom=check guess=
 (read,tcheck) scf=(maxcycle=1)\\title\\0,1\Cl,0,2.623833,-0.888183,-0.
 205399\Cl,0,-2.726794,-0.679354,0.072957\O,0,-0.080347,-2.235819,0.217
 9\O,0,-1.46741,2.128422,-0.340229\N,0,1.0866,-0.206719,0.175902\N,0,-1
 .115539,-0.152356,-0.060875\C,0,-0.02175,-1.049095,0.118463\C,0,-0.749
 773,1.175362,-0.234053\C,0,0.788447,1.160762,-0.26742\H,0,1.083794,1.2
 87148,-1.316863\C,0,1.410611,2.244479,0.600955\H,0,1.132719,2.105173,1

 Normal termination of Gaussian 16 at Wed Apr  9 00:51:17 2025.
