 Gaussian 16, Revision C.01,

 ----------------------------------------------------------------------
 #t hf aug-cc-pvdz symm=none int=(grid=ultrafine) guess=(read,tcheck) s
 table=(opt,rrhf)
 ----------------------------------------------------------------------
 -----
 title
 -----
 Symbolic Z-matrix:
 Charge =  0 Multiplicity = 1

 SCF Done:  E(RHF) =  -594.123847800     A.U. after   12 cycles
 Normal termination of Gaussian 16 at Wed Apr  9 00:06:46 2025.
 Gaussian 16:  ES64L-G16RevC.01  3-Jul-2019

 ----------------------------------------------------------------------
 #t hf aug-cc-pvdz iop(5/13=1,5/36=2,99/5=2) pseudo=read geom=check gue
 ss=(read,tcheck) scf=(maxcycle=1)
 ----------------------------------------------------------------------
 -----
 title
 -----
 Structure from the checkpoint file:  "BDE49_nonexpt_2278_mol1.chk"
 Charge =  0 Multiplicity = 1

                         Standard orientation:
 ---------------------------------------------------------------------
 Center     Atomic      Atomic             Coordinates (Angstroms)
 Number     Number       Type             X           Y           Z
 ---------------------------------------------------------------------
      1         14           0        0.435164    0.034528   -0.006402
      2          8           0        1.538801    1.251374   -0.020337
      3          8           0        0.637475   -0.978863    1.285334
      4          1           0        2.441728    1.028929   -0.260530
      5          6           0       -1.229973    0.861205   -0.025335
      6          6           0       -2.418726   -0.116521   -0.018362
      7          1           0       -1.269741    1.502546   -0.912969
      8          1           0       -1.288692    1.542944    0.831866
      9          1           0       -2.389065   -0.774690   -0.890697
     10          1           0       -3.375079    0.413399   -0.035129
     11          1           0       -2.406880   -0.752641    0.871013
     12          8           0        0.658015   -0.951252   -1.302751
     13          1           0        0.769001   -1.886080   -1.115003
     14          1           0        0.644302   -0.595981    2.165277
 ---------------------------------------------------------------------

 SCF Done:  E(RHF) =  -594.273107302     A.U. after    2 cycles

 The electronic state is 1-A.
 Alpha  occ. eigenvalues --  -69.12347 -20.57107 -20.56726 -20.56555 -11.22813
 Alpha  occ. eigenvalues --  -11.21642  -6.86544  -3.97583  -3.97566  -3.97355
 Alpha  occ. eigenvalues --   -1.32266  -1.29258  -1.28872  -1.01136  -0.84743
 Alpha  occ. eigenvalues --   -0.76767  -0.72771  -0.71607  -0.61257  -0.61058
 Alpha  occ. eigenvalues --   -0.59632  -0.57515  -0.56220  -0.54781  -0.53004
 Alpha  occ. eigenvalues --   -0.51808  -0.51055  -0.49207  -0.43755
 Alpha virt. eigenvalues --    0.02902   0.04643   0.04929   0.05150   0.06547
 Alpha virt. eigenvalues --    0.06913   0.07257   0.07487   0.09029   0.09628
 Alpha virt. eigenvalues --    0.10206   0.12736   0.14193   0.15750   0.16591

 Mulliken charges:
               1
     1  Si   2.353852
     2  O   -0.779898
     3  O   -0.808119
     4  H    0.108343
     5  C    0.120148
     6  C    0.288861
     7  H   -0.190761
     8  H   -0.190453
     9  H   -0.105013
    10  H   -0.080141
    11  H   -0.114968
    12  O   -0.866532
    13  H    0.163481
    14  H    0.101200
 Sum of Mulliken charges =  -0.00000

 Dipole moment (field-independent basis, Debye):
    X=              0.2842    Y=             -0.5046    Z=              1.3492  Tot=              1.4683

 Test job not archived.
 1\1\GINC-SE252\SP\RHF\Aug-CC-pVDZ\C2H8O3Si1\OHZDE\09-Apr-2025\0\\#t hf
  aug-cc-pvdz iop(5/13=1,5/36=2,99/5=2) pseudo=read geom=check guess=(r
 ead,tcheck) scf=(maxcycle=1)\\title\\0,1\Si,0,0.435164,0.034528,-0.006
 402\O,0,1.538801,1.251374,-0.020337\O,0,0.637475,-0.978863,1.285334\H,
 0,2.441728,1.028929,-0.26053\C,0,-1.229973,0.861205,-0.025335\C,0,-2.4
 18726,-0.11652,-0.018362\H,0,-1.269741,1.502546,-0.912969\H,0,-1.28869
 2,1.542944,0.831866\H,0,-2.389065,-0.774689,-0.890697\H,0,-3.375079,0.
 4134,-0.035129\H,0,-2.40688,-0.75264,0.871013\O,0,0.658015,-0.951252,-

 Normal termination of Gaussian 16 at Wed Apr  9 00:06:50 2025.
