 Gaussian 16, Revision C.01,

 ----------------------------------------------------------------------
 #t hf aug-cc-pvdz symm=none int=(grid=ultrafine) guess=(read,tcheck) s
 table=(opt,rrhf)
 ----------------------------------------------------------------------
 -----
 title
 -----
 Symbolic Z-matrix:
 Charge =  0 Multiplicity = 1

 SCF Done:  E(RHF) =  -644.869602916     A.U. after   15 cycles
 Normal termination of Gaussian 16 at Tue Apr  8 23:34:15 2025.
 Gaussian 16:  ES64L-G16RevC.01  3-Jul-2019

 ----------------------------------------------------------------------
 #t hf aug-cc-pvdz iop(5/13=1,5/36=2,99/5=2) pseudo=read geom=check gue
 ss=(read,tcheck) scf=(maxcycle=1)
 ----------------------------------------------------------------------
 -----
 title
 -----
 Structure from the checkpoint file:  "BDE49_nonexpt_1488_mol1.chk"
 Charge =  0 Multiplicity = 1

                         Standard orientation:
 ---------------------------------------------------------------------
 Center     Atomic      Atomic             Coordinates (Angstroms)
 Number     Number       Type             X           Y           Z
 ---------------------------------------------------------------------
      1          6           0       -1.329759   -0.002501   -0.031204
      2         15           0        0.011983   -1.288479    0.311220
      3          6           0        1.324070    0.027716   -0.059677
      4          6           0        0.708443    1.435357   -0.073122
      5          6           0       -0.772823    1.379982    0.325721
      6          8           0        2.487490   -0.196011   -0.252866
      7          1           0       -1.387689    2.145506   -0.149682
      8          1           0       -0.884857    1.494104    1.410956
      9          1           0        0.824275    1.798194   -1.100327
     10          1           0        1.308117    2.091316    0.562320
     11          8           0       -2.443130   -0.221064   -0.422582
     12          1           0        0.025935   -1.908662   -0.958283
 ---------------------------------------------------------------------

 SCF Done:  E(RHF) =  -644.981235488     A.U. after    2 cycles

 The electronic state is 1-A.
 Alpha  occ. eigenvalues --  -81.28824 -20.59477 -20.59300 -11.37316 -11.37226
 Alpha  occ. eigenvalues --  -11.27947 -11.27825  -7.79390  -4.93361  -4.93285
 Alpha  occ. eigenvalues --   -4.93038  -1.38603  -1.38359  -1.10832  -0.94693
 Alpha  occ. eigenvalues --   -0.90159  -0.76451  -0.74286  -0.68972  -0.68340
 Alpha  occ. eigenvalues --   -0.64544  -0.62760  -0.61819  -0.59619  -0.57012
 Alpha  occ. eigenvalues --   -0.54005  -0.51831  -0.46610  -0.39933  -0.37995
 Alpha virt. eigenvalues --    0.02888   0.04221   0.04946   0.05269   0.06324
 Alpha virt. eigenvalues --    0.06842   0.07432   0.08609   0.09595   0.10682
 Alpha virt. eigenvalues --    0.11326   0.12585   0.13501   0.14072   0.14314

 Mulliken charges:
               1
     1  C    0.067914
     2  P    0.295574
     3  C    0.085283
     4  C    0.023247
     5  C    0.226888
     6  O   -0.494712
     7  H   -0.069938
     8  H    0.084066
     9  H    0.044269
    10  H   -0.012765
    11  O   -0.466302
    12  H    0.216477
 Sum of Mulliken charges =   0.00000

 Dipole moment (field-independent basis, Debye):
    X=             -0.1243    Y=              2.0158    Z=              0.8973  Tot=              2.2100

 Test job not archived.
 1\1\GINC-SE044\SP\RHF\Aug-CC-pVDZ\C4H5O2P1\OHZDE\08-Apr-2025\0\\#t hf
 aug-cc-pvdz iop(5/13=1,5/36=2,99/5=2) pseudo=read geom=check guess=(re
 ad,tcheck) scf=(maxcycle=1)\\title\\0,1\C,0,-1.329759,-0.002501,-0.031
 204\P,0,0.011983,-1.288479,0.31122\C,0,1.32407,0.027716,-0.059677\C,0,
 0.708443,1.435357,-0.073122\C,0,-0.772823,1.379982,0.325721\O,0,2.4874
 9,-0.196011,-0.252866\H,0,-1.387689,2.145506,-0.149682\H,0,-0.884857,1
 .494104,1.410956\H,0,0.824275,1.798194,-1.100327\H,0,1.308117,2.091316
 ,0.56232\O,0,-2.44313,-0.221064,-0.422582\H,0,0.025935,-1.908662,-0.95

 Normal termination of Gaussian 16 at Tue Apr  8 23:34:20 2025.
