 Gaussian 16, Revision C.01,

 ----------------------------------------------------------------------
 #t hf aug-cc-pvdz symm=none int=(grid=ultrafine) guess=(read,tcheck) s
 table=opt
 ----------------------------------------------------------------------
 -----
 title
 -----
 Symbolic Z-matrix:
 Charge =  0 Multiplicity = 2

 SCF Done:  E(UHF) =  -496.829360471     A.U. after   17 cycles
 Normal termination of Gaussian 16 at Tue Apr  8 23:35:27 2025.
 Gaussian 16:  ES64L-G16RevC.01  3-Jul-2019

 ----------------------------------------------------------------------
 #t hf aug-cc-pvdz iop(5/13=1,5/36=2,99/5=2) pseudo=read geom=check gue
 ss=(read,tcheck) scf=(maxcycle=1)
 ----------------------------------------------------------------------
 -----
 title
 -----
 Structure from the checkpoint file:  "BDE49_nonexpt_1529_mol2.chk"
 Charge =  0 Multiplicity = 2

                         Standard orientation:
 ---------------------------------------------------------------------
 Center     Atomic      Atomic             Coordinates (Angstroms)
 Number     Number       Type             X           Y           Z
 ---------------------------------------------------------------------
      1          6           0        0.479536   -0.121183    0.000000
      2          6           0       -0.051014    0.873373    1.086455
      3          6           0       -0.051014    0.873373   -1.086455
      4          6           0       -0.092131    1.979700    0.000000
      5          1           0       -1.053253    0.599502   -1.424611
      6          1           0        0.583298    1.031860   -1.960213
      7          1           0       -0.952103    2.651909    0.000000
      8          1           0        0.820589    2.580031    0.000000
      9          1           0        0.583298    1.031860    1.960213
     10          1           0       -1.053253    0.599502    1.424611
     11         15           0       -0.051014   -1.893628    0.000000
     12          1           0        1.573772   -0.112550    0.000000
     13          1           0       -1.449396   -1.609275    0.000000
 ---------------------------------------------------------------------

 SCF Done:  E(UHF) =  -496.894121739     A.U. after    2 cycles

 The electronic state is 2-A".
 Alpha  occ. eigenvalues --  -81.25477 -11.24585 -11.24033 -11.24031 -11.23603
 Alpha  occ. eigenvalues --   -7.75930  -4.90657  -4.89588  -4.89301  -1.12237
 Alpha  occ. eigenvalues --   -0.91220  -0.90300  -0.78136  -0.73943  -0.65891
 Alpha  occ. eigenvalues --   -0.61398  -0.55084  -0.51905  -0.51367  -0.47128
 Alpha  occ. eigenvalues --   -0.45396  -0.45345  -0.37176  -0.33326
 Alpha virt. eigenvalues --    0.03516   0.04547   0.04938   0.05022   0.06795
 Alpha virt. eigenvalues --    0.06961   0.07140   0.07990   0.10632   0.10671
 Alpha virt. eigenvalues --    0.12187   0.12651   0.13933   0.13959   0.15153

  Beta  occ. eigenvalues --  -81.24793 -11.24783 -11.23898 -11.23897 -11.23606
  Beta  occ. eigenvalues --   -7.75112  -4.89101  -4.88944  -4.87535  -1.11969
  Beta  occ. eigenvalues --   -0.90514  -0.89920  -0.76567  -0.70863  -0.65731
  Beta  occ. eigenvalues --   -0.60695  -0.54984  -0.51562  -0.50146  -0.46523
  Beta  occ. eigenvalues --   -0.44893  -0.44793  -0.35312
  Beta virt. eigenvalues --    0.03457   0.03552   0.04556   0.05105   0.05981
  Beta virt. eigenvalues --    0.06846   0.06975   0.07430   0.08058   0.10739
  Beta virt. eigenvalues --    0.11684   0.12255   0.13086   0.14010   0.14736

 Mulliken charges and spin densities:
               1          2
     1  C    0.145013  -0.157798
     2  C    0.250001   0.043434
     3  C    0.250001   0.043434
     4  C    0.542776  -0.000983
     5  H   -0.224322  -0.008578
     6  H   -0.173073  -0.000247
     7  H   -0.158168  -0.001228
     8  H   -0.202389   0.000016
     9  H   -0.173073  -0.000247
    10  H   -0.224322  -0.008578
    11  P    0.222918   1.271136
    12  H   -0.262829  -0.007652
    13  H    0.007468  -0.172710
 Sum of Mulliken charges =  -0.00000   1.00000

 Dipole moment (field-independent basis, Debye):
    X=             -0.0584    Y=              1.5562    Z=              0.0000  Tot=              1.5573
                          Isotropic Fermi Contact Couplings
        Atom                 a.u.       MegaHertz       Gauss      10(-4) cm-1
     1  C(13)             -0.03904     -43.88922     -15.66076     -14.63987
     2  C(13)              0.03020      33.95243      12.11507      11.32531
     3  C(13)              0.03020      33.95243      12.11507      11.32531
     4  C(13)             -0.00313      -3.52388      -1.25741      -1.17544
     5  H(1)              -0.00079      -3.54627      -1.26540      -1.18291
     6  H(1)              -0.00059      -2.65183      -0.94624      -0.88455
     7  H(1)              -0.00020      -0.88534      -0.31591      -0.29532
     8  H(1)               0.00001       0.03190       0.01138       0.01064

 Normal termination of Gaussian 16 at Tue Apr  8 23:35:30 2025.
