 Gaussian 16, Revision C.01,

 ----------------------------------------------------------------------
 #t hf aug-cc-pvdz symm=none int=(grid=ultrafine) guess=(read,tcheck) s
 table=(opt,rrhf)
 ----------------------------------------------------------------------
 -----
 title
 -----
 Symbolic Z-matrix:
 Charge =  0 Multiplicity = 1

 SCF Done:  E(RHF) =  -1265.74556162     A.U. after   15 cycles
 Normal termination of Gaussian 16 at Wed Apr  9 00:08:43 2025.
 Gaussian 16:  ES64L-G16RevC.01  3-Jul-2019

 ----------------------------------------------------------------------
 #t hf aug-cc-pvdz iop(5/13=1,5/36=2,99/5=2) pseudo=read geom=check gue
 ss=(read,tcheck) scf=(maxcycle=1)
 ----------------------------------------------------------------------
 -----
 title
 -----
 Structure from the checkpoint file:  "BDE49_nonexpt_2348_mol1.chk"
 Charge =  0 Multiplicity = 1

                         Standard orientation:
 ---------------------------------------------------------------------
 Center     Atomic      Atomic             Coordinates (Angstroms)
 Number     Number       Type             X           Y           Z
 ---------------------------------------------------------------------
      1         14           0       -0.072454    1.327519   -0.659093
      2         14           0        1.779276    0.629554    0.621559
      3          6           0       -1.443749   -0.017485   -0.568474
      4          8           0       -2.047110   -0.570095   -1.407002
      5          1           0        0.249881    1.526154   -2.087515
      6          1           0       -0.698763    2.542645   -0.095684
      7         17           0       -1.808690   -0.406656    1.262331
      8          6           0        2.118134   -1.186319    0.044475
      9          1           0        1.555656    0.699492    2.082847
     10          1           0        2.973453    1.446355    0.284558
     11          8           0        1.529465   -1.637585   -0.912163
     12          1           0        2.866837   -1.816245    0.578956
 ---------------------------------------------------------------------

 SCF Done:  E(RHF) =  -1265.87458535     A.U. after    2 cycles

 The electronic state is 1-A.
 Alpha  occ. eigenvalues -- -103.65501 -69.11029 -69.09963 -20.63336 -20.60647
 Alpha  occ. eigenvalues --  -11.41712 -11.35654 -10.68811  -8.34486  -8.34236
 Alpha  occ. eigenvalues --   -8.34229  -6.86339  -6.85387  -3.97146  -3.97051
 Alpha  occ. eigenvalues --   -3.97029  -3.96144  -3.96113  -3.96100  -1.43411
 Alpha  occ. eigenvalues --   -1.38284  -1.13713  -0.86629  -0.84482  -0.75921
 Alpha  occ. eigenvalues --   -0.72027  -0.68677  -0.67491  -0.63612  -0.61706
 Alpha  occ. eigenvalues --   -0.60939  -0.57120  -0.52411  -0.50686  -0.47316
 Alpha  occ. eigenvalues --   -0.46825  -0.44810  -0.43120  -0.41690
 Alpha virt. eigenvalues --    0.02787   0.03396   0.04425   0.05305   0.05745
 Alpha virt. eigenvalues --    0.06344   0.06710   0.06884   0.07279   0.07819
 Alpha virt. eigenvalues --    0.09007   0.09416   0.09932   0.10431   0.12180

 Mulliken charges:
               1
     1  Si   0.306212
     2  Si   0.322559
     3  C    0.187249
     4  O   -0.365724
     5  H    0.059744
     6  H    0.077041
     7  Cl  -0.285670
     8  C    0.256011
     9  H    0.082615
    10  H    0.002647
    11  O   -0.382101
    12  H   -0.260583
 Sum of Mulliken charges =  -0.00000

 Dipole moment (field-independent basis, Debye):
    X=              4.0115    Y=              3.2631    Z=              1.6041  Tot=              5.4142

 Test job not archived.
 1\1\GINC-SE334\SP\RHF\Aug-CC-pVDZ\C2H5Cl1O2Si2\OHZDE\09-Apr-2025\0\\#t
  hf aug-cc-pvdz iop(5/13=1,5/36=2,99/5=2) pseudo=read geom=check guess
 =(read,tcheck) scf=(maxcycle=1)\\title\\0,1\Si,0,0.072454,1.327519,0.6
 59093\Si,0,-1.779276,0.629554,-0.621559\C,0,1.443749,-0.017485,0.56847
 4\O,0,2.04711,-0.570095,1.407002\H,0,-0.249881,1.526154,2.087515\H,0,0
 .698763,2.542645,0.095684\Cl,0,1.80869,-0.406656,-1.262331\C,0,-2.1181
 34,-1.186319,-0.044475\H,0,-1.555656,0.699492,-2.082847\H,0,-2.973453,
 1.446355,-0.284558\O,0,-1.529465,-1.637585,0.912163\H,0,-2.866837,-1.8

 Normal termination of Gaussian 16 at Wed Apr  9 00:08:49 2025.
