 Gaussian 16, Revision C.01,

 ----------------------------------------------------------------------
 #t hf aug-cc-pvdz symm=none int=(grid=ultrafine) guess=(read,tcheck) s
 table=(opt,rrhf)
 ----------------------------------------------------------------------
 -----
 title
 -----
 Symbolic Z-matrix:
 Charge =  0 Multiplicity = 1

 SCF Done:  E(RHF) =  -102.134349610     A.U. after   12 cycles
 Normal termination of Gaussian 16 at Tue Apr  8 23:31:00 2025.
 Gaussian 16:  ES64L-G16RevC.01  3-Jul-2019

 ----------------------------------------------------------------------
 #t hf aug-cc-pvdz iop(5/13=1,5/36=2,99/5=2) pseudo=read geom=check gue
 ss=(read,tcheck) scf=(maxcycle=1)
 ----------------------------------------------------------------------
 -----
 title
 -----
 Structure from the checkpoint file:  "BDE49_nonexpt_143_mol1.chk"
 Charge =  0 Multiplicity = 1

                         Standard orientation:
 ---------------------------------------------------------------------
 Center     Atomic      Atomic             Coordinates (Angstroms)
 Number     Number       Type             X           Y           Z
 ---------------------------------------------------------------------
      1          5           0       -0.534492   -0.614268   -0.474794
      2          5           0        0.534492    0.614268   -0.474794
      3          5           0        0.534492    1.974741    0.420708
      4          1           0       -0.011741    2.974106    0.058513
      5          1           0        1.100116    2.022763    1.473470
      6          5           0       -0.534492   -1.974741    0.420708
      7          1           0        0.011741   -2.974106    0.058513
      8          1           0       -1.100116   -2.022763    1.473470
      9          1           0        1.438394    0.488788   -1.261552
     10          1           0       -1.438394   -0.488788   -1.261552
 ---------------------------------------------------------------------

 SCF Done:  E(RHF) =  -102.166566677     A.U. after    2 cycles

 The electronic state is 1-A.
 Alpha  occ. eigenvalues --   -7.60391  -7.60390  -7.58358  -7.58261  -0.76593
 Alpha  occ. eigenvalues --   -0.70628  -0.63581  -0.57290  -0.49545  -0.49348
 Alpha  occ. eigenvalues --   -0.45757  -0.44364  -0.41173
 Alpha virt. eigenvalues --    0.03300   0.03671   0.03991   0.04602   0.05163
 Alpha virt. eigenvalues --    0.05524   0.05802   0.06326   0.06621   0.07222
 Alpha virt. eigenvalues --    0.08698   0.08808   0.09989   0.10152   0.10524

 Mulliken charges:
               1
     1  B   -0.139239
     2  B   -0.139239
     3  B   -0.469079
     4  H    0.240035
     5  H    0.245320
     6  B   -0.469079
     7  H    0.240035
     8  H    0.245320
     9  H    0.122962
    10  H    0.122962
 Sum of Mulliken charges =  -0.00000

 Dipole moment (field-independent basis, Debye):
    X=              0.0000    Y=              0.0000    Z=             -0.1528  Tot=              0.1528

 Test job not archived.
 1\1\GINC-SE082\SP\RHF\Aug-CC-pVDZ\B4H6\OHZDE\08-Apr-2025\0\\#t hf aug-
 cc-pvdz iop(5/13=1,5/36=2,99/5=2) pseudo=read geom=check guess=(read,t
 check) scf=(maxcycle=1)\\title\\0,1\B,0,-0.534492,-0.614268,-0.474794\
 B,0,0.534492,0.614268,-0.474794\B,0,0.534492,1.974741,0.420708\H,0,-0.
 011741,2.974106,0.058513\H,0,1.100116,2.022763,1.47347\B,0,-0.534492,-
 1.974741,0.420708\H,0,0.011741,-2.974106,0.058513\H,0,-1.100116,-2.022
 763,1.47347\H,0,1.438394,0.488788,-1.261552\H,0,-1.438394,-0.488788,-1
 .261552\\Version=ES64L-G16RevC.01\State=1-A\HF=-102.1665667\RMSD=4.948

 Normal termination of Gaussian 16 at Tue Apr  8 23:31:02 2025.
