 Gaussian 16, Revision C.01,

 ----------------------------------------------------------------------
 #t hf aug-cc-pvdz symm=none int=(grid=ultrafine) guess=(read,tcheck) s
 table=opt
 ----------------------------------------------------------------------
 -----
 title
 -----
 Symbolic Z-matrix:
 Charge =  0 Multiplicity = 2

 SCF Done:  E(UHF) =  -1059.17498722     A.U. after   23 cycles
 Normal termination of Gaussian 16 at Wed Apr  9 00:16:47 2025.
 Gaussian 16:  ES64L-G16RevC.01  3-Jul-2019

 ----------------------------------------------------------------------
 #t hf aug-cc-pvdz iop(5/13=1,5/36=2,99/5=2) pseudo=read geom=check gue
 ss=(read,tcheck) scf=(maxcycle=1)
 ----------------------------------------------------------------------
 -----
 title
 -----
 Structure from the checkpoint file:  "BDE49_nonexpt_2578_mol2.chk"
 Charge =  0 Multiplicity = 2

                         Standard orientation:
 ---------------------------------------------------------------------
 Center     Atomic      Atomic             Coordinates (Angstroms)
 Number     Number       Type             X           Y           Z
 ---------------------------------------------------------------------
      1         16           0        1.356524    1.175244   -0.083548
      2         16           0        0.159984   -0.511642    0.056047
      3          8           0       -0.085966   -0.645931    1.471390
      4          8           0       -1.213296   -0.126225   -0.683268
      5          6           0       -2.097523    0.823801   -0.039354
      6          1           0       -3.000530    0.813667   -0.645357
      7          1           0       -1.648288    1.819095   -0.050066
      8          1           0       -2.313499    0.506991    0.980195
      9          8           0        0.709680   -1.565369   -0.739200
 ---------------------------------------------------------------------

 SCF Done:  E(UHF) =  -1059.36129159     A.U. after    2 cycles

 The electronic state is 2-A.
 Alpha  occ. eigenvalues --  -93.85899 -93.62289 -20.65669 -20.59964 -20.59585
 Alpha  occ. eigenvalues --  -11.33018  -9.11840  -8.92073  -6.46479  -6.46393
 Alpha  occ. eigenvalues --   -6.46185  -6.27354  -6.25708  -6.25182  -1.49339
 Alpha  occ. eigenvalues --   -1.37462  -1.35265  -1.05767  -0.99810  -0.84531
 Alpha  occ. eigenvalues --   -0.75691  -0.73314  -0.72062  -0.66834  -0.65837
 Alpha  occ. eigenvalues --   -0.59810  -0.57697  -0.55671  -0.54161  -0.53157
 Alpha  occ. eigenvalues --   -0.49817  -0.49290  -0.44654
 Alpha virt. eigenvalues --    0.03039   0.04610   0.05826   0.06123   0.08699
 Alpha virt. eigenvalues --    0.09859   0.10787   0.11499   0.12176   0.13478
 Alpha virt. eigenvalues --    0.14178   0.15502   0.15573   0.16345   0.18359

  Beta  occ. eigenvalues --  -93.85933 -93.61362 -20.65697 -20.59748 -20.59514
  Beta  occ. eigenvalues --  -11.33017  -9.11887  -8.91045  -6.46519  -6.46412
  Beta  occ. eigenvalues --   -6.46299  -6.25165  -6.24624  -6.23273  -1.49234
  Beta  occ. eigenvalues --   -1.37430  -1.34888  -1.01876  -0.97077  -0.82849
  Beta  occ. eigenvalues --   -0.75190  -0.72102  -0.71582  -0.66309  -0.65427
  Beta  occ. eigenvalues --   -0.59553  -0.56029  -0.54990  -0.53870  -0.52762
  Beta  occ. eigenvalues --   -0.48391  -0.42394
  Beta virt. eigenvalues --   -0.03879   0.03086   0.04861   0.05922   0.06510
  Beta virt. eigenvalues --    0.08876   0.10411   0.11395   0.12240   0.12570
  Beta virt. eigenvalues --    0.13725   0.14273   0.15643   0.15895   0.16588

 Mulliken charges and spin densities:
               1          2
     1  S    0.148470   1.061066
     2  S    2.221845  -0.063162
     3  O   -0.952546   0.014491
     4  O   -0.915056  -0.009334
     5  C    0.665002   0.003674
     6  H   -0.187180   0.000725
     7  H   -0.056246  -0.010266
     8  H   -0.036122  -0.000778
     9  O   -0.888168   0.003584
 Sum of Mulliken charges =  -0.00000   1.00000

 Dipole moment (field-independent basis, Debye):
    X=             -1.6568    Y=              4.4064    Z=             -0.3452  Tot=              4.7202
                          Isotropic Fermi Contact Couplings
        Atom                 a.u.       MegaHertz       Gauss      10(-4) cm-1
     1  S(33)              0.18889      64.87788      23.15004      21.64093
     2  S(33)             -0.04166     -14.31019      -5.10623      -4.77336
     3  O(17)              0.02323     -14.08181      -5.02474      -4.69719
     4  O(17)             -0.00406       2.45942       0.87758       0.82037
     5  C(13)             -0.00004      -0.04269      -0.01523      -0.01424
     6  H(1)               0.00002       0.07215       0.02574       0.02407
     7  H(1)               0.00010       0.46755       0.16683       0.15596
     8  H(1)              -0.00001      -0.02413      -0.00861      -0.00805

 Normal termination of Gaussian 16 at Wed Apr  9 00:16:50 2025.
