 Gaussian 16, Revision C.01,

 ----------------------------------------------------------------------
 #t hf aug-cc-pvdz symm=none int=(grid=ultrafine) guess=(read,tcheck) s
 table=(opt,rrhf)
 ----------------------------------------------------------------------
 -----
 title
 -----
 Symbolic Z-matrix:
 Charge =  0 Multiplicity = 1

 SCF Done:  E(RHF) =  -436.561875209     A.U. after   12 cycles
 Normal termination of Gaussian 16 at Tue Apr  8 23:25:56 2025.
 Gaussian 16:  ES64L-G16RevC.01  3-Jul-2019

 ----------------------------------------------------------------------
 #t hf aug-cc-pvdz iop(5/13=1,5/36=2,99/5=2) pseudo=read geom=check gue
 ss=(read,tcheck) scf=(maxcycle=1)
 ----------------------------------------------------------------------
 -----
 title
 -----
 Structure from the checkpoint file:  "BDE49_nonexpt_1315_mol1.chk"
 Charge =  0 Multiplicity = 1

                         Standard orientation:
 ---------------------------------------------------------------------
 Center     Atomic      Atomic             Coordinates (Angstroms)
 Number     Number       Type             X           Y           Z
 ---------------------------------------------------------------------
      1          6           0        1.450534    0.467045   -0.010632
      2         15           0       -0.070711   -0.602657   -0.095851
      3          1           0        2.322565   -0.176658    0.143618
      4          1           0        1.415432    1.201873    0.798696
      5          7           0       -1.395773    0.469822    0.059005
      6          1           0        1.584351    0.991421   -0.959931
      7          1           0       -1.865823    0.690342   -0.806412
      8          1           0       -1.322109    1.281303    0.659741
      9          1           0       -0.006541   -1.039443    1.252819
 ---------------------------------------------------------------------

 SCF Done:  E(RHF) =  -436.621799877     A.U. after    2 cycles

 The electronic state is 1-A.
 Alpha  occ. eigenvalues --  -81.26968 -15.61403 -11.23237  -7.76920  -4.91022
 Alpha  occ. eigenvalues --   -4.90788  -4.90532  -1.11619  -0.95419  -0.74544
 Alpha  occ. eigenvalues --   -0.66521  -0.58452  -0.57099  -0.54028  -0.49998
 Alpha  occ. eigenvalues --   -0.39412  -0.33697
 Alpha virt. eigenvalues --    0.03416   0.04568   0.05178   0.05601   0.07561
 Alpha virt. eigenvalues --    0.07847   0.10055   0.10849   0.12213   0.14930
 Alpha virt. eigenvalues --    0.16123   0.16940   0.17186   0.19139   0.20370

 Mulliken charges:
               1
     1  C    0.132597
     2  P    0.743620
     3  H   -0.143566
     4  H   -0.196035
     5  N   -0.470502
     6  H   -0.109719
     7  H    0.023535
     8  H   -0.024371
     9  H    0.044439
 Sum of Mulliken charges =  -0.00000

 Dipole moment (field-independent basis, Debye):
    X=              0.4394    Y=              1.8595    Z=              0.1712  Tot=              1.9183

 Test job not archived.
 1\1\GINC-SE044\SP\RHF\Aug-CC-pVDZ\C1H6N1P1\OHZDE\08-Apr-2025\0\\#t hf
 aug-cc-pvdz iop(5/13=1,5/36=2,99/5=2) pseudo=read geom=check guess=(re
 ad,tcheck) scf=(maxcycle=1)\\title\\0,1\C,0,1.450534,0.467045,-0.01063
 2\P,0,-0.070711,-0.602657,-0.095851\H,0,2.322565,-0.176658,0.143618\H,
 0,1.415432,1.201873,0.798696\N,0,-1.395773,0.469822,0.059005\H,0,1.584
 351,0.991421,-0.959931\H,0,-1.865823,0.690342,-0.806412\H,0,-1.322109,
 1.281303,0.659741\H,0,-0.006541,-1.039443,1.252819\\Version=ES64L-G16R
 evC.01\State=1-A\HF=-436.6217999\RMSD=7.690e-03\Dipole=0.1728714,0.731

 Normal termination of Gaussian 16 at Tue Apr  8 23:25:58 2025.
