 Gaussian 16, Revision C.01,

 ----------------------------------------------------------------------
 #t hf aug-cc-pvdz symm=none int=(grid=ultrafine) guess=(read,tcheck) s
 table=(opt,rrhf)
 ----------------------------------------------------------------------
 -----
 title
 -----
 Symbolic Z-matrix:
 Charge =  0 Multiplicity = 1

 SCF Done:  E(RHF) =  -1913.29727019     A.U. after   13 cycles
 Normal termination of Gaussian 16 at Wed Apr  9 00:19:38 2025.
 Gaussian 16:  ES64L-G16RevC.01  3-Jul-2019

 ----------------------------------------------------------------------
 #t hf aug-cc-pvdz iop(5/13=1,5/36=2,99/5=2) pseudo=read geom=check gue
 ss=(read,tcheck) scf=(maxcycle=1)
 ----------------------------------------------------------------------
 -----
 title
 -----
 Structure from the checkpoint file:  "BDE49_nonexpt_2631_mol1.chk"
 Charge =  0 Multiplicity = 1

                         Standard orientation:
 ---------------------------------------------------------------------
 Center     Atomic      Atomic             Coordinates (Angstroms)
 Number     Number       Type             X           Y           Z
 ---------------------------------------------------------------------
      1          9           0       -2.387247   -0.045825   -0.000016
      2         16           0       -1.165334    1.073441    0.000003
      3          6           0        0.251167   -0.036471    0.000002
      4         17           0        1.583012    1.177113   -0.000000
      5         17           0        0.344481   -1.075140   -1.454571
      6         17           0        0.344483   -1.075138    1.454576
 ---------------------------------------------------------------------

 SCF Done:  E(RHF) =  -1913.42325034     A.U. after    2 cycles

 The electronic state is 1-A.
 Alpha  occ. eigenvalues -- -103.71771-103.70545-103.70545 -93.66648 -26.15737
 Alpha  occ. eigenvalues --  -11.48968 -10.75036 -10.73843 -10.73821  -8.95467
 Alpha  occ. eigenvalues --   -8.40750  -8.40417  -8.40392  -8.39554  -8.39547
 Alpha  occ. eigenvalues --   -8.39196  -8.39195  -8.39194  -8.39193  -6.29623
 Alpha  occ. eigenvalues --   -6.29252  -6.28768  -1.67048  -1.28599  -1.18208
 Alpha  occ. eigenvalues --   -1.17220  -1.03823  -0.85851  -0.76273  -0.76207
 Alpha  occ. eigenvalues --   -0.73466  -0.66191  -0.65241  -0.59526  -0.53573
 Alpha  occ. eigenvalues --   -0.53305  -0.49939  -0.49644  -0.48327  -0.48027
 Alpha  occ. eigenvalues --   -0.41557
 Alpha virt. eigenvalues --    0.04321   0.05169   0.07587   0.08189   0.08319
 Alpha virt. eigenvalues --    0.09329   0.10507   0.11468   0.12908   0.14347
 Alpha virt. eigenvalues --    0.14877   0.17428   0.17853   0.17962   0.18361

 Mulliken charges:
               1
     1  F   -0.587721
     2  S    1.095201
     3  C   -0.942097
     4  Cl   0.191627
     5  Cl   0.121495
     6  Cl   0.121496
 Sum of Mulliken charges =  -0.00000

 Dipole moment (field-independent basis, Debye):
    X=              1.0741    Y=              1.1704    Z=              0.0000  Tot=              1.5886

 Test job not archived.
 1\1\GINC-SE343\SP\RHF\Aug-CC-pVDZ\C1Cl3F1S1\OHZDE\09-Apr-2025\0\\#t hf
  aug-cc-pvdz iop(5/13=1,5/36=2,99/5=2) pseudo=read geom=check guess=(r
 ead,tcheck) scf=(maxcycle=1)\\title\\0,1\F,0,-2.387247,-0.045826,-0.00
 0016\S,0,-1.165335,1.073441,0.000003\C,0,0.251167,-0.036471,0.000002\C
 l,0,1.583011,1.177114,0.\Cl,0,0.344481,-1.07514,-1.454571\Cl,0,0.34448
 3,-1.075138,1.454576\\Version=ES64L-G16RevC.01\State=1-A\HF=-1913.4232
 503\RMSD=4.210e-03\Dipole=0.422582,0.4604902,0.0000064\Quadrupole=-2.0
 099853,1.873127,0.1368583,-0.7998367,-0.0000311,0.0000134\PG=C01 [X(C1

 Normal termination of Gaussian 16 at Wed Apr  9 00:19:41 2025.
