 Gaussian 16, Revision C.01,

 ----------------------------------------------------------------------
 #t hf aug-cc-pvdz symm=none int=(grid=ultrafine) guess=(read,tcheck) s
 table=(opt,rrhf)
 ----------------------------------------------------------------------
 -----
 title
 -----
 Symbolic Z-matrix:
 Charge =  0 Multiplicity = 1

 SCF Done:  E(RHF) =  -663.780111388     A.U. after   16 cycles
 Normal termination of Gaussian 16 at Tue Apr  8 23:30:56 2025.
 Gaussian 16:  ES64L-G16RevC.01  3-Jul-2019

 ----------------------------------------------------------------------
 #t hf aug-cc-pvdz iop(5/13=1,5/36=2,99/5=2) pseudo=read geom=check gue
 ss=(read,tcheck) scf=(maxcycle=1)
 ----------------------------------------------------------------------
 -----
 title
 -----
 Structure from the checkpoint file:  "BDE49_nonexpt_1421_mol1.chk"
 Charge =  0 Multiplicity = 1

                         Standard orientation:
 ---------------------------------------------------------------------
 Center     Atomic      Atomic             Coordinates (Angstroms)
 Number     Number       Type             X           Y           Z
 ---------------------------------------------------------------------
      1          6           0       -2.333722   -0.770309    0.000207
      2          6           0       -1.083765   -1.382910    0.009536
      3          6           0        0.094272   -0.628857    0.016317
      4          6           0       -2.438158    0.619449   -0.000999
      5          6           0       -1.285661    1.392599    0.001955
      6          6           0       -0.024789    0.778077    0.002207
      7          1           0       -3.228837   -1.381835    0.000501
      8          1           0       -1.024567   -2.465247    0.019107
      9         15           0        1.747676   -1.445981   -0.116607
     10          1           0       -1.344667    2.474075    0.002508
     11          1           0       -3.410446    1.097005   -0.003615
     12          6           0        1.145087    1.602533   -0.000718
     13          7           0        2.093758    2.262618   -0.002083
     14          1           0        1.366477   -2.649088    0.527054
     15          1           0        2.331020   -0.887013    1.047110
 ---------------------------------------------------------------------

 SCF Done:  E(RHF) =  -663.893112825     A.U. after    2 cycles

 The electronic state is 1-A.
 Alpha  occ. eigenvalues --  -81.27658 -15.64634 -11.30283 -11.29400 -11.29225
 Alpha  occ. eigenvalues --  -11.28447 -11.27970 -11.27386 -11.27196  -7.78029
 Alpha  occ. eigenvalues --   -4.92123  -4.92012  -4.91671  -1.20584  -1.17249
 Alpha  occ. eigenvalues --   -1.05982  -1.04701  -0.89598  -0.87192  -0.80531
 Alpha  occ. eigenvalues --   -0.75229  -0.68537  -0.67533  -0.63657  -0.59287
 Alpha  occ. eigenvalues --   -0.56539  -0.55923  -0.54062  -0.52238  -0.50787
 Alpha  occ. eigenvalues --   -0.48652  -0.46960  -0.40911  -0.36506  -0.33825
 Alpha virt. eigenvalues --    0.02510   0.03558   0.04344   0.05455   0.05657
 Alpha virt. eigenvalues --    0.06279   0.06988   0.07788   0.09023   0.09593
 Alpha virt. eigenvalues --    0.10176   0.10343   0.11537   0.12418   0.12886

 Mulliken charges:
               1
     1  C    0.218220
     2  C    1.106984
     3  C   -0.998441
     4  C    0.754890
     5  C    0.137537
     6  C    1.941977
     7  H   -0.444508
     8  H   -0.530491
     9  P   -0.138853
    10  H   -0.553074
    11  H   -0.407729
    12  C   -1.263946
    13  N   -0.144457
    14  H    0.136388
    15  H    0.185504
 Sum of Mulliken charges =  -0.00000

 Dipole moment (field-independent basis, Debye):
    X=             -4.1795    Y=             -2.6286    Z=              0.5894  Tot=              4.9725

 Test job not archived.
 1\1\GINC-SE461\SP\RHF\Aug-CC-pVDZ\C7H6N1P1\OHZDE\08-Apr-2025\0\\#t hf
 aug-cc-pvdz iop(5/13=1,5/36=2,99/5=2) pseudo=read geom=check guess=(re
 ad,tcheck) scf=(maxcycle=1)\\title\\0,1\C,0,-2.333722,-0.770309,0.0002
 07\C,0,-1.083765,-1.38291,0.009536\C,0,0.094272,-0.628857,0.016317\C,0
 ,-2.438158,0.619449,-0.000999\C,0,-1.285661,1.392599,0.001955\C,0,-0.0
 24789,0.778077,0.002207\H,0,-3.228837,-1.381835,0.000501\H,0,-1.024567
 ,-2.465247,0.019107\P,0,1.747676,-1.445981,-0.116607\H,0,-1.344667,2.4
 74075,0.002508\H,0,-3.410446,1.097005,-0.003615\C,0,1.145087,1.602533,

 Normal termination of Gaussian 16 at Tue Apr  8 23:31:03 2025.
