 Gaussian 16, Revision C.01,

 ----------------------------------------------------------------------
 #t hf aug-cc-pvdz symm=none int=(grid=ultrafine) guess=(read,tcheck) s
 table=(opt,rrhf)
 ----------------------------------------------------------------------
 -----
 title
 -----
 Symbolic Z-matrix:
 Charge =  0 Multiplicity = 1

 SCF Done:  E(RHF) =  -253.195023803     A.U. after   13 cycles
 Normal termination of Gaussian 16 at Wed Apr  9 00:26:44 2025.
 Gaussian 16:  ES64L-G16RevC.01  3-Jul-2019

 ----------------------------------------------------------------------
 #t hf aug-cc-pvdz iop(5/13=1,5/36=2,99/5=2) pseudo=read geom=check gue
 ss=(read,tcheck) scf=(maxcycle=1)
 ----------------------------------------------------------------------
 -----
 title
 -----
 Structure from the checkpoint file:  "BDE49_nonexpt_325_mol1.chk"
 Charge =  0 Multiplicity = 1

                         Standard orientation:
 ---------------------------------------------------------------------
 Center     Atomic      Atomic             Coordinates (Angstroms)
 Number     Number       Type             X           Y           Z
 ---------------------------------------------------------------------
      1          6           0        0.911769   -0.661678    0.000021
      2          5           0       -0.518829   -0.028889    0.000005
      3          8           0       -0.771140    1.319441    0.000007
      4          8           0       -1.589927   -0.873657   -0.000014
      5          6           0        2.055640    0.026937   -0.000017
      6          1           0        0.972859   -1.748370    0.000059
      7          1           0        2.081384    1.115771   -0.000062
      8          1           0        3.029957   -0.452350   -0.000008
      9          1           0       -2.424888   -0.393366   -0.000023
     10          1           0        0.018919    1.864937    0.000034
 ---------------------------------------------------------------------

 SCF Done:  E(RHF) =  -253.281375080     A.U. after    2 cycles

 The electronic state is 1-A.
 Alpha  occ. eigenvalues --  -20.58391 -20.57663 -11.25956 -11.22751  -7.65836
 Alpha  occ. eigenvalues --   -1.34435  -1.30625  -1.03573  -0.81862  -0.77238
 Alpha  occ. eigenvalues --   -0.73581  -0.67089  -0.60257  -0.59071  -0.57996
 Alpha  occ. eigenvalues --   -0.57269  -0.52124  -0.48235  -0.38954
 Alpha virt. eigenvalues --    0.03255   0.04630   0.04709   0.05973   0.06514
 Alpha virt. eigenvalues --    0.07425   0.08550   0.08659   0.09519   0.10596
 Alpha virt. eigenvalues --    0.14236   0.15091   0.16570   0.16629   0.17337

 Mulliken charges:
               1
     1  C    0.419442
     2  B    0.766614
     3  O   -0.440315
     4  O   -0.487216
     5  C    0.341606
     6  H   -0.381270
     7  H   -0.318971
     8  H   -0.278769
     9  H    0.183686
    10  H    0.195192
 Sum of Mulliken charges =  -0.00000

 Dipole moment (field-independent basis, Debye):
    X=              1.2438    Y=              1.2654    Z=              0.0000  Tot=              1.7744

 Test job not archived.
 1\1\GINC-SE455\SP\RHF\Aug-CC-pVDZ\C2H5B1O2\OHZDE\09-Apr-2025\0\\#t hf
 aug-cc-pvdz iop(5/13=1,5/36=2,99/5=2) pseudo=read geom=check guess=(re
 ad,tcheck) scf=(maxcycle=1)\\title\\0,1\C,0,0.911769,-0.661678,0.00002
 1\B,0,-0.518829,-0.028889,0.000005\O,0,-0.77114,1.319441,0.000007\O,0,
 -1.589927,-0.873657,-0.000014\C,0,2.05564,0.026937,-0.000017\H,0,0.972
 859,-1.74837,0.000059\H,0,2.081384,1.115771,-0.000062\H,0,3.029957,-0.
 452351,-0.000008\H,0,-2.424888,-0.393365,-0.000023\H,0,0.01892,1.86493
 7,0.000034\\Version=ES64L-G16RevC.01\State=1-A\HF=-253.2813751\RMSD=4.

 Normal termination of Gaussian 16 at Wed Apr  9 00:26:46 2025.
