 Gaussian 16, Revision C.01,

 ----------------------------------------------------------------------
 #t hf aug-cc-pvdz symm=none int=(grid=ultrafine) guess=(read,tcheck) s
 table=(opt,rrhf)
 ----------------------------------------------------------------------
 -----
 title
 -----
 Symbolic Z-matrix:
 Charge =  0 Multiplicity = 1

 SCF Done:  E(RHF) =  -728.734652218     A.U. after   16 cycles
 Normal termination of Gaussian 16 at Tue Apr  8 22:39:05 2025.
 Gaussian 16:  ES64L-G16RevC.01  3-Jul-2019

 ----------------------------------------------------------------------
 #t hf aug-cc-pvdz iop(5/13=1,5/36=2,99/5=2) pseudo=read geom=check gue
 ss=(read,tcheck) scf=(maxcycle=1)
 ----------------------------------------------------------------------
 -----
 title
 -----
 Structure from the checkpoint file:  "BDE49_expt_1217_mol1.chk"
 Charge =  0 Multiplicity = 1

                         Standard orientation:
 ---------------------------------------------------------------------
 Center     Atomic      Atomic             Coordinates (Angstroms)
 Number     Number       Type             X           Y           Z
 ---------------------------------------------------------------------
      1          6           0        0.018616    0.000536    0.214060
      2          7           0       -0.070955    1.363507   -0.520083
      3          8           0       -1.064958    1.540588   -1.188046
      4          8           0        0.861155    2.122992   -0.363931
      5          6           0        0.937009   -0.006333    1.423987
      6          7           0       -1.445668   -0.307388    0.617154
      7          8           0       -1.838338    0.339518    1.567869
      8          8           0       -2.058464   -1.115989   -0.036774
      9          7           0        0.456288   -1.051832   -0.818796
     10          8           0        0.724688   -0.666150   -1.934697
     11          8           0        0.533265   -2.179646   -0.379582
     12          6           0        2.440023   -0.029337    1.116547
     13          1           0        0.665757   -0.893320    2.001111
     14          1           0        0.666599    0.864413    2.022273
     15          1           0        2.725192   -0.940925    0.587857
     16          1           0        2.984811   -0.015428    2.062090
     17          1           0        2.747310    0.835543    0.532470
 ---------------------------------------------------------------------

 SCF Done:  E(RHF) =  -728.954636789     A.U. after    2 cycles

 The electronic state is 1-A.
 Alpha  occ. eigenvalues --  -20.68119 -20.67996 -20.67611 -20.67558 -20.67477
 Alpha  occ. eigenvalues --  -20.67259 -15.98049 -15.97925 -15.97864 -11.49033
 Alpha  occ. eigenvalues --  -11.31824 -11.27423  -1.62966  -1.60680  -1.60474
 Alpha  occ. eigenvalues --   -1.43597  -1.43292  -1.43090  -1.22951  -1.07719
 Alpha  occ. eigenvalues --   -1.00428  -0.99657  -0.92902  -0.87122  -0.85875
 Alpha  occ. eigenvalues --   -0.85096  -0.79769  -0.79240  -0.79037  -0.78094
 Alpha  occ. eigenvalues --   -0.77384  -0.76141  -0.69761  -0.67354  -0.61775
 Alpha  occ. eigenvalues --   -0.59864  -0.58715  -0.57334  -0.56875  -0.56307
 Alpha  occ. eigenvalues --   -0.55460  -0.54303  -0.53724  -0.52852  -0.51708
 Alpha  occ. eigenvalues --   -0.51529
 Alpha virt. eigenvalues --    0.01673   0.02149   0.02570   0.03600   0.04506
 Alpha virt. eigenvalues --    0.04794   0.06026   0.07251   0.09189   0.10603
 Alpha virt. eigenvalues --    0.11105   0.11615   0.13318   0.14212   0.14688

 Mulliken charges:
               1
     1  C    2.171092
     2  N    0.160136
     3  O   -0.544448
     4  O   -0.519049
     5  C    0.034988
     6  N    0.230910
     7  O   -0.536780
     8  O   -0.514961
     9  N    0.092945
    10  O   -0.506911
    11  O   -0.552973
    12  C    0.453158
    13  H    0.042268
    14  H    0.048855
    15  H   -0.004316
    16  H   -0.033044
    17  H   -0.021871
 Sum of Mulliken charges =  -0.00000

 Dipole moment (field-independent basis, Debye):
    X=              3.1817    Y=             -0.0982    Z=              3.3802  Tot=              4.6431

 Test job not archived.
 1\1\GINC-SE159\SP\RHF\Aug-CC-pVDZ\C3H5N3O6\OHZDE\08-Apr-2025\0\\#t hf
 aug-cc-pvdz iop(5/13=1,5/36=2,99/5=2) pseudo=read geom=check guess=(re
 ad,tcheck) scf=(maxcycle=1)\\title\\0,1\C,0,0.018616,0.000536,0.21406\
 N,0,-0.070955,1.363507,-0.520083\O,0,-1.064958,1.540588,-1.188046\O,0,
 0.861155,2.122992,-0.363931\C,0,0.937009,-0.006333,1.423987\N,0,-1.445
 668,-0.307388,0.617154\O,0,-1.838338,0.339518,1.567869\O,0,-2.058464,-
 1.115989,-0.036774\N,0,0.456288,-1.051832,-0.818796\O,0,0.724688,-0.66
 615,-1.934697\O,0,0.533266,-2.179646,-0.379582\C,0,2.440023,-0.029337,

 Normal termination of Gaussian 16 at Tue Apr  8 22:39:21 2025.
