 Gaussian 16, Revision C.01,

 ----------------------------------------------------------------------
 #t hf aug-cc-pvdz symm=none int=(grid=ultrafine) guess=(read,tcheck) s
 table=(opt,rrhf)
 ----------------------------------------------------------------------
 -----
 title
 -----
 Symbolic Z-matrix:
 Charge =  0 Multiplicity = 1

 SCF Done:  E(RHF) =  -2112.62822373     A.U. after   13 cycles

 1\1\GINC-SE461\Stability\RHF\Aug-CC-pVDZ\C2Cl4F2\OHZDE\08-Apr-2025\0\\
 #t hf aug-cc-pvdz symm=none int=(grid=ultrafine) guess=(read,tcheck) s
 table=(opt,rrhf)\\title\\0,1\C,0,0.560351,-0.132981,-0.000004\C,0,-0.8
 19821,0.624933,-0.000005\Cl,0,0.693086,-1.140334,1.46462\Cl,0,1.859757
 ,1.098426,0.000022\Cl,0,0.693112,-1.140298,-1.464649\F,0,-0.887666,1.4
 08347,1.084963\Cl,0,-2.214485,-0.482594,0.00003\F,0,-0.887687,1.408307
 ,-1.085\\Version=ES64L-G16RevC.01\HF=-2112.6282237\RMSD=2.282e-09\Dipo
 le=0.0700734,-0.2625161,0.0000029\Quadrupole=0.4269131,-0.210586,-0.21

 Normal termination of Gaussian 16 at Tue Apr  8 22:27:28 2025.
 Gaussian 16:  ES64L-G16RevC.01  3-Jul-2019

 ----------------------------------------------------------------------
 #t hf aug-cc-pvdz iop(5/13=1,5/36=2,99/5=2) pseudo=read geom=check gue
 ss=(read,tcheck) scf=(maxcycle=1)
 ----------------------------------------------------------------------
 -----
 title
 -----
 Structure from the checkpoint file:  "BDE49_expt_1012_mol1.chk"
 Charge =  0 Multiplicity = 1

                         Standard orientation:
 ---------------------------------------------------------------------
 Center     Atomic      Atomic             Coordinates (Angstroms)
 Number     Number       Type             X           Y           Z
 ---------------------------------------------------------------------
      1          6           0       -0.560351   -0.132981    0.000004
      2          6           0        0.819821    0.624933    0.000005
      3         17           0       -0.693086   -1.140334   -1.464620
      4         17           0       -1.859757    1.098426   -0.000022
      5         17           0       -0.693112   -1.140298    1.464649
      6          9           0        0.887666    1.408347   -1.084963
      7         17           0        2.214485   -0.482594   -0.000030
      8          9           0        0.887687    1.408307    1.085000
 ---------------------------------------------------------------------

 SCF Done:  E(RHF) =  -2112.79725919     A.U. after    2 cycles

 The electronic state is 1-A.
 Alpha  occ. eigenvalues -- -103.70970-103.70970-103.70765-103.70533 -26.19285
 Alpha  occ. eigenvalues --  -26.19274 -11.54301 -11.48245 -10.74276 -10.74256
 Alpha  occ. eigenvalues --  -10.74051 -10.73887  -8.39991  -8.39984  -8.39772
 Alpha  occ. eigenvalues --   -8.39638  -8.39637  -8.39632  -8.39630  -8.39610
 Alpha  occ. eigenvalues --   -8.39424  -8.39416  -8.39270  -8.39262  -1.76801
 Alpha  occ. eigenvalues --   -1.71799  -1.29335  -1.21688  -1.17963  -1.17591
 Alpha  occ. eigenvalues --   -1.04088  -0.92609  -0.88132  -0.84652  -0.81547
 Alpha  occ. eigenvalues --   -0.78658  -0.75069  -0.71009  -0.65475  -0.65350
 Alpha  occ. eigenvalues --   -0.60966  -0.54251  -0.53228  -0.52246  -0.51305
 Alpha  occ. eigenvalues --   -0.50364  -0.49235  -0.48691  -0.47999
 Alpha virt. eigenvalues --    0.05434   0.06807   0.07784   0.07899   0.09024
 Alpha virt. eigenvalues --    0.09671   0.11050   0.11557   0.12844   0.13227
 Alpha virt. eigenvalues --    0.14597   0.14691   0.16305   0.17134   0.18065

 Mulliken charges:
               1
     1  C   -0.446007
     2  C    0.933771
     3  Cl   0.053615
     4  Cl   0.073403
     5  Cl   0.053615
     6  F   -0.289682
     7  Cl  -0.089032
     8  F   -0.289683
 Sum of Mulliken charges =  -0.00000

 Dipole moment (field-independent basis, Debye):
    X=             -0.1837    Y=             -0.9460    Z=             -0.0000  Tot=              0.9636

 Test job not archived.
 1\1\GINC-SE461\SP\RHF\Aug-CC-pVDZ\C2Cl4F2\OHZDE\08-Apr-2025\0\\#t hf a
 ug-cc-pvdz iop(5/13=1,5/36=2,99/5=2) pseudo=read geom=check guess=(rea
 d,tcheck) scf=(maxcycle=1)\\title\\0,1\C,0,0.560351,-0.132981,-0.00000
 4\C,0,-0.819821,0.624933,-0.000005\Cl,0,0.693086,-1.140334,1.46462\Cl,
 0,1.859757,1.098426,0.000022\Cl,0,0.693112,-1.140298,-1.464649\F,0,-0.
 887666,1.408347,1.084963\Cl,0,-2.214485,-0.482594,0.00003\F,0,-0.88768
 7,1.408307,-1.085\\Version=ES64L-G16RevC.01\State=1-A\HF=-2112.7972592
 \RMSD=5.260e-03\Dipole=0.0722703,-0.3721696,0.0000046\Quadrupole=0.664

 Normal termination of Gaussian 16 at Tue Apr  8 22:27:32 2025.
