 Gaussian 16, Revision C.01,

 ----------------------------------------------------------------------
 #t hf aug-cc-pvdz symm=none int=(grid=ultrafine) guess=(read,tcheck) s
 table=opt
 ----------------------------------------------------------------------
 -----
 title
 -----
 Symbolic Z-matrix:
 Charge =  0 Multiplicity = 2

 SCF Done:  E(UHF) =  -568.535945806     A.U. after   20 cycles
 Normal termination of Gaussian 16 at Tue Apr  8 23:33:10 2025.
 Gaussian 16:  ES64L-G16RevC.01  3-Jul-2019

 ----------------------------------------------------------------------
 #t hf aug-cc-pvdz iop(5/13=1,5/36=2,99/5=2) pseudo=read geom=check gue
 ss=(read,tcheck) scf=(maxcycle=1)
 ----------------------------------------------------------------------
 -----
 title
 -----
 Structure from the checkpoint file:  "BDE49_nonexpt_1469_mol2.chk"
 Charge =  0 Multiplicity = 2

                         Standard orientation:
 ---------------------------------------------------------------------
 Center     Atomic      Atomic             Coordinates (Angstroms)
 Number     Number       Type             X           Y           Z
 ---------------------------------------------------------------------
      1          6           0       -0.056859    0.298722    0.000056
      2         15           0       -1.845247   -0.220018   -0.000041
      3          8           0        0.823482   -0.723334    0.000032
      4          8           0        0.257245    1.464802   -0.000014
      5          6           0        2.216011   -0.338790    0.000011
      6          1           0        2.447695    0.249979    0.888772
      7          1           0        2.447662    0.250005   -0.888743
      8          1           0        2.772406   -1.272880   -0.000013
      9          1           0       -1.589781   -1.618173    0.000058
 ---------------------------------------------------------------------

 SCF Done:  E(UHF) =  -568.627834987     A.U. after    2 cycles

 The electronic state is 2-A.
 Alpha  occ. eigenvalues --  -81.29178 -20.62861 -20.58264 -11.40257 -11.30585
 Alpha  occ. eigenvalues --   -7.79646  -4.94282  -4.93296  -4.92938  -1.42982
 Alpha  occ. eigenvalues --   -1.34167  -0.99422  -0.86316  -0.78248  -0.70791
 Alpha  occ. eigenvalues --   -0.69138  -0.67115  -0.59318  -0.58154  -0.54867
 Alpha  occ. eigenvalues --   -0.49979  -0.47094  -0.41964  -0.38067
 Alpha virt. eigenvalues --    0.03351   0.04903   0.05772   0.06066   0.07620
 Alpha virt. eigenvalues --    0.09784   0.09991   0.11101   0.13365   0.13418
 Alpha virt. eigenvalues --    0.14072   0.14739   0.16377   0.17185   0.17326

  Beta  occ. eigenvalues --  -81.28488 -20.62885 -20.57614 -11.40655 -11.30587
  Beta  occ. eigenvalues --   -7.78820  -4.92798  -4.92557  -4.91150  -1.42705
  Beta  occ. eigenvalues --   -1.33212  -0.99227  -0.83302  -0.76978  -0.70146
  Beta  occ. eigenvalues --   -0.68925  -0.65335  -0.58960  -0.56115  -0.54798
  Beta  occ. eigenvalues --   -0.47883  -0.46104  -0.40017
  Beta virt. eigenvalues --    0.00792   0.03388   0.05013   0.05779   0.06181
  Beta virt. eigenvalues --    0.07743   0.10096   0.11172   0.11319   0.13612
  Beta virt. eigenvalues --    0.13986   0.15198   0.15245   0.16803   0.17720

 Mulliken charges and spin densities:
               1          2
     1  C    0.272870  -0.214485
     2  P    0.287108   1.225325
     3  O   -0.559247   0.005358
     4  O   -0.433359   0.150679
     5  C    0.741303   0.004748
     6  H   -0.064332   0.000328
     7  H   -0.064327   0.000327
     8  H   -0.227717  -0.000392
     9  H    0.047700  -0.171888
 Sum of Mulliken charges =  -0.00000   1.00000

 Dipole moment (field-independent basis, Debye):
    X=              0.8779    Y=             -2.3262    Z=              0.0001  Tot=              2.4864
                          Isotropic Fermi Contact Couplings
        Atom                 a.u.       MegaHertz       Gauss      10(-4) cm-1
     1  C(13)             -0.06303     -70.86042     -25.28476     -23.63649
     2  P(31)              0.21867     396.02859     141.31285     132.10092
     3  O(17)             -0.00737       4.46856       1.59449       1.49055
     4  O(17)              0.05306     -32.16191     -11.47617     -10.72806
     5  C(13)             -0.00046      -0.51407      -0.18343      -0.17148
     6  H(1)               0.00022       1.00500       0.35861       0.33523
     7  H(1)               0.00022       1.00469       0.35850       0.33513
     8  H(1)               0.00005       0.21710       0.07747       0.07242

 Normal termination of Gaussian 16 at Tue Apr  8 23:33:13 2025.
