 Gaussian 16, Revision C.01,

 ----------------------------------------------------------------------
 #t hf aug-cc-pvdz symm=none int=(grid=ultrafine) guess=(read,tcheck) s
 table=opt
 ----------------------------------------------------------------------
 -----
 title
 -----
 Symbolic Z-matrix:
 Charge =  0 Multiplicity = 2

 SCF Done:  E(UHF) =  -609.710528283     A.U. after   18 cycles
 Normal termination of Gaussian 16 at Tue Apr  8 23:20:50 2025.
 Gaussian 16:  ES64L-G16RevC.01  3-Jul-2019

 ----------------------------------------------------------------------
 #t hf aug-cc-pvdz iop(5/13=1,5/36=2,99/5=2) pseudo=read geom=check gue
 ss=(read,tcheck) scf=(maxcycle=1)
 ----------------------------------------------------------------------
 -----
 title
 -----
 Structure from the checkpoint file:  "BDE49_nonexpt_1202_mol3.chk"
 Charge =  0 Multiplicity = 2

                         Standard orientation:
 ---------------------------------------------------------------------
 Center     Atomic      Atomic             Coordinates (Angstroms)
 Number     Number       Type             X           Y           Z
 ---------------------------------------------------------------------
      1         16           0       -1.285345   -0.016221   -0.000001
      2          6           0        0.446497    0.124720    0.000008
      3          9           0        1.059811   -1.076017   -0.000002
      4          8           0        1.043530    1.149422   -0.000002
 ---------------------------------------------------------------------

 SCF Done:  E(UHF) =  -609.802887746     A.U. after    2 cycles

 The electronic state is 2-A.
 Alpha  occ. eigenvalues --  -93.62484 -26.18849 -20.62169 -11.48656  -8.92310
 Alpha  occ. eigenvalues --   -6.27647  -6.25958  -6.25460  -1.73310  -1.42871
 Alpha  occ. eigenvalues --   -1.08339  -0.91804  -0.80600  -0.80365  -0.75088
 Alpha  occ. eigenvalues --   -0.65101  -0.60608  -0.53975  -0.49985  -0.44661
 Alpha virt. eigenvalues --    0.05643   0.08361   0.09829   0.09947   0.10306
 Alpha virt. eigenvalues --    0.10904   0.12099   0.14290   0.19407   0.22519
 Alpha virt. eigenvalues --    0.23601   0.24010   0.26519   0.30335   0.31993

  Beta  occ. eigenvalues --  -93.61542 -26.18783 -20.61995 -11.48779  -8.91258
  Beta  occ. eigenvalues --   -6.25457  -6.24864  -6.23501  -1.73137  -1.42437
  Beta  occ. eigenvalues --   -1.02660  -0.90049  -0.80368  -0.79219  -0.73487
  Beta  occ. eigenvalues --   -0.63189  -0.60429  -0.51530  -0.42315
  Beta virt. eigenvalues --   -0.03483   0.05940   0.08410   0.09804   0.10376
  Beta virt. eigenvalues --    0.10992   0.11314   0.12988   0.14378   0.21590
  Beta virt. eigenvalues --    0.22837   0.24082   0.24427   0.26983   0.31800

 Mulliken charges and spin densities:
               1          2
     1  S    0.365972   1.081485
     2  C    0.213323  -0.095210
     3  F   -0.280159  -0.006662
     4  O   -0.299135   0.020387
 Sum of Mulliken charges =   0.00000   1.00000

 Dipole moment (field-independent basis, Debye):
    X=             -2.4643    Y=             -0.8933    Z=              0.0000  Tot=              2.6212
                          Isotropic Fermi Contact Couplings
        Atom                 a.u.       MegaHertz       Gauss      10(-4) cm-1
     1  S(33)              0.23126      79.43320      28.34374      26.49606
     2  C(13)             -0.02589     -29.10383     -10.38497      -9.70799
     3  F(19)              0.00855      35.98028      12.83866      12.00173
     4  O(17)              0.02084     -12.63195      -4.50739      -4.21356
 --------------------------------------------------------
       Center         ----  Spin Dipole Couplings  ----
                      3XX-RR        3YY-RR        3ZZ-RR
 --------------------------------------------------------

 Normal termination of Gaussian 16 at Tue Apr  8 23:20:52 2025.
