 Gaussian 16, Revision C.01,

 ----------------------------------------------------------------------
 #t hf aug-cc-pvdz symm=none int=(grid=ultrafine) guess=(read,tcheck) s
 table=(opt,rrhf)
 ----------------------------------------------------------------------
 -----
 title
 -----
 Symbolic Z-matrix:
 Charge =  0 Multiplicity = 1

 SCF Done:  E(RHF) =  -325.124640470     A.U. after   13 cycles
 Normal termination of Gaussian 16 at Tue Apr  8 23:02:16 2025.
 Gaussian 16:  ES64L-G16RevC.01  3-Jul-2019

 ----------------------------------------------------------------------
 #t hf aug-cc-pvdz iop(5/13=1,5/36=2,99/5=2) pseudo=read geom=check gue
 ss=(read,tcheck) scf=(maxcycle=1)
 ----------------------------------------------------------------------
 -----
 title
 -----
 Structure from the checkpoint file:  "BDE49_expt_357_mol1.chk"
 Charge =  0 Multiplicity = 1

                         Standard orientation:
 ---------------------------------------------------------------------
 Center     Atomic      Atomic             Coordinates (Angstroms)
 Number     Number       Type             X           Y           Z
 ---------------------------------------------------------------------
      1          7           0        0.122391    0.154802   -0.457601
      2          6           0       -1.164980   -0.040970    0.209754
      3          6           0        1.326581   -0.036761    0.161079
      4          8           0        1.431191   -0.378643    1.326888
      5          6           0        2.550765    0.208547   -0.708287
      6          1           0        2.317705    0.525449   -1.727236
      7          1           0        3.138938   -0.710580   -0.746289
      8          1           0        3.168051    0.971134   -0.229535
      9          6           0       -1.918085   -1.232016   -0.394776
     10          1           0       -2.155298   -1.053961   -1.449529
     11          1           0       -2.859898   -1.402625    0.133974
     12          1           0       -1.317826   -2.141832   -0.328148
     13          6           0       -1.992848    1.248204    0.171626
     14          1           0       -0.904850   -0.271961    1.244229
     15          1           0       -2.233503    1.532255   -0.859055
     16          1           0       -1.446834    2.072982    0.634512
     17          1           0       -2.936667    1.116831    0.707544
     18          1           0        0.115307    0.425810   -1.428735
 ---------------------------------------------------------------------

 SCF Done:  E(RHF) =  -325.228481181     A.U. after    2 cycles

 The electronic state is 1-A.
 Alpha  occ. eigenvalues --  -20.52547 -15.64457 -11.36069 -11.27691 -11.24599
 Alpha  occ. eigenvalues --  -11.23210 -11.23083  -1.33902  -1.19752  -1.05030
 Alpha  occ. eigenvalues --   -0.98049  -0.93755  -0.82707  -0.78765  -0.68116
 Alpha  occ. eigenvalues --   -0.65926  -0.62390  -0.61002  -0.59203  -0.58052
 Alpha  occ. eigenvalues --   -0.57056  -0.54804  -0.52431  -0.52038  -0.49530
 Alpha  occ. eigenvalues --   -0.48735  -0.43080  -0.38859
 Alpha virt. eigenvalues --    0.02807   0.03916   0.04289   0.04628   0.06463
 Alpha virt. eigenvalues --    0.06639   0.06752   0.07562   0.07914   0.08585
 Alpha virt. eigenvalues --    0.08916   0.11966   0.12730   0.13762   0.14294

 Mulliken charges:
               1
     1  N   -0.165028
     2  C   -0.706888
     3  C    0.146642
     4  O   -0.566732
     5  C    0.424337
     6  H   -0.164584
     7  H    0.036192
     8  H    0.035384
     9  C    0.768140
    10  H   -0.042432
    11  H   -0.032437
    12  H   -0.075319
    13  C    0.765902
    14  H   -0.189123
    15  H   -0.047905
    16  H   -0.060834
    17  H   -0.036283
    18  H   -0.089035
 Sum of Mulliken charges =   0.00000

 Dipole moment (field-independent basis, Debye):
    X=             -1.2949    Y=              1.0966    Z=             -3.7768  Tot=              4.1405

 Test job not archived.
 1\1\GINC-SE250\SP\RHF\Aug-CC-pVDZ\C5H11N1O1\OHZDE\08-Apr-2025\0\\#t hf
  aug-cc-pvdz iop(5/13=1,5/36=2,99/5=2) pseudo=read geom=check guess=(r
 ead,tcheck) scf=(maxcycle=1)\\title\\0,1\N,0,0.122391,-0.154802,0.4576
 01\C,0,-1.16498,0.04097,-0.209754\C,0,1.326581,0.036761,-0.161079\O,0,
 1.431191,0.378643,-1.326888\C,0,2.550765,-0.208547,0.708287\H,0,2.3177
 05,-0.525449,1.727236\H,0,3.138938,0.71058,0.746289\H,0,3.168051,-0.97
 1134,0.229535\C,0,-1.918085,1.232016,0.394776\H,0,-2.155298,1.053961,1
 .449529\H,0,-2.859898,1.402625,-0.133974\H,0,-1.317826,2.141832,0.3281

 Normal termination of Gaussian 16 at Tue Apr  8 23:02:22 2025.
