 Gaussian 16, Revision C.01,

 ----------------------------------------------------------------------
 #t hf aug-cc-pvdz symm=none int=(grid=ultrafine) guess=(read,tcheck) s
 table=(opt,rrhf)
 ----------------------------------------------------------------------
 -----
 title
 -----
 Symbolic Z-matrix:
 Charge =  0 Multiplicity = 1

 SCF Done:  E(RHF) =  -1063.54965566     A.U. after   13 cycles
 Normal termination of Gaussian 16 at Tue Apr  8 23:42:15 2025.
 Gaussian 16:  ES64L-G16RevC.01  3-Jul-2019

 ----------------------------------------------------------------------
 #t hf aug-cc-pvdz iop(5/13=1,5/36=2,99/5=2) pseudo=read geom=check gue
 ss=(read,tcheck) scf=(maxcycle=1)
 ----------------------------------------------------------------------
 -----
 title
 -----
 Structure from the checkpoint file:  "BDE49_nonexpt_1705_mol1.chk"
 Charge =  0 Multiplicity = 1

                         Standard orientation:
 ---------------------------------------------------------------------
 Center     Atomic      Atomic             Coordinates (Angstroms)
 Number     Number       Type             X           Y           Z
 ---------------------------------------------------------------------
      1          9           0       -2.068603   -0.728808    0.006215
      2         16           0       -1.271139    0.750223   -0.024740
      3         15           0        0.721284    0.088618   -0.019476
      4          8           0        1.522048    1.309537   -0.045921
      5          8           0        0.923278   -0.930064   -1.217176
      6          1           0        0.749131   -1.852294   -0.991129
      7          8           0        0.881155   -0.930626    1.207158
      8          1           0        0.775429   -0.512038    2.070686
 ---------------------------------------------------------------------

 SCF Done:  E(RHF) =  -1063.74801828     A.U. after    2 cycles

 The electronic state is 1-A.
 Alpha  occ. eigenvalues --  -93.64808 -81.46623 -26.15434 -20.65310 -20.64670
 Alpha  occ. eigenvalues --  -20.55878  -8.93830  -7.94814  -6.27985  -6.27576
 Alpha  occ. eigenvalues --   -6.27198  -5.09461  -5.09338  -5.08972  -1.66220
 Alpha  occ. eigenvalues --   -1.41862  -1.37836  -1.29549  -1.00846  -0.87076
 Alpha  occ. eigenvalues --   -0.81468  -0.77180  -0.75641  -0.73732  -0.69374
 Alpha  occ. eigenvalues --   -0.66166  -0.64358  -0.61742  -0.61116  -0.54260
 Alpha  occ. eigenvalues --   -0.52869  -0.48239  -0.42473
 Alpha virt. eigenvalues --    0.02574   0.04053   0.04625   0.07160   0.09178
 Alpha virt. eigenvalues --    0.10355   0.11246   0.12477   0.12958   0.14050
 Alpha virt. eigenvalues --    0.17073   0.17815   0.18700   0.21497   0.22238

 Mulliken charges:
               1
     1  F   -0.628305
     2  S    0.312095
     3  P    2.064106
     4  O   -0.818102
     5  O   -0.609231
     6  H    0.176898
     7  O   -0.678784
     8  H    0.181322
 Sum of Mulliken charges =   0.00000

 Dipole moment (field-independent basis, Debye):
    X=             -0.8492    Y=             -2.1023    Z=              1.8842  Tot=              2.9480

 Test job not archived.
 1\1\GINC-SE453\SP\RHF\Aug-CC-pVDZ\F1H2O3P1S1\OHZDE\08-Apr-2025\0\\#t h
 f aug-cc-pvdz iop(5/13=1,5/36=2,99/5=2) pseudo=read geom=check guess=(
 read,tcheck) scf=(maxcycle=1)\\title\\0,1\F,0,-2.068603,-0.728808,0.00
 6215\S,0,-1.271139,0.750223,-0.02474\P,0,0.721284,0.088618,-0.019476\O
 ,0,1.522048,1.309537,-0.045921\O,0,0.923278,-0.930064,-1.217176\H,0,0.
 749131,-1.852294,-0.991129\O,0,0.881155,-0.930626,1.207158\H,0,0.77542
 9,-0.512038,2.070686\\Version=ES64L-G16RevC.01\State=1-A\HF=-1063.7480
 183\RMSD=4.720e-03\Dipole=-0.3340835,-0.8271076,0.7413053\Quadrupole=-

 Normal termination of Gaussian 16 at Tue Apr  8 23:42:18 2025.
