 Gaussian 16, Revision C.01,

 ----------------------------------------------------------------------
 #t hf aug-cc-pvdz symm=none int=(grid=ultrafine) guess=(read,tcheck) s
 table=(opt,rrhf)
 ----------------------------------------------------------------------
 -----
 title
 -----
 Symbolic Z-matrix:
 Charge =  0 Multiplicity = 1

 SCF Done:  E(RHF) =  -672.716788858     A.U. after   14 cycles
 Normal termination of Gaussian 16 at Tue Apr  8 23:18:49 2025.
 Gaussian 16:  ES64L-G16RevC.01  3-Jul-2019

 ----------------------------------------------------------------------
 #t hf aug-cc-pvdz iop(5/13=1,5/36=2,99/5=2) pseudo=read geom=check gue
 ss=(read,tcheck) scf=(maxcycle=1)
 ----------------------------------------------------------------------
 -----
 title
 -----
 Structure from the checkpoint file:  "BDE49_nonexpt_1116_mol1.chk"
 Charge =  0 Multiplicity = 1

                         Standard orientation:
 ---------------------------------------------------------------------
 Center     Atomic      Atomic             Coordinates (Angstroms)
 Number     Number       Type             X           Y           Z
 ---------------------------------------------------------------------
      1          9           0        1.692285   -0.707261    0.148897
      2          8           0        1.127053    0.484113   -0.438324
      3          6           0        0.001066    0.782835    0.301820
      4         17           0       -1.423077   -0.277610   -0.058525
      5          1           0       -0.251666    1.793781   -0.020740
      6          1           0        0.190585    0.721029    1.371260
 ---------------------------------------------------------------------

 SCF Done:  E(RHF) =  -672.809032079     A.U. after    2 cycles

 The electronic state is 1-A.
 Alpha  occ. eigenvalues -- -103.67245 -26.18482 -20.73486 -11.39775 -10.70555
 Alpha  occ. eigenvalues --   -8.36270  -8.35967  -8.35956  -1.68940  -1.37347
 Alpha  occ. eigenvalues --   -1.16900  -0.94802  -0.79904  -0.79597  -0.76673
 Alpha  occ. eigenvalues --   -0.66875  -0.66406  -0.62408  -0.53169  -0.48353
 Alpha  occ. eigenvalues --   -0.47246
 Alpha virt. eigenvalues --    0.03260   0.04967   0.07272   0.08633   0.09709
 Alpha virt. eigenvalues --    0.12779   0.14858   0.15834   0.16114   0.16605
 Alpha virt. eigenvalues --    0.20129   0.20826   0.22175   0.26268   0.26780

 Mulliken charges:
               1
     1  F   -0.314182
     2  O   -0.137726
     3  C    0.544211
     4  Cl  -0.123871
     5  H   -0.010894
     6  H    0.042461
 Sum of Mulliken charges =  -0.00000

 Dipole moment (field-independent basis, Debye):
    X=             -0.5192    Y=              2.5012    Z=              1.0689  Tot=              2.7691

 Test job not archived.
 1\1\GINC-SE048\SP\RHF\Aug-CC-pVDZ\C1H2Cl1F1O1\OHZDE\08-Apr-2025\0\\#t
 hf aug-cc-pvdz iop(5/13=1,5/36=2,99/5=2) pseudo=read geom=check guess=
 (read,tcheck) scf=(maxcycle=1)\\title\\0,1\F,0,1.692285,-0.707261,0.14
 8897\O,0,1.127053,0.484113,-0.438324\C,0,0.001066,0.782835,0.30182\Cl,
 0,-1.423077,-0.27761,-0.058525\H,0,-0.251666,1.793781,-0.02074\H,0,0.1
 90585,0.721029,1.37126\\Version=ES64L-G16RevC.01\State=1-A\HF=-672.809
 0321\RMSD=3.787e-03\Dipole=-0.2042527,0.9840405,0.420547\Quadrupole=-2
 .9239859,2.1302832,0.7937027,0.4375961,0.4570501,0.5705194\PG=C01 [X(C

 Normal termination of Gaussian 16 at Tue Apr  8 23:18:51 2025.
