 Gaussian 16, Revision C.01,

 ----------------------------------------------------------------------
 #t hf aug-cc-pvdz symm=none int=(grid=ultrafine) guess=(read,tcheck) s
 table=(opt,rrhf)
 ----------------------------------------------------------------------
 -----
 title
 -----
 Symbolic Z-matrix:
 Charge =  0 Multiplicity = 1

 SCF Done:  E(RHF) =  -639.451834655     A.U. after   12 cycles
 Normal termination of Gaussian 16 at Wed Apr  9 00:09:51 2025.
 Gaussian 16:  ES64L-G16RevC.01  3-Jul-2019

 ----------------------------------------------------------------------
 #t hf aug-cc-pvdz iop(5/13=1,5/36=2,99/5=2) pseudo=read geom=check gue
 ss=(read,tcheck) scf=(maxcycle=1)
 ----------------------------------------------------------------------
 -----
 title
 -----
 Structure from the checkpoint file:  "BDE49_nonexpt_2285_mol1.chk"
 Charge =  0 Multiplicity = 1

                         Standard orientation:
 ---------------------------------------------------------------------
 Center     Atomic      Atomic             Coordinates (Angstroms)
 Number     Number       Type             X           Y           Z
 ---------------------------------------------------------------------
      1          8           0       -0.277076   -0.110997    0.413520
      2          6           0       -1.662279   -0.226035    0.032523
      3          6           0       -1.786906   -1.269646   -1.085153
      4          1           0       -1.376459   -2.226326   -0.753989
      5          1           0       -1.241853   -0.951900   -1.977274
      6          6           0       -2.394459   -0.695599    1.292933
      7          1           0       -3.461278   -0.835479    1.097841
      8          1           0       -2.278275    0.039688    2.092402
      9          1           0       -1.974814   -1.642947    1.638140
     10          6           0       -2.206654    1.132544   -0.429115
     11          1           0       -1.687430    1.480570   -1.326650
     12          1           0       -2.083583    1.881251    0.357145
     13          1           0       -3.271113    1.059413   -0.668142
     14          1           0       -2.834362   -1.420022   -1.361475
     15         14           0        1.055633    0.569605   -0.291023
     16          6           0        2.534600   -0.415321    0.314430
     17          6           0        2.491070   -1.916759   -0.016272
     18          1           0        2.612615   -0.272381    1.399266
     19          1           0        3.437116    0.040857   -0.112680
     20          6           0        1.245767    2.379396    0.169140
     21          1           0        1.299124    2.505102    1.254751
     22          1           0        0.411762    2.982637   -0.198944
     23          1           0        2.166230    2.787548   -0.261624
     24          1           0        1.606731   -2.386730    0.420812
     25          1           0        3.371606   -2.440470    0.367639
     26          1           0        2.453775   -2.086643   -1.096614
     27          1           0        0.961130    0.467859   -1.775375
 ---------------------------------------------------------------------

 SCF Done:  E(RHF) =  -639.598447025     A.U. after    2 cycles

 The electronic state is 1-A.
 Alpha  occ. eigenvalues --  -69.06899 -20.54213 -11.30136 -11.22628 -11.22184
 Alpha  occ. eigenvalues --  -11.22143 -11.21946 -11.20896 -11.20685  -6.81713
 Alpha  occ. eigenvalues --   -3.92611  -3.92471  -3.92438  -1.29159  -1.05557
 Alpha  occ. eigenvalues --   -1.00321  -0.93845  -0.93324  -0.92976  -0.83384
 Alpha  occ. eigenvalues --   -0.78264  -0.67231  -0.63640  -0.62836  -0.60809
 Alpha  occ. eigenvalues --   -0.59280  -0.57446  -0.56274  -0.55711  -0.55344
 Alpha  occ. eigenvalues --   -0.54327  -0.52636  -0.51839  -0.51457  -0.51137
 Alpha  occ. eigenvalues --   -0.50223  -0.48538  -0.46033  -0.45009  -0.42147
 Alpha  occ. eigenvalues --   -0.40451
 Alpha virt. eigenvalues --    0.03224   0.04220   0.04286   0.04686   0.05592
 Alpha virt. eigenvalues --    0.05794   0.06037   0.06381   0.06666   0.07938
 Alpha virt. eigenvalues --    0.08073   0.08423   0.08805   0.09262   0.09405

 Mulliken charges:
               1
     1  O   -0.758879
     2  C   -2.799110
     3  C    1.049908
     4  H    0.017730
     5  H   -0.081251
     6  C    1.128436
     7  H    0.042824
     8  H   -0.058958
     9  H   -0.038322
    10  C    1.052564
    11  H   -0.052079
    12  H    0.019813
    13  H   -0.032744
    14  H   -0.008778
    15  Si   1.128591
    16  C    0.191393
    17  C    0.256094
    18  H   -0.190524
    19  H   -0.258083
    20  C    0.417246
    21  H   -0.164656
    22  H   -0.376456
    23  H   -0.268313
    24  H   -0.157690
    25  H   -0.100312
    26  H   -0.116906
    27  H    0.158466
 Sum of Mulliken charges =  -0.00000

 Dipole moment (field-independent basis, Debye):
    X=             -0.6990    Y=              0.3859    Z=             -0.3084  Tot=              0.8559

 Test job not archived.
 1\1\GINC-SE364\SP\RHF\Aug-CC-pVDZ\C7H18O1Si1\OHZDE\09-Apr-2025\0\\#t h
 f aug-cc-pvdz iop(5/13=1,5/36=2,99/5=2) pseudo=read geom=check guess=(
 read,tcheck) scf=(maxcycle=1)\\title\\0,1\O,0,-0.277076,-0.110997,0.41
 352\C,0,-1.662279,-0.226035,0.032523\C,0,-1.786906,-1.269646,-1.085153
 \H,0,-1.376459,-2.226326,-0.753989\H,0,-1.241853,-0.9519,-1.977274\C,0
 ,-2.394459,-0.695599,1.292933\H,0,-3.461278,-0.835479,1.097841\H,0,-2.
 278275,0.039688,2.092402\H,0,-1.974814,-1.642947,1.63814\C,0,-2.206654
 ,1.132544,-0.429115\H,0,-1.68743,1.48057,-1.32665\H,0,-2.083583,1.8812

 Normal termination of Gaussian 16 at Wed Apr  9 00:10:35 2025.
