 Gaussian 16, Revision C.01,

 ----------------------------------------------------------------------
 #t hf aug-cc-pvdz symm=none int=(grid=ultrafine) guess=(read,tcheck) s
 table=(opt,rrhf)
 ----------------------------------------------------------------------
 -----
 title
 -----
 Symbolic Z-matrix:
 Charge =  0 Multiplicity = 1

 SCF Done:  E(RHF) =  -1177.88464232     A.U. after   15 cycles
 Normal termination of Gaussian 16 at Wed Apr  9 00:24:21 2025.
 Gaussian 16:  ES64L-G16RevC.01  3-Jul-2019

 ----------------------------------------------------------------------
 #t hf aug-cc-pvdz iop(5/13=1,5/36=2,99/5=2) pseudo=read geom=check gue
 ss=(read,tcheck) scf=(maxcycle=1)
 ----------------------------------------------------------------------
 -----
 title
 -----
 Structure from the checkpoint file:  "BDE49_nonexpt_2715_mol1.chk"
 Charge =  0 Multiplicity = 1

                         Standard orientation:
 ---------------------------------------------------------------------
 Center     Atomic      Atomic             Coordinates (Angstroms)
 Number     Number       Type             X           Y           Z
 ---------------------------------------------------------------------
      1          6           0        2.117159    0.808478   -0.150292
      2          8           0        1.305684    1.522962   -0.657825
      3         16           0        1.894707   -1.008993    0.038328
      4         16           0        0.024535   -1.292587   -0.793720
      5          6           0       -1.080548   -0.643475    0.522574
      6          8           0       -0.676900   -0.167742    1.542078
      7          6           0        3.420821    1.267688    0.462910
      8          1           0        3.219335    1.581293    1.491316
      9          1           0        3.790174    2.128211   -0.096123
     10          1           0        4.173836    0.478466    0.484091
     11          6           0       -2.544691   -0.764348    0.136170
     12          6           0       -3.300747    0.558814    0.349429
     13          1           0       -2.963390   -1.546987    0.779208
     14          1           0       -2.640715   -1.109129   -0.898119
     15          6           0       -2.866887    1.665471   -0.616076
     16          1           0       -3.142645    0.878597    1.382767
     17          1           0       -4.371389    0.361757    0.236928
     18          1           0       -1.801613    1.890066   -0.517477
     19          1           0       -3.421166    2.587171   -0.422705
     20          1           0       -3.051210    1.378301   -1.655922
 ---------------------------------------------------------------------

 SCF Done:  E(RHF) =  -1178.04403220     A.U. after    2 cycles

 The electronic state is 1-A.
 Alpha  occ. eigenvalues --  -93.57791 -93.57787 -20.58771 -20.58532 -11.38997
 Alpha  occ. eigenvalues --  -11.38474 -11.26665 -11.26432 -11.24542 -11.22583
 Alpha  occ. eigenvalues --   -8.87465  -8.87444  -6.21647  -6.21533  -6.21312
 Alpha  occ. eigenvalues --   -6.21271  -6.20990  -6.20983  -1.38780  -1.38422
 Alpha  occ. eigenvalues --   -1.08490  -1.06475  -1.02484  -0.97262  -0.90621
 Alpha  occ. eigenvalues --   -0.83040  -0.76189  -0.73758  -0.68184  -0.67018
 Alpha  occ. eigenvalues --   -0.66118  -0.63991  -0.63210  -0.61761  -0.60122
 Alpha  occ. eigenvalues --   -0.57672  -0.56632  -0.55731  -0.54028  -0.50834
 Alpha  occ. eigenvalues --   -0.49334  -0.49071  -0.47001  -0.43934  -0.43433
 Alpha  occ. eigenvalues --   -0.39084  -0.37247
 Alpha virt. eigenvalues --    0.03457   0.03666   0.04809   0.05153   0.05811
 Alpha virt. eigenvalues --    0.06078   0.06330   0.07295   0.07673   0.08580
 Alpha virt. eigenvalues --    0.09227   0.09693   0.10467   0.10634   0.11412

 Mulliken charges:
               1
     1  C   -0.080183
     2  O   -0.415490
     3  S    0.092157
     4  S    0.048752
     5  C    0.151703
     6  O   -0.502838
     7  C    0.332396
     8  H    0.096655
     9  H   -0.008686
    10  H   -0.023981
    11  C    0.170701
    12  C    0.281988
    13  H    0.058505
    14  H   -0.100025
    15  C    0.410488
    16  H   -0.104274
    17  H   -0.082792
    18  H   -0.159680
    19  H   -0.079187
    20  H   -0.086209
 Sum of Mulliken charges =  -0.00000

 Dipole moment (field-independent basis, Debye):
    X=              0.1918    Y=             -0.7115    Z=             -0.2294  Tot=              0.7718

 Test job not archived.
 1\1\GINC-SE343\SP\RHF\Aug-CC-pVDZ\C6H10O2S2\OHZDE\09-Apr-2025\0\\#t hf
  aug-cc-pvdz iop(5/13=1,5/36=2,99/5=2) pseudo=read geom=check guess=(r
 ead,tcheck) scf=(maxcycle=1)\\title\\0,1\C,0,2.117159,0.808478,-0.1502
 92\O,0,1.305684,1.522962,-0.657825\S,0,1.894707,-1.008993,0.038328\S,0
 ,0.024535,-1.292587,-0.79372\C,0,-1.080548,-0.643475,0.522574\O,0,-0.6
 769,-0.167742,1.542078\C,0,3.420821,1.267688,0.46291\H,0,3.219335,1.58
 1293,1.491316\H,0,3.790174,2.12821,-0.096123\H,0,4.173836,0.478465,0.4
 84091\C,0,-2.544691,-0.764348,0.13617\C,0,-3.300747,0.558814,0.349429\

 Normal termination of Gaussian 16 at Wed Apr  9 00:24:32 2025.
