 Gaussian 16, Revision C.01,

 ----------------------------------------------------------------------
 #t hf aug-cc-pvdz symm=none int=(grid=ultrafine) guess=(read,tcheck) s
 table=opt
 ----------------------------------------------------------------------
 -----
 title
 -----
 Symbolic Z-matrix:
 Charge =  0 Multiplicity = 2

 SCF Done:  E(UHF) =  -601.872751807     A.U. after   15 cycles
 Normal termination of Gaussian 16 at Tue Apr  8 23:48:25 2025.
 Gaussian 16:  ES64L-G16RevC.01  3-Jul-2019

 ----------------------------------------------------------------------
 #t hf aug-cc-pvdz iop(5/13=1,5/36=2,99/5=2) pseudo=read geom=check gue
 ss=(read,tcheck) scf=(maxcycle=1)
 ----------------------------------------------------------------------
 -----
 title
 -----
 Structure from the checkpoint file:  "BDE49_nonexpt_183_mol2.chk"
 Charge =  0 Multiplicity = 2

                         Standard orientation:
 ---------------------------------------------------------------------
 Center     Atomic      Atomic             Coordinates (Angstroms)
 Number     Number       Type             X           Y           Z
 ---------------------------------------------------------------------
      1         17           0        2.102449   -0.358328   -0.000001
      2          5           0        0.993108    0.991856    0.000002
      3          6           0       -0.558767    0.939440    0.000001
      4          6           0       -1.252995   -0.438323    0.000001
      5          1           0       -0.891349    1.536013    0.863742
      6          6           0       -2.780449   -0.334775   -0.000001
      7          1           0       -0.922148   -1.008446    0.873951
      8          1           0       -0.922147   -1.008447   -0.873949
      9          1           0       -3.141102    0.201976    0.883044
     10          1           0       -3.244707   -1.324829   -0.000001
     11          1           0       -0.891347    1.536012   -0.863742
     12          1           0       -3.141101    0.201976   -0.883046
 ---------------------------------------------------------------------

 SCF Done:  E(UHF) =  -601.934842656     A.U. after    2 cycles

 The electronic state is 2-A.
 Alpha  occ. eigenvalues -- -103.66481 -11.24050 -11.23098 -11.22915 -10.69968
 Alpha  occ. eigenvalues --   -8.35712  -8.35443  -8.35395  -7.68701  -1.16177
 Alpha  occ. eigenvalues --   -1.05625  -0.94059  -0.81951  -0.67030  -0.63809
 Alpha  occ. eigenvalues --   -0.59616  -0.56820  -0.54954  -0.50682  -0.50037
 Alpha  occ. eigenvalues --   -0.49366  -0.48187  -0.47885  -0.33487
 Alpha virt. eigenvalues --    0.03435   0.04463   0.04514   0.04720   0.06352
 Alpha virt. eigenvalues --    0.06598   0.06883   0.07508   0.09078   0.09301
 Alpha virt. eigenvalues --    0.10468   0.10875   0.12543   0.14496   0.14819

  Beta  occ. eigenvalues -- -103.66402 -11.23924 -11.22981 -11.22906 -10.69875
  Beta  occ. eigenvalues --   -8.35566  -8.35408  -8.35202  -7.66717  -1.15314
  Beta  occ. eigenvalues --   -1.05248  -0.93519  -0.81527  -0.64399  -0.63725
  Beta  occ. eigenvalues --   -0.58948  -0.55077  -0.54838  -0.49400  -0.49157
  Beta  occ. eigenvalues --   -0.48766  -0.48161  -0.46768
  Beta virt. eigenvalues --    0.03091   0.04222   0.04626   0.04712   0.06567
  Beta virt. eigenvalues --    0.06781   0.06864   0.07605   0.08804   0.09337
  Beta virt. eigenvalues --    0.10033   0.11633   0.11939   0.14101   0.14613

 Mulliken charges and spin densities:
               1          2
     1  Cl  -0.265474   0.004453
     2  B    0.167378   1.037381
     3  C    0.380221  -0.045270
     4  C   -0.039235   0.043034
     5  H   -0.094193  -0.017197
     6  C    0.393567  -0.002110
     7  H   -0.122526  -0.002441
     8  H   -0.122523  -0.002441
     9  H   -0.065852   0.000225
    10  H   -0.071321   0.001337
    11  H   -0.094191  -0.017197
    12  H   -0.065853   0.000225
 Sum of Mulliken charges =  -0.00000   1.00000

 Dipole moment (field-independent basis, Debye):
    X=             -1.6599    Y=              0.2807    Z=              0.0000  Tot=              1.6835
                          Isotropic Fermi Contact Couplings
        Atom                 a.u.       MegaHertz       Gauss      10(-4) cm-1
     1  Cl(35)             0.08483      37.19602      13.27247      12.40726
     2  B(11)              0.33586     481.74783     171.89960     160.69378
     3  C(13)              0.03311      37.22518      13.28287      12.41698
     4  C(13)              0.02388      26.84611       9.57936       8.95490
     5  H(1)               0.00003       0.14037       0.05009       0.04682
     6  C(13)              0.00170       1.91383       0.68290       0.63838
     7  H(1)              -0.00082      -3.67964      -1.31299      -1.22740
     8  H(1)              -0.00082      -3.67965      -1.31299      -1.22740

 Normal termination of Gaussian 16 at Tue Apr  8 23:48:29 2025.
