 Gaussian 16, Revision C.01,

 ----------------------------------------------------------------------
 #t hf aug-cc-pvdz symm=none int=(grid=ultrafine) guess=(read,tcheck) s
 table=(opt,rrhf)
 ----------------------------------------------------------------------
 -----
 title
 -----
 Symbolic Z-matrix:
 Charge =  0 Multiplicity = 1

 SCF Done:  E(RHF) =  -661.648843952     A.U. after   14 cycles
 Normal termination of Gaussian 16 at Wed Apr  9 00:39:37 2025.
 Gaussian 16:  ES64L-G16RevC.01  3-Jul-2019

 ----------------------------------------------------------------------
 #t hf aug-cc-pvdz iop(5/13=1,5/36=2,99/5=2) pseudo=read geom=check gue
 ss=(read,tcheck) scf=(maxcycle=1)
 ----------------------------------------------------------------------
 -----
 title
 -----
 Structure from the checkpoint file:  "BDE49_nonexpt_677_mol1.chk"
 Charge =  0 Multiplicity = 1

                         Standard orientation:
 ---------------------------------------------------------------------
 Center     Atomic      Atomic             Coordinates (Angstroms)
 Number     Number       Type             X           Y           Z
 ---------------------------------------------------------------------
      1          8           0       -0.709077   -0.653894   -0.446353
      2          5           0       -1.896650    0.006290   -0.068313
      3          8           0       -2.911681   -0.851689    0.182568
      4          8           0       -2.018754    1.351117    0.024762
      5          8           0        0.320069    0.330871   -0.714536
      6          6           0        1.419627   -0.017747    0.038598
      7          9           0        2.337984    0.902215   -0.250856
      8          9           0        1.885089   -1.224474   -0.265171
      9          9           0        1.160293    0.015333    1.350494
     10          1           0       -1.208512    1.819953   -0.200038
     11          1           0       -3.720750   -0.393827    0.428298
 ---------------------------------------------------------------------

 SCF Done:  E(RHF) =  -661.885833313     A.U. after    2 cycles

 The electronic state is 1-A.
 Alpha  occ. eigenvalues --  -26.19633 -26.19192 -26.19040 -20.71394 -20.68531
 Alpha  occ. eigenvalues --  -20.61178 -20.60513 -11.60386  -7.72537  -1.79813
 Alpha  occ. eigenvalues --   -1.72490  -1.71994  -1.50034  -1.37556  -1.34281
 Alpha  occ. eigenvalues --   -1.27639  -1.03436  -0.92367  -0.92138  -0.89215
 Alpha  occ. eigenvalues --   -0.82249  -0.80506  -0.80427  -0.78975  -0.76173
 Alpha  occ. eigenvalues --   -0.75820  -0.74490  -0.74300  -0.72380  -0.68491
 Alpha  occ. eigenvalues --   -0.63417  -0.62210  -0.61073  -0.58663  -0.55700
 Alpha  occ. eigenvalues --   -0.54620
 Alpha virt. eigenvalues --    0.03500   0.04905   0.05748   0.06168   0.07576
 Alpha virt. eigenvalues --    0.08774   0.09621   0.10598   0.11557   0.14409
 Alpha virt. eigenvalues --    0.16303   0.18310   0.18862   0.19876   0.20632

 Mulliken charges:
               1
     1  O   -0.318729
     2  B    0.814416
     3  O   -0.432047
     4  O   -0.358449
     5  O   -0.540494
     6  C    1.194450
     7  F   -0.241757
     8  F   -0.252733
     9  F   -0.272739
    10  H    0.233341
    11  H    0.174740
 Sum of Mulliken charges =  -0.00000

 Dipole moment (field-independent basis, Debye):
    X=             -1.3251    Y=              1.7705    Z=              0.0980  Tot=              2.2137

 Test job not archived.
 1\1\GINC-SE015\SP\RHF\Aug-CC-pVDZ\C1H2B1F3O4\OHZDE\09-Apr-2025\0\\#t h
 f aug-cc-pvdz iop(5/13=1,5/36=2,99/5=2) pseudo=read geom=check guess=(
 read,tcheck) scf=(maxcycle=1)\\title\\0,1\O,0,-0.709077,-0.653894,-0.4
 46353\B,0,-1.89665,0.00629,-0.068313\O,0,-2.911681,-0.851689,0.182568\
 O,0,-2.018754,1.351117,0.024762\O,0,0.320069,0.330871,-0.714536\C,0,1.
 419627,-0.017747,0.038598\F,0,2.337984,0.902215,-0.250856\F,0,1.885089
 ,-1.224474,-0.265171\F,0,1.160293,0.015333,1.350494\H,0,-1.208512,1.81
 9953,-0.200038\H,0,-3.72075,-0.393827,0.428298\\Version=ES64L-G16RevC.

 Normal termination of Gaussian 16 at Wed Apr  9 00:39:42 2025.
