 Gaussian 16, Revision C.01,

 ----------------------------------------------------------------------
 #t hf aug-cc-pvdz symm=none int=(grid=ultrafine) guess=(read,tcheck) s
 table=(opt,rrhf)
 ----------------------------------------------------------------------
 -----
 title
 -----
 Symbolic Z-matrix:
 Charge =  0 Multiplicity = 1

 SCF Done:  E(RHF) =  -719.293949766     A.U. after   16 cycles
 Normal termination of Gaussian 16 at Wed Apr  9 00:52:28 2025.
 Gaussian 16:  ES64L-G16RevC.01  3-Jul-2019

 ----------------------------------------------------------------------
 #t hf aug-cc-pvdz iop(5/13=1,5/36=2,99/5=2) pseudo=read geom=check gue
 ss=(read,tcheck) scf=(maxcycle=1)
 ----------------------------------------------------------------------
 -----
 title
 -----
 Structure from the checkpoint file:  "BDE49_nonexpt_993_mol1.chk"
 Charge =  0 Multiplicity = 1

                         Standard orientation:
 ---------------------------------------------------------------------
 Center     Atomic      Atomic             Coordinates (Angstroms)
 Number     Number       Type             X           Y           Z
 ---------------------------------------------------------------------
      1          6           0       -1.249228    0.189319   -0.279980
      2         16           0        0.113513   -0.905827    0.300350
      3          7           0        1.583135    0.099593   -0.111057
      4          8           0        1.427530    1.166828   -0.668235
      5          8           0        2.631214   -0.414725    0.212897
      6          6           0       -2.479892   -0.711794   -0.448483
      7          1           0       -2.784335   -1.160850    0.501175
      8          1           0       -2.302710   -1.512240   -1.169211
      9          6           0       -1.495304    1.360493    0.668887
     10          1           0       -0.922032    0.554460   -1.255045
     11          1           0       -2.296824    1.991877    0.271979
     12          1           0       -0.602918    1.977412    0.773232
     13          1           0       -1.796643    1.006981    1.658217
     14          1           0       -3.316097   -0.106489   -0.808381
 ---------------------------------------------------------------------

 SCF Done:  E(RHF) =  -719.415612047     A.U. after    2 cycles

 The electronic state is 1-A.
 Alpha  occ. eigenvalues --  -93.60827 -20.63099 -20.63028 -15.93465 -11.30818
 Alpha  occ. eigenvalues --  -11.26361 -11.25003  -8.90267  -6.24441  -6.24067
 Alpha  occ. eigenvalues --   -6.23728  -1.56267  -1.38581  -1.12206  -1.02458
 Alpha  occ. eigenvalues --   -0.96179  -0.87562  -0.81052  -0.75170  -0.74853
 Alpha  occ. eigenvalues --   -0.73601  -0.65048  -0.61939  -0.59789  -0.57078
 Alpha  occ. eigenvalues --   -0.54134  -0.52558  -0.52136  -0.48841  -0.48294
 Alpha  occ. eigenvalues --   -0.46926  -0.40318
 Alpha virt. eigenvalues --    0.02763   0.04223   0.04502   0.05556   0.06829
 Alpha virt. eigenvalues --    0.06975   0.07096   0.08164   0.08762   0.08878
 Alpha virt. eigenvalues --    0.12226   0.12521   0.13421   0.14813   0.15127

 Mulliken charges:
               1
     1  C   -0.863295
     2  S    0.855956
     3  N    0.250976
     4  O   -0.513417
     5  O   -0.521140
     6  C    0.675782
     7  H   -0.028279
     8  H   -0.080153
     9  C    0.417630
    10  H   -0.054763
    11  H   -0.030736
    12  H   -0.084608
    13  H   -0.012120
    14  H   -0.011831
 Sum of Mulliken charges =   0.00000

 Dipole moment (field-independent basis, Debye):
    X=             -5.0147    Y=             -0.4331    Z=              0.0243  Tot=              5.0335

 Test job not archived.
 1\1\GINC-SE187\SP\RHF\Aug-CC-pVDZ\C3H7N1O2S1\OHZDE\09-Apr-2025\0\\#t h
 f aug-cc-pvdz iop(5/13=1,5/36=2,99/5=2) pseudo=read geom=check guess=(
 read,tcheck) scf=(maxcycle=1)\\title\\0,1\C,0,-1.249228,0.189319,-0.27
 998\S,0,0.113513,-0.905827,0.30035\N,0,1.583135,0.099593,-0.111057\O,0
 ,1.42753,1.166828,-0.668235\O,0,2.631214,-0.414724,0.212897\C,0,-2.479
 892,-0.711795,-0.448483\H,0,-2.784335,-1.160851,0.501175\H,0,-2.30271,
 -1.512241,-1.169211\C,0,-1.495304,1.360493,0.668887\H,0,-0.922032,0.55
 446,-1.255045\H,0,-2.296825,1.991876,0.271979\H,0,-0.602919,1.977412,0

 Normal termination of Gaussian 16 at Wed Apr  9 00:52:34 2025.
