 Gaussian 16, Revision C.01,

 ----------------------------------------------------------------------
 #t hf aug-cc-pvdz symm=none int=(grid=ultrafine) guess=(read,tcheck) s
 table=(opt,rrhf)
 ----------------------------------------------------------------------
 -----
 title
 -----
 Symbolic Z-matrix:
 Charge =  0 Multiplicity = 1

 SCF Done:  E(RHF) =  -215.949053873     A.U. after   12 cycles
 Normal termination of Gaussian 16 at Tue Apr  8 22:42:26 2025.
 Gaussian 16:  ES64L-G16RevC.01  3-Jul-2019

 ----------------------------------------------------------------------
 #t hf aug-cc-pvdz iop(5/13=1,5/36=2,99/5=2) pseudo=read geom=check gue
 ss=(read,tcheck) scf=(maxcycle=1)
 ----------------------------------------------------------------------
 -----
 title
 -----
 Structure from the checkpoint file:  "BDE49_expt_147_mol1.chk"
 Charge =  0 Multiplicity = 1

                         Standard orientation:
 ---------------------------------------------------------------------
 Center     Atomic      Atomic             Coordinates (Angstroms)
 Number     Number       Type             X           Y           Z
 ---------------------------------------------------------------------
      1          6           0       -1.492249   -0.497688   -0.000002
      2          6           0       -0.744745    0.598724   -0.000001
      3          1           0       -1.039599   -1.481776   -0.000002
      4          1           0       -2.574135   -0.442373   -0.000004
      5          6           0        0.751041    0.606643    0.000001
      6          1           0       -1.202987    1.585741   -0.000001
      7          1           0        1.135609    1.122898   -0.887902
      8          9           0        1.273470   -0.683718    0.000001
      9          1           0        1.135606    1.122897    0.887906
 ---------------------------------------------------------------------

 SCF Done:  E(RHF) =  -216.022668859     A.U. after    2 cycles

 The electronic state is 1-A.
 Alpha  occ. eigenvalues --  -26.10597 -11.33049 -11.25485 -11.24095  -1.63761
 Alpha  occ. eigenvalues --   -1.07338  -0.95527  -0.79205  -0.74770  -0.74495
 Alpha  occ. eigenvalues --   -0.69737  -0.62628  -0.57052  -0.56717  -0.51157
 Alpha  occ. eigenvalues --   -0.37714
 Alpha virt. eigenvalues --    0.03354   0.04689   0.05339   0.05544   0.06904
 Alpha virt. eigenvalues --    0.10593   0.10840   0.12108   0.13798   0.14140
 Alpha virt. eigenvalues --    0.15473   0.16185   0.17173   0.17941   0.19653

 Mulliken charges:
               1
     1  C    0.453773
     2  C    0.172199
     3  H   -0.249277
     4  H   -0.275366
     5  C    0.686784
     6  H   -0.338215
     7  H   -0.028821
     8  F   -0.392258
     9  H   -0.028820
 Sum of Mulliken charges =  -0.00000

 Dipole moment (field-independent basis, Debye):
    X=             -0.8301    Y=              2.0404    Z=             -0.0000  Tot=              2.2027

 Test job not archived.
 1\1\GINC-SE334\SP\RHF\Aug-CC-pVDZ\C3H5F1\OHZDE\08-Apr-2025\0\\#t hf au
 g-cc-pvdz iop(5/13=1,5/36=2,99/5=2) pseudo=read geom=check guess=(read
 ,tcheck) scf=(maxcycle=1)\\title\\0,1\C,0,-1.492249,-0.497688,-0.00000
 2\C,0,-0.744745,0.598724,-0.000001\H,0,-1.039599,-1.481776,-0.000002\H
 ,0,-2.574135,-0.442373,-0.000004\C,0,0.751041,0.606643,0.000001\H,0,-1
 .202987,1.585741,-0.000001\H,0,1.135609,1.122898,-0.887902\F,0,1.27347
 ,-0.683718,0.000001\H,0,1.135606,1.122897,0.887906\\Version=ES64L-G16R
 evC.01\State=1-A\HF=-216.0226689\RMSD=6.315e-03\Dipole=-0.3265671,0.80

 Normal termination of Gaussian 16 at Tue Apr  8 22:42:28 2025.
