 Gaussian 16, Revision C.01,

 ----------------------------------------------------------------------
 #t hf aug-cc-pvdz symm=none int=(grid=ultrafine) guess=(read,tcheck) s
 table=(opt,rrhf)
 ----------------------------------------------------------------------
 -----
 title
 -----
 Symbolic Z-matrix:
 Charge =  0 Multiplicity = 1

 SCF Done:  E(RHF) =  -691.101124833     A.U. after   12 cycles
 Normal termination of Gaussian 16 at Tue Apr  8 22:39:46 2025.
 Gaussian 16:  ES64L-G16RevC.01  3-Jul-2019

 ----------------------------------------------------------------------
 #t hf aug-cc-pvdz iop(5/13=1,5/36=2,99/5=2) pseudo=read geom=check gue
 ss=(read,tcheck) scf=(maxcycle=1)
 ----------------------------------------------------------------------
 -----
 title
 -----
 Structure from the checkpoint file:  "BDE49_expt_1364_mol1.chk"
 Charge =  0 Multiplicity = 1

                         Standard orientation:
 ---------------------------------------------------------------------
 Center     Atomic      Atomic             Coordinates (Angstroms)
 Number     Number       Type             X           Y           Z
 ---------------------------------------------------------------------
      1          6           0       -2.244142   -0.559640    0.000001
      2          8           0       -1.108759    0.298191    0.000001
      3          6           0        0.121897   -0.397822   -0.000000
      4          6           0        1.212568    0.659471   -0.000000
      5          6           0       -3.493414    0.301285    0.000002
      6          1           0        0.215589   -1.037585   -0.888901
      7          1           0        0.215590   -1.037586    0.888900
      8         17           0        2.847657   -0.119422   -0.000002
      9          1           0        1.154039    1.282518    0.889792
     10          1           0        1.154039    1.282518   -0.889792
     11          1           0       -2.219315   -1.210069    0.887174
     12          1           0       -2.219316   -1.210069   -0.887172
     13          1           0       -3.516649    0.940346    0.885382
     14          1           0       -4.388882   -0.325546    0.000003
     15          1           0       -3.516651    0.940346   -0.885377
 ---------------------------------------------------------------------

 SCF Done:  E(RHF) =  -691.195105147     A.U. after    2 cycles

 The electronic state is 1-A.
 Alpha  occ. eigenvalues -- -103.65008 -20.58191 -11.30473 -11.30292 -11.29579
 Alpha  occ. eigenvalues --  -11.23242 -10.68271  -8.33992  -8.33709  -8.33698
 Alpha  occ. eigenvalues --   -1.34651  -1.16145  -1.04165  -0.97147  -0.84929
 Alpha  occ. eigenvalues --   -0.84341  -0.70356  -0.68617  -0.63997  -0.63100
 Alpha  occ. eigenvalues --   -0.57123  -0.55917  -0.54481  -0.52416  -0.51088
 Alpha  occ. eigenvalues --   -0.49867  -0.44765  -0.44762  -0.44602
 Alpha virt. eigenvalues --    0.03395   0.04544   0.04684   0.04892   0.06396
 Alpha virt. eigenvalues --    0.06644   0.07225   0.07477   0.09629   0.09954
 Alpha virt. eigenvalues --    0.11164   0.13156   0.14058   0.15281   0.15392

 Mulliken charges:
               1
     1  C    0.470991
     2  O   -0.641221
     3  C    0.526577
     4  C    0.125076
     5  C    0.271355
     6  H   -0.098889
     7  H   -0.098890
     8  Cl  -0.137140
     9  H   -0.009181
    10  H   -0.009180
    11  H   -0.131307
    12  H   -0.131307
    13  H   -0.047474
    14  H   -0.041935
    15  H   -0.047476
 Sum of Mulliken charges =  -0.00000

 Dipole moment (field-independent basis, Debye):
    X=             -2.3991    Y=             -0.5398    Z=              0.0000  Tot=              2.4591

 Test job not archived.
 1\1\GINC-SE072\SP\RHF\Aug-CC-pVDZ\C4H9Cl1O1\OHZDE\08-Apr-2025\0\\#t hf
  aug-cc-pvdz iop(5/13=1,5/36=2,99/5=2) pseudo=read geom=check guess=(r
 ead,tcheck) scf=(maxcycle=1)\\title\\0,1\C,0,-2.244142,-0.55964,0.0000
 01\O,0,-1.108759,0.298191,0.000001\C,0,0.121897,-0.397822,0.\C,0,1.212
 568,0.659471,0.\C,0,-3.493414,0.301285,0.000002\H,0,0.215589,-1.037585
 ,-0.888901\H,0,0.21559,-1.037586,0.8889\Cl,0,2.847657,-0.119422,-0.000
 002\H,0,1.154039,1.282518,0.889792\H,0,1.154039,1.282518,-0.889792\H,0
 ,-2.219315,-1.210069,0.887174\H,0,-2.219316,-1.210069,-0.887172\H,0,-3

 Normal termination of Gaussian 16 at Tue Apr  8 22:39:51 2025.
