 Gaussian 16, Revision C.01,

 ----------------------------------------------------------------------
 #t hf aug-cc-pvdz symm=none int=(grid=ultrafine) guess=(read,tcheck) s
 table=(opt,rrhf)
 ----------------------------------------------------------------------
 -----
 title
 -----
 Symbolic Z-matrix:
 Charge =  0 Multiplicity = 1

 SCF Done:  E(RHF) =  -421.775422927     A.U. after   15 cycles
 Normal termination of Gaussian 16 at Tue Apr  8 23:20:21 2025.
 Gaussian 16:  ES64L-G16RevC.01  3-Jul-2019

 ----------------------------------------------------------------------
 #t hf aug-cc-pvdz iop(5/13=1,5/36=2,99/5=2) pseudo=read geom=check gue
 ss=(read,tcheck) scf=(maxcycle=1)
 ----------------------------------------------------------------------
 -----
 title
 -----
 Structure from the checkpoint file:  "BDE49_nonexpt_1141_mol1.chk"
 Charge =  0 Multiplicity = 1

                         Standard orientation:
 ---------------------------------------------------------------------
 Center     Atomic      Atomic             Coordinates (Angstroms)
 Number     Number       Type             X           Y           Z
 ---------------------------------------------------------------------
      1          9           0        2.378701   -0.585341    0.329998
      2          8           0        0.920709   -0.553335    0.625236
      3          6           0        0.292528    0.044685   -0.531304
      4          8           0        0.769723    1.332619   -0.732685
      5          7           0       -1.077869    0.056753   -0.218513
      6          6           0       -1.551765    0.951829    0.833570
      7          1           0       -0.902271    1.823027    0.875886
      8          1           0       -1.573811    0.470215    1.819445
      9          1           0       -2.564542    1.283694    0.586962
     10          6           0       -1.821811   -1.181068   -0.387150
     11          1           0       -1.432397   -1.730514   -1.246396
     12          1           0       -2.871612   -0.944382   -0.582786
     13          1           0       -1.774760   -1.836419    0.492961
     14          1           0        0.490345   -0.611552   -1.386917
     15          1           0        1.728655    1.289786   -0.630645
 ---------------------------------------------------------------------

 SCF Done:  E(RHF) =  -421.913962823     A.U. after    2 cycles

 The electronic state is 1-A.
 Alpha  occ. eigenvalues --  -26.15398 -20.70397 -20.60078 -15.63870 -11.40559
 Alpha  occ. eigenvalues --  -11.27609 -11.26619  -1.64951  -1.39611  -1.30381
 Alpha  occ. eigenvalues --   -1.20387  -0.97227  -0.95965  -0.82826  -0.78245
 Alpha  occ. eigenvalues --   -0.76980  -0.74052  -0.72285  -0.67608  -0.64989
 Alpha  occ. eigenvalues --   -0.62894  -0.60781  -0.60084  -0.56060  -0.55211
 Alpha  occ. eigenvalues --   -0.54502  -0.53572  -0.50608  -0.37844
 Alpha virt. eigenvalues --    0.03359   0.04262   0.04473   0.05337   0.06562
 Alpha virt. eigenvalues --    0.07250   0.07829   0.08949   0.09570   0.11517
 Alpha virt. eigenvalues --    0.11993   0.14427   0.14819   0.15598   0.15919

 Mulliken charges:
               1
     1  F   -0.428406
     2  O   -0.214318
     3  C    1.370259
     4  O   -0.617587
     5  N   -0.658818
     6  C    0.699922
     7  H   -0.162488
     8  H   -0.019631
     9  H   -0.181229
    10  C    0.662428
    11  H   -0.181426
    12  H   -0.159363
    13  H   -0.038754
    14  H   -0.277351
    15  H    0.206763
 Sum of Mulliken charges =  -0.00000

 Dipole moment (field-independent basis, Debye):
    X=             -2.0943    Y=             -0.4164    Z=             -0.6807  Tot=              2.2412

 Test job not archived.
 1\1\GINC-SE096\SP\RHF\Aug-CC-pVDZ\C3H8F1N1O2\OHZDE\08-Apr-2025\0\\#t h
 f aug-cc-pvdz iop(5/13=1,5/36=2,99/5=2) pseudo=read geom=check guess=(
 read,tcheck) scf=(maxcycle=1)\\title\\0,1\F,0,2.378701,-0.585341,0.329
 998\O,0,0.920709,-0.553335,0.625236\C,0,0.292528,0.044685,-0.531304\O,
 0,0.769723,1.332619,-0.732685\N,0,-1.077869,0.056753,-0.218513\C,0,-1.
 551765,0.951829,0.83357\H,0,-0.902271,1.823027,0.875886\H,0,-1.573811,
 0.470215,1.819445\H,0,-2.564542,1.283694,0.586962\C,0,-1.821811,-1.181
 068,-0.38715\H,0,-1.432397,-1.730514,-1.246396\H,0,-2.871612,-0.944382

 Normal termination of Gaussian 16 at Tue Apr  8 23:20:26 2025.
