 Gaussian 16, Revision C.01,

 ----------------------------------------------------------------------
 #t hf aug-cc-pvdz symm=none int=(grid=ultrafine) guess=(read,tcheck) s
 table=(opt,rrhf)
 ----------------------------------------------------------------------
 -----
 title
 -----
 Symbolic Z-matrix:
 Charge =  0 Multiplicity = 1

 SCF Done:  E(RHF) =  -716.843807647     A.U. after   14 cycles
 Normal termination of Gaussian 16 at Tue Apr  8 23:38:10 2025.
 Gaussian 16:  ES64L-G16RevC.01  3-Jul-2019

 ----------------------------------------------------------------------
 #t hf aug-cc-pvdz iop(5/13=1,5/36=2,99/5=2) pseudo=read geom=check gue
 ss=(read,tcheck) scf=(maxcycle=1)
 ----------------------------------------------------------------------
 -----
 title
 -----
 Structure from the checkpoint file:  "BDE49_nonexpt_1603_mol1.chk"
 Charge =  0 Multiplicity = 1

                         Standard orientation:
 ---------------------------------------------------------------------
 Center     Atomic      Atomic             Coordinates (Angstroms)
 Number     Number       Type             X           Y           Z
 ---------------------------------------------------------------------
      1          8           0        0.921110   -0.771256   -0.463597
      2         15           0       -0.363972    0.041487    0.121439
      3          8           0       -0.263949    0.380946    1.540306
      4          8           0       -1.499315   -0.963556   -0.347507
      5          8           0        2.112966    0.011325   -0.153292
      6          1           0        2.268886   -0.252122    0.768136
      7          8           0       -0.592856    1.247420   -0.879669
      8          1           0       -0.618832    2.094375   -0.419913
      9          1           0       -1.614122   -1.703592    0.260261
 ---------------------------------------------------------------------

 SCF Done:  E(RHF) =  -717.041496442     A.U. after    2 cycles

 The electronic state is 1-A.
 Alpha  occ. eigenvalues --  -81.46623 -20.68095 -20.67346 -20.63787 -20.63529
 Alpha  occ. eigenvalues --  -20.54961  -7.94588  -5.09283  -5.09187  -5.09115
 Alpha  occ. eigenvalues --   -1.46390  -1.40308  -1.37291  -1.28624  -1.22745
 Alpha  occ. eigenvalues --   -0.88022  -0.79022  -0.77292  -0.73251  -0.70237
 Alpha  occ. eigenvalues --   -0.68324  -0.66509  -0.61135  -0.60267  -0.59548
 Alpha  occ. eigenvalues --   -0.56307  -0.54357  -0.51434  -0.51124
 Alpha virt. eigenvalues --    0.03016   0.04390   0.05045   0.08843   0.09687
 Alpha virt. eigenvalues --    0.10371   0.12664   0.15027   0.17257   0.17574
 Alpha virt. eigenvalues --    0.18341   0.18661   0.21790   0.22369   0.23665

 Mulliken charges:
               1
     1  O   -0.615823
     2  P    2.445092
     3  O   -0.844735
     4  O   -0.641608
     5  O   -0.243677
     6  H    0.236110
     7  O   -0.650800
     8  H    0.155291
     9  H    0.160150
 Sum of Mulliken charges =  -0.00000

 Dipole moment (field-independent basis, Debye):
    X=             -0.3215    Y=             -0.3857    Z=              0.7625  Tot=              0.9130

 Test job not archived.
 1\1\GINC-SE250\SP\RHF\Aug-CC-pVDZ\H3O5P1\OHZDE\08-Apr-2025\0\\#t hf au
 g-cc-pvdz iop(5/13=1,5/36=2,99/5=2) pseudo=read geom=check guess=(read
 ,tcheck) scf=(maxcycle=1)\\title\\0,1\O,0,0.92111,-0.771256,-0.463597\
 P,0,-0.363972,0.041487,0.121439\O,0,-0.263949,0.380946,1.540306\O,0,-1
 .499315,-0.963556,-0.347507\O,0,2.112966,0.011325,-0.153292\H,0,2.2688
 86,-0.252122,0.768136\O,0,-0.592856,1.24742,-0.879669\H,0,-0.618832,2.
 094375,-0.419913\H,0,-1.614122,-1.703592,0.260261\\Version=ES64L-G16Re
 vC.01\State=1-A\HF=-717.0414964\RMSD=3.929e-03\Dipole=-0.1264862,-0.15

 Normal termination of Gaussian 16 at Tue Apr  8 23:38:13 2025.
