 Gaussian 16, Revision C.01,

 ----------------------------------------------------------------------
 #t hf aug-cc-pvdz symm=none int=(grid=ultrafine) guess=(read,tcheck) s
 table=(opt,rrhf)
 ----------------------------------------------------------------------
 -----
 title
 -----
 Symbolic Z-matrix:
 Charge =  0 Multiplicity = 1

 SCF Done:  E(RHF) =  -547.141884624     A.U. after   13 cycles
 Normal termination of Gaussian 16 at Tue Apr  8 23:36:50 2025.
 Gaussian 16:  ES64L-G16RevC.01  3-Jul-2019

 ----------------------------------------------------------------------
 #t hf aug-cc-pvdz iop(5/13=1,5/36=2,99/5=2) pseudo=read geom=check gue
 ss=(read,tcheck) scf=(maxcycle=1)
 ----------------------------------------------------------------------
 -----
 title
 -----
 Structure from the checkpoint file:  "BDE49_nonexpt_1561_mol1.chk"
 Charge =  0 Multiplicity = 1

                         Standard orientation:
 ---------------------------------------------------------------------
 Center     Atomic      Atomic             Coordinates (Angstroms)
 Number     Number       Type             X           Y           Z
 ---------------------------------------------------------------------
      1         15           0       -1.295282   -0.121445   -0.017726
      2          7           0        0.423679    0.014121   -0.417292
      3          8           0        1.027600   -1.134136    0.200670
      4          8           0        0.980783    1.166756    0.205788
      5          1           0        1.643230    1.462452   -0.431290
      6          1           0        1.612691   -1.468776   -0.489033
      7          1           0       -1.620479    1.174366   -0.488468
      8          1           0       -1.239020    0.293827    1.344063
 ---------------------------------------------------------------------

 SCF Done:  E(RHF) =  -547.230707084     A.U. after    2 cycles

 The electronic state is 1-A.
 Alpha  occ. eigenvalues --  -81.28708 -20.62158 -20.62157 -15.74396  -7.78836
 Alpha  occ. eigenvalues --   -4.92931  -4.92657  -4.92420  -1.41621  -1.31787
 Alpha  occ. eigenvalues --   -1.02247  -0.79065  -0.73268  -0.72644  -0.64723
 Alpha  occ. eigenvalues --   -0.62526  -0.53330  -0.52503  -0.50686  -0.42065
 Alpha  occ. eigenvalues --   -0.37486
 Alpha virt. eigenvalues --    0.03284   0.04678   0.05286   0.07481   0.08792
 Alpha virt. eigenvalues --    0.10303   0.11140   0.13915   0.16270   0.18007
 Alpha virt. eigenvalues --    0.18617   0.18810   0.19672   0.21231   0.22376

 Mulliken charges:
               1
     1  P    0.463444
     2  N   -0.222364
     3  O   -0.391099
     4  O   -0.392374
     5  H    0.200196
     6  H    0.197997
     7  H    0.049045
     8  H    0.095156
 Sum of Mulliken charges =  -0.00000

 Dipole moment (field-independent basis, Debye):
    X=              0.8695    Y=              0.5055    Z=             -1.7786  Tot=              2.0433

 Test job not archived.
 1\1\GINC-SE026\SP\RHF\Aug-CC-pVDZ\H4N1O2P1\OHZDE\08-Apr-2025\0\\#t hf
 aug-cc-pvdz iop(5/13=1,5/36=2,99/5=2) pseudo=read geom=check guess=(re
 ad,tcheck) scf=(maxcycle=1)\\title\\0,1\P,0,-1.295282,-0.121445,-0.017
 726\N,0,0.423679,0.014121,-0.417292\O,0,1.0276,-1.134136,0.20067\O,0,0
 .980783,1.166756,0.205788\H,0,1.64323,1.462452,-0.43129\H,0,1.612691,-
 1.468776,-0.489033\H,0,-1.620479,1.174366,-0.488468\H,0,-1.23902,0.293
 827,1.344063\\Version=ES64L-G16RevC.01\State=1-A\HF=-547.2307071\RMSD=
 8.296e-03\Dipole=0.3420686,0.1988759,-0.6997666\Quadrupole=2.5734557,-

 Normal termination of Gaussian 16 at Tue Apr  8 23:36:53 2025.
