 Gaussian 16, Revision C.01,

 ----------------------------------------------------------------------
 #t hf aug-cc-pvdz symm=none int=(grid=ultrafine) guess=(read,tcheck) s
 table=(opt,rrhf)
 ----------------------------------------------------------------------
 -----
 title
 -----
 Symbolic Z-matrix:
 Charge =  0 Multiplicity = 1

 SCF Done:  E(RHF) =  -453.877611261     A.U. after   14 cycles
 Normal termination of Gaussian 16 at Wed Apr  9 00:33:27 2025.
 Gaussian 16:  ES64L-G16RevC.01  3-Jul-2019

 ----------------------------------------------------------------------
 #t hf aug-cc-pvdz iop(5/13=1,5/36=2,99/5=2) pseudo=read geom=check gue
 ss=(read,tcheck) scf=(maxcycle=1)
 ----------------------------------------------------------------------
 -----
 title
 -----
 Structure from the checkpoint file:  "BDE49_nonexpt_430_mol1.chk"
 Charge =  0 Multiplicity = 1

                         Standard orientation:
 ---------------------------------------------------------------------
 Center     Atomic      Atomic             Coordinates (Angstroms)
 Number     Number       Type             X           Y           Z
 ---------------------------------------------------------------------
      1          9           0       -2.434884    1.129729   -0.000264
      2          9           0       -2.434884   -1.129729   -0.000265
      3          5           0       -1.731250    0.000000    0.000331
      4          6           0       -0.189596    0.000000    0.000192
      5          6           0        0.527606   -1.207864    0.000133
      6          1           0       -0.013593   -2.147488    0.000178
      7          6           0        1.918211   -1.209309    0.000026
      8          1           0        2.461641   -2.147328   -0.000016
      9          6           0        2.613048    0.000000   -0.000029
     10          6           0        0.527606    1.207864    0.000134
     11          1           0       -0.013593    2.147488    0.000179
     12          6           0        1.918211    1.209309    0.000026
     13          1           0        2.461641    2.147328   -0.000015
     14          1           0        3.697542    0.000000   -0.000114
 ---------------------------------------------------------------------

 SCF Done:  E(RHF) =  -454.034066762     A.U. after    2 cycles

 The electronic state is 1-A.
 Alpha  occ. eigenvalues --  -26.13246 -26.13237 -11.26760 -11.26598 -11.26596
 Alpha  occ. eigenvalues --  -11.25689 -11.25685 -11.24173  -7.73199  -1.68482
 Alpha  occ. eigenvalues --   -1.66211  -1.15636  -1.02726  -1.02562  -0.87781
 Alpha  occ. eigenvalues --   -0.84657  -0.84267  -0.80765  -0.77690  -0.76278
 Alpha  occ. eigenvalues --   -0.71631  -0.71323  -0.71013  -0.65298  -0.63916
 Alpha  occ. eigenvalues --   -0.60612  -0.58950  -0.52060  -0.51019  -0.50342
 Alpha  occ. eigenvalues --   -0.36178  -0.35438
 Alpha virt. eigenvalues --    0.03022   0.03971   0.04274   0.05669   0.05926
 Alpha virt. eigenvalues --    0.05973   0.06439   0.07226   0.08720   0.08736
 Alpha virt. eigenvalues --    0.09602   0.12504   0.13606   0.14023   0.14039

 Mulliken charges:
               1
     1  F   -0.527966
     2  F   -0.527966
     3  B    0.928269
     4  C    0.411254
     5  C    0.368511
     6  H   -0.579985
     7  C    0.455839
     8  H   -0.431057
     9  C    0.520274
    10  C    0.368511
    11  H   -0.579985
    12  C    0.455839
    13  H   -0.431057
    14  H   -0.430480
 Sum of Mulliken charges =  -0.00000

 Dipole moment (field-independent basis, Debye):
    X=              2.9245    Y=              0.0000    Z=              0.0021  Tot=              2.9245

 Test job not archived.
 1\1\GINC-SE039\SP\RHF\Aug-CC-pVDZ\C6H5B1F2\OHZDE\09-Apr-2025\0\\#t hf
 aug-cc-pvdz iop(5/13=1,5/36=2,99/5=2) pseudo=read geom=check guess=(re
 ad,tcheck) scf=(maxcycle=1)\\title\\0,1\F,0,-2.434884,-1.129729,0.0002
 64\F,0,-2.434884,1.129729,0.000265\B,0,-1.73125,0.,-0.000331\C,0,-0.18
 9596,0.,-0.000192\C,0,0.527606,1.207864,-0.000133\H,0,-0.013593,2.1474
 88,-0.000178\C,0,1.918211,1.209309,-0.000026\H,0,2.461641,2.147328,0.0
 00016\C,0,2.613048,0.,0.000029\C,0,0.527606,-1.207864,-0.000134\H,0,-0
 .013593,-2.147488,-0.000179\C,0,1.918211,-1.209309,-0.000026\H,0,2.461

 Normal termination of Gaussian 16 at Wed Apr  9 00:33:35 2025.
