 Gaussian 16, Revision C.01,

 ----------------------------------------------------------------------
 #t hf aug-cc-pvdz symm=none int=(grid=ultrafine) guess=(read,tcheck) s
 table=opt
 ----------------------------------------------------------------------
 -----
 title
 -----
 Symbolic Z-matrix:
 Charge =  0 Multiplicity = 2

 SCF Done:  E(UHF) =  -458.432945110     A.U. after   19 cycles
 Normal termination of Gaussian 16 at Tue Apr  8 23:45:16 2025.
 Gaussian 16:  ES64L-G16RevC.01  3-Jul-2019

 ----------------------------------------------------------------------
 #t hf aug-cc-pvdz iop(5/13=1,5/36=2,99/5=2) pseudo=read geom=check gue
 ss=(read,tcheck) scf=(maxcycle=1)
 ----------------------------------------------------------------------
 -----
 title
 -----
 Structure from the checkpoint file:  "BDE49_nonexpt_1781_mol2.chk"
 Charge =  0 Multiplicity = 2

                         Standard orientation:
 ---------------------------------------------------------------------
 Center     Atomic      Atomic             Coordinates (Angstroms)
 Number     Number       Type             X           Y           Z
 ---------------------------------------------------------------------
      1         14           0        1.385941   -0.094667   -0.090975
      2          6           0       -0.519815    0.147574    0.003216
      3          7           0       -1.310861   -0.967223   -0.015697
      4          1           0       -0.928737   -1.889648    0.111239
      5          1           0       -2.311169   -0.844391    0.065456
      6          8           0       -0.971775    1.280066    0.018522
      7          1           0        1.852735   -1.370448    0.519702
      8          1           0        2.053110    1.074417    0.519658
 ---------------------------------------------------------------------

 SCF Done:  E(UHF) =  -458.505823900     A.U. after    2 cycles

 The electronic state is 2-A.
 Alpha  occ. eigenvalues --  -69.09178 -20.55049 -15.65959 -11.36326  -6.84600
 Alpha  occ. eigenvalues --   -3.95951  -3.95056  -3.95033  -1.35341  -1.18256
 Alpha  occ. eigenvalues --   -0.83827  -0.75974  -0.69861  -0.65691  -0.58876
 Alpha  occ. eigenvalues --   -0.57449  -0.50289  -0.43362  -0.42324  -0.34068
 Alpha virt. eigenvalues --    0.02787   0.04456   0.05439   0.06196   0.06467
 Alpha virt. eigenvalues --    0.07777   0.08995   0.10657   0.13141   0.13717
 Alpha virt. eigenvalues --    0.13746   0.15914   0.16086   0.17322   0.17551

  Beta  occ. eigenvalues --  -69.08595 -20.54750 -15.65945 -11.36416  -6.83732
  Beta  occ. eigenvalues --   -3.94646  -3.94618  -3.93720  -1.34809  -1.18097
  Beta  occ. eigenvalues --   -0.83037  -0.75089  -0.68433  -0.64238  -0.58260
  Beta  occ. eigenvalues --   -0.56230  -0.49552  -0.42083  -0.41523
  Beta virt. eigenvalues --    0.01783   0.02869   0.04749   0.05514   0.06734
  Beta virt. eigenvalues --    0.07507   0.08176   0.09349   0.11622   0.13317
  Beta virt. eigenvalues --    0.14091   0.15516   0.16786   0.17458   0.18096

 Mulliken charges and spin densities:
               1          2
     1  Si   0.328788   0.991399
     2  C    0.400563  -0.061048
     3  N   -0.110291   0.009491
     4  H   -0.010329  -0.004897
     5  H   -0.011287  -0.000383
     6  O   -0.518835   0.066489
     7  H   -0.064186  -0.004210
     8  H   -0.014423   0.003158
 Sum of Mulliken charges =  -0.00000   1.00000

 Dipole moment (field-independent basis, Debye):
    X=              0.6095    Y=             -4.0144    Z=              0.2438  Tot=              4.0677
                          Isotropic Fermi Contact Couplings
        Atom                 a.u.       MegaHertz       Gauss      10(-4) cm-1
     1  Si(29)             0.53378    -474.38765    -169.27331    -158.23869
     2  C(13)             -0.00752      -8.45918      -3.01845      -2.82168
     3  N(14)             -0.00273      -0.88280      -0.31501      -0.29447
     4  H(1)              -0.00011      -0.50721      -0.18098      -0.16919
     5  H(1)              -0.00042      -1.86862      -0.66677      -0.62330
     6  O(17)              0.02552     -15.46988      -5.52004      -5.16020
     7  H(1)               0.00001       0.03453       0.01232       0.01152
     8  H(1)              -0.00013      -0.60200      -0.21481      -0.20081

 1\1\GINC-SE423\SP\UHF\Aug-CC-pVDZ\C1H4N1O1Si1(2)\OHZDE\08-Apr-2025\0\\
 #t hf aug-cc-pvdz iop(5/13=1,5/36=2,99/5=2) pseudo=read geom=check gue
 ss=(read,tcheck) scf=(maxcycle=1)\\title\\0,2\Si,0,1.385941,-0.094667,
 -0.090975\C,0,-0.519815,0.147574,0.003216\N,0,-1.310861,-0.967223,-0.0
 15697\H,0,-0.928737,-1.889648,0.111239\H,0,-2.311169,-0.844391,0.06545
 6\O,0,-0.971775,1.280066,0.018522\H,0,1.852735,-1.370448,0.519702\H,0,
 2.05311,1.074417,0.519658\\Version=ES64L-G16RevC.01\State=2-A\HF=-458.
 5058239\S2=0.760035\S2-1=0.\S2A=0.750053\RMSD=4.209e-03\Dipole=0.23980

 Normal termination of Gaussian 16 at Tue Apr  8 23:45:18 2025.
