 Gaussian 16, Revision C.01,

 ----------------------------------------------------------------------
 #t hf aug-cc-pvdz symm=none int=(grid=ultrafine) guess=(read,tcheck) s
 table=(opt,rrhf)
 ----------------------------------------------------------------------
 -----
 title
 -----
 Symbolic Z-matrix:
 Charge =  0 Multiplicity = 1

 SCF Done:  E(RHF) =  -967.660779728     A.U. after   17 cycles
 Normal termination of Gaussian 16 at Tue Apr  8 23:24:28 2025.
 Gaussian 16:  ES64L-G16RevC.01  3-Jul-2019

 ----------------------------------------------------------------------
 #t hf aug-cc-pvdz iop(5/13=1,5/36=2,99/5=2) pseudo=read geom=check gue
 ss=(read,tcheck) scf=(maxcycle=1)
 ----------------------------------------------------------------------
 -----
 title
 -----
 Structure from the checkpoint file:  "BDE49_nonexpt_1198_mol1.chk"
 Charge =  0 Multiplicity = 1

                         Standard orientation:
 ---------------------------------------------------------------------
 Center     Atomic      Atomic             Coordinates (Angstroms)
 Number     Number       Type             X           Y           Z
 ---------------------------------------------------------------------
      1          6           0       -3.248670    0.084729    0.434097
      2          8           0       -4.431291    0.099273    0.218213
      3         16           0       -2.274437   -0.781222   -0.815277
      4          8           0       -0.659522   -0.756877   -0.248285
      5          6           0        0.109673    0.369482   -0.475072
      6          8           0       -0.346725    1.415247   -0.847771
      7          6           0       -2.546844    0.706364    1.608785
      8          1           0       -3.298499    1.009078    2.337524
      9          1           0       -1.987715    1.581317    1.267850
     10          1           0       -1.838776    0.007537    2.057696
     11          6           0        1.540488    0.112165   -0.163633
     12          6           0        2.012569   -1.144595    0.233793
     13          6           0        3.365185   -1.319732    0.506448
     14          6           0        4.248462   -0.248082    0.384063
     15          6           0        3.780181    1.004598   -0.012856
     16          6           0        2.430391    1.186353   -0.286167
     17          1           0        1.321300   -1.971340    0.324673
     18          1           0        3.731018   -2.292731    0.812962
     19          1           0        5.302199   -0.389086    0.596820
     20          1           0        4.467713    1.836755   -0.109277
     21          1           0        2.045445    2.149171   -0.597817
 ---------------------------------------------------------------------

 SCF Done:  E(RHF) =  -967.856916435     A.U. after    2 cycles

 The electronic state is 1-A.
 Alpha  occ. eigenvalues --  -93.61614 -20.65347 -20.58936 -20.58407 -11.42065
 Alpha  occ. eigenvalues --  -11.39327 -11.27790 -11.27554 -11.27509 -11.27304
 Alpha  occ. eigenvalues --  -11.26592 -11.26533 -11.26417  -8.90747  -6.24966
 Alpha  occ. eigenvalues --   -6.24567  -6.24212  -1.43366  -1.38820  -1.34590
 Alpha  occ. eigenvalues --   -1.17181  -1.06508  -1.04057  -1.03561  -0.98422
 Alpha  occ. eigenvalues --   -0.89088  -0.85477  -0.81602  -0.76004  -0.75126
 Alpha  occ. eigenvalues --   -0.71459  -0.69653  -0.68810  -0.66213  -0.65019
 Alpha  occ. eigenvalues --   -0.64694  -0.63121  -0.62314  -0.61626  -0.58476
 Alpha  occ. eigenvalues --   -0.55752  -0.54673  -0.54357  -0.53382  -0.52144
 Alpha  occ. eigenvalues --   -0.51868  -0.48910  -0.42885  -0.39358  -0.36896
 Alpha  occ. eigenvalues --   -0.36326
 Alpha virt. eigenvalues --    0.02606   0.03587   0.03809   0.04819   0.05215
 Alpha virt. eigenvalues --    0.05700   0.06462   0.06530   0.07703   0.08333
 Alpha virt. eigenvalues --    0.08863   0.09322   0.10101   0.10328   0.11251

 Mulliken charges:
               1
     1  C   -0.111044
     2  O   -0.487809
     3  S    0.728698
     4  O   -0.718364
     5  C   -0.267053
     6  O   -0.406012
     7  C    0.310750
     8  H   -0.113040
     9  H    0.093973
    10  H    0.040784
    11  C    1.514777
    12  C    0.441035
    13  C    0.430224
    14  C    0.506643
    15  C    0.633412
    16  C   -0.074441
    17  H   -0.631110
    18  H   -0.436713
    19  H   -0.431935
    20  H   -0.420940
    21  H   -0.601833
 Sum of Mulliken charges =  -0.00000

 Dipole moment (field-independent basis, Debye):
    X=              5.2651    Y=             -0.8751    Z=              2.3427  Tot=              5.8288

 Test job not archived.
 1\1\GINC-SE403\SP\RHF\Aug-CC-pVDZ\C9H8O3S1\OHZDE\08-Apr-2025\0\\#t hf
 aug-cc-pvdz iop(5/13=1,5/36=2,99/5=2) pseudo=read geom=check guess=(re
 ad,tcheck) scf=(maxcycle=1)\\title\\0,1\C,0,-3.24867,0.084729,0.434097
 \O,0,-4.431291,0.099273,0.218213\S,0,-2.274437,-0.781222,-0.815277\O,0
 ,-0.659522,-0.756877,-0.248285\C,0,0.109673,0.369482,-0.475072\O,0,-0.
 346725,1.415247,-0.847771\C,0,-2.546844,0.706364,1.608785\H,0,-3.29849
 9,1.009078,2.337524\H,0,-1.987715,1.581317,1.26785\H,0,-1.838776,0.007
 537,2.057696\C,0,1.540488,0.112165,-0.163633\C,0,2.012569,-1.144595,0.

 Normal termination of Gaussian 16 at Tue Apr  8 23:24:44 2025.
