 Gaussian 16, Revision C.01,

 ----------------------------------------------------------------------
 #t hf aug-cc-pvdz symm=none int=(grid=ultrafine) guess=(read,tcheck) s
 table=opt
 ----------------------------------------------------------------------
 -----
 title
 -----
 Symbolic Z-matrix:
 Charge =  0 Multiplicity = 2

 SCF Done:  E(UHF) =  -384.720917956     A.U. after   16 cycles
 Normal termination of Gaussian 16 at Tue Apr  8 23:50:19 2025.
 Gaussian 16:  ES64L-G16RevC.01  3-Jul-2019

 ----------------------------------------------------------------------
 #t hf aug-cc-pvdz iop(5/13=1,5/36=2,99/5=2) pseudo=read geom=check gue
 ss=(read,tcheck) scf=(maxcycle=1)
 ----------------------------------------------------------------------
 -----
 title
 -----
 Structure from the checkpoint file:  "BDE49_nonexpt_1901_mol2.chk"
 Charge =  0 Multiplicity = 2

                         Standard orientation:
 ---------------------------------------------------------------------
 Center     Atomic      Atomic             Coordinates (Angstroms)
 Number     Number       Type             X           Y           Z
 ---------------------------------------------------------------------
      1         14           0        1.163465   -0.131278    0.113169
      2          7           0       -0.428730    0.515019   -0.096523
      3          1           0        1.222385   -1.395264   -0.680276
      4          1           0        2.092654    0.883538   -0.463520
      5          6           0       -1.672920   -0.236908    0.016781
      6          1           0       -0.550827    1.510881    0.031313
      7          1           0       -1.484442   -1.288638   -0.210180
      8          1           0       -2.410889    0.128022   -0.704992
      9          1           0       -2.118756   -0.184337    1.018265
 ---------------------------------------------------------------------

 SCF Done:  E(UHF) =  -384.778138361     A.U. after    2 cycles

 The electronic state is 2-A.
 Alpha  occ. eigenvalues --  -69.07590 -15.61189 -11.26740  -6.82677  -3.93864
 Alpha  occ. eigenvalues --   -3.93205  -3.93138  -1.14480  -0.90215  -0.71311
 Alpha  occ. eigenvalues --   -0.63360  -0.60069  -0.56439  -0.50668  -0.47732
 Alpha  occ. eigenvalues --   -0.42434  -0.29590
 Alpha virt. eigenvalues --    0.03356   0.04796   0.04860   0.05519   0.07174
 Alpha virt. eigenvalues --    0.07813   0.08550   0.09343   0.09687   0.12833
 Alpha virt. eigenvalues --    0.14160   0.16006   0.16495   0.17335   0.17794

  Beta  occ. eigenvalues --  -69.07113 -15.60539 -11.26792  -6.81934  -3.92943
  Beta  occ. eigenvalues --   -3.92851  -3.92030  -1.13085  -0.89837  -0.69336
  Beta  occ. eigenvalues --   -0.62140  -0.59149  -0.55467  -0.49794  -0.46180
  Beta  occ. eigenvalues --   -0.37242
  Beta virt. eigenvalues --    0.03222   0.04033   0.04840   0.05314   0.06822
  Beta virt. eigenvalues --    0.07339   0.08011   0.09512   0.09834   0.10678
  Beta virt. eigenvalues --    0.13045   0.15034   0.16508   0.17081   0.17829

 Mulliken charges and spin densities:
               1          2
     1  Si   0.360090   0.805746
     2  N   -0.499982   0.105180
     3  H   -0.010895   0.064137
     4  H   -0.008098   0.048561
     5  C    0.703596  -0.019511
     6  H   -0.101721  -0.017926
     7  H   -0.192362   0.005322
     8  H   -0.151984   0.003883
     9  H   -0.098645   0.004608
 Sum of Mulliken charges =   0.00000   1.00000

 Dipole moment (field-independent basis, Debye):
    X=             -1.2504    Y=              0.5429    Z=              0.3413  Tot=              1.4052
                          Isotropic Fermi Contact Couplings
        Atom                 a.u.       MegaHertz       Gauss      10(-4) cm-1
     1  Si(29)             0.53665    -476.93828    -170.18344    -159.08949
     2  N(14)              0.06755      21.82635       7.78819       7.28049
     3  H(1)               0.01712      76.53040      27.30795      25.52779
     4  H(1)               0.01472      65.80828      23.48203      21.95128
     5  C(13)             -0.00881      -9.90905      -3.53579      -3.30530
     6  H(1)              -0.00433     -19.33807      -6.90030      -6.45049
     7  H(1)               0.00025       1.13045       0.40337       0.37708
     8  H(1)               0.00126       5.62751       2.00804       1.87714

 Normal termination of Gaussian 16 at Tue Apr  8 23:50:21 2025.
