 Gaussian 16, Revision C.01,

 ----------------------------------------------------------------------
 #t hf aug-cc-pvdz symm=none int=(grid=ultrafine) guess=(read,tcheck) s
 table=opt
 ----------------------------------------------------------------------
 -----
 title
 -----
 Symbolic Z-matrix:
 Charge =  0 Multiplicity = 2

 SCF Done:  E(UHF) =  -149.636300489     A.U. after   18 cycles
 Normal termination of Gaussian 16 at Tue Apr  8 22:49:31 2025.
 Gaussian 16:  ES64L-G16RevC.01  3-Jul-2019

 ----------------------------------------------------------------------
 #t hf aug-cc-pvdz iop(5/13=1,5/36=2,99/5=2) pseudo=read geom=check gue
 ss=(read,tcheck) scf=(maxcycle=1)
 ----------------------------------------------------------------------
 -----
 title
 -----
 Structure from the checkpoint file:  "BDE49_expt_1749_mol2.chk"
 Charge =  0 Multiplicity = 2

                         Standard orientation:
 ---------------------------------------------------------------------
 Center     Atomic      Atomic             Coordinates (Angstroms)
 Number     Number       Type             X           Y           Z
 ---------------------------------------------------------------------
      1          7           0        1.133378    0.199966    0.086943
      2          7           0        0.062110   -0.615970   -0.037986
      3          1           0        1.062402    1.150029   -0.280109
      4          1           0        2.001484   -0.260573   -0.149212
      5          6           0       -1.159169    0.156774    0.005398
      6          1           0       -1.168591    0.967258   -0.745371
      7          1           0       -1.306712    0.620394    0.992822
      8          1           0       -2.001986   -0.505726   -0.193214
 ---------------------------------------------------------------------

 SCF Done:  E(UHF) =  -149.682204575     A.U. after    2 cycles

 The electronic state is 2-A.
 Alpha  occ. eigenvalues --  -15.65970 -15.65636 -11.25822  -1.27451  -1.03552
 Alpha  occ. eigenvalues --   -0.86520  -0.70513  -0.65707  -0.63394  -0.54688
 Alpha  occ. eigenvalues --   -0.51587  -0.44429  -0.34318
 Alpha virt. eigenvalues --    0.03406   0.04307   0.05293   0.05895   0.08053
 Alpha virt. eigenvalues --    0.10775   0.15227   0.15505   0.15871   0.17035
 Alpha virt. eigenvalues --    0.17951   0.20091   0.22031   0.23020   0.23530

  Beta  occ. eigenvalues --  -15.65094 -15.62804 -11.26129  -1.22663  -1.00913
  Beta  occ. eigenvalues --   -0.82570  -0.69871  -0.62642  -0.57722  -0.54371
  Beta  occ. eigenvalues --   -0.43766  -0.40296
  Beta virt. eigenvalues --    0.03444   0.04324   0.05294   0.05834   0.08062
  Beta virt. eigenvalues --    0.10866   0.13442   0.15727   0.15938   0.16002
  Beta virt. eigenvalues --    0.17335   0.18243   0.20173   0.22047   0.23080

 Mulliken charges and spin densities:
               1          2
     1  N   -0.018408   0.092134
     2  N   -0.484693   1.007193
     3  H    0.025346  -0.000394
     4  H    0.052953  -0.018164
     5  C    0.712424  -0.166106
     6  H   -0.066888   0.030105
     7  H   -0.020656   0.044410
     8  H   -0.200079   0.010822
 Sum of Mulliken charges =  -0.00000   1.00000

 Dipole moment (field-independent basis, Debye):
    X=              0.2124    Y=              1.8086    Z=             -0.8328  Tot=              2.0024
                          Isotropic Fermi Contact Couplings
        Atom                 a.u.       MegaHertz       Gauss      10(-4) cm-1
     1  N(14)              0.05519      17.83362       6.36348       5.94866
     2  N(14)              0.29596      95.62447      34.12119      31.89689
     3  H(1)               0.00307      13.72409       4.89710       4.57786
     4  H(1)              -0.00131      -5.85199      -2.08814      -1.95201
     5  C(13)             -0.05123     -57.58970     -20.54944     -19.20986
     6  H(1)               0.01342      59.98134      21.40283      20.00762
     7  H(1)               0.01890      84.50188      30.15237      28.18679
     8  H(1)               0.00128       5.72589       2.04314       1.90995

 Normal termination of Gaussian 16 at Tue Apr  8 22:49:33 2025.
