 Gaussian 16, Revision C.01,

 ----------------------------------------------------------------------
 #t hf aug-cc-pvdz symm=none int=(grid=ultrafine) guess=(read,tcheck) s
 table=opt
 ----------------------------------------------------------------------
 -----
 title
 -----
 Symbolic Z-matrix:
 Charge =  0 Multiplicity = 2

 SCF Done:  E(UHF) =  -554.246407411     A.U. after   15 cycles
 Normal termination of Gaussian 16 at Tue Apr  8 22:51:55 2025.
 Gaussian 16:  ES64L-G16RevC.01  3-Jul-2019

 ----------------------------------------------------------------------
 #t hf aug-cc-pvdz iop(5/13=1,5/36=2,99/5=2) pseudo=read geom=check gue
 ss=(read,tcheck) scf=(maxcycle=1)
 ----------------------------------------------------------------------
 -----
 title
 -----
 Structure from the checkpoint file:  "BDE49_expt_1820_mol2.chk"
 Charge =  0 Multiplicity = 2

                         Standard orientation:
 ---------------------------------------------------------------------
 Center     Atomic      Atomic             Coordinates (Angstroms)
 Number     Number       Type             X           Y           Z
 ---------------------------------------------------------------------
      1         16           0       -1.532473   -0.000001   -0.074658
      2          6           0        0.311142   -0.000000   -0.006787
      3          6           0        0.860092   -1.265385   -0.683702
      4          1           0        0.478364   -2.166266   -0.200100
      5          1           0        1.954371   -1.275039   -0.625798
      6          1           0        0.579639   -1.302121   -1.739148
      7          6           0        0.666020    0.000000    1.495280
      8          1           0        0.277058   -0.887344    1.999509
      9          1           0        0.277057    0.887343    1.999509
     10          1           0        1.756665    0.000001    1.599064
     11          6           0        0.860088    1.265386   -0.683702
     12          1           0        0.579635    1.302123   -1.739147
     13          1           0        1.954367    1.275043   -0.625797
     14          1           0        0.478360    2.166267   -0.200099
 ---------------------------------------------------------------------

 SCF Done:  E(UHF) =  -554.312906255     A.U. after    2 cycles

 The electronic state is 2-A.
 Alpha  occ. eigenvalues --  -93.54135 -11.28792 -11.24102 -11.23526 -11.23517
 Alpha  occ. eigenvalues --   -8.83845  -6.19237  -6.17526  -6.17099  -1.10908
 Alpha  occ. eigenvalues --   -0.94503  -0.94113  -0.92901  -0.73648  -0.61897
 Alpha  occ. eigenvalues --   -0.61686  -0.61603  -0.56231  -0.55553  -0.52902
 Alpha  occ. eigenvalues --   -0.49465  -0.49069  -0.44179  -0.41951  -0.36284
 Alpha virt. eigenvalues --    0.03414   0.04770   0.04909   0.05634   0.06942
 Alpha virt. eigenvalues --    0.06961   0.07481   0.07612   0.08618   0.09382
 Alpha virt. eigenvalues --    0.12197   0.13908   0.13962   0.15285   0.15712

  Beta  occ. eigenvalues --  -93.53236 -11.28929 -11.23991 -11.23496 -11.23487
  Beta  occ. eigenvalues --   -8.82844  -6.16970  -6.16551  -6.15301  -1.10093
  Beta  occ. eigenvalues --   -0.94144  -0.94056  -0.86176  -0.71868  -0.61609
  Beta  occ. eigenvalues --   -0.61074  -0.60777  -0.55452  -0.55431  -0.52864
  Beta  occ. eigenvalues --   -0.48982  -0.48661  -0.42996  -0.34074
  Beta virt. eigenvalues --    0.02243   0.03437   0.04916   0.05281   0.05662
  Beta virt. eigenvalues --    0.06954   0.06985   0.07618   0.07681   0.08757
  Beta virt. eigenvalues --    0.09383   0.12352   0.14027   0.14183   0.15452

 Mulliken charges and spin densities:
               1          2
     1  S    0.115164   1.117118
     2  C   -2.212460  -0.165291
     3  C    0.814108   0.015627
     4  H   -0.046504  -0.014270
     5  H   -0.003240   0.000541
     6  H   -0.070352   0.001242
     7  C    0.864111   0.034551
     8  H   -0.077529  -0.000669
     9  H   -0.077531  -0.000669
    10  H    0.000220   0.008680
    11  C    0.814110   0.015627
    12  H   -0.070356   0.001242
    13  H   -0.003240   0.000541
    14  H   -0.046503  -0.014270
 Sum of Mulliken charges =  -0.00000   1.00000

 Dipole moment (field-independent basis, Debye):
    X=              1.9615    Y=              0.0000    Z=              0.1430  Tot=              1.9667
                          Isotropic Fermi Contact Couplings
        Atom                 a.u.       MegaHertz       Gauss      10(-4) cm-1
     1  S(33)              0.17636      60.57564      21.61490      20.20586
     2  C(13)             -0.02596     -29.18163     -10.41273      -9.73395
     3  C(13)              0.00605       6.80216       2.42718       2.26896
     4  H(1)              -0.00028      -1.25277      -0.44702      -0.41788
     5  H(1)              -0.00009      -0.40666      -0.14511      -0.13565
     6  H(1)              -0.00034      -1.50866      -0.53833      -0.50323
     7  C(13)              0.02872      32.29202      11.52260      10.77146
     8  H(1)              -0.00018      -0.81946      -0.29240      -0.27334

 Normal termination of Gaussian 16 at Tue Apr  8 22:51:59 2025.
