 Gaussian 16, Revision C.01,

 ----------------------------------------------------------------------
 #t hf aug-cc-pvdz symm=none int=(grid=ultrafine) guess=(read,tcheck) s
 table=(opt,rrhf)
 ----------------------------------------------------------------------
 -----
 title
 -----
 Symbolic Z-matrix:
 Charge =  0 Multiplicity = 1

 SCF Done:  E(RHF) =  -733.128565585     A.U. after   13 cycles
 Normal termination of Gaussian 16 at Wed Apr  9 00:08:44 2025.
 Gaussian 16:  ES64L-G16RevC.01  3-Jul-2019

 ----------------------------------------------------------------------
 #t hf aug-cc-pvdz iop(5/13=1,5/36=2,99/5=2) pseudo=read geom=check gue
 ss=(read,tcheck) scf=(maxcycle=1)
 ----------------------------------------------------------------------
 -----
 title
 -----
 Structure from the checkpoint file:  "BDE49_nonexpt_2342_mol1.chk"
 Charge =  0 Multiplicity = 1

                         Standard orientation:
 ---------------------------------------------------------------------
 Center     Atomic      Atomic             Coordinates (Angstroms)
 Number     Number       Type             X           Y           Z
 ---------------------------------------------------------------------
      1         14           0       -1.841151   -0.730939    0.050870
      2         14           0       -0.448381    1.159701   -0.170302
      3          6           0        1.972014   -0.305842   -0.246911
      4          8           0        1.804251   -1.477226   -0.005096
      5          1           0       -1.407769   -1.818950   -0.853449
      6          1           0       -1.824310   -1.213781    1.451864
      7          1           0       -3.229524   -0.341758   -0.299860
      8          6           0        1.311657    0.812939    0.501501
      9          1           0        1.895229    1.735110    0.425926
     10          1           0        1.201624    0.531994    1.552731
     11          1           0       -0.994755    2.307596    0.595093
     12          1           0       -0.347417    1.566381   -1.594967
     13          1           0        2.624333    0.005956   -1.092069
 ---------------------------------------------------------------------

 SCF Done:  E(RHF) =  -733.218593039     A.U. after    2 cycles

 The electronic state is 1-A.
 Alpha  occ. eigenvalues --  -69.07644 -69.06206 -20.57501 -11.35434 -11.24947
 Alpha  occ. eigenvalues --   -6.82957  -6.81621  -3.93727  -3.93709  -3.93665
 Alpha  occ. eigenvalues --   -3.92380  -3.92374  -3.92357  -1.36339  -1.01392
 Alpha  occ. eigenvalues --   -0.80805  -0.73244  -0.69165  -0.66262  -0.64013
 Alpha  occ. eigenvalues --   -0.57588  -0.56635  -0.49959  -0.48544  -0.47740
 Alpha  occ. eigenvalues --   -0.46404  -0.43341  -0.40000
 Alpha virt. eigenvalues --    0.03156   0.04182   0.04736   0.04920   0.06056
 Alpha virt. eigenvalues --    0.06926   0.07426   0.08018   0.08378   0.09525
 Alpha virt. eigenvalues --    0.09690   0.09979   0.10194   0.10806   0.11150

 Mulliken charges:
               1
     1  Si  -0.230692
     2  Si   0.348739
     3  C    0.495737
     4  O   -0.466409
     5  H    0.082095
     6  H    0.035186
     7  H    0.025709
     8  C    0.038133
     9  H   -0.186346
    10  H   -0.124877
    11  H    0.023072
    12  H    0.098681
    13  H   -0.139027
 Sum of Mulliken charges =  -0.00000

 Dipole moment (field-independent basis, Debye):
    X=              0.2737    Y=              3.1423    Z=             -0.1214  Tot=              3.1566

 Test job not archived.
 1\1\GINC-SE424\SP\RHF\Aug-CC-pVDZ\C2H8O1Si2\OHZDE\09-Apr-2025\0\\#t hf
  aug-cc-pvdz iop(5/13=1,5/36=2,99/5=2) pseudo=read geom=check guess=(r
 ead,tcheck) scf=(maxcycle=1)\\title\\0,1\Si,0,-1.841151,-0.730939,0.05
 087\Si,0,-0.448381,1.159701,-0.170302\C,0,1.972014,-0.305842,-0.246911
 \O,0,1.804251,-1.477226,-0.005096\H,0,-1.407769,-1.81895,-0.853449\H,0
 ,-1.82431,-1.213781,1.451864\H,0,-3.229524,-0.341759,-0.29986\C,0,1.31
 1657,0.812939,0.501501\H,0,1.895229,1.73511,0.425926\H,0,1.201624,0.53
 1994,1.552731\H,0,-0.994755,2.307596,0.595093\H,0,-0.347417,1.566381,-

 Normal termination of Gaussian 16 at Wed Apr  9 00:08:48 2025.
