 Gaussian 16, Revision C.01,

 ----------------------------------------------------------------------
 #t hf aug-cc-pvdz symm=none int=(grid=ultrafine) guess=(read,tcheck) s
 table=opt
 ----------------------------------------------------------------------
 -----
 title
 -----
 Symbolic Z-matrix:
 Charge =  0 Multiplicity = 2

 SCF Done:  E(UHF) =  -937.249335092     A.U. after   20 cycles
 Normal termination of Gaussian 16 at Tue Apr  8 23:44:17 2025.
 Gaussian 16:  ES64L-G16RevC.01  3-Jul-2019

 ----------------------------------------------------------------------
 #t hf aug-cc-pvdz iop(5/13=1,5/36=2,99/5=2) pseudo=read geom=check gue
 ss=(read,tcheck) scf=(maxcycle=1)
 ----------------------------------------------------------------------
 -----
 title
 -----
 Structure from the checkpoint file:  "BDE49_nonexpt_1761_mol2.chk"
 Charge =  0 Multiplicity = 2

                         Standard orientation:
 ---------------------------------------------------------------------
 Center     Atomic      Atomic             Coordinates (Angstroms)
 Number     Number       Type             X           Y           Z
 ---------------------------------------------------------------------
      1          6           0        1.320077    0.027129   -0.020523
      2          8           0        2.294956   -0.624090   -0.305910
      3         14           0       -0.357657   -0.838745    0.307465
      4          8           0        1.337003    1.360705    0.172333
      5         17           0       -1.989031    0.357509   -0.153547
      6          1           0        2.250291    1.663930    0.029898
      7          1           0       -0.405695   -2.054846   -0.532354
 ---------------------------------------------------------------------

 SCF Done:  E(UHF) =  -937.349603376     A.U. after    2 cycles

 The electronic state is 2-A.
 Alpha  occ. eigenvalues -- -103.67210 -69.14863 -20.64417 -20.59414 -11.40926
 Alpha  occ. eigenvalues --  -10.70628  -8.36373  -8.36133  -8.36052  -6.89796
 Alpha  occ. eigenvalues --   -4.01023  -4.00279  -4.00137  -1.44270  -1.35083
 Alpha  occ. eigenvalues --   -1.15678  -0.89750  -0.76081  -0.73803  -0.67158
 Alpha  occ. eigenvalues --   -0.66316  -0.59246  -0.55240  -0.53202  -0.51621
 Alpha  occ. eigenvalues --   -0.50450  -0.46285  -0.36463
 Alpha virt. eigenvalues --    0.03533   0.04758   0.05144   0.06077   0.06744
 Alpha virt. eigenvalues --    0.08398   0.11040   0.12005   0.12413   0.12889
 Alpha virt. eigenvalues --    0.14095   0.14480   0.16296   0.17767   0.18599

  Beta  occ. eigenvalues -- -103.67116 -69.14270 -20.64439 -20.59077 -11.40907
  Beta  occ. eigenvalues --  -10.70526  -8.36220  -8.36001  -8.35862  -6.88873
  Beta  occ. eigenvalues --   -3.99887  -3.99746  -3.98860  -1.44071  -1.34565
  Beta  occ. eigenvalues --   -1.14902  -0.89084  -0.74295  -0.73450  -0.66046
  Beta  occ. eigenvalues --   -0.65214  -0.58603  -0.54054  -0.51535  -0.50088
  Beta  occ. eigenvalues --   -0.49304  -0.45416
  Beta virt. eigenvalues --    0.00599   0.03637   0.05166   0.05632   0.06491
  Beta virt. eigenvalues --    0.07054   0.09438   0.11888   0.12209   0.12882
  Beta virt. eigenvalues --    0.14391   0.15147   0.16464   0.16796   0.18374

 Mulliken charges and spin densities:
               1          2
     1  C    0.416309  -0.023320
     2  O   -0.458521   0.071403
     3  Si   0.815574   0.847843
     4  O   -0.434321   0.000408
     5  Cl  -0.475378   0.037822
     6  H    0.164326   0.000347
     7  H   -0.027988   0.065495
 Sum of Mulliken charges =   0.00000   1.00000

 Dipole moment (field-independent basis, Debye):
    X=             -0.0463    Y=              0.3324    Z=              0.7266  Tot=              0.8004
                          Isotropic Fermi Contact Couplings
        Atom                 a.u.       MegaHertz       Gauss      10(-4) cm-1
     1  C(13)              0.02295      25.79946       9.20589       8.60577
     2  O(17)              0.02949     -17.87951      -6.37985      -5.96396
     3  Si(29)             0.68746    -610.96853    -218.00877    -203.79717
     4  O(17)             -0.00300       1.82106       0.64980       0.60744
     5  Cl(35)             0.05350      23.45980       8.37104       7.82535
     6  H(1)               0.00022       0.99506       0.35506       0.33192
     7  H(1)               0.01215      54.32887      19.38589      18.12216
 --------------------------------------------------------

 Normal termination of Gaussian 16 at Tue Apr  8 23:44:20 2025.
