 Gaussian 16, Revision C.01,

 ----------------------------------------------------------------------
 #t hf aug-cc-pvdz symm=none int=(grid=ultrafine) guess=(read,tcheck) s
 table=(opt,rrhf)
 ----------------------------------------------------------------------
 -----
 title
 -----
 Symbolic Z-matrix:
 Charge =  0 Multiplicity = 1

 SCF Done:  E(RHF) =  -1300.95758166     A.U. after   13 cycles
 Normal termination of Gaussian 16 at Tue Apr  8 23:44:13 2025.
 Gaussian 16:  ES64L-G16RevC.01  3-Jul-2019

 ----------------------------------------------------------------------
 #t hf aug-cc-pvdz iop(5/13=1,5/36=2,99/5=2) pseudo=read geom=check gue
 ss=(read,tcheck) scf=(maxcycle=1)
 ----------------------------------------------------------------------
 -----
 title
 -----
 Structure from the checkpoint file:  "BDE49_nonexpt_1762_mol1.chk"
 Charge =  0 Multiplicity = 1

                         Standard orientation:
 ---------------------------------------------------------------------
 Center     Atomic      Atomic             Coordinates (Angstroms)
 Number     Number       Type             X           Y           Z
 ---------------------------------------------------------------------
      1          6           0       -1.754253   -0.003662   -0.003840
      2         14           0        0.007452   -0.000066    0.530869
      3          7           0       -2.868418   -0.005447   -0.309814
      4         17           0        0.891253    1.689868   -0.212682
      5         17           0        0.898307   -1.686282   -0.212732
      6          1           0        0.077597    0.000074    1.991615
 ---------------------------------------------------------------------

 SCF Done:  E(RHF) =  -1301.04987792     A.U. after    2 cycles

 The electronic state is 1-A.
 Alpha  occ. eigenvalues -- -103.69423-103.69422 -69.21551 -15.68148 -11.29437
 Alpha  occ. eigenvalues --  -10.72901 -10.72887  -8.38591  -8.38585  -8.38341
 Alpha  occ. eigenvalues --   -8.38337  -8.38336  -8.38336  -6.95743  -4.06626
 Alpha  occ. eigenvalues --   -4.06595  -4.06452  -1.21750  -1.19132  -1.16935
 Alpha  occ. eigenvalues --   -0.81413  -0.66525  -0.60076  -0.59969  -0.57670
 Alpha  occ. eigenvalues --   -0.52816  -0.52489  -0.50578  -0.50315  -0.49607
 Alpha  occ. eigenvalues --   -0.49153
 Alpha virt. eigenvalues --    0.04059   0.04653   0.04658   0.05686   0.07981
 Alpha virt. eigenvalues --    0.08784   0.09059   0.10289   0.12006   0.12473
 Alpha virt. eigenvalues --    0.12672   0.12999   0.14946   0.17240   0.17646

 Mulliken charges:
               1
     1  C   -0.158414
     2  Si   1.182126
     3  N   -0.156383
     4  Cl  -0.429894
     5  Cl  -0.429919
     6  H   -0.007516
 Sum of Mulliken charges =  -0.00000

 Dipole moment (field-independent basis, Debye):
    X=              2.0747    Y=              0.0036    Z=              1.6226  Tot=              2.6338

 Test job not archived.
 1\1\GINC-SE365\SP\RHF\Aug-CC-pVDZ\C1H1Cl2N1Si1\OHZDE\08-Apr-2025\0\\#t
  hf aug-cc-pvdz iop(5/13=1,5/36=2,99/5=2) pseudo=read geom=check guess
 =(read,tcheck) scf=(maxcycle=1)\\title\\0,1\C,0,1.754253,0.003667,-0.0
 0384\Si,0,-0.007452,0.000066,0.530869\N,0,2.868418,0.005455,-0.309814\
 Cl,0,-0.891248,-1.68987,-0.212682\Cl,0,-0.898312,1.68628,-0.212732\H,0
 ,-0.077597,-0.000074,1.991615\\Version=ES64L-G16RevC.01\State=1-A\HF=-
 1301.0498779\RMSD=4.376e-03\Dipole=-0.8162394,-0.0014104,0.6383638\Qua
 drupole=-5.2590863,1.7683077,3.4907787,-0.0128711,1.1966284,0.0024171\

 Normal termination of Gaussian 16 at Tue Apr  8 23:44:15 2025.
