 Gaussian 16, Revision C.01,

 ----------------------------------------------------------------------
 #t hf aug-cc-pvdz symm=none int=(grid=ultrafine) guess=(read,tcheck) s
 table=(opt,rrhf)
 ----------------------------------------------------------------------
 -----
 title
 -----
 Symbolic Z-matrix:
 Charge =  0 Multiplicity = 1

 SCF Done:  E(RHF) =  -853.933637827     A.U. after   14 cycles
 Normal termination of Gaussian 16 at Tue Apr  8 23:19:45 2025.
 Gaussian 16:  ES64L-G16RevC.01  3-Jul-2019

 ----------------------------------------------------------------------
 #t hf aug-cc-pvdz iop(5/13=1,5/36=2,99/5=2) pseudo=read geom=check gue
 ss=(read,tcheck) scf=(maxcycle=1)
 ----------------------------------------------------------------------
 -----
 title
 -----
 Structure from the checkpoint file:  "BDE49_expt_809_mol1.chk"
 Charge =  0 Multiplicity = 1

                         Standard orientation:
 ---------------------------------------------------------------------
 Center     Atomic      Atomic             Coordinates (Angstroms)
 Number     Number       Type             X           Y           Z
 ---------------------------------------------------------------------
      1         14           0       -0.616798    1.412407    0.097798
      2          6           0       -1.915332    0.321275   -0.751645
      3          6           0        1.043105    0.534449    0.305704
      4          6           0        1.688206   -0.062107   -0.789146
      5          6           0        2.919084   -0.673393   -0.615818
      6          6           0        3.556072   -0.723015    0.615190
      7          6           0        2.924349   -0.132321    1.706128
      8          6           0        1.684900    0.488195    1.553175
      9          1           0        1.210838    0.940285    2.417755
     10          1           0        1.252707   -0.063271   -1.782794
     11          1           0        3.402833   -0.158310    2.678764
     12          6           0       -0.378650    2.959407   -0.950368
     13          1           0       -1.042205    1.816736    1.462375
     14          1           0       -0.056812    2.705848   -1.965080
     15          1           0        0.381149    3.613498   -0.514392
     16          1           0       -1.310801    3.527128   -1.027534
     17          6           0       -2.682230   -0.783530    0.028425
     18          1           0       -1.411419   -0.141171   -1.612155
     19          1           0       -2.651389    1.008794   -1.190137
     20          6           0       -1.706350   -1.778767    0.681964
     21          1           0       -1.041309   -2.228815   -0.060999
     22          1           0       -2.255298   -2.587883    1.173741
     23          1           0       -1.079621   -1.297670    1.437748
     24          6           0       -3.575991   -0.151701    1.112218
     25          1           0       -2.987659    0.385960    1.859716
     26          1           0       -4.152740   -0.922093    1.633236
     27          1           0       -4.286862    0.555376    0.672617
     28          6           0       -3.579157   -1.548045   -0.966348
     29          1           0       -2.980894   -2.029269   -1.746260
     30          1           0       -4.288317   -0.873571   -1.456242
     31          1           0       -4.154875   -2.327444   -0.456917
     32          1           0        4.517796   -1.213119    0.702293
     33          9           0        3.522448   -1.243044   -1.685752
 ---------------------------------------------------------------------

 SCF Done:  E(RHF) =  -854.133594936     A.U. after    2 cycles

 The electronic state is 1-A.
 Alpha  occ. eigenvalues --  -69.05626 -26.13292 -11.33954 -11.25881 -11.25558
 Alpha  occ. eigenvalues --  -11.25511 -11.25024 -11.24799 -11.24211 -11.22004
 Alpha  occ. eigenvalues --  -11.21983 -11.21890 -11.21724 -11.21462  -6.80905
 Alpha  occ. eigenvalues --   -3.91673  -3.91652  -3.91602  -1.67059  -1.15396
 Alpha  occ. eigenvalues --   -1.09135  -1.02477  -1.02108  -0.94514  -0.92614
 Alpha  occ. eigenvalues --   -0.92577  -0.91421  -0.86120  -0.85678  -0.76333
 Alpha  occ. eigenvalues --   -0.74742  -0.73882  -0.73371  -0.69505  -0.65628
 Alpha  occ. eigenvalues --   -0.62525  -0.61765  -0.61501  -0.61196  -0.59581
 Alpha  occ. eigenvalues --   -0.57321  -0.55714  -0.55496  -0.55140  -0.53988
 Alpha  occ. eigenvalues --   -0.52535  -0.51562  -0.51419  -0.51233  -0.48179
 Alpha  occ. eigenvalues --   -0.46901  -0.46028  -0.44865  -0.43804  -0.41685
 Alpha  occ. eigenvalues --   -0.35056  -0.34378
 Alpha virt. eigenvalues --    0.02949   0.03629   0.04154   0.04228   0.05051
 Alpha virt. eigenvalues --    0.05349   0.05783   0.06003   0.06083   0.07030
 Alpha virt. eigenvalues --    0.07419   0.07768   0.08245   0.08619   0.08700

 Mulliken charges:
               1
     1  Si   0.465753
     2  C    1.159323
     3  C   -0.162761
     4  C    0.542186
     5  C    0.062322
     6  C    1.094943
     7  C    0.465345
     8  C    0.509705
     9  H   -0.737343
    10  H   -0.766018
    11  H   -0.461394
    12  C    0.548170
    13  H    0.205879
    14  H   -0.176235
    15  H   -0.385987
    16  H   -0.320737
    17  C   -4.422982
    18  H   -0.177261
    19  H   -0.290150
    20  C    1.312619
    21  H   -0.038896
    22  H   -0.098265
    23  H   -0.031284
    24  C    1.232087
    25  H   -0.103604
    26  H   -0.010007
    27  H   -0.040848
    28  C    1.488270
    29  H   -0.020531
    30  H    0.005523
    31  H   -0.043637
    32  H   -0.464723
    33  F   -0.339461
 Sum of Mulliken charges =  -0.00000

 Dipole moment (field-independent basis, Debye):
    X=             -1.0315    Y=              0.6959    Z=              1.1811  Tot=              1.7156

 Test job not archived.
 1\1\GINC-SE015\SP\RHF\Aug-CC-pVDZ\C12H19F1Si1\OHZDE\08-Apr-2025\0\\#t
 hf aug-cc-pvdz iop(5/13=1,5/36=2,99/5=2) pseudo=read geom=check guess=
 (read,tcheck) scf=(maxcycle=1)\\title\\0,1\Si,0,-0.616798,1.412407,0.0
 97798\C,0,-1.915332,0.321275,-0.751645\C,0,1.043105,0.534449,0.305704\
 C,0,1.688206,-0.062107,-0.789146\C,0,2.919084,-0.673393,-0.615818\C,0,
 3.556072,-0.723015,0.61519\C,0,2.924349,-0.132321,1.706128\C,0,1.6849,
 0.488195,1.553175\H,0,1.210838,0.940285,2.417755\H,0,1.252707,-0.06327
 1,-1.782794\H,0,3.402833,-0.15831,2.678764\C,0,-0.37865,2.959407,-0.95

 Normal termination of Gaussian 16 at Tue Apr  8 23:20:29 2025.
