 Gaussian 16, Revision C.01,

 ----------------------------------------------------------------------
 #t hf aug-cc-pvdz symm=none int=(grid=ultrafine) guess=(read,tcheck) s
 table=(opt,rrhf)
 ----------------------------------------------------------------------
 -----
 title
 -----
 Symbolic Z-matrix:
 Charge =  0 Multiplicity = 1

 SCF Done:  E(RHF) =  -842.580940220     A.U. after   15 cycles
 Normal termination of Gaussian 16 at Tue Apr  8 22:55:08 2025.
 Gaussian 16:  ES64L-G16RevC.01  3-Jul-2019

 ----------------------------------------------------------------------
 #t hf aug-cc-pvdz iop(5/13=1,5/36=2,99/5=2) pseudo=read geom=check gue
 ss=(read,tcheck) scf=(maxcycle=1)
 ----------------------------------------------------------------------
 -----
 title
 -----
 Structure from the checkpoint file:  "BDE49_expt_184_mol1.chk"
 Charge =  0 Multiplicity = 1

                         Standard orientation:
 ---------------------------------------------------------------------
 Center     Atomic      Atomic             Coordinates (Angstroms)
 Number     Number       Type             X           Y           Z
 ---------------------------------------------------------------------
      1          6           0       -0.150676   -0.402764   -0.357473
      2          6           0       -1.466918   -0.109263   -0.025942
      3          6           0       -1.865177    1.180183    0.314241
      4          6           0       -0.908201    2.190791    0.324643
      5          6           0        0.418446    1.911561    0.002909
      6          6           0        0.805189    0.616597   -0.345750
      7          6           0        2.236357    0.310130   -0.754581
      8          8           0        2.685739   -0.974672   -0.367142
      9          1           0       -1.200851    3.199116    0.594473
     10          1           0        1.157259    2.705953    0.025465
     11          1           0       -2.897384    1.382051    0.568631
     12          1           0        0.140842   -1.412633   -0.615489
     13          1           0        2.905819    1.090964   -0.364323
     14          1           0        2.314686    0.325862   -1.845934
     15          6           0        2.966276   -1.083493    1.019794
     16          1           0        3.744346   -0.368879    1.322856
     17          1           0        3.329983   -2.096922    1.189256
     18          1           0        2.074113   -0.916048    1.635535
     19         17           0       -2.662735   -1.399679   -0.037669
 ---------------------------------------------------------------------

 SCF Done:  E(RHF) =  -842.715718529     A.U. after    2 cycles

 The electronic state is 1-A.
 Alpha  occ. eigenvalues -- -103.66502 -20.58074 -11.31560 -11.30266 -11.28688
 Alpha  occ. eigenvalues --  -11.26506 -11.26237 -11.25977 -11.25629 -11.25604
 Alpha  occ. eigenvalues --  -10.69767  -8.35503  -8.35200  -8.35183  -1.34227
 Alpha  occ. eigenvalues --   -1.19774  -1.13764  -1.04762  -1.00837  -0.96911
 Alpha  occ. eigenvalues --   -0.89453  -0.83617  -0.80972  -0.71517  -0.68535
 Alpha  occ. eigenvalues --   -0.67378  -0.66186  -0.64086  -0.62639  -0.59669
 Alpha  occ. eigenvalues --   -0.57812  -0.55920  -0.53763  -0.53283  -0.51578
 Alpha  occ. eigenvalues --   -0.49449  -0.47271  -0.46854  -0.44758  -0.35152
 Alpha  occ. eigenvalues --   -0.34315
 Alpha virt. eigenvalues --    0.03026   0.03955   0.04500   0.04950   0.05643
 Alpha virt. eigenvalues --    0.06214   0.06828   0.07251   0.07994   0.09369
 Alpha virt. eigenvalues --    0.09519   0.10096   0.11264   0.11755   0.12851

 Mulliken charges:
               1
     1  C    0.696229
     2  C   -0.727712
     3  C    0.778099
     4  C    0.324932
     5  C    0.736386
     6  C    0.402968
     7  C    0.733877
     8  O   -0.663357
     9  H   -0.443228
    10  H   -0.580481
    11  H   -0.436799
    12  H   -0.558126
    13  H   -0.138253
    14  H   -0.081871
    15  C    0.740880
    16  H   -0.083452
    17  H   -0.239228
    18  H   -0.088550
    19  Cl  -0.372314
 Sum of Mulliken charges =  -0.00000

 Dipole moment (field-independent basis, Debye):
    X=              1.4874    Y=              2.4701    Z=              1.0015  Tot=              3.0524

 Test job not archived.
 1\1\GINC-SE088\SP\RHF\Aug-CC-pVDZ\C8H9Cl1O1\OHZDE\08-Apr-2025\0\\#t hf
  aug-cc-pvdz iop(5/13=1,5/36=2,99/5=2) pseudo=read geom=check guess=(r
 ead,tcheck) scf=(maxcycle=1)\\title\\0,1\C,0,-0.150676,-0.402764,-0.35
 7473\C,0,-1.466918,-0.109263,-0.025942\C,0,-1.865177,1.180183,0.314241
 \C,0,-0.908201,2.190791,0.324643\C,0,0.418446,1.911561,0.002909\C,0,0.
 805189,0.616597,-0.34575\C,0,2.236357,0.31013,-0.754581\O,0,2.685739,-
 0.974672,-0.367142\H,0,-1.200851,3.199116,0.594473\H,0,1.157259,2.7059
 53,0.025465\H,0,-2.897384,1.382051,0.568631\H,0,0.140842,-1.412633,-0.

 Normal termination of Gaussian 16 at Tue Apr  8 22:55:19 2025.
