 Gaussian 16, Revision C.01,

 ----------------------------------------------------------------------
 #t hf aug-cc-pvdz symm=none int=(grid=ultrafine) guess=(read,tcheck) s
 table=opt
 ----------------------------------------------------------------------
 -----
 title
 -----
 Symbolic Z-matrix:
 Charge =  0 Multiplicity = 2

 SCF Done:  E(UHF) =  -1387.05739720     A.U. after   19 cycles
 Normal termination of Gaussian 16 at Tue Apr  8 23:23:03 2025.
 Gaussian 16:  ES64L-G16RevC.01  3-Jul-2019

 ----------------------------------------------------------------------
 #t hf aug-cc-pvdz iop(5/13=1,5/36=2,99/5=2) pseudo=read geom=check gue
 ss=(read,tcheck) scf=(maxcycle=1)
 ----------------------------------------------------------------------
 -----
 title
 -----
 Structure from the checkpoint file:  "BDE49_nonexpt_1252_mol2.chk"
 Charge =  0 Multiplicity = 2

                         Standard orientation:
 ---------------------------------------------------------------------
 Center     Atomic      Atomic             Coordinates (Angstroms)
 Number     Number       Type             X           Y           Z
 ---------------------------------------------------------------------
      1         16           0        1.034099   -0.013106    0.158175
      2          8           0        2.004732   -1.052272   -0.152019
      3         15           0       -0.880778   -1.074788   -0.273881
      4          6           0        1.190079    1.291913   -1.071312
      5          1           0        2.155308    1.763362   -0.876356
      6          1           0        1.173876    0.844919   -2.064110
      7         17           0       -2.244292    0.439302    0.081108
      8          8           0        0.991322    0.614335    1.464427
      9          1           0        0.380964    2.007130   -0.932343
 ---------------------------------------------------------------------

 SCF Done:  E(UHF) =  -1387.22410301     A.U. after    2 cycles

 The electronic state is 2-A.
 Alpha  occ. eigenvalues -- -103.70029 -93.79211 -81.37279 -20.57505 -20.57476
 Alpha  occ. eigenvalues --  -11.30350 -10.73355  -9.06071  -8.38988  -8.38928
 Alpha  occ. eigenvalues --   -8.38735  -7.87245  -6.40679  -6.40398  -6.40314
 Alpha  occ. eigenvalues --   -5.01714  -5.00643  -5.00344  -1.42929  -1.31900
 Alpha  occ. eigenvalues --   -1.18558  -1.05092  -0.89306  -0.78513  -0.69135
 Alpha  occ. eigenvalues --   -0.68390  -0.67926  -0.62482  -0.61667  -0.55833
 Alpha  occ. eigenvalues --   -0.54755  -0.53272  -0.52399  -0.50915  -0.50250
 Alpha  occ. eigenvalues --   -0.41058  -0.39913
 Alpha virt. eigenvalues --    0.03005   0.04472   0.05246   0.05432   0.06496
 Alpha virt. eigenvalues --    0.08138   0.09905   0.10558   0.11882   0.12160
 Alpha virt. eigenvalues --    0.13019   0.13668   0.14770   0.15090   0.15565

  Beta  occ. eigenvalues -- -103.69940 -93.79246 -81.36547 -20.57516 -20.57486
  Beta  occ. eigenvalues --  -11.30351 -10.73261  -9.06114  -8.39021  -8.38686
  Beta  occ. eigenvalues --   -8.38491  -7.86372  -6.40698  -6.40476  -6.40386
  Beta  occ. eigenvalues --   -5.00151  -4.99960  -4.98361  -1.42939  -1.31917
  Beta  occ. eigenvalues --   -1.17689  -1.05026  -0.87493  -0.75543  -0.68846
  Beta  occ. eigenvalues --   -0.67923  -0.66818  -0.62468  -0.61389  -0.54904
  Beta  occ. eigenvalues --   -0.53022  -0.52100  -0.51411  -0.50584  -0.49044
  Beta  occ. eigenvalues --   -0.40343
  Beta virt. eigenvalues --   -0.00912   0.03136   0.04928   0.05543   0.05763
  Beta virt. eigenvalues --    0.07024   0.08606   0.10721   0.11187   0.12184
  Beta virt. eigenvalues --    0.12997   0.13187   0.14214   0.15169   0.15566

 Mulliken charges and spin densities:
               1          2
     1  S    2.037429  -0.054382
     2  O   -1.070051  -0.002625
     3  P    0.658314   1.070897
     4  C   -0.108023  -0.013570
     5  H    0.027701   0.000655
     6  H   -0.028455  -0.002996
     7  Cl  -0.425205   0.006772
     8  O   -1.073822  -0.004394
     9  H   -0.017888  -0.000358
 Sum of Mulliken charges =  -0.00000   1.00000

 Dipole moment (field-independent basis, Debye):
    X=             -2.0494    Y=              1.2034    Z=             -3.7117  Tot=              4.4074
                          Isotropic Fermi Contact Couplings
        Atom                 a.u.       MegaHertz       Gauss      10(-4) cm-1
     1  S(33)             -0.03687     -12.66351      -4.51866      -4.22409
     2  O(17)             -0.00348       2.10933       0.75266       0.70360
     3  P(31)              0.24199     438.27214     156.38640     146.19185
     4  C(13)              0.00101       1.13770       0.40596       0.37950
     5  H(1)               0.00122       5.44005       1.94115       1.81461
     6  H(1)               0.00039       1.72536       0.61565       0.57552
     7  Cl(35)             0.04561      19.99868       7.13603       6.67084
     8  O(17)              0.00290      -1.76018      -0.62808      -0.58713

 Normal termination of Gaussian 16 at Tue Apr  8 23:23:07 2025.
