 Gaussian 16, Revision C.01,

 ----------------------------------------------------------------------
 #t hf aug-cc-pvdz symm=none int=(grid=ultrafine) guess=(read,tcheck) s
 table=(opt,rrhf)
 ----------------------------------------------------------------------
 -----
 title
 -----
 Symbolic Z-matrix:
 Charge =  0 Multiplicity = 1

 SCF Done:  E(RHF) =  -170.038694155     A.U. after   12 cycles
 Normal termination of Gaussian 16 at Tue Apr  8 22:51:32 2025.
 Gaussian 16:  ES64L-G16RevC.01  3-Jul-2019

 ----------------------------------------------------------------------
 #t hf aug-cc-pvdz iop(5/13=1,5/36=2,99/5=2) pseudo=read geom=check gue
 ss=(read,tcheck) scf=(maxcycle=1)
 ----------------------------------------------------------------------
 -----
 title
 -----
 Structure from the checkpoint file:  "BDE49_expt_1806_mol1.chk"
 Charge =  0 Multiplicity = 1

                         Standard orientation:
 ---------------------------------------------------------------------
 Center     Atomic      Atomic             Coordinates (Angstroms)
 Number     Number       Type             X           Y           Z
 ---------------------------------------------------------------------
      1          6           0        1.173032   -0.205079    0.000008
      2          8           0       -0.012106    0.575774    0.000009
      3          1           0        1.237700   -0.838757    0.892025
      4          1           0        1.996492    0.512307    0.000002
      5          1           0        1.237685   -0.838772   -0.891997
      6          7           0       -1.148285   -0.311995   -0.000037
      7          1           0       -1.687655   -0.013110   -0.811863
      8          1           0       -1.687563   -0.013426    0.811971
 ---------------------------------------------------------------------

 SCF Done:  E(RHF) =  -170.094069358     A.U. after    2 cycles

 The electronic state is 1-A.
 Alpha  occ. eigenvalues --  -20.59803 -15.67061 -11.27855  -1.35341  -1.07609
 Alpha  occ. eigenvalues --   -0.89281  -0.70216  -0.66871  -0.62567  -0.59233
 Alpha  occ. eigenvalues --   -0.52108  -0.45301  -0.42328
 Alpha virt. eigenvalues --    0.03788   0.04760   0.05161   0.06222   0.07955
 Alpha virt. eigenvalues --    0.10674   0.13299   0.15172   0.17006   0.17632
 Alpha virt. eigenvalues --    0.18660   0.20239   0.22648   0.24667   0.26949

 Mulliken charges:
               1
     1  C    0.807454
     2  O   -0.646247
     3  H   -0.086535
     4  H   -0.193525
     5  H   -0.086538
     6  N    0.033680
     7  H    0.085856
     8  H    0.085855
 Sum of Mulliken charges =   0.00000

 Dipole moment (field-independent basis, Debye):
    X=             -0.5001    Y=             -0.2658    Z=              0.0003  Tot=              0.5664

 Test job not archived.
 1\1\GINC-SE092\SP\RHF\Aug-CC-pVDZ\C1H5N1O1\OHZDE\08-Apr-2025\0\\#t hf
 aug-cc-pvdz iop(5/13=1,5/36=2,99/5=2) pseudo=read geom=check guess=(re
 ad,tcheck) scf=(maxcycle=1)\\title\\0,1\C,0,-1.173032,-0.205079,-0.000
 008\O,0,0.012106,0.575774,-0.000009\H,0,-1.2377,-0.838757,-0.892025\H,
 0,-1.996492,0.512307,-0.000002\H,0,-1.237685,-0.838772,0.891997\N,0,1.
 148285,-0.311995,0.000037\H,0,1.687655,-0.01311,0.811863\H,0,1.687563,
 -0.013426,-0.811971\\Version=ES64L-G16RevC.01\State=1-A\HF=-170.094069
 4\RMSD=2.073e-03\Dipole=0.1967655,-0.1045685,-0.000102\Quadrupole=2.95

 Normal termination of Gaussian 16 at Tue Apr  8 22:51:34 2025.
