 Gaussian 16, Revision C.01,

 ----------------------------------------------------------------------
 #t hf aug-cc-pvdz symm=none int=(grid=ultrafine) guess=(read,tcheck) s
 table=(opt,rrhf)
 ----------------------------------------------------------------------
 -----
 title
 -----
 Symbolic Z-matrix:
 Charge =  0 Multiplicity = 1

 SCF Done:  E(RHF) =  -309.105340154     A.U. after   12 cycles

 1\1\GINC-SE250\Stability\RHF\Aug-CC-pVDZ\C6H12O1\OHZDE\08-Apr-2025\0\\
 #t hf aug-cc-pvdz symm=none int=(grid=ultrafine) guess=(read,tcheck) s
 table=(opt,rrhf)\\title\\0,1\C,0,0.339372,1.255146,-0.180092\C,0,-1.14
 7606,1.27849,0.206211\C,0,1.036192,-0.014103,0.322816\H,0,0.850898,2.1
 40548,0.217627\H,0,0.446823,1.288594,-1.270904\C,0,-1.869775,0.013804,
 -0.280819\H,0,-1.626888,2.173665,-0.201861\H,0,-1.239197,1.348646,1.29
 7827\C,0,0.320197,-1.268958,-0.169164\C,0,-1.166569,-1.258502,0.214722
 \H,0,-1.889808,0.010687,-1.378066\H,0,-2.912988,0.023491,0.050867\H,0,

 Normal termination of Gaussian 16 at Tue Apr  8 22:40:09 2025.
 Gaussian 16:  ES64L-G16RevC.01  3-Jul-2019

 ----------------------------------------------------------------------
 #t hf aug-cc-pvdz iop(5/13=1,5/36=2,99/5=2) pseudo=read geom=check gue
 ss=(read,tcheck) scf=(maxcycle=1)
 ----------------------------------------------------------------------
 -----
 title
 -----
 Structure from the checkpoint file:  "BDE49_expt_1345_mol1.chk"
 Charge =  0 Multiplicity = 1

                         Standard orientation:
 ---------------------------------------------------------------------
 Center     Atomic      Atomic             Coordinates (Angstroms)
 Number     Number       Type             X           Y           Z
 ---------------------------------------------------------------------
      1          6           0        0.339372    1.255146   -0.180092
      2          6           0       -1.147606    1.278490    0.206211
      3          6           0        1.036192   -0.014103    0.322816
      4          1           0        0.850898    2.140548    0.217627
      5          1           0        0.446823    1.288594   -1.270904
      6          6           0       -1.869775    0.013804   -0.280819
      7          1           0       -1.626888    2.173665   -0.201861
      8          1           0       -1.239197    1.348646    1.297827
      9          6           0        0.320197   -1.268958   -0.169164
     10          6           0       -1.166569   -1.258502    0.214722
     11          1           0       -1.889808    0.010687   -1.378066
     12          1           0       -2.912988    0.023491    0.050867
     13          1           0        0.825360   -2.151128    0.234340
     14          1           0        0.427873   -1.311815   -1.259646
     15          1           0       -1.660923   -2.147521   -0.188553
     16          1           0       -1.261741   -1.320790    1.306512
     17          8           0        2.387456   -0.096107   -0.135521
     18          1           0        2.851255    0.690400    0.168539
     19          1           0        1.018830   -0.011185    1.425445
 ---------------------------------------------------------------------

 SCF Done:  E(RHF) =  -309.199851936     A.U. after    2 cycles

 The electronic state is 1-A.
 Alpha  occ. eigenvalues --  -20.56575 -11.28340 -11.23102 -11.22821 -11.22804
 Alpha  occ. eigenvalues --  -11.22745 -11.22190  -1.31567  -1.09981  -0.99928
 Alpha  occ. eigenvalues --   -0.98557  -0.84101  -0.82426  -0.75960  -0.69681
 Alpha  occ. eigenvalues --   -0.65235  -0.61656  -0.61222  -0.59247  -0.55462
 Alpha  occ. eigenvalues --   -0.53410  -0.53146  -0.49627  -0.48761  -0.46701
 Alpha  occ. eigenvalues --   -0.46251  -0.44019  -0.42640
 Alpha virt. eigenvalues --    0.03411   0.04099   0.04416   0.04684   0.06145
 Alpha virt. eigenvalues --    0.06413   0.06693   0.06975   0.07150   0.08946
 Alpha virt. eigenvalues --    0.09130   0.09257   0.13201   0.13997   0.14371

 Mulliken charges:
               1
     1  C    0.211284
     2  C    0.252428
     3  C    0.347820
     4  H   -0.137428
     5  H    0.000848
     6  C    0.244371
     7  H   -0.124760
     8  H   -0.077766
     9  C    0.147545
    10  C    0.308315
    11  H   -0.092903
    12  H   -0.107532
    13  H   -0.064398
    14  H   -0.011600
    15  H   -0.118624
    16  H   -0.083445
    17  O   -0.627876
    18  H    0.135095
    19  H   -0.201375
 Sum of Mulliken charges =  -0.00000

 Dipole moment (field-independent basis, Debye):
    X=             -1.0428    Y=              1.2776    Z=              0.8883  Tot=              1.8732

 Test job not archived.
 1\1\GINC-SE250\SP\RHF\Aug-CC-pVDZ\C6H12O1\OHZDE\08-Apr-2025\0\\#t hf a
 ug-cc-pvdz iop(5/13=1,5/36=2,99/5=2) pseudo=read geom=check guess=(rea
 d,tcheck) scf=(maxcycle=1)\\title\\0,1\C,0,0.339372,1.255146,-0.180092
 \C,0,-1.147606,1.27849,0.206211\C,0,1.036192,-0.014103,0.322816\H,0,0.
 850898,2.140548,0.217627\H,0,0.446823,1.288594,-1.270904\C,0,-1.869775
 ,0.013804,-0.280819\H,0,-1.626888,2.173665,-0.201861\H,0,-1.239197,1.3
 48646,1.297827\C,0,0.320197,-1.268958,-0.169164\C,0,-1.166569,-1.25850
 2,0.214722\H,0,-1.889808,0.010687,-1.378066\H,0,-2.912988,0.023491,0.0

 Normal termination of Gaussian 16 at Tue Apr  8 22:40:16 2025.
