 Gaussian 16, Revision C.01,

 ----------------------------------------------------------------------
 #t hf aug-cc-pvdz symm=none int=(grid=ultrafine) guess=(read,tcheck) s
 table=opt
 ----------------------------------------------------------------------
 -----
 title
 -----
 Symbolic Z-matrix:
 Charge =  0 Multiplicity = 2

 SCF Done:  E(UHF) =  -1914.28714310     A.U. after   18 cycles

 1\1\GINC-SE093\Stability\UHF\Aug-CC-pVDZ\C2H1Cl4\OHZDE\08-Apr-2025\0\\
 #t hf aug-cc-pvdz symm=none int=(grid=ultrafine) guess=(read,tcheck) s
 table=opt\\title\\0,2\C,0,-0.621319,-0.362818,-0.486471\C,0,0.72307,0.
 173783,-0.20116\H,0,-0.588302,-1.010144,-1.35576\Cl,0,-1.805489,0.9392
 7,-0.839527\Cl,0,-1.24568,-1.419107,0.877278\Cl,0,0.972737,1.348682,1.
 011013\Cl,0,2.077126,-0.742706,-0.72632\\Version=ES64L-G16RevC.01\HF=-
 1914.2871431\S2=0.772999\S2-1=0.\S2A=0.750455\RMSD=8.654e-09\Dipole=0.
 2436313,-0.1273886,-0.4238088\Quadrupole=-1.1089513,0.1522119,0.956739

 Normal termination of Gaussian 16 at Tue Apr  8 22:39:38 2025.
 Gaussian 16:  ES64L-G16RevC.01  3-Jul-2019

 ----------------------------------------------------------------------
 #t hf aug-cc-pvdz iop(5/13=1,5/36=2,99/5=2) pseudo=read geom=check gue
 ss=(read,tcheck) scf=(maxcycle=1)
 ----------------------------------------------------------------------
 -----
 title
 -----
 Structure from the checkpoint file:  "BDE49_expt_132_mol2.chk"
 Charge =  0 Multiplicity = 2

                         Standard orientation:
 ---------------------------------------------------------------------
 Center     Atomic      Atomic             Coordinates (Angstroms)
 Number     Number       Type             X           Y           Z
 ---------------------------------------------------------------------
      1          6           0        0.621319    0.362818   -0.486471
      2          6           0       -0.723070   -0.173783   -0.201160
      3          1           0        0.588302    1.010144   -1.355760
      4         17           0        1.805489   -0.939270   -0.839527
      5         17           0        1.245680    1.419107    0.877278
      6         17           0       -0.972737   -1.348682    1.011013
      7         17           0       -2.077126    0.742706   -0.726320
 ---------------------------------------------------------------------

 SCF Done:  E(UHF) =  -1914.38482904     A.U. after    2 cycles

 The electronic state is 2-A.
 Alpha  occ. eigenvalues -- -103.71115-103.70588-103.69080-103.68451 -11.41124
 Alpha  occ. eigenvalues --  -11.40294 -10.74395 -10.73890 -10.72350 -10.71691
 Alpha  occ. eigenvalues --   -8.40020  -8.39912  -8.39788  -8.39520  -8.39404
 Alpha  occ. eigenvalues --   -8.39277  -8.38120  -8.37746  -8.37723  -8.37603
 Alpha  occ. eigenvalues --   -8.37065  -8.37045  -1.28604  -1.21935  -1.18467
 Alpha  occ. eigenvalues --   -1.15429  -1.00702  -0.83027  -0.70814  -0.67359
 Alpha  occ. eigenvalues --   -0.66985  -0.60872  -0.58015  -0.52840  -0.52353
 Alpha  occ. eigenvalues --   -0.49960  -0.49667  -0.48843  -0.47894  -0.47058
 Alpha  occ. eigenvalues --   -0.38939
 Alpha virt. eigenvalues --    0.04086   0.06647   0.06765   0.08162   0.08999
 Alpha virt. eigenvalues --    0.10201   0.11477   0.12789   0.13962   0.14332
 Alpha virt. eigenvalues --    0.14657   0.15958   0.16550   0.16963   0.17391

  Beta  occ. eigenvalues -- -103.71089-103.70562-103.69043-103.68313 -11.41527
  Beta  occ. eigenvalues --  -11.37384 -10.74365 -10.73860 -10.72311 -10.71547
  Beta  occ. eigenvalues --   -8.40261  -8.39771  -8.39754  -8.39570  -8.39259
  Beta  occ. eigenvalues --   -8.39070  -8.37987  -8.37709  -8.37699  -8.37100
  Beta  occ. eigenvalues --   -8.36968  -8.36924  -1.26240  -1.21494  -1.18134
  Beta  occ. eigenvalues --   -1.14614  -0.98210  -0.79654  -0.69716  -0.66284
  Beta  occ. eigenvalues --   -0.61745  -0.60169  -0.54547  -0.52658  -0.50409
  Beta  occ. eigenvalues --   -0.49512  -0.48939  -0.48431  -0.47597  -0.46898
  Beta virt. eigenvalues --    0.03650   0.04221   0.06857   0.07046   0.08775
  Beta virt. eigenvalues --    0.09141   0.10861   0.11869   0.13470   0.14100
  Beta virt. eigenvalues --    0.14506   0.14818   0.16077   0.16938   0.17180

 Mulliken charges and spin densities:
               1          2
     1  C   -0.228349  -0.228849
     2  C    0.264151   1.134960
     3  H    0.135521   0.005355
     4  Cl   0.015903   0.016660
     5  Cl  -0.034815   0.088867
     6  Cl  -0.036917  -0.003966
     7  Cl  -0.115495  -0.013027
 Sum of Mulliken charges =   0.00000   1.00000

 Dipole moment (field-independent basis, Debye):
    X=             -0.6283    Y=              0.3366    Z=             -1.1221  Tot=              1.3294
                          Isotropic Fermi Contact Couplings
        Atom                 a.u.       MegaHertz       Gauss      10(-4) cm-1
     1  C(13)             -0.06289     -70.70259     -25.22844     -23.58385
     2  C(13)              0.32909     369.95709     132.00989     123.40440
     3  H(1)               0.00303      13.53340       4.82906       4.51426
     4  Cl(35)             0.01339       5.87185       2.09522       1.95864
     5  Cl(35)             0.03665      16.06782       5.73340       5.35965
     6  Cl(35)             0.03651      16.00869       5.71230       5.33992
     7  Cl(35)             0.03665      16.07044       5.73433       5.36052
 --------------------------------------------------------

 Normal termination of Gaussian 16 at Tue Apr  8 22:39:41 2025.
