 Gaussian 16, Revision C.01,

 ----------------------------------------------------------------------
 #t hf aug-cc-pvdz symm=none int=(grid=ultrafine) guess=(read,tcheck) s
 table=opt
 ----------------------------------------------------------------------
 -----
 title
 -----
 Symbolic Z-matrix:
 Charge =  0 Multiplicity = 2

 SCF Done:  E(UHF) =  -982.642641881     A.U. after   17 cycles
 Normal termination of Gaussian 16 at Wed Apr  9 00:33:47 2025.
 Gaussian 16:  ES64L-G16RevC.01  3-Jul-2019

 ----------------------------------------------------------------------
 #t hf aug-cc-pvdz iop(5/13=1,5/36=2,99/5=2) pseudo=read geom=check gue
 ss=(read,tcheck) scf=(maxcycle=1)
 ----------------------------------------------------------------------
 -----
 title
 -----
 Structure from the checkpoint file:  "BDE49_nonexpt_463_mol2.chk"
 Charge =  0 Multiplicity = 2

                         Standard orientation:
 ---------------------------------------------------------------------
 Center     Atomic      Atomic             Coordinates (Angstroms)
 Number     Number       Type             X           Y           Z
 ---------------------------------------------------------------------
      1          1           0       -1.456095    2.310602    0.001411
      2          5           0       -0.650073    1.528222   -0.371181
      3          6           0        0.083292    0.468649    0.465131
      4         17           0        1.630373   -0.200817   -0.098048
      5         17           0       -1.388277   -0.577159   -0.048277
      6          1           0        0.091081    0.461997    1.551238
 ---------------------------------------------------------------------

 SCF Done:  E(UHF) =  -982.698134973     A.U. after    2 cycles

 The electronic state is 2-A.
 Alpha  occ. eigenvalues -- -103.69597-103.68459 -11.37703 -10.72837 -10.71730
 Alpha  occ. eigenvalues --   -8.38521  -8.38242  -8.38231  -8.37484  -8.37125
 Alpha  occ. eigenvalues --   -8.37113  -7.66465  -1.22522  -1.15756  -0.92351
 Alpha  occ. eigenvalues --   -0.73554  -0.65044  -0.60036  -0.56187  -0.50627
 Alpha  occ. eigenvalues --   -0.49563  -0.47411  -0.45737  -0.35569
 Alpha virt. eigenvalues --    0.03473   0.04296   0.05262   0.05890   0.07812
 Alpha virt. eigenvalues --    0.08699   0.09456   0.10969   0.12545   0.13007
 Alpha virt. eigenvalues --    0.14690   0.15398   0.16780   0.17275   0.18076

  Beta  occ. eigenvalues -- -103.69601-103.68431 -11.37804 -10.72840 -10.71698
  Beta  occ. eigenvalues --   -8.38545  -8.38283  -8.38186  -8.37389  -8.37109
  Beta  occ. eigenvalues --   -8.37090  -7.64464  -1.22310  -1.15604  -0.91646
  Beta  occ. eigenvalues --   -0.70719  -0.64067  -0.59432  -0.55017  -0.50464
  Beta  occ. eigenvalues --   -0.49243  -0.47319  -0.45395
  Beta virt. eigenvalues --    0.03401   0.04503   0.04750   0.05738   0.07827
  Beta virt. eigenvalues --    0.08722   0.09051   0.09576   0.12533   0.12816
  Beta virt. eigenvalues --    0.13914   0.15652   0.15976   0.17434   0.17747

 Mulliken charges and spin densities:
               1          2
     1  H    0.355758  -0.038045
     2  B   -0.036561   1.106571
     3  C    0.045271  -0.100350
     4  Cl  -0.122977   0.025124
     5  Cl  -0.217604  -0.006760
     6  H   -0.023887   0.013461
 Sum of Mulliken charges =   0.00000   1.00000

 Dipole moment (field-independent basis, Debye):
    X=             -0.1607    Y=              0.7542    Z=              1.5694  Tot=              1.7486
                          Isotropic Fermi Contact Couplings
        Atom                 a.u.       MegaHertz       Gauss      10(-4) cm-1
     1  H(1)               0.00205       9.14583       3.26346       3.05072
     2  B(11)              0.32031     459.43487     163.93779     153.25098
     3  C(13)             -0.02168     -24.37137      -8.69631      -8.12941
     4  Cl(35)             0.02723      11.93807       4.25980       3.98211
     5  Cl(35)             0.00362       1.58808       0.56667       0.52973
     6  H(1)               0.00825      36.88075      13.15997      12.30209
 --------------------------------------------------------
       Center         ----  Spin Dipole Couplings  ----

 Normal termination of Gaussian 16 at Wed Apr  9 00:33:49 2025.
