 Gaussian 16, Revision C.01,

 ----------------------------------------------------------------------
 #t hf aug-cc-pvdz symm=none int=(grid=ultrafine) guess=(read,tcheck) s
 table=(opt,rrhf)
 ----------------------------------------------------------------------
 -----
 title
 -----
 Symbolic Z-matrix:
 Charge =  0 Multiplicity = 1

 SCF Done:  E(RHF) =  -551.332389207     A.U. after   14 cycles
 Normal termination of Gaussian 16 at Tue Apr  8 23:11:08 2025.
 Gaussian 16:  ES64L-G16RevC.01  3-Jul-2019

 ----------------------------------------------------------------------
 #t hf aug-cc-pvdz iop(5/13=1,5/36=2,99/5=2) pseudo=read geom=check gue
 ss=(read,tcheck) scf=(maxcycle=1)
 ----------------------------------------------------------------------
 -----
 title
 -----
 Structure from the checkpoint file:  "BDE49_expt_819_mol1.chk"
 Charge =  0 Multiplicity = 1

                         Standard orientation:
 ---------------------------------------------------------------------
 Center     Atomic      Atomic             Coordinates (Angstroms)
 Number     Number       Type             X           Y           Z
 ---------------------------------------------------------------------
      1         15           0        2.504628   -0.172565   -0.080014
      2          1           0        2.894163   -1.324945    0.650366
      3          6           0        0.707769   -0.151484    0.467869
      4          1           0        2.318125   -0.896010   -1.287733
      5          6           0       -0.111225    0.877235   -0.319356
      6          1           0        0.711851    0.114544    1.530488
      7          1           0        0.261407   -1.143785    0.381492
      8          6           0       -1.574401    0.994688    0.161018
      9          1           0       -0.110093    0.623665   -1.383944
     10          1           0        0.345827    1.867556   -0.230560
     11          6           0       -2.334742   -0.242176   -0.010251
     12          1           0       -2.087407    1.788965   -0.389651
     13          1           0       -1.604129    1.271821    1.219897
     14          7           0       -2.917653   -1.226132   -0.155118
 ---------------------------------------------------------------------

 SCF Done:  E(RHF) =  -551.417096099     A.U. after    2 cycles

 The electronic state is 1-A.
 Alpha  occ. eigenvalues --  -81.26246 -15.63981 -11.29843 -11.28989 -11.27196
 Alpha  occ. eigenvalues --  -11.25879  -7.76592  -4.90587  -4.90534  -4.90213
 Alpha  occ. eigenvalues --   -1.19677  -1.09824  -0.99143  -0.86528  -0.76686
 Alpha  occ. eigenvalues --   -0.71117  -0.64996  -0.62910  -0.60181  -0.55226
 Alpha  occ. eigenvalues --   -0.54092  -0.52292  -0.49893  -0.48294  -0.45917
 Alpha  occ. eigenvalues --   -0.45054  -0.35985
 Alpha virt. eigenvalues --    0.02824   0.03924   0.04243   0.05740   0.06330
 Alpha virt. eigenvalues --    0.06563   0.07159   0.08580   0.09074   0.10074
 Alpha virt. eigenvalues --    0.10633   0.12014   0.12887   0.13578   0.14432

 Mulliken charges:
               1
     1  P    0.112805
     2  H    0.106011
     3  C    0.063493
     4  H    0.122596
     5  C    0.057201
     6  H   -0.134174
     7  H   -0.183455
     8  C    0.447935
     9  H   -0.159092
    10  H   -0.063993
    11  C   -0.200336
    12  H    0.037506
    13  H    0.014605
    14  N   -0.221103
 Sum of Mulliken charges =  -0.00000

 Dipole moment (field-independent basis, Debye):
    X=              1.5175    Y=              2.8060    Z=              0.6130  Tot=              3.2484

 Test job not archived.
 1\1\GINC-SE361\SP\RHF\Aug-CC-pVDZ\C4H8N1P1\OHZDE\08-Apr-2025\0\\#t hf
 aug-cc-pvdz iop(5/13=1,5/36=2,99/5=2) pseudo=read geom=check guess=(re
 ad,tcheck) scf=(maxcycle=1)\\title\\0,1\P,0,2.504628,-0.172565,-0.0800
 14\H,0,2.894163,-1.324945,0.650366\C,0,0.707769,-0.151484,0.467869\H,0
 ,2.318125,-0.89601,-1.287733\C,0,-0.111225,0.877235,-0.319356\H,0,0.71
 1851,0.114544,1.530488\H,0,0.261407,-1.143785,0.381492\C,0,-1.574401,0
 .994688,0.161018\H,0,-0.110093,0.623665,-1.383944\H,0,0.345827,1.86755
 6,-0.23056\C,0,-2.334742,-0.242176,-0.010251\H,0,-2.087407,1.788965,-0

 Normal termination of Gaussian 16 at Tue Apr  8 23:11:13 2025.
