 Gaussian 16, Revision C.01,

 ----------------------------------------------------------------------
 #t hf aug-cc-pvdz symm=none int=(grid=ultrafine) guess=(read,tcheck) s
 table=(opt,rrhf)
 ----------------------------------------------------------------------
 -----
 title
 -----
 Symbolic Z-matrix:
 Charge =  0 Multiplicity = 1

 SCF Done:  E(RHF) =  -1369.48505036     A.U. after   15 cycles
 Normal termination of Gaussian 16 at Wed Apr  9 00:21:02 2025.
 Gaussian 16:  ES64L-G16RevC.01  3-Jul-2019

 ----------------------------------------------------------------------
 #t hf aug-cc-pvdz iop(5/13=1,5/36=2,99/5=2) pseudo=read geom=check gue
 ss=(read,tcheck) scf=(maxcycle=1)
 ----------------------------------------------------------------------
 -----
 title
 -----
 Structure from the checkpoint file:  "BDE49_nonexpt_2668_mol1.chk"
 Charge =  0 Multiplicity = 1

                         Standard orientation:
 ---------------------------------------------------------------------
 Center     Atomic      Atomic             Coordinates (Angstroms)
 Number     Number       Type             X           Y           Z
 ---------------------------------------------------------------------
      1          9           0       -2.161024   -1.267831    0.000324
      2         16           0       -1.705275    0.360037    0.000063
      3          6           0        0.005060    0.311577   -0.000497
      4         16           0        0.607193    1.852747    0.000227
      5         16           0        0.810304   -1.226488   -0.000306
      6          6           0        2.555542   -0.718055    0.000017
      7          1           0        3.120453   -1.650805    0.000135
      8          1           0        2.784635   -0.140287    0.893746
      9          1           0        2.784966   -0.140307   -0.893641
 ---------------------------------------------------------------------

 SCF Done:  E(RHF) =  -1369.60748532     A.U. after    2 cycles

 The electronic state is 1-A.
 Alpha  occ. eigenvalues --  -93.66281 -93.59458 -93.53220 -26.14332 -11.40294
 Alpha  occ. eigenvalues --  -11.29550  -8.95134  -8.89229  -8.83107  -6.29274
 Alpha  occ. eigenvalues --   -6.28909  -6.28460  -6.23362  -6.23097  -6.22803
 Alpha  occ. eigenvalues --   -6.17283  -6.16793  -6.16707  -1.65101  -1.16148
 Alpha  occ. eigenvalues --   -1.05588  -0.96260  -0.92025  -0.77485  -0.74514
 Alpha  occ. eigenvalues --   -0.73384  -0.68555  -0.62479  -0.61423  -0.57114
 Alpha  occ. eigenvalues --   -0.53651  -0.52556  -0.48380  -0.39603  -0.36332
 Alpha  occ. eigenvalues --   -0.35563
 Alpha virt. eigenvalues --    0.02712   0.03159   0.05118   0.05724   0.06049
 Alpha virt. eigenvalues --    0.07322   0.08434   0.09201   0.11057   0.12392
 Alpha virt. eigenvalues --    0.12926   0.13518   0.14094   0.14597   0.15725

 Mulliken charges:
               1
     1  F   -0.623982
     2  S    0.960719
     3  C   -0.728591
     4  S   -0.026916
     5  S    0.512190
     6  C    0.042835
     7  H   -0.104453
     8  H   -0.015894
     9  H   -0.015907
 Sum of Mulliken charges =  -0.00000

 Dipole moment (field-independent basis, Debye):
    X=              2.6177    Y=             -0.5412    Z=             -0.0001  Tot=              2.6731

 Test job not archived.
 1\1\GINC-SE090\SP\RHF\Aug-CC-pVDZ\C2H3F1S3\OHZDE\09-Apr-2025\0\\#t hf
 aug-cc-pvdz iop(5/13=1,5/36=2,99/5=2) pseudo=read geom=check guess=(re
 ad,tcheck) scf=(maxcycle=1)\\title\\0,1\F,0,-2.161025,-1.26783,0.00032
 4\S,0,-1.705275,0.360037,0.000063\C,0,0.00506,0.311577,-0.000497\S,0,0
 .607194,1.852747,0.000227\S,0,0.810303,-1.226488,-0.000306\C,0,2.55554
 2,-0.718056,0.000017\H,0,3.120452,-1.650806,0.000135\H,0,2.784635,-0.1
 40288,0.893746\H,0,2.784966,-0.140308,-0.893641\\Version=ES64L-G16RevC
 .01\State=1-A\HF=-1369.6074853\RMSD=5.866e-03\Dipole=1.0298892,-0.2129

 Normal termination of Gaussian 16 at Wed Apr  9 00:21:06 2025.
