 Gaussian 16, Revision C.01,

 ----------------------------------------------------------------------
 #t hf aug-cc-pvdz symm=none int=(grid=ultrafine) guess=(read,tcheck) s
 table=(opt,rrhf)
 ----------------------------------------------------------------------
 -----
 title
 -----
 Symbolic Z-matrix:
 Charge =  0 Multiplicity = 1

 SCF Done:  E(RHF) =  -182.556591885     A.U. after   13 cycles

 1\1\GINC-SE143\Stability\RHF\Aug-CC-pVDZ\C4H11B1\OHZDE\09-Apr-2025\0\\
 #t hf aug-cc-pvdz symm=none int=(grid=ultrafine) guess=(read,tcheck) s
 table=(opt,rrhf)\\title\\0,1\B,0,-1.105794,1.439337,-0.301141\C,0,-0.6
 24048,0.12269,0.370621\H,0,-1.14885,0.302641,1.341023\C,0,0.88083,0.03
 9645,0.707134\C,0,1.785828,-0.082149,-0.524437\H,0,1.062084,-0.814522,
 1.371461\H,0,1.166336,0.934721,1.269558\H,0,1.576195,-0.990114,-1.0962
 28\H,0,2.8398,-0.114742,-0.235273\C,0,-1.198854,-1.188165,-0.197803\H,
 0,-2.284919,-1.129639,-0.302722\H,0,-0.966648,-2.041392,0.448131\H,0,-

 Normal termination of Gaussian 16 at Wed Apr  9 00:22:28 2025.
 Gaussian 16:  ES64L-G16RevC.01  3-Jul-2019

 ----------------------------------------------------------------------
 #t hf aug-cc-pvdz iop(5/13=1,5/36=2,99/5=2) pseudo=read geom=check gue
 ss=(read,tcheck) scf=(maxcycle=1)
 ----------------------------------------------------------------------
 -----
 title
 -----
 Structure from the checkpoint file:  "BDE49_nonexpt_269_mol1.chk"
 Charge =  0 Multiplicity = 1

                         Standard orientation:
 ---------------------------------------------------------------------
 Center     Atomic      Atomic             Coordinates (Angstroms)
 Number     Number       Type             X           Y           Z
 ---------------------------------------------------------------------
      1          5           0       -1.105794    1.439337   -0.301141
      2          6           0       -0.624048    0.122690    0.370621
      3          1           0       -1.148850    0.302641    1.341023
      4          6           0        0.880830    0.039645    0.707134
      5          6           0        1.785828   -0.082149   -0.524437
      6          1           0        1.062084   -0.814522    1.371461
      7          1           0        1.166336    0.934721    1.269558
      8          1           0        1.576195   -0.990114   -1.096228
      9          1           0        2.839800   -0.114742   -0.235273
     10          6           0       -1.198854   -1.188165   -0.197803
     11          1           0       -2.284919   -1.129639   -0.302722
     12          1           0       -0.966648   -2.041392    0.448131
     13          1           0       -0.790188   -1.407425   -1.187921
     14          1           0        1.654219    0.773084   -1.195832
     15          1           0       -0.487376    2.453560   -0.166289
     16          1           0       -2.154216    1.485022   -0.873291
 ---------------------------------------------------------------------

 SCF Done:  E(RHF) =  -182.616308100     A.U. after    2 cycles

 The electronic state is 1-A.
 Alpha  occ. eigenvalues --  -11.22911 -11.22353 -11.22267 -11.21695  -7.60539
 Alpha  occ. eigenvalues --   -1.06100  -0.97301  -0.87544  -0.79138  -0.66018
 Alpha  occ. eigenvalues --   -0.62174  -0.60475  -0.57203  -0.53900  -0.53616
 Alpha  occ. eigenvalues --   -0.50810  -0.48083  -0.46606  -0.44687  -0.42855
 Alpha virt. eigenvalues --    0.03190   0.04280   0.04410   0.04808   0.06017
 Alpha virt. eigenvalues --    0.06310   0.06686   0.06938   0.07129   0.09421
 Alpha virt. eigenvalues --    0.09445   0.09829   0.11130   0.11257   0.13203

 Mulliken charges:
               1
     1  B   -0.778180
     2  C   -0.344407
     3  H   -0.058395
     4  C    0.329824
     5  C    0.412460
     6  H   -0.109884
     7  H   -0.136667
     8  H   -0.125311
     9  H   -0.076118
    10  C    0.445933
    11  H   -0.138027
    12  H   -0.048032
    13  H   -0.101700
    14  H   -0.079979
    15  H    0.400311
    16  H    0.408173
 Sum of Mulliken charges =   0.00000

 Dipole moment (field-independent basis, Debye):
    X=              0.1676    Y=             -0.4028    Z=              0.3339  Tot=              0.5494

 Test job not archived.
 1\1\GINC-SE143\SP\RHF\Aug-CC-pVDZ\C4H11B1\OHZDE\09-Apr-2025\0\\#t hf a
 ug-cc-pvdz iop(5/13=1,5/36=2,99/5=2) pseudo=read geom=check guess=(rea
 d,tcheck) scf=(maxcycle=1)\\title\\0,1\B,0,-1.105794,1.439337,-0.30114
 1\C,0,-0.624048,0.12269,0.370621\H,0,-1.14885,0.302641,1.341023\C,0,0.
 88083,0.039645,0.707134\C,0,1.785828,-0.082149,-0.524437\H,0,1.062084,
 -0.814522,1.371461\H,0,1.166336,0.934721,1.269558\H,0,1.576195,-0.9901
 14,-1.096228\H,0,2.8398,-0.114742,-0.235273\C,0,-1.198854,-1.188165,-0
 .197803\H,0,-2.284919,-1.129639,-0.302722\H,0,-0.966648,-2.041392,0.44

 Normal termination of Gaussian 16 at Wed Apr  9 00:22:33 2025.
