 Gaussian 16, Revision C.01,

 ----------------------------------------------------------------------
 #t hf aug-cc-pvdz symm=none int=(grid=ultrafine) guess=(read,tcheck) s
 table=(opt,rrhf)
 ----------------------------------------------------------------------
 -----
 title
 -----
 Symbolic Z-matrix:
 Charge =  0 Multiplicity = 1

 SCF Done:  E(RHF) =  -438.443768172     A.U. after   15 cycles
 Normal termination of Gaussian 16 at Tue Apr  8 23:19:53 2025.
 Gaussian 16:  ES64L-G16RevC.01  3-Jul-2019

 ----------------------------------------------------------------------
 #t hf aug-cc-pvdz iop(5/13=1,5/36=2,99/5=2) pseudo=read geom=check gue
 ss=(read,tcheck) scf=(maxcycle=1)
 ----------------------------------------------------------------------
 -----
 title
 -----
 Structure from the checkpoint file:  "BDE49_nonexpt_1161_mol1.chk"
 Charge =  0 Multiplicity = 1

                         Standard orientation:
 ---------------------------------------------------------------------
 Center     Atomic      Atomic             Coordinates (Angstroms)
 Number     Number       Type             X           Y           Z
 ---------------------------------------------------------------------
      1          9           0       -1.887475   -0.076832    0.060635
      2          8           0       -0.694595   -0.877669   -0.155922
      3          6           0        0.408122    0.029791   -0.025822
      4          8           0        1.477608   -0.753964   -0.373303
      5          1           0        1.751506   -1.219656    0.426216
      6          8           0        0.446700    0.445318    1.297116
      7          1           0        0.872606    1.310328    1.304892
      8          8           0        0.333520    1.070525   -0.914799
      9          1           0       -0.591438    1.348393   -0.946620
 ---------------------------------------------------------------------

 SCF Done:  E(RHF) =  -438.588926179     A.U. after    2 cycles

 The electronic state is 1-A.
 Alpha  occ. eigenvalues --  -26.18025 -20.72266 -20.62894 -20.62746 -20.62640
 Alpha  occ. eigenvalues --  -11.50578  -1.68372  -1.48815  -1.36659  -1.35686
 Alpha  occ. eigenvalues --   -1.31655  -0.93331  -0.85797  -0.81198  -0.78747
 Alpha  occ. eigenvalues --   -0.77199  -0.72667  -0.69406  -0.67538  -0.65486
 Alpha  occ. eigenvalues --   -0.61748  -0.58144  -0.57641  -0.55285  -0.54704
 Alpha virt. eigenvalues --    0.03007   0.04410   0.05505   0.09095   0.10185
 Alpha virt. eigenvalues --    0.11562   0.13913   0.14810   0.18224   0.18468
 Alpha virt. eigenvalues --    0.18851   0.20113   0.20265   0.23166   0.25163

 Mulliken charges:
               1
     1  F   -0.367395
     2  O   -0.190586
     3  C    1.581640
     4  O   -0.485688
     5  H    0.156204
     6  O   -0.541929
     7  H    0.177625
     8  O   -0.519437
     9  H    0.189567
 Sum of Mulliken charges =   0.00000

 Dipole moment (field-independent basis, Debye):
    X=              1.3994    Y=              1.3167    Z=              1.2580  Tot=              2.2967

 Test job not archived.
 1\1\GINC-SE366\SP\RHF\Aug-CC-pVDZ\C1H3F1O4\OHZDE\08-Apr-2025\0\\#t hf
 aug-cc-pvdz iop(5/13=1,5/36=2,99/5=2) pseudo=read geom=check guess=(re
 ad,tcheck) scf=(maxcycle=1)\\title\\0,1\F,0,-1.887475,-0.076832,0.0606
 35\O,0,-0.694595,-0.877669,-0.155922\C,0,0.408122,0.029791,-0.025822\O
 ,0,1.477608,-0.753965,-0.373303\H,0,1.751505,-1.219657,0.426216\O,0,0.
 4467,0.445318,1.297116\H,0,0.872606,1.310328,1.304892\O,0,0.33352,1.07
 0525,-0.914799\H,0,-0.591438,1.348393,-0.94662\\Version=ES64L-G16RevC.
 01\State=1-A\HF=-438.5889262\RMSD=3.363e-03\Dipole=0.550568,0.5180434,

 Normal termination of Gaussian 16 at Tue Apr  8 23:19:56 2025.
