 Gaussian 16, Revision C.01,

 ----------------------------------------------------------------------
 #t hf aug-cc-pvdz symm=none int=(grid=ultrafine) guess=(read,tcheck) s
 table=(opt,rrhf)
 ----------------------------------------------------------------------
 -----
 title
 -----
 Symbolic Z-matrix:
 Charge =  0 Multiplicity = 1

 SCF Done:  E(RHF) =  -869.654368896     A.U. after   19 cycles
 Normal termination of Gaussian 16 at Tue Apr  8 23:15:21 2025.
 Gaussian 16:  ES64L-G16RevC.01  3-Jul-2019

 ----------------------------------------------------------------------
 #t hf aug-cc-pvdz iop(5/13=1,5/36=2,99/5=2) pseudo=read geom=check gue
 ss=(read,tcheck) scf=(maxcycle=1)
 ----------------------------------------------------------------------
 -----
 title
 -----
 Structure from the checkpoint file:  "BDE49_nonexpt_1002_mol1.chk"
 Charge =  0 Multiplicity = 1

                         Standard orientation:
 ---------------------------------------------------------------------
 Center     Atomic      Atomic             Coordinates (Angstroms)
 Number     Number       Type             X           Y           Z
 ---------------------------------------------------------------------
      1          6           0       -3.637479   -0.388544   -0.034508
      2          6           0       -3.209926    0.939707   -0.015874
      3          6           0       -1.852862    1.232515    0.005946
      4          6           0       -2.703896   -1.423223   -0.031396
      5          6           0       -1.343589   -1.133405   -0.009722
      6          6           0       -0.909204    0.196066    0.009267
      7          1           0       -4.697299   -0.616496   -0.051550
      8          1           0       -3.936141    1.744300   -0.018232
      9          1           0       -1.499267    2.255743    0.020860
     10          1           0       -3.034809   -2.455006   -0.046681
     11          1           0       -0.621664   -1.941059   -0.009655
     12          6           0        0.532087    0.583413    0.034457
     13         16           0        1.723521   -0.817984    0.081183
     14          7           0        3.308258    0.328334   -0.090888
     15          8           0        4.309910   -0.251191   -0.070839
     16          8           0        0.915622    1.721535    0.032530
 ---------------------------------------------------------------------

 SCF Done:  E(RHF) =  -869.812912193     A.U. after    2 cycles

 The electronic state is 1-A.
 Alpha  occ. eigenvalues --  -93.57412 -20.71061 -20.58548 -15.85355 -11.39478
 Alpha  occ. eigenvalues --  -11.27737 -11.27616 -11.27385 -11.27062 -11.26600
 Alpha  occ. eigenvalues --  -11.26436  -8.87102  -6.21132  -6.20967  -6.20614
 Alpha  occ. eigenvalues --   -1.56433  -1.38615  -1.17100  -1.06152  -1.03654
 Alpha  occ. eigenvalues --   -1.02116  -0.92497  -0.87471  -0.85062  -0.78660
 Alpha  occ. eigenvalues --   -0.74241  -0.72196  -0.70611  -0.67777  -0.67516
 Alpha  occ. eigenvalues --   -0.66069  -0.63480  -0.61630  -0.60435  -0.59730
 Alpha  occ. eigenvalues --   -0.54290  -0.52205  -0.52068  -0.43109  -0.40031
 Alpha  occ. eigenvalues --   -0.38854  -0.36470  -0.36217
 Alpha virt. eigenvalues --    0.02859   0.03832   0.04286   0.04605   0.06169
 Alpha virt. eigenvalues --    0.06323   0.06484   0.07561   0.09276   0.09515
 Alpha virt. eigenvalues --    0.10019   0.10680   0.11167   0.12266   0.12705

 Mulliken charges:
               1
     1  C    0.423821
     2  C    0.768783
     3  C   -0.227718
     4  C    0.447082
     5  C    0.297754
     6  C    1.452370
     7  H   -0.431884
     8  H   -0.410762
     9  H   -0.610631
    10  H   -0.434684
    11  H   -0.481431
    12  C   -0.535238
    13  S    0.554819
    14  N   -0.039492
    15  O   -0.294360
    16  O   -0.478428
 Sum of Mulliken charges =  -0.00000

 Dipole moment (field-independent basis, Debye):
    X=             -3.5185    Y=             -1.9061    Z=             -0.0579  Tot=              4.0021

 Test job not archived.
 1\1\GINC-SE009\SP\RHF\Aug-CC-pVDZ\C7H5N1O2S1\OHZDE\08-Apr-2025\0\\#t h
 f aug-cc-pvdz iop(5/13=1,5/36=2,99/5=2) pseudo=read geom=check guess=(
 read,tcheck) scf=(maxcycle=1)\\title\\0,1\C,0,-3.637479,-0.388544,-0.0
 34508\C,0,-3.209926,0.939707,-0.015874\C,0,-1.852862,1.232515,0.005946
 \C,0,-2.703896,-1.423223,-0.031396\C,0,-1.343589,-1.133405,-0.009722\C
 ,0,-0.909204,0.196066,0.009267\H,0,-4.697299,-0.616496,-0.05155\H,0,-3
 .936141,1.7443,-0.018232\H,0,-1.499267,2.255743,0.02086\H,0,-3.034809,
 -2.455006,-0.046681\H,0,-0.621664,-1.941059,-0.009655\C,0,0.532087,0.5

 Normal termination of Gaussian 16 at Tue Apr  8 23:15:30 2025.
