 Gaussian 16, Revision C.01,

 ----------------------------------------------------------------------
 #t hf aug-cc-pvdz symm=none int=(grid=ultrafine) guess=(read,tcheck) s
 table=(opt,rrhf)
 ----------------------------------------------------------------------
 -----
 title
 -----
 Symbolic Z-matrix:
 Charge =  0 Multiplicity = 1

 SCF Done:  E(RHF) =  -496.908353867     A.U. after   13 cycles
 Normal termination of Gaussian 16 at Tue Apr  8 23:50:21 2025.
 Gaussian 16:  ES64L-G16RevC.01  3-Jul-2019

 ----------------------------------------------------------------------
 #t hf aug-cc-pvdz iop(5/13=1,5/36=2,99/5=2) pseudo=read geom=check gue
 ss=(read,tcheck) scf=(maxcycle=1)
 ----------------------------------------------------------------------
 -----
 title
 -----
 Structure from the checkpoint file:  "BDE49_nonexpt_1913_mol1.chk"
 Charge =  0 Multiplicity = 1

                         Standard orientation:
 ---------------------------------------------------------------------
 Center     Atomic      Atomic             Coordinates (Angstroms)
 Number     Number       Type             X           Y           Z
 ---------------------------------------------------------------------
      1         14           0        1.860909   -0.424783    0.009110
      2          6           0        0.558745    0.949287   -0.198380
      3          1           0        3.134996    0.034592   -0.593326
      4          1           0        1.393606   -1.647373   -0.681929
      5          1           0        2.060335   -0.710495    1.446101
      6          7           0       -0.718206    0.566248    0.367715
      7          6           0       -1.722768   -0.011495    0.055181
      8          8           0       -2.748496   -0.547660   -0.134527
      9          1           0        0.453035    1.213401   -1.256241
     10          1           0        0.904853    1.847617    0.319264
 ---------------------------------------------------------------------

 SCF Done:  E(RHF) =  -496.997947039     A.U. after    2 cycles

 The electronic state is 1-A.
 Alpha  occ. eigenvalues --  -69.07923 -20.61767 -15.65862 -11.41368 -11.29962
 Alpha  occ. eigenvalues --   -6.83248  -3.94030  -3.94018  -3.94004  -1.41926
 Alpha  occ. eigenvalues --   -1.24035  -0.99270  -0.75117  -0.72202  -0.69616
 Alpha  occ. eigenvalues --   -0.66845  -0.65357  -0.60222  -0.53427  -0.49490
 Alpha  occ. eigenvalues --   -0.49165  -0.44360  -0.40168
 Alpha virt. eigenvalues --    0.02872   0.04167   0.04451   0.05758   0.07066
 Alpha virt. eigenvalues --    0.07883   0.08562   0.08716   0.09232   0.11848
 Alpha virt. eigenvalues --    0.11887   0.13082   0.13823   0.14943   0.15821

 Mulliken charges:
               1
     1  Si   0.564769
     2  C    0.548334
     3  H   -0.033113
     4  H   -0.045648
     5  H   -0.044468
     6  N   -0.127734
     7  C   -0.224204
     8  O   -0.230483
     9  H   -0.197681
    10  H   -0.209770
 Sum of Mulliken charges =  -0.00000

 Dipole moment (field-independent basis, Debye):
    X=              3.0764    Y=              1.3868    Z=             -0.6523  Tot=              3.4370

 Test job not archived.
 1\1\GINC-SE073\SP\RHF\Aug-CC-pVDZ\C2H5N1O1Si1\OHZDE\08-Apr-2025\0\\#t
 hf aug-cc-pvdz iop(5/13=1,5/36=2,99/5=2) pseudo=read geom=check guess=
 (read,tcheck) scf=(maxcycle=1)\\title\\0,1\Si,0,1.860909,-0.424783,0.0
 0911\C,0,0.558745,0.949287,-0.19838\H,0,3.134996,0.034592,-0.593326\H,
 0,1.393606,-1.647373,-0.681929\H,0,2.060335,-0.710495,1.446101\N,0,-0.
 718206,0.566248,0.367715\C,0,-1.722768,-0.011495,0.055181\O,0,-2.74849
 6,-0.54766,-0.134527\H,0,0.453035,1.213401,-1.256241\H,0,0.904853,1.84
 7617,0.319264\\Version=ES64L-G16RevC.01\State=1-A\HF=-496.997947\RMSD=

 Normal termination of Gaussian 16 at Tue Apr  8 23:50:24 2025.
