 Gaussian 16, Revision C.01,

 ----------------------------------------------------------------------
 #t hf aug-cc-pvdz symm=none int=(grid=ultrafine) guess=(read,tcheck) s
 table=(opt,rrhf)
 ----------------------------------------------------------------------
 -----
 title
 -----
 Symbolic Z-matrix:
 Charge =  0 Multiplicity = 1

 SCF Done:  E(RHF) =  -1189.93855285     A.U. after   15 cycles
 Normal termination of Gaussian 16 at Wed Apr  9 00:11:11 2025.
 Gaussian 16:  ES64L-G16RevC.01  3-Jul-2019

 ----------------------------------------------------------------------
 #t hf aug-cc-pvdz iop(5/13=1,5/36=2,99/5=2) pseudo=read geom=check gue
 ss=(read,tcheck) scf=(maxcycle=1)
 ----------------------------------------------------------------------
 -----
 title
 -----
 Structure from the checkpoint file:  "BDE49_nonexpt_238_mol1.chk"
 Charge =  0 Multiplicity = 1

                         Standard orientation:
 ---------------------------------------------------------------------
 Center     Atomic      Atomic             Coordinates (Angstroms)
 Number     Number       Type             X           Y           Z
 ---------------------------------------------------------------------
      1         17           0       -2.074523    1.499732   -0.000001
      2          5           0       -1.146150   -0.010179   -0.000015
      3         17           0       -2.042278   -1.517142   -0.000000
      4          6           0        0.414725    0.012665   -0.000005
      5          6           0        1.139697    1.214113   -0.000004
      6          7           0        1.037478   -1.189417    0.000001
      7          6           0        2.365225   -1.212937    0.000008
      8          6           0        2.530938    1.175463    0.000004
      9          6           0        3.159711   -0.062420    0.000010
     10          1           0        0.616788    2.161973   -0.000009
     11          1           0        3.108823    2.092615    0.000005
     12          1           0        4.240224   -0.146108    0.000016
     13          1           0        2.826419   -2.197005    0.000012
 ---------------------------------------------------------------------

 SCF Done:  E(RHF) =  -1190.04955257     A.U. after    2 cycles

 The electronic state is 1-A.
 Alpha  occ. eigenvalues -- -103.66802-103.66085 -15.64954 -11.29786 -11.28636
 Alpha  occ. eigenvalues --  -11.28134 -11.27462 -11.27283 -10.70284 -10.69573
 Alpha  occ. eigenvalues --   -8.35976  -8.35758  -8.35734  -8.35270  -8.35049
 Alpha  occ. eigenvalues --   -8.35006  -7.72970  -1.24431  -1.17779  -1.14056
 Alpha  occ. eigenvalues --   -1.09217  -1.04248  -0.87597  -0.87016  -0.74709
 Alpha  occ. eigenvalues --   -0.69142  -0.68376  -0.64811  -0.61053  -0.59629
 Alpha  occ. eigenvalues --   -0.56852  -0.56293  -0.53781  -0.51844  -0.47891
 Alpha  occ. eigenvalues --   -0.47539  -0.46158  -0.42289  -0.39784  -0.36672
 Alpha virt. eigenvalues --    0.02636   0.03413   0.03778   0.04630   0.05559
 Alpha virt. eigenvalues --    0.05957   0.06490   0.07281   0.08520   0.08553
 Alpha virt. eigenvalues --    0.11540   0.11632   0.12795   0.12850   0.13379

 Mulliken charges:
               1
     1  Cl  -0.348695
     2  B    0.539954
     3  Cl  -0.295114
     4  C    0.368447
     5  C    0.604201
     6  N   -0.366710
     7  C    0.583985
     8  C   -0.209971
     9  C    0.888616
    10  H   -0.586740
    11  H   -0.402108
    12  H   -0.400101
    13  H   -0.375762
 Sum of Mulliken charges =  -0.00000

 Dipole moment (field-independent basis, Debye):
    X=              3.7024    Y=              1.6508    Z=             -0.0000  Tot=              4.0538

 Test job not archived.
 1\1\GINC-SE250\SP\RHF\Aug-CC-pVDZ\C5H4B1Cl2N1\OHZDE\09-Apr-2025\0\\#t
 hf aug-cc-pvdz iop(5/13=1,5/36=2,99/5=2) pseudo=read geom=check guess=
 (read,tcheck) scf=(maxcycle=1)\\title\\0,1\Cl,0,-2.074523,1.499732,-0.
 000001\B,0,-1.14615,-0.010179,-0.000015\Cl,0,-2.042278,-1.517142,0.\C,
 0,0.414725,0.012665,-0.000005\C,0,1.139697,1.214113,-0.000004\N,0,1.03
 7478,-1.189417,0.000001\C,0,2.365225,-1.212937,0.000008\C,0,2.530938,1
 .175463,0.000004\C,0,3.159711,-0.06242,0.00001\H,0,0.616788,2.161973,-
 0.000009\H,0,3.108823,2.092615,0.000005\H,0,4.240224,-0.146108,0.00001

 Normal termination of Gaussian 16 at Wed Apr  9 00:11:18 2025.
