 Gaussian 16, Revision C.01,

 ----------------------------------------------------------------------
 #t hf aug-cc-pvdz symm=none int=(grid=ultrafine) guess=(read,tcheck) s
 table=opt
 ----------------------------------------------------------------------
 -----
 title
 -----
 Symbolic Z-matrix:
 Charge =  0 Multiplicity = 2

 SCF Done:  E(UHF) =  -464.260391907     a.u. after    7 cycles
 Normal termination of Gaussian 16 at Tue Apr  8 23:55:24 2025.
 Gaussian 16:  ES64L-G16RevC.01  3-Jul-2019

 ----------------------------------------------------------------------
 #t hf aug-cc-pvdz iop(5/13=1,5/36=2,99/5=2) pseudo=read geom=check gue
 ss=(read,tcheck) scf=(maxcycle=1)
 ----------------------------------------------------------------------
 -----
 title
 -----
 Structure from the checkpoint file:  "BDE49_nonexpt_2015_mol2.chk"
 Charge =  0 Multiplicity = 2

                         Standard orientation:
 ---------------------------------------------------------------------
 Center     Atomic      Atomic             Coordinates (Angstroms)
 Number     Number       Type             X           Y           Z
 ---------------------------------------------------------------------
      1         14           0       -1.007923   -0.163865   -0.107883
      2          8           0        0.456619    0.677984    0.114654
      3          9           0        1.502727   -0.318755   -0.049246
      4          1           0       -1.930060    0.976020    0.122600
      5          1           0       -1.136520   -1.236993    0.913746
 ---------------------------------------------------------------------

 SCF Done:  E(UHF) =  -464.347722468     A.U. after    2 cycles

 The electronic state is 2-A.
 Alpha  occ. eigenvalues --  -69.13554 -26.16595 -20.69027  -6.88485  -3.99701
 Alpha  occ. eigenvalues --   -3.99007  -3.98825  -1.65462  -1.29662  -0.80425
 Alpha  occ. eigenvalues --   -0.76985  -0.73620  -0.67376  -0.60068  -0.58582
 Alpha  occ. eigenvalues --   -0.51754  -0.36765
 Alpha virt. eigenvalues --    0.03909   0.05045   0.05861   0.06508   0.08028
 Alpha virt. eigenvalues --    0.09649   0.12523   0.14433   0.16775   0.17992
 Alpha virt. eigenvalues --    0.20769   0.22085   0.23108   0.27158   0.28042

  Beta  occ. eigenvalues --  -69.12985 -26.17694 -20.68049  -6.87586  -3.98657
  Beta  occ. eigenvalues --   -3.98478  -3.97599  -1.68493  -1.27047  -0.80417
  Beta  occ. eigenvalues --   -0.77405  -0.75340  -0.65803  -0.57783  -0.56819
  Beta  occ. eigenvalues --   -0.50180
  Beta virt. eigenvalues --    0.01527   0.04281   0.05410   0.06094   0.08120
  Beta virt. eigenvalues --    0.08716   0.10278   0.13691   0.16438   0.19470
  Beta virt. eigenvalues --    0.20057   0.21164   0.23094   0.23906   0.28013

 Mulliken charges and spin densities:
               1          2
     1  Si   0.826546   0.849149
     2  O   -0.394958   0.214341
     3  F   -0.301039  -0.193091
     4  H   -0.055722   0.050810
     5  H   -0.074827   0.078790
 Sum of Mulliken charges =  -0.00000   1.00000

 Dipole moment (field-independent basis, Debye):
    X=             -2.5866    Y=             -0.4617    Z=             -0.2107  Tot=              2.6359
                          Isotropic Fermi Contact Couplings
        Atom                 a.u.       MegaHertz       Gauss      10(-4) cm-1
     1  Si(29)             0.68687    -610.43946    -217.81998    -203.62069
     2  O(17)             -0.01794      10.87634       3.88095       3.62796
     3  F(19)             -0.02320     -97.60896     -34.82930     -32.55884
     4  H(1)               0.01334      59.62075      21.27416      19.88734
     5  H(1)               0.02238     100.03933      35.69652      33.36953
 --------------------------------------------------------
       Center         ----  Spin Dipole Couplings  ----
                      3XX-RR        3YY-RR        3ZZ-RR

 Normal termination of Gaussian 16 at Tue Apr  8 23:55:26 2025.
