 Gaussian 16, Revision C.01,

 ----------------------------------------------------------------------
 #t hf aug-cc-pvdz symm=none int=(grid=ultrafine) guess=(read,tcheck) s
 table=opt
 ----------------------------------------------------------------------
 -----
 title
 -----
 Symbolic Z-matrix:
 Charge =  0 Multiplicity = 2

 SCF Done:  E(UHF) =  -191.299370952     A.U. after   18 cycles
 Normal termination of Gaussian 16 at Tue Apr  8 22:58:45 2025.
 Gaussian 16:  ES64L-G16RevC.01  3-Jul-2019

 ----------------------------------------------------------------------
 #t hf aug-cc-pvdz iop(5/13=1,5/36=2,99/5=2) pseudo=read geom=check gue
 ss=(read,tcheck) scf=(maxcycle=1)
 ----------------------------------------------------------------------
 -----
 title
 -----
 Structure from the checkpoint file:  "BDE49_expt_196_mol2.chk"
 Charge =  0 Multiplicity = 2

                         Standard orientation:
 ---------------------------------------------------------------------
 Center     Atomic      Atomic             Coordinates (Angstroms)
 Number     Number       Type             X           Y           Z
 ---------------------------------------------------------------------
      1          8           0       -0.778411    0.837253    0.104493
      2          6           0        0.147187   -0.031744   -0.415729
      3          6           0       -1.106091   -0.598497    0.047522
      4          1           0       -1.881858   -0.859800   -0.665714
      5          1           0       -1.187643   -1.061473    1.029627
      6          6           0        1.550785   -0.105341    0.069436
      7          1           0        1.583742   -0.233400    1.162012
      8          1           0        2.087279    0.814579   -0.176460
      9          1           0        2.074475   -0.944439   -0.392780
 ---------------------------------------------------------------------

 SCF Done:  E(UHF) =  -191.361384102     A.U. after    2 cycles

 The electronic state is 2-A.
 Alpha  occ. eigenvalues --  -20.59927 -11.31205 -11.30277 -11.24740  -1.39671
 Alpha  occ. eigenvalues --   -1.01570  -0.92526  -0.80459  -0.70672  -0.65814
 Alpha  occ. eigenvalues --   -0.60663  -0.57767  -0.54698  -0.51108  -0.46721
 Alpha  occ. eigenvalues --   -0.36597
 Alpha virt. eigenvalues --    0.03532   0.04598   0.05034   0.05871   0.07292
 Alpha virt. eigenvalues --    0.08981   0.09891   0.13168   0.13653   0.15314
 Alpha virt. eigenvalues --    0.16151   0.16321   0.17172   0.17423   0.18050

  Beta  occ. eigenvalues --  -20.59400 -11.30401 -11.28555 -11.24767  -1.37912
  Beta  occ. eigenvalues --   -0.99423  -0.91763  -0.76940  -0.67002  -0.63244
  Beta  occ. eigenvalues --   -0.59511  -0.56560  -0.53896  -0.47647  -0.45422
  Beta virt. eigenvalues --    0.03357   0.04598   0.05076   0.05868   0.07296
  Beta virt. eigenvalues --    0.08273   0.09880   0.12171   0.13542   0.14278
  Beta virt. eigenvalues --    0.15801   0.16241   0.16372   0.17367   0.18129

 Mulliken charges and spin densities:
               1          2
     1  O   -0.678072   0.055358
     2  C   -0.258748   1.117543
     3  C    0.978554  -0.103544
     4  H   -0.200665  -0.001059
     5  H   -0.212198   0.011142
     6  C    0.267433  -0.116374
     7  H    0.033996   0.047754
     8  H    0.028083  -0.003239
     9  H    0.041616  -0.007581
 Sum of Mulliken charges =  -0.00000   1.00000

 Dipole moment (field-independent basis, Debye):
    X=              0.7941    Y=             -2.1963    Z=              0.1928  Tot=              2.3434
                          Isotropic Fermi Contact Couplings
        Atom                 a.u.       MegaHertz       Gauss      10(-4) cm-1
     1  O(17)              0.06423     -38.93516     -13.89303     -12.98737
     2  C(13)              0.41744     469.28672     167.45317     156.53720
     3  C(13)             -0.01759     -19.77422      -7.05593      -6.59597
     4  H(1)               0.00319      14.24905       5.08441       4.75297
     5  H(1)               0.00277      12.37647       4.41623       4.12835
     6  C(13)              0.00313       3.51478       1.25416       1.17240
     7  H(1)               0.01979      88.47836      31.57128      29.51321
     8  H(1)               0.00374      16.73705       5.97220       5.58288

 Normal termination of Gaussian 16 at Tue Apr  8 22:58:49 2025.
