 Gaussian 16, Revision C.01,

 ----------------------------------------------------------------------
 #t hf aug-cc-pvdz symm=none int=(grid=ultrafine) guess=(read,tcheck) s
 table=(opt,rrhf)
 ----------------------------------------------------------------------
 -----
 title
 -----
 Symbolic Z-matrix:
 Charge =  0 Multiplicity = 1

 SCF Done:  E(RHF) =  -330.920396101     A.U. after   14 cycles
 Normal termination of Gaussian 16 at Tue Apr  8 23:19:09 2025.
 Gaussian 16:  ES64L-G16RevC.01  3-Jul-2019

 ----------------------------------------------------------------------
 #t hf aug-cc-pvdz iop(5/13=1,5/36=2,99/5=2) pseudo=read geom=check gue
 ss=(read,tcheck) scf=(maxcycle=1)
 ----------------------------------------------------------------------
 -----
 title
 -----
 Structure from the checkpoint file:  "BDE49_nonexpt_1123_mol1.chk"
 Charge =  0 Multiplicity = 1

                         Standard orientation:
 ---------------------------------------------------------------------
 Center     Atomic      Atomic             Coordinates (Angstroms)
 Number     Number       Type             X           Y           Z
 ---------------------------------------------------------------------
      1          9           0        1.861672   -1.139195    0.145262
      2          8           0        0.593524   -0.772396   -0.457256
      3          6           0        0.119849    0.367221    0.272863
      4          6           0       -1.320731    0.529111   -0.232772
      5          6           0        0.999399    1.585737    0.030180
      6          1           0        0.983988    1.865582   -1.026270
      7          1           0        2.029097    1.371240    0.317634
      8          1           0        0.645867    2.433472    0.623158
      9          1           0        0.109390    0.098234    1.335455
     10          6           0       -2.261755   -0.609254    0.169276
     11          1           0       -1.293990    0.639121   -1.322185
     12          1           0       -1.685188    1.481599    0.165466
     13          1           0       -1.917138   -1.564965   -0.228483
     14          1           0       -3.270753   -0.427611   -0.208839
     15          1           0       -2.325083   -0.701630    1.257467
 ---------------------------------------------------------------------

 SCF Done:  E(RHF) =  -331.030101406     A.U. after    2 cycles

 The electronic state is 1-A.
 Alpha  occ. eigenvalues --  -26.14544 -20.68869 -11.31334 -11.25180 -11.23719
 Alpha  occ. eigenvalues --  -11.23408  -1.64894  -1.31434  -1.06529  -0.99665
 Alpha  occ. eigenvalues --   -0.88321  -0.82553  -0.75993  -0.73455  -0.72655
 Alpha  occ. eigenvalues --   -0.64333  -0.61645  -0.60622  -0.59307  -0.56701
 Alpha  occ. eigenvalues --   -0.54213  -0.52436  -0.50377  -0.48822  -0.48039
 Alpha virt. eigenvalues --    0.03330   0.04325   0.04542   0.05263   0.06576
 Alpha virt. eigenvalues --    0.06733   0.06918   0.08281   0.09381   0.11322
 Alpha virt. eigenvalues --    0.12013   0.13435   0.14198   0.14966   0.16196

 Mulliken charges:
               1
     1  F   -0.389287
     2  O   -0.273176
     3  C    0.185914
     4  C    0.209865
     5  C    0.310690
     6  H    0.018732
     7  H   -0.000483
     8  H    0.010679
     9  H   -0.189086
    10  C    0.429535
    11  H   -0.067186
    12  H   -0.081460
    13  H   -0.040871
    14  H   -0.048509
    15  H   -0.075357
 Sum of Mulliken charges =  -0.00000

 Dipole moment (field-independent basis, Debye):
    X=             -2.1785    Y=              2.3286    Z=              0.5654  Tot=              3.2385

 Test job not archived.
 1\1\GINC-SE361\SP\RHF\Aug-CC-pVDZ\C4H9F1O1\OHZDE\08-Apr-2025\0\\#t hf
 aug-cc-pvdz iop(5/13=1,5/36=2,99/5=2) pseudo=read geom=check guess=(re
 ad,tcheck) scf=(maxcycle=1)\\title\\0,1\F,0,1.861672,-1.139195,0.14526
 2\O,0,0.593524,-0.772396,-0.457256\C,0,0.119849,0.367221,0.272863\C,0,
 -1.320731,0.529111,-0.232772\C,0,0.999399,1.585737,0.03018\H,0,0.98398
 8,1.865582,-1.02627\H,0,2.029097,1.37124,0.317634\H,0,0.645867,2.43347
 2,0.623158\H,0,0.10939,0.098234,1.335455\C,0,-2.261755,-0.609254,0.169
 276\H,0,-1.29399,0.639121,-1.322185\H,0,-1.685188,1.481599,0.165466\H,

 Normal termination of Gaussian 16 at Tue Apr  8 23:19:13 2025.
