 Gaussian 16, Revision C.01,

 ----------------------------------------------------------------------
 #t hf aug-cc-pvdz symm=none int=(grid=ultrafine) guess=(read,tcheck) s
 table=(opt,rrhf)
 ----------------------------------------------------------------------
 -----
 title
 -----
 Symbolic Z-matrix:
 Charge =  0 Multiplicity = 1

 SCF Done:  E(RHF) =  -1078.58958286     A.U. after   13 cycles
 Normal termination of Gaussian 16 at Tue Apr  8 23:42:29 2025.
 Gaussian 16:  ES64L-G16RevC.01  3-Jul-2019

 ----------------------------------------------------------------------
 #t hf aug-cc-pvdz iop(5/13=1,5/36=2,99/5=2) pseudo=read geom=check gue
 ss=(read,tcheck) scf=(maxcycle=1)
 ----------------------------------------------------------------------
 -----
 title
 -----
 Structure from the checkpoint file:  "BDE49_nonexpt_1713_mol1.chk"
 Charge =  0 Multiplicity = 1

                         Standard orientation:
 ---------------------------------------------------------------------
 Center     Atomic      Atomic             Coordinates (Angstroms)
 Number     Number       Type             X           Y           Z
 ---------------------------------------------------------------------
      1         16           0        0.716688   -1.123682   -0.050560
      2         15           0       -0.913193    0.214329   -0.045124
      3          8           0       -0.632189    1.571813   -0.529888
      4          8           0       -1.543148    0.137623    1.419455
      5          8           0        1.908029   -0.144339    0.622036
      6          6           0        2.598855    0.706150   -0.317177
      7          1           0        3.371998    1.202255    0.270714
      8          1           0        1.915236    1.444106   -0.739719
      9          1           0        3.060700    0.113043   -1.111546
     10          1           0       -1.846507    1.005445    1.716347
     11          8           0       -1.979751   -0.654930   -0.876484
     12          1           0       -1.887188   -0.519126   -1.827873
 ---------------------------------------------------------------------

 SCF Done:  E(RHF) =  -1078.79026766     A.U. after    2 cycles

 The electronic state is 1-A.
 Alpha  occ. eigenvalues --  -93.60594 -81.44745 -20.63531 -20.62886 -20.62184
 Alpha  occ. eigenvalues --  -20.54591 -11.29637  -8.89848  -7.92943  -6.24038
 Alpha  occ. eigenvalues --   -6.23701  -6.23363  -5.07580  -5.07463  -5.07117
 Alpha  occ. eigenvalues --   -1.39668  -1.36382  -1.35008  -1.27824  -0.99689
 Alpha  occ. eigenvalues --   -0.90872  -0.84836  -0.76091  -0.71014  -0.69020
 Alpha  occ. eigenvalues --   -0.66941  -0.65423  -0.64664  -0.61631  -0.60114
 Alpha  occ. eigenvalues --   -0.58312  -0.53983  -0.51998  -0.51546  -0.50689
 Alpha  occ. eigenvalues --   -0.43816  -0.39382
 Alpha virt. eigenvalues --    0.03147   0.04465   0.04651   0.06010   0.07095
 Alpha virt. eigenvalues --    0.08089   0.08671   0.10194   0.10859   0.12263
 Alpha virt. eigenvalues --    0.13352   0.13972   0.14486   0.15477   0.16449

 Mulliken charges:
               1
     1  S    0.207073
     2  P    2.166808
     3  O   -0.931770
     4  O   -0.615640
     5  O   -0.874969
     6  C    0.791300
     7  H   -0.192402
     8  H   -0.112995
     9  H   -0.082528
    10  H    0.146084
    11  O   -0.654437
    12  H    0.153476
 Sum of Mulliken charges =  -0.00000

 Dipole moment (field-independent basis, Debye):
    X=             -0.0251    Y=             -0.1604    Z=             -1.3385  Tot=              1.3483

 Test job not archived.
 1\1\GINC-SE074\SP\RHF\Aug-CC-pVDZ\C1H5O4P1S1\OHZDE\08-Apr-2025\0\\#t h
 f aug-cc-pvdz iop(5/13=1,5/36=2,99/5=2) pseudo=read geom=check guess=(
 read,tcheck) scf=(maxcycle=1)\\title\\0,1\S,0,0.716688,-1.123682,-0.05
 056\P,0,-0.913193,0.214329,-0.045124\O,0,-0.632189,1.571813,-0.529888\
 O,0,-1.543148,0.137623,1.419455\O,0,1.908029,-0.144339,0.622036\C,0,2.
 598855,0.70615,-0.317177\H,0,3.371998,1.202255,0.270714\H,0,1.915236,1
 .444106,-0.739719\H,0,3.0607,0.113043,-1.111546\H,0,-1.846507,1.005445
 ,1.716347\O,0,-1.979751,-0.65493,-0.876484\H,0,-1.887188,-0.519126,-1.

 Normal termination of Gaussian 16 at Tue Apr  8 23:42:34 2025.
