 Gaussian 16, Revision C.01,

 ----------------------------------------------------------------------
 #t hf aug-cc-pvdz symm=none int=(grid=ultrafine) guess=(read,tcheck) s
 table=opt
 ----------------------------------------------------------------------
 -----
 title
 -----
 Symbolic Z-matrix:
 Charge =  0 Multiplicity = 2

 SCF Done:  E(UHF) =  -873.718535501     A.U. after   22 cycles
 Normal termination of Gaussian 16 at Tue Apr  8 22:57:47 2025.
 Gaussian 16:  ES64L-G16RevC.01  3-Jul-2019

 ----------------------------------------------------------------------
 #t hf aug-cc-pvdz iop(5/13=1,5/36=2,99/5=2) pseudo=read geom=check gue
 ss=(read,tcheck) scf=(maxcycle=1)
 ----------------------------------------------------------------------
 -----
 title
 -----
 Structure from the checkpoint file:  "BDE49_expt_1968_mol2.chk"
 Charge =  0 Multiplicity = 2

                         Standard orientation:
 ---------------------------------------------------------------------
 Center     Atomic      Atomic             Coordinates (Angstroms)
 Number     Number       Type             X           Y           Z
 ---------------------------------------------------------------------
      1         16           0        1.556596   -0.597645    0.083600
      2         16           0        0.279060    0.895651   -0.215620
      3          6           0       -1.336403    0.350168    0.493419
      4          6           0       -1.971784   -0.815859   -0.254045
      5          1           0       -1.956788    1.250280    0.444489
      6          1           0       -1.155581    0.112372    1.542795
      7          1           0       -2.165390   -0.560428   -1.298299
      8          1           0       -2.922760   -1.084438    0.214904
      9          1           0       -1.320859   -1.691727   -0.227821
 ---------------------------------------------------------------------

 SCF Done:  E(UHF) =  -873.785088110     A.U. after    2 cycles

 The electronic state is 2-A.
 Alpha  occ. eigenvalues --  -93.58102 -93.56399 -11.28621 -11.24518  -8.87674
 Alpha  occ. eigenvalues --   -8.86084  -6.21702  -6.21657  -6.21384  -6.21089
 Alpha  occ. eigenvalues --   -6.19813  -6.19313  -1.09395  -1.01038  -0.89217
 Alpha  occ. eigenvalues --   -0.78891  -0.64559  -0.60693  -0.56178  -0.53316
 Alpha  occ. eigenvalues --   -0.50511  -0.48899  -0.46817  -0.37074  -0.35512
 Alpha virt. eigenvalues --    0.03421   0.04884   0.05073   0.06302   0.07361
 Alpha virt. eigenvalues --    0.08378   0.09088   0.12306   0.12664   0.14050
 Alpha virt. eigenvalues --    0.14671   0.14902   0.15559   0.15858   0.16667

  Beta  occ. eigenvalues --  -93.57841 -93.55610 -11.28683 -11.24488  -8.87378
  Beta  occ. eigenvalues --   -8.85207  -6.21543  -6.21270  -6.20531  -6.19370
  Beta  occ. eigenvalues --   -6.18818  -6.17645  -1.08153  -0.98834  -0.87169
  Beta  occ. eigenvalues --   -0.74436  -0.64340  -0.60245  -0.55531  -0.52938
  Beta  occ. eigenvalues --   -0.49876  -0.45560  -0.38662  -0.35343
  Beta virt. eigenvalues --    0.01274   0.03459   0.04920   0.05133   0.06333
  Beta virt. eigenvalues --    0.07545   0.08639   0.09201   0.12441   0.13144
  Beta virt. eigenvalues --    0.14232   0.14713   0.15078   0.15874   0.16224

 Mulliken charges and spin densities:
               1          2
     1  S   -0.081376   0.867428
     2  S    0.196834   0.183471
     3  C   -0.210680  -0.060229
     4  C    0.301705   0.012215
     5  H   -0.009824  -0.000959
     6  H   -0.044398   0.001915
     7  H   -0.051989   0.000575
     8  H   -0.048463  -0.000897
     9  H   -0.051808  -0.003520
 Sum of Mulliken charges =   0.00000   1.00000

 Dipole moment (field-independent basis, Debye):
    X=             -2.3978    Y=             -0.0695    Z=              0.5541  Tot=              2.4619
                          Isotropic Fermi Contact Couplings
        Atom                 a.u.       MegaHertz       Gauss      10(-4) cm-1
     1  S(33)              0.19062      65.47353      23.36258      21.83962
     2  S(33)              0.11236      38.59310      13.77098      12.87327
     3  C(13)             -0.01070     -12.03237      -4.29345      -4.01357
     4  C(13)              0.00488       5.48694       1.95788       1.83024
     5  H(1)              -0.00006      -0.27727      -0.09894      -0.09249
     6  H(1)               0.00223       9.95161       3.55098       3.31950
     7  H(1)              -0.00019      -0.86261      -0.30780      -0.28774
     8  H(1)              -0.00031      -1.38454      -0.49404      -0.46183

 Normal termination of Gaussian 16 at Tue Apr  8 22:57:50 2025.
