 Gaussian 16, Revision C.01,

 ----------------------------------------------------------------------
 #t hf aug-cc-pvdz symm=none int=(grid=ultrafine) guess=(read,tcheck) s
 table=(opt,rrhf)
 ----------------------------------------------------------------------
 -----
 title
 -----
 Symbolic Z-matrix:
 Charge =  0 Multiplicity = 1

 SCF Done:  E(RHF) =  -483.291026632     A.U. after   11 cycles
 Normal termination of Gaussian 16 at Wed Apr  9 00:05:42 2025.
 Gaussian 16:  ES64L-G16RevC.01  3-Jul-2019

 ----------------------------------------------------------------------
 #t hf aug-cc-pvdz iop(5/13=1,5/36=2,99/5=2) pseudo=read geom=check gue
 ss=(read,tcheck) scf=(maxcycle=1)
 ----------------------------------------------------------------------
 -----
 title
 -----
 Structure from the checkpoint file:  "BDE49_nonexpt_2253_mol1.chk"
 Charge =  0 Multiplicity = 1

                         Standard orientation:
 ---------------------------------------------------------------------
 Center     Atomic      Atomic             Coordinates (Angstroms)
 Number     Number       Type             X           Y           Z
 ---------------------------------------------------------------------
      1          6           0       -2.296356   -0.155885   -0.028774
      2          8           0       -0.982977   -0.617327   -0.297938
      3          1           0       -2.469028    0.840383   -0.453991
      4          1           0       -2.498416   -0.115703    1.049189
      5          1           0       -3.002208   -0.851905   -0.486421
      6         14           0        0.411157   -0.002229    0.350156
      7          6           0        1.786104   -1.139356   -0.197787
      8          1           0        1.596464   -2.165453    0.127381
      9          1           0        2.744660   -0.821538    0.223979
     10          1           0        1.879978   -1.141643   -1.287467
     11          6           0        0.712712    1.765029   -0.203677
     12          1           0        1.629634    2.154454    0.251057
     13          1           0       -0.105275    2.428249    0.093277
     14          1           0        0.822767    1.829826   -1.290342
     15          1           0        0.294289   -0.005581    1.836092
 ---------------------------------------------------------------------

 SCF Done:  E(RHF) =  -483.391320942     A.U. after    2 cycles

 The electronic state is 1-A.
 Alpha  occ. eigenvalues --  -69.07418 -20.55193 -11.28760 -11.21131 -11.20890
 Alpha  occ. eigenvalues --   -6.82231  -3.93161  -3.93015  -3.92989  -1.29715
 Alpha  occ. eigenvalues --   -0.95327  -0.92432  -0.91623  -0.69810  -0.63548
 Alpha  occ. eigenvalues --   -0.62448  -0.59295  -0.56681  -0.54806  -0.54543
 Alpha  occ. eigenvalues --   -0.54109  -0.48348  -0.48101  -0.43776  -0.42444
 Alpha virt. eigenvalues --    0.03332   0.04485   0.04931   0.05204   0.06419
 Alpha virt. eigenvalues --    0.06695   0.07038   0.07283   0.08318   0.09191
 Alpha virt. eigenvalues --    0.10150   0.10424   0.11370   0.14456   0.15238

 Mulliken charges:
               1
     1  C    0.805433
     2  O   -0.968597
     3  H   -0.144402
     4  H   -0.133554
     5  H   -0.264113
     6  Si   1.566160
     7  C    0.317551
     8  H   -0.284212
     9  H   -0.266605
    10  H   -0.157793
    11  C    0.311949
    12  H   -0.247667
    13  H   -0.305551
    14  H   -0.183800
    15  H   -0.044800
 Sum of Mulliken charges =  -0.00000

 Dipole moment (field-independent basis, Debye):
    X=             -0.2542    Y=              0.9197    Z=              0.1670  Tot=              0.9687

 Test job not archived.
 1\1\GINC-SE419\SP\RHF\Aug-CC-pVDZ\C3H10O1Si1\OHZDE\09-Apr-2025\0\\#t h
 f aug-cc-pvdz iop(5/13=1,5/36=2,99/5=2) pseudo=read geom=check guess=(
 read,tcheck) scf=(maxcycle=1)\\title\\0,1\C,0,-2.296356,-0.155885,-0.0
 28774\O,0,-0.982977,-0.617327,-0.297938\H,0,-2.469028,0.840383,-0.4539
 91\H,0,-2.498416,-0.115703,1.049189\H,0,-3.002208,-0.851905,-0.486421\
 Si,0,0.411157,-0.002229,0.350156\C,0,1.786104,-1.139356,-0.197787\H,0,
 1.596464,-2.165453,0.127381\H,0,2.74466,-0.821538,0.223979\H,0,1.87997
 8,-1.141643,-1.287467\C,0,0.712712,1.765029,-0.203677\H,0,1.629634,2.1

 Normal termination of Gaussian 16 at Wed Apr  9 00:05:47 2025.
