 Gaussian 16, Revision C.01,

 ----------------------------------------------------------------------
 #t hf aug-cc-pvdz symm=none int=(grid=ultrafine) guess=(read,tcheck) s
 table=opt
 ----------------------------------------------------------------------
 -----
 title
 -----
 Symbolic Z-matrix:
 Charge =  0 Multiplicity = 2

 SCF Done:  E(UHF) =  -1247.64480227     A.U. after   15 cycles
 Normal termination of Gaussian 16 at Tue Apr  8 23:39:10 2025.
 Gaussian 16:  ES64L-G16RevC.01  3-Jul-2019

 ----------------------------------------------------------------------
 #t hf aug-cc-pvdz iop(5/13=1,5/36=2,99/5=2) pseudo=read geom=check gue
 ss=(read,tcheck) scf=(maxcycle=1)
 ----------------------------------------------------------------------
 -----
 title
 -----
 Structure from the checkpoint file:  "BDE49_nonexpt_1641_mol2.chk"
 Charge =  0 Multiplicity = 2

                         Standard orientation:
 ---------------------------------------------------------------------
 Center     Atomic      Atomic             Coordinates (Angstroms)
 Number     Number       Type             X           Y           Z
 ---------------------------------------------------------------------
      1         14           0        0.000000    0.328694   -0.511970
      2          6           0        0.000000    2.040338    0.255832
      3          1           0        0.890314    2.589670   -0.057898
      4          1           0       -0.000001    1.952141    1.346258
      5          1           0       -0.890312    2.589671   -0.057899
      6         17           0       -1.696474   -0.705154    0.129474
      7         17           0        1.696474   -0.705154    0.129474
 ---------------------------------------------------------------------

 SCF Done:  E(UHF) =  -1247.71780595     A.U. after    2 cycles

 The electronic state is 2-A.
 Alpha  occ. eigenvalues -- -103.66331-103.66331 -69.16656 -11.25331 -10.69763
 Alpha  occ. eigenvalues --  -10.69753  -8.35543  -8.35538  -8.35231  -8.35230
 Alpha  occ. eigenvalues --   -8.35184  -8.35180  -6.91135  -4.02204  -4.01579
 Alpha  occ. eigenvalues --   -4.01445  -1.15933  -1.13792  -0.97445  -0.69100
 Alpha  occ. eigenvalues --   -0.60216  -0.59809  -0.55207  -0.54247  -0.51919
 Alpha  occ. eigenvalues --   -0.48934  -0.47601  -0.47196  -0.35511
 Alpha virt. eigenvalues --    0.03370   0.05161   0.05261   0.05699   0.07643
 Alpha virt. eigenvalues --    0.07660   0.09618   0.12196   0.12932   0.14479
 Alpha virt. eigenvalues --    0.14561   0.15320   0.15813   0.16475   0.17447

  Beta  occ. eigenvalues -- -103.66227-103.66227 -69.16066 -11.25047 -10.69649
  Beta  occ. eigenvalues --  -10.69639  -8.35298  -8.35293  -8.35128  -8.35124
  Beta  occ. eigenvalues --   -8.35009  -8.35007  -6.90173  -4.01190  -4.01084
  Beta  occ. eigenvalues --   -4.00187  -1.15010  -1.12953  -0.96447  -0.65775
  Beta  occ. eigenvalues --   -0.59852  -0.58769  -0.54060  -0.53181  -0.49966
  Beta  occ. eigenvalues --   -0.47962  -0.47026  -0.46428
  Beta virt. eigenvalues --    0.01310   0.04493   0.05269   0.05431   0.06327
  Beta virt. eigenvalues --    0.07823   0.07902   0.10575   0.12901   0.13113
  Beta virt. eigenvalues --    0.14799   0.15965   0.16524   0.16902   0.17052

 Mulliken charges and spin densities:
               1          2
     1  Si   1.246009   0.831091
     2  C    0.190437   0.100873
     3  H   -0.158790  -0.002275
     4  H   -0.120511   0.002127
     5  H   -0.158793  -0.002275
     6  Cl  -0.499176   0.035229
     7  Cl  -0.499176   0.035229
 Sum of Mulliken charges =   0.00000   1.00000

 Dipole moment (field-independent basis, Debye):
    X=              0.0000    Y=              2.4335    Z=             -0.5340  Tot=              2.4914
                          Isotropic Fermi Contact Couplings
        Atom                 a.u.       MegaHertz       Gauss      10(-4) cm-1
     1  Si(29)             0.82932    -737.04255    -262.99511    -245.85093
     2  C(13)              0.05542      62.30734      22.23281      20.78349
     3  H(1)              -0.00181      -8.08462      -2.88479      -2.69674
     4  H(1)               0.00641      28.63364      10.21719       9.55115
     5  H(1)              -0.00181      -8.08460      -2.88479      -2.69673
     6  Cl(35)             0.06543      28.69053      10.23749       9.57013
     7  Cl(35)             0.06543      28.69053      10.23750       9.57013
 --------------------------------------------------------

 Normal termination of Gaussian 16 at Tue Apr  8 23:39:12 2025.
