 Gaussian 16, Revision C.01,

 ----------------------------------------------------------------------
 #t hf aug-cc-pvdz symm=none int=(grid=ultrafine) guess=(read,tcheck) s
 table=(opt,rrhf)
 ----------------------------------------------------------------------
 -----
 title
 -----
 Symbolic Z-matrix:
 Charge =  0 Multiplicity = 1

 SCF Done:  E(RHF) =  -1106.55533285     A.U. after   15 cycles

 1\1\GINC-SE361\Stability\RHF\Aug-CC-pVDZ\C1Cl2O2\OHZDE\08-Apr-2025\0\\
 #t hf aug-cc-pvdz symm=none int=(grid=ultrafine) guess=(read,tcheck) s
 table=(opt,rrhf)\\title\\0,1\Cl,0,-1.248901,-1.703045,0.\O,0,0.219482,
 -0.75349,0.\C,0,0.,0.582429,0.\O,0,-1.011408,1.182725,0.\Cl,0,1.621573
 ,1.295489,0.\\Version=ES64L-G16RevC.01\HF=-1106.5553328\RMSD=2.875e-09
 \Dipole=0.1367069,-0.4971924,0.\Quadrupole=0.2674619,-0.464391,0.19692
 91,3.5410239,0.,0.\PG=Unknown\\@
 The archive entry for this job was punched.

 Normal termination of Gaussian 16 at Tue Apr  8 23:15:48 2025.
 Gaussian 16:  ES64L-G16RevC.01  3-Jul-2019

 ----------------------------------------------------------------------
 #t hf aug-cc-pvdz iop(5/13=1,5/36=2,99/5=2) pseudo=read geom=check gue
 ss=(read,tcheck) scf=(maxcycle=1)
 ----------------------------------------------------------------------
 -----
 title
 -----
 Structure from the checkpoint file:  "BDE49_nonexpt_1047_mol1.chk"
 Charge =  0 Multiplicity = 1

                         Standard orientation:
 ---------------------------------------------------------------------
 Center     Atomic      Atomic             Coordinates (Angstroms)
 Number     Number       Type             X           Y           Z
 ---------------------------------------------------------------------
      1         17           0       -1.248902   -1.703044    0.000000
      2          8           0        0.219481   -0.753490    0.000000
      3          6           0        0.000000    0.582429   -0.000000
      4          8           0       -1.011408    1.182725    0.000000
      5         17           0        1.621573    1.295488   -0.000000
 ---------------------------------------------------------------------

 SCF Done:  E(RHF) =  -1106.65446587     A.U. after    2 cycles

 The electronic state is 1-A'.
 Alpha  occ. eigenvalues -- -103.76044-103.70930 -20.72361 -20.62976 -11.49688
 Alpha  occ. eigenvalues --  -10.78642 -10.74229  -8.44409  -8.43935  -8.43922
 Alpha  occ. eigenvalues --   -8.39953  -8.39616  -8.39604  -1.49215  -1.40910
 Alpha  occ. eigenvalues --   -1.21432  -1.15072  -0.85849  -0.76089  -0.74577
 Alpha  occ. eigenvalues --   -0.73235  -0.63301  -0.59772  -0.53735  -0.52270
 Alpha  occ. eigenvalues --   -0.51395  -0.50492  -0.50313
 Alpha virt. eigenvalues --    0.00787   0.06591   0.08344   0.09768   0.10157
 Alpha virt. eigenvalues --    0.10975   0.12013   0.13572   0.14804   0.15373
 Alpha virt. eigenvalues --    0.16671   0.17012   0.19585   0.21875   0.22764

 Mulliken charges:
               1
     1  Cl   0.372727
     2  O   -0.511302
     3  C    0.403002
     4  O   -0.239129
     5  Cl  -0.025299
 Sum of Mulliken charges =  -0.00000

 Dipole moment (field-independent basis, Debye):
    X=              0.3430    Y=             -1.3447    Z=              0.0000  Tot=              1.3878

 Test job not archived.
 1\1\GINC-SE361\SP\RHF\Aug-CC-pVDZ\C1Cl2O2\OHZDE\08-Apr-2025\0\\#t hf a
 ug-cc-pvdz iop(5/13=1,5/36=2,99/5=2) pseudo=read geom=check guess=(rea
 d,tcheck) scf=(maxcycle=1)\\title\\0,1\Cl,0,-1.248901,-1.703045,0.\O,0
 ,0.219482,-0.75349,0.\C,0,0.,0.582429,0.\O,0,-1.011408,1.182725,0.\Cl,
 0,1.621573,1.295489,0.\\Version=ES64L-G16RevC.01\State=1-A'\HF=-1106.6
 544659\RMSD=2.669e-03\Dipole=0.1349411,-0.5290534,0.\Quadrupole=0.3082
 751,-0.4586962,0.1504211,3.8470571,0.,0.\PG=CS [SG(C1Cl2O2)]\\@

 Normal termination of Gaussian 16 at Tue Apr  8 23:15:49 2025.
