 Gaussian 16, Revision C.01,

 ----------------------------------------------------------------------
 #t hf aug-cc-pvdz symm=none int=(grid=ultrafine) guess=(read,tcheck) s
 table=(opt,rrhf)
 ----------------------------------------------------------------------
 -----
 title
 -----
 Symbolic Z-matrix:
 Charge =  0 Multiplicity = 1

 SCF Done:  E(RHF) =  -1223.44430058     A.U. after   15 cycles
 Normal termination of Gaussian 16 at Tue Apr  8 23:09:26 2025.
 Gaussian 16:  ES64L-G16RevC.01  3-Jul-2019

 ----------------------------------------------------------------------
 #t hf aug-cc-pvdz iop(5/13=1,5/36=2,99/5=2) pseudo=read geom=check gue
 ss=(read,tcheck) scf=(maxcycle=1)
 ----------------------------------------------------------------------
 -----
 title
 -----
 Structure from the checkpoint file:  "BDE49_expt_762_mol1.chk"
 Charge =  0 Multiplicity = 1

                         Standard orientation:
 ---------------------------------------------------------------------
 Center     Atomic      Atomic             Coordinates (Angstroms)
 Number     Number       Type             X           Y           Z
 ---------------------------------------------------------------------
      1          6           0        0.000000    1.070907    0.000000
      2          6           0       -1.191478    0.348874    0.000000
      3          6           0       -1.221638   -1.037329    0.000000
      4          6           0        1.184908    0.345992    0.000000
      5          6           0        1.204769   -1.044385    0.000000
      6          6           0       -0.010117   -1.733196    0.000000
      7          1           0        2.148834   -1.575820    0.000000
      8          8           0       -0.080052   -3.091584    0.000000
      9          1           0        0.808325   -3.463323    0.000000
     10          1           0       -2.154390   -1.583457    0.000000
     11          1           0        0.002164    2.150688    0.000000
     12         17           0        2.709590    1.211905    0.000000
     13         17           0       -2.707424    1.229237    0.000000
 ---------------------------------------------------------------------

 SCF Done:  E(RHF) =  -1223.57217252     A.U. after    2 cycles

 The electronic state is 1-A'.
 Alpha  occ. eigenvalues -- -103.68049-103.67762 -20.62978 -11.34747 -11.33793
 Alpha  occ. eigenvalues --  -11.33608 -11.27153 -11.26909 -11.26570 -10.71316
 Alpha  occ. eigenvalues --  -10.71032  -8.37053  -8.36769  -8.36742  -8.36726
 Alpha  occ. eigenvalues --   -8.36457  -8.36442  -1.39486  -1.22289  -1.19500
 Alpha  occ. eigenvalues --   -1.12883  -1.02805  -1.01990  -0.87372  -0.84561
 Alpha  occ. eigenvalues --   -0.75998  -0.72221  -0.69791  -0.63443  -0.63081
 Alpha  occ. eigenvalues --   -0.61706  -0.61366  -0.56684  -0.56574  -0.53518
 Alpha  occ. eigenvalues --   -0.52453  -0.48695  -0.47583  -0.46323  -0.35971
 Alpha  occ. eigenvalues --   -0.34750
 Alpha virt. eigenvalues --    0.02760   0.04613   0.04853   0.06039   0.07814
 Alpha virt. eigenvalues --    0.08389   0.09122   0.09468   0.10130   0.10617
 Alpha virt. eigenvalues --    0.12124   0.12934   0.13724   0.14548   0.14732

 Mulliken charges:
               1
     1  C    0.957366
     2  C   -0.136897
     3  C    0.749746
     4  C   -0.328759
     5  C    0.658042
     6  C    0.606153
     7  H   -0.525153
     8  O   -0.582413
     9  H    0.154901
    10  H   -0.418071
    11  H   -0.387714
    12  Cl  -0.379190
    13  Cl  -0.368011
 Sum of Mulliken charges =  -0.00000

 Dipole moment (field-independent basis, Debye):
    X=              1.4043    Y=             -1.7539    Z=              0.0000  Tot=              2.2468

 Test job not archived.
 1\1\GINC-SE435\SP\RHF\Aug-CC-pVDZ\C6H4Cl2O1\OHZDE\08-Apr-2025\0\\#t hf
  aug-cc-pvdz iop(5/13=1,5/36=2,99/5=2) pseudo=read geom=check guess=(r
 ead,tcheck) scf=(maxcycle=1)\\title\\0,1\C,0,0.,1.070907,0.\C,0,-1.191
 478,0.348874,0.\C,0,-1.221638,-1.037329,0.\C,0,1.184908,0.345992,0.\C,
 0,1.204769,-1.044385,0.\C,0,-0.010117,-1.733196,0.\H,0,2.148834,-1.575
 82,0.\O,0,-0.080052,-3.091584,0.\H,0,0.808325,-3.463323,0.\H,0,-2.1543
 9,-1.583457,0.\H,0,0.002164,2.150688,0.\Cl,0,2.70959,1.211905,0.\Cl,0,
 -2.707424,1.229237,0.\\Version=ES64L-G16RevC.01\State=1-A'\HF=-1223.57

 Normal termination of Gaussian 16 at Tue Apr  8 23:09:32 2025.
