 Gaussian 16, Revision C.01,

 ----------------------------------------------------------------------
 #t hf aug-cc-pvdz symm=none int=(grid=ultrafine) guess=(read,tcheck) s
 table=(opt,rrhf)
 ----------------------------------------------------------------------
 -----
 title
 -----
 Symbolic Z-matrix:
 Charge =  0 Multiplicity = 1

 SCF Done:  E(RHF) =  -309.451564894     A.U. after   12 cycles
 Normal termination of Gaussian 16 at Wed Apr  9 00:36:03 2025.
 Gaussian 16:  ES64L-G16RevC.01  3-Jul-2019

 ----------------------------------------------------------------------
 #t hf aug-cc-pvdz iop(5/13=1,5/36=2,99/5=2) pseudo=read geom=check gue
 ss=(read,tcheck) scf=(maxcycle=1)
 ----------------------------------------------------------------------
 -----
 title
 -----
 Structure from the checkpoint file:  "BDE49_nonexpt_551_mol1.chk"
 Charge =  0 Multiplicity = 1

                         Standard orientation:
 ---------------------------------------------------------------------
 Center     Atomic      Atomic             Coordinates (Angstroms)
 Number     Number       Type             X           Y           Z
 ---------------------------------------------------------------------
      1          7           0       -0.202384   -0.586093    0.328453
      2          5           0        1.055666   -0.029575    0.021536
      3          8           0        1.170261    1.348089   -0.054919
      4          8           0        2.109755   -0.905138   -0.181612
      5          6           0       -1.439615    0.143527    0.558144
      6          6           0       -2.481628   -0.070467   -0.543972
      7          1           0       -2.745225   -1.129039   -0.636225
      8          1           0       -2.094587    0.264616   -1.509663
      9          1           0       -3.399758    0.484784   -0.327244
     10          1           0       -1.187014    1.202805    0.627957
     11          1           0       -1.869619   -0.143595    1.526625
     12          1           0        2.054915    1.666134   -0.241020
     13          1           0        2.943773   -0.485682   -0.398986
     14          1           0       -0.276794   -1.591467    0.358927
 ---------------------------------------------------------------------

 SCF Done:  E(RHF) =  -309.557113285     A.U. after    2 cycles

 The electronic state is 1-A.
 Alpha  occ. eigenvalues --  -20.57447 -20.57262 -15.59175 -11.25681 -11.21872
 Alpha  occ. eigenvalues --   -7.65672  -1.33564  -1.29833  -1.14337  -0.97830
 Alpha  occ. eigenvalues --   -0.83393  -0.77565  -0.74263  -0.66192  -0.63318
 Alpha  occ. eigenvalues --   -0.60759  -0.58905  -0.57233  -0.54510  -0.53465
 Alpha  occ. eigenvalues --   -0.52109  -0.51039  -0.48117  -0.37084
 Alpha virt. eigenvalues --    0.02705   0.04265   0.04951   0.05011   0.06560
 Alpha virt. eigenvalues --    0.07184   0.07338   0.08026   0.08793   0.10213
 Alpha virt. eigenvalues --    0.10336   0.11234   0.14311   0.14919   0.16014

 Mulliken charges:
               1
     1  N   -0.272578
     2  B    0.697483
     3  O   -0.459766
     4  O   -0.504138
     5  C    0.660701
     6  C    0.253241
     7  H   -0.065907
     8  H   -0.090795
     9  H   -0.053565
    10  H   -0.208795
    11  H   -0.160890
    12  H    0.151951
    13  H    0.139797
    14  H   -0.086739
 Sum of Mulliken charges =  -0.00000

 Dipole moment (field-independent basis, Debye):
    X=              1.2309    Y=              0.6018    Z=             -0.3187  Tot=              1.4067

 Test job not archived.
 1\1\GINC-SE250\SP\RHF\Aug-CC-pVDZ\C2H8B1N1O2\OHZDE\09-Apr-2025\0\\#t h
 f aug-cc-pvdz iop(5/13=1,5/36=2,99/5=2) pseudo=read geom=check guess=(
 read,tcheck) scf=(maxcycle=1)\\title\\0,1\N,0,-0.202384,-0.586093,0.32
 8453\B,0,1.055666,-0.029575,0.021536\O,0,1.170261,1.348089,-0.054919\O
 ,0,2.109755,-0.905138,-0.181612\C,0,-1.439615,0.143527,0.558144\C,0,-2
 .481628,-0.070467,-0.543972\H,0,-2.745225,-1.129039,-0.636225\H,0,-2.0
 94587,0.264616,-1.509663\H,0,-3.399758,0.484784,-0.327244\H,0,-1.18701
 4,1.202805,0.627957\H,0,-1.869619,-0.143595,1.526625\H,0,2.054915,1.66

 Normal termination of Gaussian 16 at Wed Apr  9 00:36:06 2025.
