 Gaussian 16, Revision C.01,

 ----------------------------------------------------------------------
 #t hf aug-cc-pvdz symm=none int=(grid=ultrafine) guess=(read,tcheck) s
 table=(opt,rrhf)
 ----------------------------------------------------------------------
 -----
 title
 -----
 Symbolic Z-matrix:
 Charge =  0 Multiplicity = 1

 SCF Done:  E(RHF) =  -744.693177773     A.U. after   17 cycles
 Normal termination of Gaussian 16 at Tue Apr  8 23:06:30 2025.
 Gaussian 16:  ES64L-G16RevC.01  3-Jul-2019

 ----------------------------------------------------------------------
 #t hf aug-cc-pvdz iop(5/13=1,5/36=2,99/5=2) pseudo=read geom=check gue
 ss=(read,tcheck) scf=(maxcycle=1)
 ----------------------------------------------------------------------
 -----
 title
 -----
 Structure from the checkpoint file:  "BDE49_expt_458_mol1.chk"
 Charge =  0 Multiplicity = 1

                         Standard orientation:
 ---------------------------------------------------------------------
 Center     Atomic      Atomic             Coordinates (Angstroms)
 Number     Number       Type             X           Y           Z
 ---------------------------------------------------------------------
      1          6           0        2.357449   -0.001159    0.004773
      2          6           0        1.514001    1.100841   -0.001080
      3          6           0        0.115554    0.952903   -0.007174
      4          6           0        1.836454   -1.294472    0.004311
      5          6           0        0.456033   -1.468503    0.000593
      6          6           0       -0.382299   -0.361679   -0.004374
      7          1           0        3.430517    0.152658    0.009334
      8          1           0        1.929084    2.103568   -0.008039
      9          1           0        0.019390   -2.459195    0.003830
     10          7           0       -0.720741    2.053983   -0.071771
     11          1           0       -1.676679    1.901427    0.212477
     12          1           0       -0.330734    2.921355    0.262606
     13         17           0       -2.129454   -0.612254    0.001869
     14          1           0        2.491180   -2.156965    0.008112
 ---------------------------------------------------------------------

 SCF Done:  E(RHF) =  -744.795701476     A.U. after    2 cycles

 The electronic state is 1-A.
 Alpha  occ. eigenvalues -- -103.66635 -15.63990 -11.30884 -11.30276 -11.26089
 Alpha  occ. eigenvalues --  -11.25634 -11.24797 -11.24314 -10.69899  -8.35631
 Alpha  occ. eigenvalues --   -8.35349  -8.35314  -1.22462  -1.16571  -1.12236
 Alpha  occ. eigenvalues --   -1.00978  -0.98695  -0.84710  -0.82264  -0.71784
 Alpha  occ. eigenvalues --   -0.70729  -0.66369  -0.61870  -0.61552  -0.59305
 Alpha  occ. eigenvalues --   -0.56762  -0.53421  -0.50938  -0.48778  -0.47000
 Alpha  occ. eigenvalues --   -0.45822  -0.34701  -0.30523
 Alpha virt. eigenvalues --    0.03149   0.03793   0.04361   0.05769   0.06140
 Alpha virt. eigenvalues --    0.08231   0.09406   0.10570   0.11342   0.11913
 Alpha virt. eigenvalues --    0.12097   0.13400   0.13884   0.14317   0.14423

 Mulliken charges:
               1
     1  C    0.103782
     2  C    1.189477
     3  C    0.066819
     4  C    0.855098
     5  C    0.349610
     6  C    0.114042
     7  H   -0.427766
     8  H   -0.585773
     9  H   -0.410491
    10  N   -0.290861
    11  H   -0.012947
    12  H   -0.044491
    13  Cl  -0.467693
    14  H   -0.438804
 Sum of Mulliken charges =   0.00000

 Dipole moment (field-independent basis, Debye):
    X=              1.3474    Y=              1.3182    Z=              0.8698  Tot=              2.0760

 Test job not archived.
 1\1\GINC-SE103\SP\RHF\Aug-CC-pVDZ\C6H6Cl1N1\OHZDE\08-Apr-2025\0\\#t hf
  aug-cc-pvdz iop(5/13=1,5/36=2,99/5=2) pseudo=read geom=check guess=(r
 ead,tcheck) scf=(maxcycle=1)\\title\\0,1\C,0,2.357449,-0.001159,0.0047
 73\C,0,1.514001,1.100841,-0.00108\C,0,0.115554,0.952903,-0.007174\C,0,
 1.836454,-1.294472,0.004311\C,0,0.456033,-1.468503,0.000593\C,0,-0.382
 299,-0.361679,-0.004374\H,0,3.430517,0.152658,0.009334\H,0,1.929084,2.
 103568,-0.008039\H,0,0.01939,-2.459195,0.00383\N,0,-0.720741,2.053983,
 -0.071771\H,0,-1.676679,1.901427,0.212477\H,0,-0.330734,2.921355,0.262

 Normal termination of Gaussian 16 at Tue Apr  8 23:06:37 2025.
