 Gaussian 16, Revision C.01,

 ----------------------------------------------------------------------
 #t hf aug-cc-pvdz symm=none int=(grid=ultrafine) guess=(read,tcheck) s
 table=opt
 ----------------------------------------------------------------------
 -----
 title
 -----
 Symbolic Z-matrix:
 Charge =  0 Multiplicity = 2

 SCF Done:  E(UHF) =  -472.944078827     A.U. after   18 cycles
 Normal termination of Gaussian 16 at Tue Apr  8 22:45:26 2025.
 Gaussian 16:  ES64L-G16RevC.01  3-Jul-2019

 ----------------------------------------------------------------------
 #t hf aug-cc-pvdz iop(5/13=1,5/36=2,99/5=2) pseudo=read geom=check gue
 ss=(read,tcheck) scf=(maxcycle=1)
 ----------------------------------------------------------------------
 -----
 title
 -----
 Structure from the checkpoint file:  "BDE49_expt_1595_mol2.chk"
 Charge =  0 Multiplicity = 2

                         Standard orientation:
 ---------------------------------------------------------------------
 Center     Atomic      Atomic             Coordinates (Angstroms)
 Number     Number       Type             X           Y           Z
 ---------------------------------------------------------------------
      1         16           0        0.036809   -0.608062    0.000000
      2          8           0        0.036809    1.047795    0.000000
      3          1           0       -0.883419    1.346626    0.000000
 ---------------------------------------------------------------------

 SCF Done:  E(UHF) =  -472.992018353     A.U. after    2 cycles

 The electronic state is 2-A".
 Alpha  occ. eigenvalues --  -93.60874 -20.64315  -8.90011  -6.25178  -6.23781
 Alpha  occ. eigenvalues --   -6.23113  -1.37491  -0.94337  -0.72161  -0.63989
 Alpha  occ. eigenvalues --   -0.60042  -0.43039  -0.38876
 Alpha virt. eigenvalues --    0.03477   0.07200   0.11171   0.11817   0.15559
 Alpha virt. eigenvalues --    0.17803   0.21174   0.21786   0.22446   0.28129
 Alpha virt. eigenvalues --    0.32192   0.36787   0.38573   0.42896   0.44563

  Beta  occ. eigenvalues --  -93.60010 -20.63561  -8.89051  -6.23392  -6.22588
  Beta  occ. eigenvalues --   -6.21290  -1.35343  -0.87394  -0.70192  -0.57641
  Beta  occ. eigenvalues --   -0.56168  -0.36808
  Beta virt. eigenvalues --    0.01585   0.03519   0.07825   0.11944   0.13869
  Beta virt. eigenvalues --    0.16009   0.18300   0.21661   0.22541   0.22921
  Beta virt. eigenvalues --    0.29128   0.34424   0.37781   0.39084   0.45896

 Mulliken charges and spin densities:
               1          2
     1  S    0.447553   0.942494
     2  O   -0.622202   0.071302
     3  H    0.174649  -0.013796
 Sum of Mulliken charges =  -0.00000   1.00000

 Dipole moment (field-independent basis, Debye):
    X=             -1.6005    Y=              0.1084    Z=              0.0000  Tot=              1.6041
                          Isotropic Fermi Contact Couplings
        Atom                 a.u.       MegaHertz       Gauss      10(-4) cm-1
     1  S(33)              0.21258      73.01609      26.05396      24.35555
     2  O(17)              0.07568     -45.87584     -16.36964     -15.30253
     3  H(1)              -0.00377     -16.84196      -6.00963      -5.61787
 --------------------------------------------------------
       Center         ----  Spin Dipole Couplings  ----
                      3XX-RR        3YY-RR        3ZZ-RR
 --------------------------------------------------------
     1   Atom       -2.180196     -2.462814      4.643010

 Normal termination of Gaussian 16 at Tue Apr  8 22:45:27 2025.
