 Gaussian 16, Revision C.01,

 ----------------------------------------------------------------------
 #t hf aug-cc-pvdz symm=none int=(grid=ultrafine) guess=(read,tcheck) s
 table=(opt,rrhf)
 ----------------------------------------------------------------------
 -----
 title
 -----
 Symbolic Z-matrix:
 Charge =  0 Multiplicity = 1

 SCF Done:  E(RHF) =  -457.881863172     A.U. after   13 cycles
 Normal termination of Gaussian 16 at Tue Apr  8 23:57:20 2025.
 Gaussian 16:  ES64L-G16RevC.01  3-Jul-2019

 ----------------------------------------------------------------------
 #t hf aug-cc-pvdz iop(5/13=1,5/36=2,99/5=2) pseudo=read geom=check gue
 ss=(read,tcheck) scf=(maxcycle=1)
 ----------------------------------------------------------------------
 -----
 title
 -----
 Structure from the checkpoint file:  "BDE49_nonexpt_2062_mol1.chk"
 Charge =  0 Multiplicity = 1

                         Standard orientation:
 ---------------------------------------------------------------------
 Center     Atomic      Atomic             Coordinates (Angstroms)
 Number     Number       Type             X           Y           Z
 ---------------------------------------------------------------------
      1         14           0        1.393705   -0.172212   -0.000032
      2          6           0       -1.271933    0.112498    0.000250
      3          7           0       -2.338946   -0.335861   -0.000146
      4          8           0       -0.102657    0.645471    0.000011
      5          1           0        2.373368    0.922058   -0.000650
      6          1           0        1.469847   -0.999862   -1.216540
      7          1           0        1.470393   -0.998956    1.217058
 ---------------------------------------------------------------------

 SCF Done:  E(RHF) =  -457.965524669     A.U. after    2 cycles

 The electronic state is 1-A.
 Alpha  occ. eigenvalues --  -69.14767 -20.66727 -15.63460 -11.35750  -6.89540
 Alpha  occ. eigenvalues --   -4.00473  -4.00267  -4.00241  -1.43247  -1.18721
 Alpha  occ. eigenvalues --   -0.88569  -0.73112  -0.69041  -0.66815  -0.55122
 Alpha  occ. eigenvalues --   -0.52738  -0.52488  -0.45362  -0.44579
 Alpha virt. eigenvalues --    0.02668   0.03763   0.05074   0.05505   0.07957
 Alpha virt. eigenvalues --    0.08175   0.09811   0.10999   0.11528   0.11590
 Alpha virt. eigenvalues --    0.13800   0.16537   0.16698   0.17696   0.19950

 Mulliken charges:
               1
     1  Si   0.763187
     2  C   -0.069044
     3  N   -0.087059
     4  O   -0.570285
     5  H   -0.017691
     6  H   -0.009556
     7  H   -0.009552
 Sum of Mulliken charges =  -0.00000

 Dipole moment (field-independent basis, Debye):
    X=              4.8227    Y=              0.1416    Z=              0.0005  Tot=              4.8248

 Test job not archived.
 1\1\GINC-SE328\SP\RHF\Aug-CC-pVDZ\C1H3N1O1Si1\OHZDE\08-Apr-2025\0\\#t
 hf aug-cc-pvdz iop(5/13=1,5/36=2,99/5=2) pseudo=read geom=check guess=
 (read,tcheck) scf=(maxcycle=1)\\title\\0,1\Si,0,1.393705,-0.172212,-0.
 000032\C,0,-1.271933,0.112498,0.00025\N,0,-2.338946,-0.335861,-0.00014
 6\O,0,-0.102657,0.645471,0.000011\H,0,2.373368,0.922058,-0.00065\H,0,1
 .469847,-0.999862,-1.21654\H,0,1.470393,-0.998956,1.217058\\Version=ES
 64L-G16RevC.01\State=1-A\HF=-457.9655247\RMSD=4.518e-03\Dipole=1.89740
 91,0.0557194,0.0001877\Quadrupole=-3.3241166,1.3178009,2.0063157,-2.03

 Normal termination of Gaussian 16 at Tue Apr  8 23:57:22 2025.
