 Gaussian 16, Revision C.01,

 ----------------------------------------------------------------------
 #t hf aug-cc-pvdz symm=none int=(grid=ultrafine) guess=(read,tcheck) s
 table=(opt,rrhf)
 ----------------------------------------------------------------------
 -----
 title
 -----
 Symbolic Z-matrix:
 Charge =  0 Multiplicity = 1

 SCF Done:  E(RHF) =  -333.104914377     A.U. after   12 cycles

 1\1\GINC-SE250\Stability\RHF\Aug-CC-pVDZ\C6H11F1\OHZDE\08-Apr-2025\0\\
 #t hf aug-cc-pvdz symm=none int=(grid=ultrafine) guess=(read,tcheck) s
 table=(opt,rrhf)\\title\\0,1\C,0,-1.029667,0.,0.328709\C,0,-0.346175,1
 .264066,-0.172666\F,0,-2.369347,0.,-0.104763\C,0,-0.346175,-1.264066,-
 0.172666\C,0,1.143188,1.268979,0.209327\H,0,-0.859508,2.141707,0.23025
 3\H,0,-0.454158,1.298708,-1.263042\C,0,1.854486,0.,-0.283665\H,0,1.238
 722,1.335693,1.300616\H,0,1.627069,2.161661,-0.197429\C,0,1.143188,-1.
 268979,0.209327\H,0,2.897686,0.,0.047278\H,0,1.873494,0.,-1.380755\H,0

 Normal termination of Gaussian 16 at Tue Apr  8 22:44:07 2025.
 Gaussian 16:  ES64L-G16RevC.01  3-Jul-2019

 ----------------------------------------------------------------------
 #t hf aug-cc-pvdz iop(5/13=1,5/36=2,99/5=2) pseudo=read geom=check gue
 ss=(read,tcheck) scf=(maxcycle=1)
 ----------------------------------------------------------------------
 -----
 title
 -----
 Structure from the checkpoint file:  "BDE49_expt_1524_mol1.chk"
 Charge =  0 Multiplicity = 1

                         Standard orientation:
 ---------------------------------------------------------------------
 Center     Atomic      Atomic             Coordinates (Angstroms)
 Number     Number       Type             X           Y           Z
 ---------------------------------------------------------------------
      1          6           0       -0.574213    0.915720    0.000000
      2          6           0        0.081249    0.378219    1.264066
      3          9           0       -0.487161    2.321089    0.000000
      4          6           0        0.081249    0.378219   -1.264066
      5          6           0        0.081249   -1.159351    1.268979
      6          1           0       -0.436570    0.775356    2.141707
      7          1           0        1.110612    0.753708    1.298708
      8          6           0        0.735499   -1.725870   -0.000000
      9          1           0       -0.952091   -1.523009    1.335693
     10          1           0        0.595467   -1.527007    2.161661
     11          6           0        0.081249   -1.159351   -1.268979
     12          1           0        0.674104   -2.818582   -0.000000
     13          1           0        1.802914   -1.471721   -0.000000
     14          1           0        1.110612    0.753708   -1.298708
     15          1           0       -0.436570    0.775356   -2.141707
     16          1           0        0.595467   -1.527007   -2.161661
     17          1           0       -0.952091   -1.523009   -1.335693
     18          1           0       -1.645091    0.676896    0.000000
 ---------------------------------------------------------------------

 SCF Done:  E(RHF) =  -333.210294711     A.U. after    2 cycles

 The electronic state is 1-A'.
 Alpha  occ. eigenvalues --  -26.08876 -11.31413 -11.23756 -11.23754 -11.23452
 Alpha  occ. eigenvalues --  -11.23397 -11.23387  -1.61778  -1.11604  -1.00862
 Alpha  occ. eigenvalues --   -1.00649  -0.85061  -0.85045  -0.78014  -0.72267
 Alpha  occ. eigenvalues --   -0.70013  -0.69705  -0.64021  -0.60863  -0.60506
 Alpha  occ. eigenvalues --   -0.56873  -0.54102  -0.51743  -0.49833  -0.49700
 Alpha  occ. eigenvalues --   -0.47288  -0.45752  -0.44353
 Alpha virt. eigenvalues --    0.03352   0.04183   0.04255   0.04826   0.06380
 Alpha virt. eigenvalues --    0.06463   0.06773   0.06916   0.07390   0.09072
 Alpha virt. eigenvalues --    0.09120   0.12288   0.13463   0.14192   0.14291

 Mulliken charges:
               1
     1  C    0.478756
     2  C    0.164549
     3  F   -0.459812
     4  C    0.164549
     5  C    0.220796
     6  H   -0.071377
     7  H   -0.022280
     8  C    0.209295
     9  H   -0.080520
    10  H   -0.118459
    11  C    0.220796
    12  H   -0.102410
    13  H   -0.091011
    14  H   -0.022280
    15  H   -0.071377
    16  H   -0.118459
    17  H   -0.080520
    18  H   -0.220236
 Sum of Mulliken charges =   0.00000

 Dipole moment (field-independent basis, Debye):
    X=              0.1152    Y=             -2.6772    Z=             -0.0000  Tot=              2.6797

 Test job not archived.
 1\1\GINC-SE250\SP\RHF\Aug-CC-pVDZ\C6H11F1\OHZDE\08-Apr-2025\0\\#t hf a
 ug-cc-pvdz iop(5/13=1,5/36=2,99/5=2) pseudo=read geom=check guess=(rea
 d,tcheck) scf=(maxcycle=1)\\title\\0,1\C,0,-1.029667,0.,0.328709\C,0,-
 0.346175,1.264066,-0.172666\F,0,-2.369347,0.,-0.104763\C,0,-0.346175,-
 1.264066,-0.172666\C,0,1.143188,1.268979,0.209327\H,0,-0.859508,2.1417
 07,0.230253\H,0,-0.454158,1.298708,-1.263042\C,0,1.854486,0.,-0.283665
 \H,0,1.238722,1.335693,1.300616\H,0,1.627069,2.161661,-0.197429\C,0,1.
 143188,-1.268979,0.209327\H,0,2.897686,0.,0.047278\H,0,1.873494,0.,-1.

 Normal termination of Gaussian 16 at Tue Apr  8 22:44:11 2025.
