 Gaussian 16, Revision C.01,

 ----------------------------------------------------------------------
 #t hf aug-cc-pvdz symm=none int=(grid=ultrafine) guess=(read,tcheck) s
 table=(opt,rrhf)
 ----------------------------------------------------------------------
 -----
 title
 -----
 Symbolic Z-matrix:
 Charge =  0 Multiplicity = 1

 SCF Done:  E(RHF) =  -1174.17873999     A.U. after   16 cycles
 Normal termination of Gaussian 16 at Tue Apr  8 23:23:35 2025.
 Gaussian 16:  ES64L-G16RevC.01  3-Jul-2019

 ----------------------------------------------------------------------
 #t hf aug-cc-pvdz iop(5/13=1,5/36=2,99/5=2) pseudo=read geom=check gue
 ss=(read,tcheck) scf=(maxcycle=1)
 ----------------------------------------------------------------------
 -----
 title
 -----
 Structure from the checkpoint file:  "BDE49_nonexpt_1246_mol1.chk"
 Charge =  0 Multiplicity = 1

                         Standard orientation:
 ---------------------------------------------------------------------
 Center     Atomic      Atomic             Coordinates (Angstroms)
 Number     Number       Type             X           Y           Z
 ---------------------------------------------------------------------
      1          6           0        0.857413   -1.266405    0.312891
      2          6           0       -1.093372   -0.435347    0.034711
      3          6           0       -2.796325    0.548411    1.442082
      4          6           0       -3.084658    0.533403   -1.028637
      5          1           0       -3.087172    1.626949   -1.115072
      6          1           0       -2.647796    0.109428   -1.928293
      7          1           0       -2.651626    1.628237    1.572230
      8          1           0       -2.244787    0.025815    2.220402
      9          7           0       -0.262137   -0.703692    0.989770
     10          7           0        0.525341   -1.339738   -1.123758
     11          7           0       -0.602032   -0.829937   -1.281648
     12         15           0        2.436757   -0.255991    0.609879
     13          7           0       -2.322738    0.106996    0.138518
     14         17           0        1.948594    1.537078   -0.370564
     15          1           0       -4.119748    0.191976   -0.935350
     16          1           0       -3.862522    0.325580    1.535576
     17          1           0        3.134071   -0.840472   -0.479022
     18          1           0        1.134743   -2.273742    0.654472
 ---------------------------------------------------------------------

 SCF Done:  E(RHF) =  -1174.32628088     A.U. after    2 cycles

 The electronic state is 1-A.
 Alpha  occ. eigenvalues -- -103.65728 -81.32406 -15.71906 -15.70775 -15.66655
 Alpha  occ. eigenvalues --  -15.61664 -11.36819 -11.32443 -11.28210 -11.27860
 Alpha  occ. eigenvalues --  -10.69049  -8.34755  -8.34482  -8.34458  -7.82253
 Alpha  occ. eigenvalues --   -4.96094  -4.96038  -4.95738  -1.38485  -1.25658
 Alpha  occ. eigenvalues --   -1.17616  -1.13766  -1.03896  -0.98423  -0.92444
 Alpha  occ. eigenvalues --   -0.85220  -0.77771  -0.76605  -0.71826  -0.67517
 Alpha  occ. eigenvalues --   -0.64969  -0.62657  -0.60520  -0.57821  -0.56989
 Alpha  occ. eigenvalues --   -0.56164  -0.54997  -0.54649  -0.50479  -0.49331
 Alpha  occ. eigenvalues --   -0.46350  -0.45844  -0.45076  -0.42825  -0.37523
 Alpha  occ. eigenvalues --   -0.34057
 Alpha virt. eigenvalues --    0.03000   0.03224   0.04467   0.04645   0.06114
 Alpha virt. eigenvalues --    0.06578   0.07447   0.07686   0.07786   0.08005
 Alpha virt. eigenvalues --    0.09166   0.09967   0.10703   0.12011   0.12668

 Mulliken charges:
               1
     1  C    1.087183
     2  C    0.274435
     3  C    0.865005
     4  C    0.895464
     5  H   -0.065675
     6  H   -0.238794
     7  H   -0.067935
     8  H   -0.220101
     9  N   -0.730487
    10  N   -0.519433
    11  N   -0.556708
    12  P    0.489144
    13  N   -0.397780
    14  Cl  -0.489208
    15  H   -0.167937
    16  H   -0.155243
    17  H    0.236750
    18  H   -0.238680
 Sum of Mulliken charges =  -0.00000

 Dipole moment (field-independent basis, Debye):
    X=             -2.2341    Y=             -0.6637    Z=              0.8232  Tot=              2.4717

 Test job not archived.
 1\1\GINC-SE334\SP\RHF\Aug-CC-pVDZ\C4H8Cl1N4P1\OHZDE\08-Apr-2025\0\\#t
 hf aug-cc-pvdz iop(5/13=1,5/36=2,99/5=2) pseudo=read geom=check guess=
 (read,tcheck) scf=(maxcycle=1)\\title\\0,1\C,0,0.857413,-1.266405,0.31
 2891\C,0,-1.093372,-0.435347,0.034711\C,0,-2.796325,0.548411,1.442082\
 C,0,-3.084658,0.533403,-1.028637\H,0,-3.087172,1.626949,-1.115072\H,0,
 -2.647796,0.109428,-1.928293\H,0,-2.651626,1.628237,1.57223\H,0,-2.244
 787,0.025815,2.220402\N,0,-0.262137,-0.703692,0.98977\N,0,0.525341,-1.
 339738,-1.123758\N,0,-0.602032,-0.829937,-1.281648\P,0,2.436757,-0.255

 Normal termination of Gaussian 16 at Tue Apr  8 23:23:45 2025.
