 Gaussian 16, Revision C.01,

 ----------------------------------------------------------------------
 #t hf aug-cc-pvdz symm=none int=(grid=ultrafine) guess=(read,tcheck) s
 table=opt
 ----------------------------------------------------------------------
 -----
 title
 -----
 Symbolic Z-matrix:
 Charge =  0 Multiplicity = 2

 SCF Done:  E(UHF) =  -922.385004295     A.U. after   18 cycles
 Normal termination of Gaussian 16 at Tue Apr  8 23:04:05 2025.
 Gaussian 16:  ES64L-G16RevC.01  3-Jul-2019

 ----------------------------------------------------------------------
 #t hf aug-cc-pvdz iop(5/13=1,5/36=2,99/5=2) pseudo=read geom=check gue
 ss=(read,tcheck) scf=(maxcycle=1)
 ----------------------------------------------------------------------
 -----
 title
 -----
 Structure from the checkpoint file:  "BDE49_expt_391_mol2.chk"
 Charge =  0 Multiplicity = 2

                         Standard orientation:
 ---------------------------------------------------------------------
 Center     Atomic      Atomic             Coordinates (Angstroms)
 Number     Number       Type             X           Y           Z
 ---------------------------------------------------------------------
      1          6           0       -1.387565    1.488694    0.115850
      2         16           0       -0.872131   -0.163969   -0.022293
      3          1           0       -0.931791    2.240463   -0.513174
      4          1           0       -2.251254    1.675069    0.738471
      5          6           0        0.997042    0.023558    0.020243
      6          9           0        1.553258   -1.163446   -0.190095
      7          9           0        1.386099    0.498881    1.203401
      8          9           0        1.384964    0.875423   -0.937751
      9          8           0       -1.184702   -0.655408   -1.343263
     10          8           0       -1.245124   -0.877501    1.172617
 ---------------------------------------------------------------------

 SCF Done:  E(UHF) =  -922.642670210     A.U. after    2 cycles

 The electronic state is 2-A.
 Alpha  occ. eigenvalues --  -93.83104 -26.21075 -26.20948 -26.20792 -20.59904
 Alpha  occ. eigenvalues --  -20.59877 -11.57822 -11.34127  -9.09755  -6.44406
 Alpha  occ. eigenvalues --   -6.44183  -6.44081  -1.80672  -1.73643  -1.73626
 Alpha  occ. eigenvalues --   -1.46427  -1.34984  -1.10800  -1.06474  -0.94629
 Alpha  occ. eigenvalues --   -0.92441  -0.92410  -0.83479  -0.81324  -0.81261
 Alpha  occ. eigenvalues --   -0.77327  -0.77183  -0.75868  -0.72955  -0.71815
 Alpha  occ. eigenvalues --   -0.70246  -0.66378  -0.57114  -0.55912  -0.54252
 Alpha  occ. eigenvalues --   -0.51050  -0.47558
 Alpha virt. eigenvalues --    0.02873   0.04604   0.07350   0.08745   0.09889
 Alpha virt. eigenvalues --    0.10556   0.10991   0.12080   0.12672   0.14336
 Alpha virt. eigenvalues --    0.15068   0.16182   0.17542   0.18075   0.19678

  Beta  occ. eigenvalues --  -93.83185 -26.21073 -26.20944 -26.20778 -20.59870
  Beta  occ. eigenvalues --  -20.59658 -11.57809 -11.31612  -9.09859  -6.44477
  Beta  occ. eigenvalues --   -6.44330  -6.44233  -1.80655  -1.73624  -1.73610
  Beta  occ. eigenvalues --   -1.46104  -1.34591  -1.09107  -1.02028  -0.93226
  Beta  occ. eigenvalues --   -0.92400  -0.92124  -0.82148  -0.81259  -0.81183
  Beta  occ. eigenvalues --   -0.77251  -0.77168  -0.75831  -0.72146  -0.71207
  Beta  occ. eigenvalues --   -0.69135  -0.65396  -0.55993  -0.55058  -0.53284
  Beta  occ. eigenvalues --   -0.50137
  Beta virt. eigenvalues --    0.00821   0.03024   0.04644   0.07392   0.09494
  Beta virt. eigenvalues --    0.10067   0.10706   0.12004   0.12253   0.12789
  Beta virt. eigenvalues --    0.14508   0.15446   0.16570   0.18014   0.18531

 Mulliken charges and spin densities:
               1          2
     1  C    0.025382   1.267315
     2  S    2.686834  -0.081966
     3  H   -0.167519  -0.102156
     4  H   -0.104294  -0.101479
     5  C    0.629858  -0.000496
     6  F   -0.271433   0.001454
     7  F   -0.299782  -0.000791
     8  F   -0.323357   0.000798
     9  O   -1.079578   0.009903
    10  O   -1.096109   0.007418
 Sum of Mulliken charges =  -0.00000   1.00000

 Dipole moment (field-independent basis, Debye):
    X=             -0.3487    Y=              4.2663    Z=              0.3654  Tot=              4.2961
                          Isotropic Fermi Contact Couplings
        Atom                 a.u.       MegaHertz       Gauss      10(-4) cm-1
     1  C(13)              0.21952     246.78726      88.05983      82.31937
     2  S(33)             -0.11194     -38.44675     -13.71876     -12.82446
     3  H(1)              -0.02464    -110.12387     -39.29494     -36.73337
     4  H(1)              -0.02592    -115.86184     -41.34238     -38.64735
     5  C(13)              0.00353       3.96735       1.41565       1.32337
     6  F(19)              0.00197       8.28174       2.95513       2.76249
     7  F(19)              0.00021       0.86782       0.30966       0.28947
     8  F(19)             -0.00010      -0.42330      -0.15104      -0.14120

 Normal termination of Gaussian 16 at Tue Apr  8 23:04:10 2025.
