 Gaussian 16, Revision C.01,

 ----------------------------------------------------------------------
 #t hf aug-cc-pvdz symm=none int=(grid=ultrafine) guess=(read,tcheck) s
 table=(opt,rrhf)
 ----------------------------------------------------------------------
 -----
 title
 -----
 Symbolic Z-matrix:
 Charge =  0 Multiplicity = 1

 SCF Done:  E(RHF) =  -2519.58939620     A.U. after   12 cycles
 Normal termination of Gaussian 16 at Tue Apr  8 22:57:42 2025.
 Gaussian 16:  ES64L-G16RevC.01  3-Jul-2019

 ----------------------------------------------------------------------
 #t hf aug-cc-pvdz iop(5/13=1,5/36=2,99/5=2) pseudo=read geom=check gue
 ss=(read,tcheck) scf=(maxcycle=1)
 ----------------------------------------------------------------------
 -----
 title
 -----
 Structure from the checkpoint file:  "BDE49_expt_1949_mol1.chk"
 Charge =  0 Multiplicity = 1

                         Standard orientation:
 ---------------------------------------------------------------------
 Center     Atomic      Atomic             Coordinates (Angstroms)
 Number     Number       Type             X           Y           Z
 ---------------------------------------------------------------------
      1         15           0        0.535608    1.016277   -0.000465
      2         15           0       -0.535608   -1.016277   -0.000465
      3         17           0       -0.535608    1.792345    1.625501
      4         17           0       -0.537043    1.793172   -1.625090
      5         17           0        0.535608   -1.792345    1.625501
      6         17           0        0.537043   -1.793172   -1.625090
 ---------------------------------------------------------------------

 SCF Done:  E(RHF) =  -2519.70485382     A.U. after    2 cycles

 The electronic state is 1-A.
 Alpha  occ. eigenvalues -- -103.69234-103.69234-103.69233-103.69233 -81.39961
 Alpha  occ. eigenvalues --  -81.39960 -10.72562 -10.72561 -10.72560 -10.72560
 Alpha  occ. eigenvalues --   -8.38259  -8.38259  -8.38258  -8.38257  -8.37964
 Alpha  occ. eigenvalues --   -8.37964  -8.37963  -8.37963  -8.37951  -8.37950
 Alpha  occ. eigenvalues --   -8.37949  -8.37949  -7.89365  -7.89357  -5.02990
 Alpha  occ. eigenvalues --   -5.02943  -5.02927  -5.02798  -5.02628  -5.02565
 Alpha  occ. eigenvalues --   -1.19329  -1.18123  -1.16125  -1.15602  -0.84083
 Alpha  occ. eigenvalues --   -0.74000  -0.60892  -0.59537  -0.58166  -0.57137
 Alpha  occ. eigenvalues --   -0.54494  -0.51854  -0.51610  -0.50522  -0.49061
 Alpha  occ. eigenvalues --   -0.48049  -0.46981  -0.43811  -0.36944
 Alpha virt. eigenvalues --    0.03421   0.04340   0.05634   0.06774   0.07120
 Alpha virt. eigenvalues --    0.07808   0.09399   0.09853   0.09898   0.10660
 Alpha virt. eigenvalues --    0.11891   0.12022   0.13112   0.14889   0.15491

 Mulliken charges:
               1
     1  P    0.735523
     2  P    0.735523
     3  Cl  -0.367743
     4  Cl  -0.367781
     5  Cl  -0.367743
     6  Cl  -0.367781
 Sum of Mulliken charges =  -0.00000

 Dipole moment (field-independent basis, Debye):
    X=             -0.0000    Y=             -0.0000    Z=             -0.0010  Tot=              0.0010

 Test job not archived.
 1\1\GINC-SE038\SP\RHF\Aug-CC-pVDZ\Cl4P2\OHZDE\08-Apr-2025\0\\#t hf aug
 -cc-pvdz iop(5/13=1,5/36=2,99/5=2) pseudo=read geom=check guess=(read,
 tcheck) scf=(maxcycle=1)\\title\\0,1\P,0,0.535608,1.016277,-0.000465\P
 ,0,-0.535608,-1.016277,-0.000465\Cl,0,-0.535608,1.792345,1.625501\Cl,0
 ,-0.537043,1.793172,-1.62509\Cl,0,0.535608,-1.792345,1.625501\Cl,0,0.5
 37043,-1.793172,-1.62509\\Version=ES64L-G16RevC.01\State=1-A\HF=-2519.
 7048538\RMSD=5.443e-03\Dipole=0.,0.,-0.0003878\Quadrupole=0.8270449,-0
 .6416012,-0.1854437,1.3101364,0.,0.\PG=C02 [X(Cl4P2)]\\@

 Normal termination of Gaussian 16 at Tue Apr  8 22:57:46 2025.
