 Gaussian 16, Revision C.01,

 ----------------------------------------------------------------------
 #t hf aug-cc-pvdz symm=none int=(grid=ultrafine) guess=(read,tcheck) s
 table=opt
 ----------------------------------------------------------------------
 -----
 title
 -----
 Symbolic Z-matrix:
 Charge =  0 Multiplicity = 2

 SCF Done:  E(UHF) =  -192.513855179     A.U. after   16 cycles
 Normal termination of Gaussian 16 at Tue Apr  8 22:45:36 2025.
 Gaussian 16:  ES64L-G16RevC.01  3-Jul-2019

 ----------------------------------------------------------------------
 #t hf aug-cc-pvdz iop(5/13=1,5/36=2,99/5=2) pseudo=read geom=check gue
 ss=(read,tcheck) scf=(maxcycle=1)
 ----------------------------------------------------------------------
 -----
 title
 -----
 Structure from the checkpoint file:  "BDE49_expt_157_mol2.chk"
 Charge =  0 Multiplicity = 2

                         Standard orientation:
 ---------------------------------------------------------------------
 Center     Atomic      Atomic             Coordinates (Angstroms)
 Number     Number       Type             X           Y           Z
 ---------------------------------------------------------------------
      1          6           0       -1.557208   -0.515903    0.132575
      2          6           0       -0.681654    0.615971   -0.284561
      3          1           0       -1.658270   -0.766007    1.183969
      4          1           0       -2.204359   -1.026797   -0.568614
      5          6           0        0.737876    0.526221    0.298617
      6          1           0       -1.117503    1.573894    0.048876
      7          1           0       -0.612277    0.666151   -1.375168
      8          8           0        1.459875   -0.593267   -0.194400
      9          1           0        0.680903    0.508535    1.397877
     10          1           0        1.316372    1.406947    0.011539
     11          1           0        0.922052   -1.374321   -0.023066
 ---------------------------------------------------------------------

 SCF Done:  E(UHF) =  -192.575566882     A.U. after    2 cycles

 The electronic state is 2-A.
 Alpha  occ. eigenvalues --  -20.56845 -11.28785 -11.25044 -11.24022  -1.31913
 Alpha  occ. eigenvalues --   -1.05523  -0.92644  -0.81326  -0.70258  -0.64162
 Alpha  occ. eigenvalues --   -0.61875  -0.60917  -0.54744  -0.52187  -0.49731
 Alpha  occ. eigenvalues --   -0.45514  -0.36552
 Alpha virt. eigenvalues --    0.03526   0.04537   0.04737   0.05497   0.07009
 Alpha virt. eigenvalues --    0.07274   0.07499   0.12051   0.12531   0.14143
 Alpha virt. eigenvalues --    0.14871   0.15295   0.15711   0.16729   0.17326

  Beta  occ. eigenvalues --  -20.56836 -11.28635 -11.24352 -11.22621  -1.31831
  Beta  occ. eigenvalues --   -1.03159  -0.88920  -0.78276  -0.69927  -0.62976
  Beta  occ. eigenvalues --   -0.61154  -0.60092  -0.53481  -0.51283  -0.48991
  Beta  occ. eigenvalues --   -0.45122
  Beta virt. eigenvalues --    0.03586   0.04587   0.04748   0.05076   0.07023
  Beta virt. eigenvalues --    0.07188   0.07394   0.09100   0.12431   0.13288
  Beta virt. eigenvalues --    0.14379   0.15098   0.15489   0.16885   0.17338

 Mulliken charges and spin densities:
               1          2
     1  C    0.517309   1.391615
     2  C   -0.024383  -0.239976
     3  H   -0.264543  -0.113153
     4  H   -0.230256  -0.117053
     5  C    0.742916   0.044655
     6  H    0.030826   0.043493
     7  H   -0.100720   0.000873
     8  O   -0.556795   0.000224
     9  H   -0.130227  -0.005040
    10  H   -0.156545  -0.002460
    11  H    0.172419  -0.003179
 Sum of Mulliken charges =   0.00000   1.00000

 Dipole moment (field-independent basis, Debye):
    X=             -1.8515    Y=              0.2941    Z=              0.7020  Tot=              2.0018
                          Isotropic Fermi Contact Couplings
        Atom                 a.u.       MegaHertz       Gauss      10(-4) cm-1
     1  C(13)              0.21172     238.01900      84.93110      79.39459
     2  C(13)             -0.06086     -68.41327     -24.41156     -22.82021
     3  H(1)              -0.02462    -110.04703     -39.26752     -36.70774
     4  H(1)              -0.02565    -114.66006     -40.91356     -38.24648
     5  C(13)              0.03451      38.79678      13.84365      12.94121
     6  H(1)               0.02462     110.05130      39.26904      36.70916
     7  H(1)               0.00310      13.87019       4.94923       4.62660
     8  O(17)              0.00014      -0.08300      -0.02962      -0.02769

 Normal termination of Gaussian 16 at Tue Apr  8 22:45:39 2025.
