 Gaussian 16, Revision C.01,

 ----------------------------------------------------------------------
 #t hf aug-cc-pvdz symm=none int=(grid=ultrafine) guess=(read,tcheck) s
 table=opt
 ----------------------------------------------------------------------
 -----
 title
 -----
 Symbolic Z-matrix:
 Charge =  0 Multiplicity = 2

 SCF Done:  E(UHF) =  -873.674140857     A.U. after   20 cycles
 Normal termination of Gaussian 16 at Tue Apr  8 23:51:23 2025.
 Gaussian 16:  ES64L-G16RevC.01  3-Jul-2019

 ----------------------------------------------------------------------
 #t hf aug-cc-pvdz iop(5/13=1,5/36=2,99/5=2) pseudo=read geom=check gue
 ss=(read,tcheck) scf=(maxcycle=1)
 ----------------------------------------------------------------------
 -----
 title
 -----
 Structure from the checkpoint file:  "BDE49_nonexpt_1929_mol3.chk"
 Charge =  0 Multiplicity = 2

                         Standard orientation:
 ---------------------------------------------------------------------
 Center     Atomic      Atomic             Coordinates (Angstroms)
 Number     Number       Type             X           Y           Z
 ---------------------------------------------------------------------
      1          6           0       -1.777186    0.823950    0.446406
      2         16           0       -1.015466   -0.425253   -0.442795
      3         16           0        0.911110   -0.570152    0.400999
      4          6           0        1.765977    0.867322   -0.340680
      5          1           0        2.767649    0.875976    0.095521
      6          1           0        1.251237    1.791324   -0.080652
      7          1           0        1.839279    0.758285   -1.421834
      8          1           0       -1.579168    0.955203    1.501304
      9          1           0       -2.542042    1.398056   -0.059963
 ---------------------------------------------------------------------

 SCF Done:  E(UHF) =  -873.743007258     A.U. after    2 cycles

 The electronic state is 2-A.
 Alpha  occ. eigenvalues --  -93.56866 -93.56011 -11.27685 -11.27445  -8.86444
 Alpha  occ. eigenvalues --   -8.85557  -6.20516  -6.20218  -6.20159  -6.19692
 Alpha  occ. eigenvalues --   -6.19390  -6.19057  -1.08192  -1.01255  -0.89223
 Alpha  occ. eigenvalues --   -0.78405  -0.63196  -0.60511  -0.60074  -0.55589
 Alpha  occ. eigenvalues --   -0.49988  -0.49080  -0.41467  -0.36526  -0.31916
 Alpha virt. eigenvalues --    0.03559   0.04564   0.05310   0.06354   0.06630
 Alpha virt. eigenvalues --    0.08133   0.08885   0.12352   0.12676   0.13604
 Alpha virt. eigenvalues --    0.14544   0.15024   0.15932   0.16300   0.16694

  Beta  occ. eigenvalues --  -93.56841 -93.55970 -11.27416 -11.25269  -8.86411
  Beta  occ. eigenvalues --   -8.85502  -6.20625  -6.20384  -6.19755  -6.19566
  Beta  occ. eigenvalues --   -6.19353  -6.19028  -1.06382  -0.98920  -0.86041
  Beta  occ. eigenvalues --   -0.76075  -0.61853  -0.60277  -0.59689  -0.54240
  Beta  occ. eigenvalues --   -0.49162  -0.44714  -0.37700  -0.35594
  Beta virt. eigenvalues --    0.03599   0.04618   0.05341   0.05833   0.06638
  Beta virt. eigenvalues --    0.06785   0.08611   0.10232   0.12768   0.12897
  Beta virt. eigenvalues --    0.13757   0.14684   0.15622   0.15955   0.16641

 Mulliken charges and spin densities:
               1          2
     1  C    0.178606   1.242571
     2  S    0.180035  -0.050604
     3  S    0.090820   0.013475
     4  C    0.075933   0.010033
     5  H   -0.061935  -0.000360
     6  H   -0.046749  -0.003238
     7  H   -0.038743  -0.000302
     8  H   -0.210581  -0.101258
     9  H   -0.167386  -0.110316
 Sum of Mulliken charges =  -0.00000   1.00000

 Dipole moment (field-independent basis, Debye):
    X=              0.4357    Y=              2.0642    Z=              0.0012  Tot=              2.1097
                          Isotropic Fermi Contact Couplings
        Atom                 a.u.       MegaHertz       Gauss      10(-4) cm-1
     1  C(13)              0.21471     241.37349      86.12806      80.51353
     2  S(33)              0.04286      14.72251       5.25336       4.91090
     3  S(33)              0.05367      18.43346       6.57752       6.14874
     4  C(13)              0.00328       3.69042       1.31683       1.23099
     5  H(1)               0.00099       4.43215       1.58150       1.47841
     6  H(1)              -0.00037      -1.66917      -0.59560      -0.55677
     7  H(1)              -0.00030      -1.35282      -0.48272      -0.45125
     8  H(1)              -0.02290    -102.38159     -36.53230     -34.15082

 Normal termination of Gaussian 16 at Tue Apr  8 23:51:26 2025.
