 Gaussian 16, Revision C.01,

 ----------------------------------------------------------------------
 #t hf aug-cc-pvdz symm=none int=(grid=ultrafine) guess=(read,tcheck) s
 table=(opt,rrhf)
 ----------------------------------------------------------------------
 -----
 title
 -----
 Symbolic Z-matrix:
 Charge =  0 Multiplicity = 1

 SCF Done:  E(RHF) =  -1332.46914678     A.U. after   14 cycles
 Normal termination of Gaussian 16 at Tue Apr  8 23:23:01 2025.
 Gaussian 16:  ES64L-G16RevC.01  3-Jul-2019

 ----------------------------------------------------------------------
 #t hf aug-cc-pvdz iop(5/13=1,5/36=2,99/5=2) pseudo=read geom=check gue
 ss=(read,tcheck) scf=(maxcycle=1)
 ----------------------------------------------------------------------
 -----
 title
 -----
 Structure from the checkpoint file:  "BDE49_nonexpt_1223_mol1.chk"
 Charge =  0 Multiplicity = 1

                         Standard orientation:
 ---------------------------------------------------------------------
 Center     Atomic      Atomic             Coordinates (Angstroms)
 Number     Number       Type             X           Y           Z
 ---------------------------------------------------------------------
      1          6           0        2.873208   -0.235176   -0.055024
      2          8           0        1.647672   -0.071763   -0.681355
      3          9           0        3.400439    0.932894    0.306581
      4          9           0        3.666990   -0.812304   -0.947757
      5          9           0        2.778947   -1.019171    1.016263
      6          6           0        0.633614    0.512345    0.025022
      7          8           0       -0.401888    0.551785   -0.860985
      8          8           0        0.665957    0.902168    1.141993
      9         16           0       -1.875243    1.194006   -0.294228
     10          6           0       -2.686657   -0.401962    0.058832
     11          9           0       -3.882798   -0.083813    0.577612
     12          9           0       -2.873150   -1.147005   -1.032793
     13          9           0       -2.002766   -1.138697    0.939809
 ---------------------------------------------------------------------

 SCF Done:  E(RHF) =  -1332.82625235     A.U. after    2 cycles

 The electronic state is 1-A.
 Alpha  occ. eigenvalues --  -93.66328 -26.20683 -26.20148 -26.20037 -26.19954
 Alpha  occ. eigenvalues --  -26.19911 -26.19877 -20.70044 -20.69913 -20.62353
 Alpha  occ. eigenvalues --  -11.61870 -11.58381 -11.51374  -8.95453  -6.29640
 Alpha  occ. eigenvalues --   -6.29296  -6.28862  -1.80665  -1.80010  -1.73179
 Alpha  occ. eigenvalues --   -1.73093  -1.72914  -1.72648  -1.52646  -1.43257
 Alpha  occ. eigenvalues --   -1.40337  -1.11655  -1.07368  -1.01094  -0.95892
 Alpha  occ. eigenvalues --   -0.92987  -0.92744  -0.91896  -0.91692  -0.87206
 Alpha  occ. eigenvalues --   -0.82393  -0.81298  -0.81163  -0.80859  -0.80210
 Alpha  occ. eigenvalues --   -0.78539  -0.76934  -0.76472  -0.76386  -0.75938
 Alpha  occ. eigenvalues --   -0.75429  -0.75161  -0.74970  -0.74103  -0.67554
 Alpha  occ. eigenvalues --   -0.65807  -0.63818  -0.57453  -0.55397  -0.53596
 Alpha  occ. eigenvalues --   -0.44211
 Alpha virt. eigenvalues --    0.04346   0.05787   0.07369   0.07502   0.08787
 Alpha virt. eigenvalues --    0.08990   0.09752   0.10670   0.11109   0.11886
 Alpha virt. eigenvalues --    0.12552   0.13787   0.14182   0.15120   0.16750

 Mulliken charges:
               1
     1  C    1.126288
     2  O   -0.504386
     3  F   -0.279452
     4  F   -0.244452
     5  F   -0.277148
     6  C    0.666366
     7  O   -0.743838
     8  O   -0.252693
     9  S    0.730663
    10  C    0.686153
    11  F   -0.279380
    12  F   -0.302974
    13  F   -0.325147
 Sum of Mulliken charges =  -0.00000

 Dipole moment (field-independent basis, Debye):
    X=             -1.0622    Y=              1.1406    Z=             -1.1626  Tot=              1.9444

 Test job not archived.
 1\1\GINC-SE165\SP\RHF\Aug-CC-pVDZ\C3F6O3S1\OHZDE\08-Apr-2025\0\\#t hf
 aug-cc-pvdz iop(5/13=1,5/36=2,99/5=2) pseudo=read geom=check guess=(re
 ad,tcheck) scf=(maxcycle=1)\\title\\0,1\C,0,-2.873208,0.235176,-0.0550
 24\O,0,-1.647672,0.071763,-0.681355\F,0,-3.400439,-0.932894,0.306581\F
 ,0,-3.66699,0.812304,-0.947757\F,0,-2.778947,1.019171,1.016263\C,0,-0.
 633614,-0.512345,0.025022\O,0,0.401888,-0.551785,-0.860985\O,0,-0.6659
 57,-0.902168,1.141993\S,0,1.875243,-1.194006,-0.294228\C,0,2.686657,0.
 401962,0.058832\F,0,3.882798,0.083813,0.577612\F,0,2.87315,1.147005,-1

 Normal termination of Gaussian 16 at Tue Apr  8 23:23:09 2025.
