 Gaussian 16, Revision C.01,

 ----------------------------------------------------------------------
 #t hf aug-cc-pvdz symm=none int=(grid=ultrafine) guess=(read,tcheck) s
 table=opt
 ----------------------------------------------------------------------
 -----
 title
 -----
 Symbolic Z-matrix:
 Charge =  0 Multiplicity = 2

 SCF Done:  E(UHF) =  -710.037729524     A.U. after   17 cycles
 Normal termination of Gaussian 16 at Tue Apr  8 23:41:22 2025.
 Gaussian 16:  ES64L-G16RevC.01  3-Jul-2019

 ----------------------------------------------------------------------
 #t hf aug-cc-pvdz iop(5/13=1,5/36=2,99/5=2) pseudo=read geom=check gue
 ss=(read,tcheck) scf=(maxcycle=1)
 ----------------------------------------------------------------------
 -----
 title
 -----
 Structure from the checkpoint file:  "BDE49_nonexpt_1674_mol2.chk"
 Charge =  0 Multiplicity = 2

                         Standard orientation:
 ---------------------------------------------------------------------
 Center     Atomic      Atomic             Coordinates (Angstroms)
 Number     Number       Type             X           Y           Z
 ---------------------------------------------------------------------
      1         14           0        1.690232   -0.149125    0.104511
      2         15           0       -0.449925    0.014985   -0.647517
      3          6           0       -1.041270    1.479882    0.358123
      4          1           0       -0.844027    1.379805    1.428157
      5          1           0       -2.119894    1.586160    0.207206
      6          1           0       -0.561471    2.389403   -0.008675
      7          6           0       -1.229187   -1.372811    0.331897
      8          1           0       -2.312032   -1.328642    0.187887
      9          1           0       -1.018025   -1.324052    1.403174
     10          1           0       -0.879165   -2.331598   -0.055609
     11          1           0        2.589396    0.782065   -0.625288
     12          1           0        1.853592    0.067409    1.572617
 ---------------------------------------------------------------------

 SCF Done:  E(UHF) =  -710.104344668     A.U. after    2 cycles

 The electronic state is 2-A.
 Alpha  occ. eigenvalues --  -81.24825 -69.07344 -11.24207 -11.24137  -7.75172
 Alpha  occ. eigenvalues --   -6.82697  -4.89089  -4.89066  -4.88771  -3.94027
 Alpha  occ. eigenvalues --   -3.93118  -3.93110  -0.98309  -0.93666  -0.74128
 Alpha  occ. eigenvalues --   -0.65346  -0.59094  -0.58524  -0.56405  -0.56092
 Alpha  occ. eigenvalues --   -0.48813  -0.46541  -0.42533  -0.33126  -0.31163
 Alpha virt. eigenvalues --    0.03450   0.04791   0.04853   0.05552   0.06343
 Alpha virt. eigenvalues --    0.06945   0.07187   0.07503   0.08750   0.09772
 Alpha virt. eigenvalues --    0.10320   0.11054   0.12108   0.12927   0.14385

  Beta  occ. eigenvalues --  -81.24823 -69.06777 -11.24135 -11.24119  -7.75164
  Beta  occ. eigenvalues --   -6.81859  -4.89100  -4.89043  -4.88785  -3.92712
  Beta  occ. eigenvalues --   -3.92704  -3.91847  -0.98118  -0.93517  -0.72021
  Beta  occ. eigenvalues --   -0.63072  -0.59013  -0.58105  -0.56239  -0.55929
  Beta  occ. eigenvalues --   -0.48072  -0.46021  -0.41511  -0.32186
  Beta virt. eigenvalues --    0.02774   0.03565   0.04866   0.05461   0.05988
  Beta virt. eigenvalues --    0.06489   0.07311   0.07551   0.07724   0.08860
  Beta virt. eigenvalues --    0.10306   0.10595   0.11295   0.12546   0.13291

 Mulliken charges and spin densities:
               1          2
     1  Si   0.139687   1.045307
     2  P    0.260405  -0.006611
     3  C    0.292131   0.009595
     4  H   -0.157463  -0.006877
     5  H   -0.154466   0.007862
     6  H   -0.200034  -0.011782
     7  C    0.285558  -0.007756
     8  H   -0.160455  -0.004460
     9  H   -0.172919  -0.001089
    10  H   -0.172698  -0.005281
    11  H    0.006375  -0.008866
    12  H    0.033879  -0.010042
 Sum of Mulliken charges =  -0.00000   1.00000

 Dipole moment (field-independent basis, Debye):
    X=             -0.7757    Y=              0.0058    Z=              1.0871  Tot=              1.3355
                          Isotropic Fermi Contact Couplings
        Atom                 a.u.       MegaHertz       Gauss      10(-4) cm-1
     1  Si(29)             0.49547    -440.33674    -157.12310    -146.88053
     2  P(31)              0.02003      36.28240      12.94646      12.10250
     3  C(13)              0.02083      23.42063       8.35706       7.81228
     4  H(1)              -0.00024      -1.08364      -0.38667      -0.36146
     5  H(1)               0.00365      16.31825       5.82276       5.44318
     6  H(1)              -0.00035      -1.57510      -0.56204      -0.52540
     7  C(13)              0.00135       1.51329       0.53998       0.50478
     8  H(1)              -0.00073      -3.28505      -1.17219      -1.09578

 Normal termination of Gaussian 16 at Tue Apr  8 23:41:26 2025.
