 Gaussian 16, Revision C.01,

 ----------------------------------------------------------------------
 #t hf aug-cc-pvdz symm=none int=(grid=ultrafine) guess=(read,tcheck) s
 table=(opt,rrhf)
 ----------------------------------------------------------------------
 -----
 title
 -----
 Symbolic Z-matrix:
 Charge =  0 Multiplicity = 1

 SCF Done:  E(RHF) =  -635.107402753     A.U. after   12 cycles
 Normal termination of Gaussian 16 at Tue Apr  8 23:59:36 2025.
 Gaussian 16:  ES64L-G16RevC.01  3-Jul-2019

 ----------------------------------------------------------------------
 #t hf aug-cc-pvdz iop(5/13=1,5/36=2,99/5=2) pseudo=read geom=check gue
 ss=(read,tcheck) scf=(maxcycle=1)
 ----------------------------------------------------------------------
 -----
 title
 -----
 Structure from the checkpoint file:  "BDE49_nonexpt_2085_mol1.chk"
 Charge =  0 Multiplicity = 1

                         Standard orientation:
 ---------------------------------------------------------------------
 Center     Atomic      Atomic             Coordinates (Angstroms)
 Number     Number       Type             X           Y           Z
 ---------------------------------------------------------------------
      1         14           0        0.000000    1.768381   -0.005291
      2          8           0        1.320945    0.794040   -0.147795
      3          8           0       -1.320945    0.794040   -0.147795
      4          6           0        0.000000   -1.268030   -0.108968
      5          6           0       -1.285814   -0.560578    0.345307
      6          6           0        1.285814   -0.560578    0.345307
      7          6           0        2.547679   -1.257009   -0.139239
      8          1           0        2.558551   -1.300607   -1.231279
      9          1           0        2.606362   -2.275517    0.254649
     10          1           0        3.429443   -0.703655    0.189340
     11          1           0        1.297422   -0.524284    1.445333
     12          1           0        0.000000   -1.336584   -1.203014
     13          1           0        0.000000   -2.289512    0.286960
     14          6           0       -2.547679   -1.257009   -0.139239
     15          1           0       -1.297422   -0.524284    1.445333
     16          1           0       -2.558551   -1.300607   -1.231280
     17          1           0       -3.429443   -0.703655    0.189340
     18          1           0       -2.606362   -2.275517    0.254648
     19          1           0        0.000000    2.753443   -1.098300
     20          1           0        0.000000    2.438026    1.318057
 ---------------------------------------------------------------------

 SCF Done:  E(RHF) =  -635.257115211     A.U. after    2 cycles

 The electronic state is 1-A.
 Alpha  occ. eigenvalues --  -69.10689 -20.55723 -20.55723 -11.30414 -11.30409
 Alpha  occ. eigenvalues --  -11.23995 -11.22898 -11.22898  -6.85160  -3.96150
 Alpha  occ. eigenvalues --   -3.96017  -3.95889  -1.32197  -1.29040  -1.06629
 Alpha  occ. eigenvalues --   -1.00994  -0.93987  -0.82680  -0.81352  -0.73495
 Alpha  occ. eigenvalues --   -0.66926  -0.65889  -0.64898  -0.60212  -0.59073
 Alpha  occ. eigenvalues --   -0.57300  -0.55516  -0.54896  -0.53970  -0.52794
 Alpha  occ. eigenvalues --   -0.51998  -0.51179  -0.47792  -0.46709  -0.44044
 Alpha  occ. eigenvalues --   -0.43171
 Alpha virt. eigenvalues --    0.03310   0.04263   0.04388   0.04524   0.05852
 Alpha virt. eigenvalues --    0.06152   0.06410   0.06430   0.07525   0.08243
 Alpha virt. eigenvalues --    0.08937   0.09253   0.09567   0.09916   0.11569

 Mulliken charges:
               1
     1  Si   0.627109
     2  O   -0.974057
     3  O   -0.974057
     4  C   -0.260626
     5  C    0.476715
     6  C    0.476714
     7  C    0.547879
     8  H   -0.007226
     9  H   -0.009675
    10  H   -0.021394
    11  H   -0.265837
    12  H   -0.078236
    13  H   -0.090581
    14  C    0.547878
    15  H   -0.265837
    16  H   -0.007223
    17  H   -0.021394
    18  H   -0.009677
    19  H    0.184454
    20  H    0.125072
 Sum of Mulliken charges =  -0.00000

 Dipole moment (field-independent basis, Debye):
    X=              0.0000    Y=             -2.1762    Z=              1.0167  Tot=              2.4020

 Test job not archived.
 1\1\GINC-SE096\SP\RHF\Aug-CC-pVDZ\C5H12O2Si1\OHZDE\08-Apr-2025\0\\#t h
 f aug-cc-pvdz iop(5/13=1,5/36=2,99/5=2) pseudo=read geom=check guess=(
 read,tcheck) scf=(maxcycle=1)\\title\\0,1\Si,0,0.,1.768381,-0.005291\O
 ,0,1.320945,0.79404,-0.147795\O,0,-1.320945,0.79404,-0.147795\C,0,0.,-
 1.26803,-0.108968\C,0,-1.285814,-0.560578,0.345307\C,0,1.285814,-0.560
 578,0.345307\C,0,2.547679,-1.257009,-0.139239\H,0,2.558551,-1.300607,-
 1.231279\H,0,2.606362,-2.275517,0.254649\H,0,3.429443,-0.703655,0.1893
 4\H,0,1.297422,-0.524284,1.445333\H,0,0.,-1.336584,-1.203014\H,0,0.,-2

 Normal termination of Gaussian 16 at Tue Apr  8 23:59:46 2025.
