 Gaussian 16, Revision C.01,

 ----------------------------------------------------------------------
 #t hf aug-cc-pvdz symm=none int=(grid=ultrafine) guess=(read,tcheck) s
 table=(opt,rrhf)
 ----------------------------------------------------------------------
 -----
 title
 -----
 Symbolic Z-matrix:
 Charge =  0 Multiplicity = 1

 SCF Done:  E(RHF) =  -537.167728774     A.U. after   12 cycles
 Normal termination of Gaussian 16 at Tue Apr  8 23:58:44 2025.
 Gaussian 16:  ES64L-G16RevC.01  3-Jul-2019

 ----------------------------------------------------------------------
 #t hf aug-cc-pvdz iop(5/13=1,5/36=2,99/5=2) pseudo=read geom=check gue
 ss=(read,tcheck) scf=(maxcycle=1)
 ----------------------------------------------------------------------
 -----
 title
 -----
 Structure from the checkpoint file:  "BDE49_nonexpt_2091_mol1.chk"
 Charge =  0 Multiplicity = 1

                         Standard orientation:
 ---------------------------------------------------------------------
 Center     Atomic      Atomic             Coordinates (Angstroms)
 Number     Number       Type             X           Y           Z
 ---------------------------------------------------------------------
      1          8           0        0.443039   -1.319919   -0.190846
      2          7           0        0.373111    1.346475   -0.166345
      3          6           0       -1.660878   -0.056826   -0.283923
      4          6           0       -1.041773    1.252622    0.222558
      5          6           0       -0.926160   -1.298505    0.224627
      6         14           0        1.416740   -0.008373    0.036604
      7          1           0       -0.980012   -1.346521    1.322177
      8          1           0       -1.390120   -2.206070   -0.168354
      9          1           0       -1.646438   -0.060167   -1.378305
     10          1           0       -2.707028   -0.109434    0.037676
     11          1           0        0.742047    2.285801   -0.128923
     12          1           0       -1.180324    1.315789    1.314876
     13          1           0       -1.586958    2.095427   -0.213169
     14          1           0        2.493079   -0.011811   -0.974888
     15          1           0        2.038167   -0.095518    1.388063
 ---------------------------------------------------------------------

 SCF Done:  E(RHF) =  -537.283009428     A.U. after    2 cycles

 The electronic state is 1-A.
 Alpha  occ. eigenvalues --  -69.09192 -20.55254 -15.59575 -11.29315 -11.27275
 Alpha  occ. eigenvalues --  -11.23690  -6.83832  -3.94807  -3.94688  -3.94547
 Alpha  occ. eigenvalues --   -1.30246  -1.14126  -1.02327  -0.89761  -0.81483
 Alpha  occ. eigenvalues --   -0.71853  -0.67982  -0.63031  -0.61217  -0.60581
 Alpha  occ. eigenvalues --   -0.58659  -0.55181  -0.52853  -0.50498  -0.47820
 Alpha  occ. eigenvalues --   -0.45186  -0.44118  -0.36913
 Alpha virt. eigenvalues --    0.03177   0.04183   0.04543   0.04775   0.06338
 Alpha virt. eigenvalues --    0.06549   0.07216   0.07427   0.07947   0.09201
 Alpha virt. eigenvalues --    0.10049   0.11619   0.13348   0.14059   0.14570

 Mulliken charges:
               1
     1  O   -0.910412
     2  N   -0.581959
     3  C   -0.100090
     4  C    0.777817
     5  C    0.853959
     6  Si   0.805409
     7  H   -0.125560
     8  H   -0.219404
     9  H   -0.104709
    10  H   -0.009764
    11  H   -0.187783
    12  H   -0.118638
    13  H   -0.176373
    14  H    0.076237
    15  H    0.021271
 Sum of Mulliken charges =  -0.00000

 Dipole moment (field-independent basis, Debye):
    X=             -1.6142    Y=              1.6708    Z=              0.7655  Tot=              2.4461

 Test job not archived.
 1\1\GINC-SE402\SP\RHF\Aug-CC-pVDZ\C3H9N1O1Si1\OHZDE\08-Apr-2025\0\\#t
 hf aug-cc-pvdz iop(5/13=1,5/36=2,99/5=2) pseudo=read geom=check guess=
 (read,tcheck) scf=(maxcycle=1)\\title\\0,1\O,0,0.443039,-1.319919,-0.1
 90846\N,0,0.373111,1.346475,-0.166345\C,0,-1.660878,-0.056826,-0.28392
 3\C,0,-1.041773,1.252622,0.222558\C,0,-0.92616,-1.298505,0.224627\Si,0
 ,1.41674,-0.008373,0.036604\H,0,-0.980012,-1.346521,1.322177\H,0,-1.39
 0121,-2.20607,-0.168354\H,0,-1.646438,-0.060167,-1.378305\H,0,-2.70702
 8,-0.109434,0.037676\H,0,0.742047,2.285801,-0.128923\H,0,-1.180324,1.3

 Normal termination of Gaussian 16 at Tue Apr  8 23:58:49 2025.
