 Gaussian 16, Revision C.01,

 ----------------------------------------------------------------------
 #t hf aug-cc-pvdz symm=none int=(grid=ultrafine) guess=(read,tcheck) s
 table=(opt,rrhf)
 ----------------------------------------------------------------------
 -----
 title
 -----
 Symbolic Z-matrix:
 Charge =  0 Multiplicity = 1

 SCF Done:  E(RHF) =  -191.934895297     A.U. after   12 cycles
 Normal termination of Gaussian 16 at Tue Apr  8 22:58:38 2025.
 Gaussian 16:  ES64L-G16RevC.01  3-Jul-2019

 ----------------------------------------------------------------------
 #t hf aug-cc-pvdz iop(5/13=1,5/36=2,99/5=2) pseudo=read geom=check gue
 ss=(read,tcheck) scf=(maxcycle=1)
 ----------------------------------------------------------------------
 -----
 title
 -----
 Structure from the checkpoint file:  "BDE49_expt_196_mol1.chk"
 Charge =  0 Multiplicity = 1

                         Standard orientation:
 ---------------------------------------------------------------------
 Center     Atomic      Atomic             Coordinates (Angstroms)
 Number     Number       Type             X           Y           Z
 ---------------------------------------------------------------------
      1          8           0       -0.825976   -0.789363   -0.241517
      2          6           0        0.151561   -0.036402    0.488782
      3          6           0       -1.043302    0.615451   -0.061516
      4          1           0       -1.869830    0.880144    0.594212
      5          1           0       -0.951869    1.219252   -0.962127
      6          6           0        1.509130    0.099804   -0.148303
      7          1           0        0.153280   -0.252636    1.557007
      8          1           0        1.413111    0.321538   -1.213488
      9          1           0        2.077153   -0.828995   -0.043894
     10          1           0        2.081628    0.902489    0.326647
 ---------------------------------------------------------------------

 SCF Done:  E(RHF) =  -191.997716129     A.U. after    2 cycles

 The electronic state is 1-A.
 Alpha  occ. eigenvalues --  -20.58067 -11.29926 -11.29220 -11.23726  -1.36977
 Alpha  occ. eigenvalues --   -1.00625  -0.90683  -0.81806  -0.70374  -0.65169
 Alpha  occ. eigenvalues --   -0.59277  -0.56772  -0.53249  -0.52275  -0.46108
 Alpha  occ. eigenvalues --   -0.44044
 Alpha virt. eigenvalues --    0.03476   0.04656   0.04774   0.05740   0.06704
 Alpha virt. eigenvalues --    0.07670   0.10215   0.12223   0.12709   0.14406
 Alpha virt. eigenvalues --    0.15018   0.15934   0.16733   0.17646   0.17790

 Mulliken charges:
               1
     1  O   -0.707859
     2  C    0.302920
     3  C    0.881930
     4  H   -0.208324
     5  H   -0.221409
     6  C    0.212870
     7  H   -0.275485
     8  H   -0.036078
     9  H    0.025468
    10  H    0.025967
 Sum of Mulliken charges =  -0.00000

 Dipole moment (field-independent basis, Debye):
    X=              0.9949    Y=              2.0716    Z=              0.8480  Tot=              2.4496

 Test job not archived.
 1\1\GINC-SE051\SP\RHF\Aug-CC-pVDZ\C3H6O1\OHZDE\08-Apr-2025\0\\#t hf au
 g-cc-pvdz iop(5/13=1,5/36=2,99/5=2) pseudo=read geom=check guess=(read
 ,tcheck) scf=(maxcycle=1)\\title\\0,1\O,0,-0.825976,-0.789363,-0.24151
 7\C,0,0.151561,-0.036402,0.488782\C,0,-1.043302,0.615451,-0.061516\H,0
 ,-1.86983,0.880145,0.594212\H,0,-0.951869,1.219252,-0.962127\C,0,1.509
 13,0.099803,-0.148303\H,0,0.15328,-0.252636,1.557007\H,0,1.413111,0.32
 1537,-1.213488\H,0,2.077153,-0.828996,-0.043894\H,0,2.081628,0.902488,
 0.326647\\Version=ES64L-G16RevC.01\State=1-A\HF=-191.9977161\RMSD=5.29

 Normal termination of Gaussian 16 at Tue Apr  8 22:58:40 2025.
