 Gaussian 16, Revision C.01,

 ----------------------------------------------------------------------
 #t hf aug-cc-pvdz symm=none int=(grid=ultrafine) guess=(read,tcheck) s
 table=(opt,rrhf)
 ----------------------------------------------------------------------
 -----
 title
 -----
 Symbolic Z-matrix:
 Charge =  0 Multiplicity = 1

 SCF Done:  E(RHF) =  -1707.18021360     A.U. after   12 cycles
 Normal termination of Gaussian 16 at Tue Apr  8 23:48:18 2025.
 Gaussian 16:  ES64L-G16RevC.01  3-Jul-2019

 ----------------------------------------------------------------------
 #t hf aug-cc-pvdz iop(5/13=1,5/36=2,99/5=2) pseudo=read geom=check gue
 ss=(read,tcheck) scf=(maxcycle=1)
 ----------------------------------------------------------------------
 -----
 title
 -----
 Structure from the checkpoint file:  "BDE49_nonexpt_1851_mol1.chk"
 Charge =  0 Multiplicity = 1

                         Standard orientation:
 ---------------------------------------------------------------------
 Center     Atomic      Atomic             Coordinates (Angstroms)
 Number     Number       Type             X           Y           Z
 ---------------------------------------------------------------------
      1          6           0        0.974849   -0.944230   -0.497167
      2         14           0       -0.407660   -0.070389    0.419837
      3         17           0       -2.174217   -1.026492   -0.083411
      4         17           0       -0.508067    1.903979   -0.156751
      5          1           0       -0.240994   -0.128896    1.875366
      6         17           0        2.577965   -0.313998    0.069449
      7          1           0        0.917160   -0.784149   -1.573273
      8          1           0        0.955395   -2.015450   -0.294695
 ---------------------------------------------------------------------

 SCF Done:  E(RHF) =  -1707.27420104     A.U. after    2 cycles

 The electronic state is 1-A.
 Alpha  occ. eigenvalues -- -103.67392-103.67288-103.67197 -69.17500 -11.31743
 Alpha  occ. eigenvalues --  -10.70846 -10.70661 -10.70507  -8.36536  -8.36355
 Alpha  occ. eigenvalues --   -8.36307  -8.36302  -8.36228  -8.36118  -8.36115
 Alpha  occ. eigenvalues --   -8.35932  -8.35920  -6.91875  -4.02747  -4.02649
 Alpha  occ. eigenvalues --   -4.02534  -1.17992  -1.16494  -1.14707  -0.94271
 Alpha  occ. eigenvalues --   -0.72038  -0.65089  -0.60276  -0.57413  -0.56489
 Alpha  occ. eigenvalues --   -0.55717  -0.50557  -0.49779  -0.48511  -0.48157
 Alpha  occ. eigenvalues --   -0.46752  -0.44402
 Alpha virt. eigenvalues --    0.03578   0.04934   0.05297   0.05705   0.07319
 Alpha virt. eigenvalues --    0.08251   0.09035   0.10719   0.11762   0.13161
 Alpha virt. eigenvalues --    0.14100   0.14339   0.14956   0.15916   0.16077

 Mulliken charges:
               1
     1  C   -0.100230
     2  Si   1.377095
     3  Cl  -0.498057
     4  Cl  -0.491632
     5  H    0.001954
     6  Cl  -0.203104
     7  H   -0.031320
     8  H   -0.054706
 Sum of Mulliken charges =   0.00000

 Dipole moment (field-independent basis, Debye):
    X=             -0.1049    Y=             -1.4685    Z=             -0.1215  Tot=              1.4772

 Test job not archived.
 1\1\GINC-SE403\SP\RHF\Aug-CC-pVDZ\C1H3Cl3Si1\OHZDE\08-Apr-2025\0\\#t h
 f aug-cc-pvdz iop(5/13=1,5/36=2,99/5=2) pseudo=read geom=check guess=(
 read,tcheck) scf=(maxcycle=1)\\title\\0,1\C,0,0.974849,-0.94423,-0.497
 167\Si,0,-0.40766,-0.070389,0.419837\Cl,0,-2.174217,-1.026492,-0.08341
 1\Cl,0,-0.508067,1.903979,-0.156751\H,0,-0.240994,-0.128896,1.875366\C
 l,0,2.577965,-0.313998,0.069449\H,0,0.91716,-0.784149,-1.573273\H,0,0.
 955395,-2.01545,-0.294695\\Version=ES64L-G16RevC.01\State=1-A\HF=-1707
 .274201\RMSD=4.103e-03\Dipole=-0.0412837,-0.5777487,-0.0478006\Quadrup

 Normal termination of Gaussian 16 at Tue Apr  8 23:48:21 2025.
