 Gaussian 16, Revision C.01,

 ----------------------------------------------------------------------
 #t hf aug-cc-pvdz symm=none int=(grid=ultrafine) guess=(read,tcheck) s
 table=(opt,rrhf)
 ----------------------------------------------------------------------
 -----
 title
 -----
 Symbolic Z-matrix:
 Charge =  0 Multiplicity = 1

 SCF Done:  E(RHF) =  -1360.73826330     A.U. after   14 cycles
 Normal termination of Gaussian 16 at Wed Apr  9 00:01:00 2025.
 Gaussian 16:  ES64L-G16RevC.01  3-Jul-2019

 ----------------------------------------------------------------------
 #t hf aug-cc-pvdz iop(5/13=1,5/36=2,99/5=2) pseudo=read geom=check gue
 ss=(read,tcheck) scf=(maxcycle=1)
 ----------------------------------------------------------------------
 -----
 title
 -----
 Structure from the checkpoint file:  "BDE49_nonexpt_2155_mol1.chk"
 Charge =  0 Multiplicity = 1

                         Standard orientation:
 ---------------------------------------------------------------------
 Center     Atomic      Atomic             Coordinates (Angstroms)
 Number     Number       Type             X           Y           Z
 ---------------------------------------------------------------------
      1         14           0       -0.000018   -0.000005    0.251650
      2          7           0       -1.673821   -0.337658   -0.460386
      3          7           0        0.544439    1.618396   -0.460393
      4          7           0        1.129288   -1.280741   -0.460409
      5         17           0        0.000007   -0.000022    2.250505
      6          8           0        1.840226   -0.959743   -1.397547
      7          8           0        1.542079    2.097540    0.059697
      8          8           0       -1.751185   -1.113433   -1.397877
      9          8           0       -0.088747    2.073292   -1.397869
     10          8           0       -2.587599    0.286701    0.059755
     11          8           0        1.045323   -2.384300    0.059669
 ---------------------------------------------------------------------

 SCF Done:  E(RHF) =  -1360.97412730     A.U. after    2 cycles

 The electronic state is 1-A.
 Alpha  occ. eigenvalues -- -103.76325 -69.31747 -20.68335 -20.68334 -20.68334
 Alpha  occ. eigenvalues --  -20.68036 -20.68036 -20.68036 -15.95615 -15.95614
 Alpha  occ. eigenvalues --  -15.95614 -10.79677  -8.45380  -8.45108  -8.45108
 Alpha  occ. eigenvalues --   -7.05629  -4.16442  -4.16442  -4.16437  -1.60569
 Alpha  occ. eigenvalues --   -1.59753  -1.59753  -1.42642  -1.42642  -1.42547
 Alpha  occ. eigenvalues --   -1.25007  -1.04959  -0.98396  -0.98396  -0.86622
 Alpha  occ. eigenvalues --   -0.84050  -0.84050  -0.79131  -0.79063  -0.79063
 Alpha  occ. eigenvalues --   -0.77156  -0.77123  -0.77123  -0.69404  -0.59990
 Alpha  occ. eigenvalues --   -0.59990  -0.58370  -0.57359  -0.57359  -0.56547
 Alpha  occ. eigenvalues --   -0.53017  -0.52818  -0.52818  -0.52110  -0.52109
 Alpha virt. eigenvalues --   -0.00252  -0.00141  -0.00140   0.03443   0.04984
 Alpha virt. eigenvalues --    0.04984   0.06716   0.08801   0.11116   0.11117
 Alpha virt. eigenvalues --    0.11609   0.13337   0.13337   0.14254   0.14255

 Mulliken charges:
               1
     1  Si   2.382657
     2  N    0.319601
     3  N    0.319621
     4  N    0.319606
     5  Cl  -0.266092
     6  O   -0.480862
     7  O   -0.544244
     8  O   -0.480895
     9  O   -0.480892
    10  O   -0.544237
    11  O   -0.544263
 Sum of Mulliken charges =  -0.00000

 Dipole moment (field-independent basis, Debye):
    X=             -0.0002    Y=             -0.0000    Z=              3.7408  Tot=              3.7408

 Test job not archived.
 1\1\GINC-SE342\SP\RHF\Aug-CC-pVDZ\Cl1N3O6Si1\OHZDE\09-Apr-2025\0\\#t h
 f aug-cc-pvdz iop(5/13=1,5/36=2,99/5=2) pseudo=read geom=check guess=(
 read,tcheck) scf=(maxcycle=1)\\title\\0,1\Si,0,0.000018,0.000005,0.251
 65\N,0,1.67426,0.335472,-0.460386\N,0,-0.546552,-1.617684,-0.460393\N,
 0,-1.127615,1.282214,-0.460409\Cl,0,-0.000007,0.000022,2.250505\O,0,-1
 .838971,0.962145,-1.397547\O,0,-1.544817,-2.095525,0.059697\O,0,1.7526
 37,1.111145,-1.397877\O,0,0.08604,-2.073406,-1.397869\O,0,2.587222,-0.
 29008,0.059755\O,0,-1.042209,2.385663,0.059669\\Version=ES64L-G16RevC.

 Normal termination of Gaussian 16 at Wed Apr  9 00:01:07 2025.
