 Gaussian 16, Revision C.01,

 ----------------------------------------------------------------------
 #t hf aug-cc-pvdz symm=none int=(grid=ultrafine) guess=(read,tcheck) s
 table=opt
 ----------------------------------------------------------------------
 -----
 title
 -----
 Symbolic Z-matrix:
 Charge =  0 Multiplicity = 2

 SCF Done:  E(UHF) =  -192.525107026     A.U. after   16 cycles
 Normal termination of Gaussian 16 at Tue Apr  8 22:40:31 2025.
 Gaussian 16:  ES64L-G16RevC.01  3-Jul-2019

 ----------------------------------------------------------------------
 #t hf aug-cc-pvdz iop(5/13=1,5/36=2,99/5=2) pseudo=read geom=check gue
 ss=(read,tcheck) scf=(maxcycle=1)
 ----------------------------------------------------------------------
 -----
 title
 -----
 Structure from the checkpoint file:  "BDE49_expt_1383_mol2.chk"
 Charge =  0 Multiplicity = 2

                         Standard orientation:
 ---------------------------------------------------------------------
 Center     Atomic      Atomic             Coordinates (Angstroms)
 Number     Number       Type             X           Y           Z
 ---------------------------------------------------------------------
      1          6           0       -0.000000    0.123971   -0.294869
      2          8           0       -0.000001    1.422078    0.145834
      3          6           0       -1.288603   -0.627064    0.078050
      4          1           0       -1.334427   -0.770428    1.161079
      5          1           0       -1.325982   -1.610108   -0.398691
      6          1           0       -2.161885   -0.049418   -0.229337
      7          6           0        1.288605   -0.627063    0.078050
      8          1           0       -0.000000    0.264218   -1.400151
      9          1           0        1.325984   -1.610106   -0.398691
     10          1           0        1.334429   -0.770426    1.161079
     11          1           0        2.161885   -0.049414   -0.229337
 ---------------------------------------------------------------------

 SCF Done:  E(UHF) =  -192.587511837     A.U. after    2 cycles

 The electronic state is 2-A.
 Alpha  occ. eigenvalues --  -20.62733 -11.29778 -11.23342 -11.23334  -1.37034
 Alpha  occ. eigenvalues --   -1.03371  -0.94329  -0.81058  -0.71633  -0.64212
 Alpha  occ. eigenvalues --   -0.63918  -0.59331  -0.55089  -0.54930  -0.53070
 Alpha  occ. eigenvalues --   -0.47481  -0.46384
 Alpha virt. eigenvalues --    0.03509   0.04757   0.04813   0.05613   0.07247
 Alpha virt. eigenvalues --    0.07407   0.07770   0.11158   0.12578   0.14675
 Alpha virt. eigenvalues --    0.14816   0.15639   0.16490   0.17205   0.17296

  Beta  occ. eigenvalues --  -20.58703 -11.30078 -11.23275 -11.23267  -1.24626
  Beta  occ. eigenvalues --   -1.01032  -0.94180  -0.78178  -0.64200  -0.62001
  Beta  occ. eigenvalues --   -0.61553  -0.55057  -0.53877  -0.52262  -0.49735
  Beta  occ. eigenvalues --   -0.44110
  Beta virt. eigenvalues --    0.03320   0.04734   0.04822   0.05628   0.06970
  Beta virt. eigenvalues --    0.07406   0.07771   0.08282   0.11594   0.13442
  Beta virt. eigenvalues --    0.14810   0.14830   0.15656   0.16602   0.17317

 Mulliken charges and spin densities:
               1          2
     1  C   -0.046649  -0.201117
     2  O   -0.501897   1.045892
     3  C    0.380583   0.028483
     4  H   -0.007191   0.004984
     5  H   -0.015774  -0.001043
     6  H   -0.055254  -0.004358
     7  C    0.380584   0.028483
     8  H   -0.056183   0.099091
     9  H   -0.015776  -0.001043
    10  H   -0.007191   0.004984
    11  H   -0.055252  -0.004358
 Sum of Mulliken charges =  -0.00000   1.00000

 Dipole moment (field-independent basis, Debye):
    X=              0.0000    Y=             -1.9316    Z=             -0.6763  Tot=              2.0466
                          Isotropic Fermi Contact Couplings
        Atom                 a.u.       MegaHertz       Gauss      10(-4) cm-1
     1  C(13)             -0.05393     -60.62337     -21.63192     -20.22178
     2  O(17)              0.28646    -173.65071     -61.96289     -57.92364
     3  C(13)              0.01333      14.98885       5.34839       4.99974
     4  H(1)              -0.00069      -3.08690      -1.10148      -1.02968
     5  H(1)              -0.00087      -3.89083      -1.38834      -1.29784
     6  H(1)              -0.00064      -2.85525      -1.01882      -0.95241
     7  C(13)              0.01333      14.98881       5.34838       4.99973
     8  H(1)               0.03637     162.57990      58.01255      54.23082

 Normal termination of Gaussian 16 at Tue Apr  8 22:40:34 2025.
