 Gaussian 16, Revision C.01,

 ----------------------------------------------------------------------
 #t hf aug-cc-pvdz symm=none int=(grid=ultrafine) guess=(read,tcheck) s
 table=(opt,rrhf)
 ----------------------------------------------------------------------
 -----
 title
 -----
 Symbolic Z-matrix:
 Charge =  0 Multiplicity = 1

 SCF Done:  E(RHF) =  -609.376882617     A.U. after   16 cycles
 Normal termination of Gaussian 16 at Wed Apr  9 00:28:43 2025.
 Gaussian 16:  ES64L-G16RevC.01  3-Jul-2019

 ----------------------------------------------------------------------
 #t hf aug-cc-pvdz iop(5/13=1,5/36=2,99/5=2) pseudo=read geom=check gue
 ss=(read,tcheck) scf=(maxcycle=1)
 ----------------------------------------------------------------------
 -----
 title
 -----
 Structure from the checkpoint file:  "BDE49_nonexpt_319_mol1.chk"
 Charge =  0 Multiplicity = 1

                         Standard orientation:
 ---------------------------------------------------------------------
 Center     Atomic      Atomic             Coordinates (Angstroms)
 Number     Number       Type             X           Y           Z
 ---------------------------------------------------------------------
      1          6           0        0.180635    2.257059   -0.199103
      2          6           0       -1.053863    1.612284   -0.151744
      3          6           0        1.356365    1.518874   -0.116167
      4          6           0        1.258434    0.137503    0.003949
      5          6           0        0.034717   -0.518537    0.038508
      6          6           0       -1.156178    0.215821   -0.035009
      7          1           0        0.033833   -1.596387    0.142155
      8          1           0        0.229610    3.334689   -0.300735
      9          1           0       -1.957324    2.209941   -0.227925
     10          5           0       -2.561063   -0.508790    0.010416
     11          8           0       -2.755900   -1.747786   -0.520865
     12          8           0       -3.654520    0.070511    0.583270
     13          1           0        2.331733    1.984042   -0.143155
     14          7           0        2.503840   -0.662074    0.093902
     15          8           0        2.390806   -1.876915    0.182048
     16          8           0        3.566419   -0.057468    0.072264
     17          1           0       -3.457276    0.888131    1.045588
     18          1           0       -1.997240   -2.086707   -1.001669
 ---------------------------------------------------------------------

 SCF Done:  E(RHF) =  -609.564709086     A.U. after    2 cycles

 The electronic state is 1-A.
 Alpha  occ. eigenvalues --  -20.62751 -20.62711 -20.59505 -20.59391 -15.92994
 Alpha  occ. eigenvalues --  -11.33138 -11.29786 -11.29783 -11.29530 -11.28523
 Alpha  occ. eigenvalues --  -11.26721  -7.67996  -1.55977  -1.37569  -1.35662
 Alpha  occ. eigenvalues --   -1.32495  -1.19864  -1.09251  -1.05633  -0.96311
 Alpha  occ. eigenvalues --   -0.87834  -0.84270  -0.82062  -0.79842  -0.74880
 Alpha  occ. eigenvalues --   -0.73638  -0.72482  -0.70951  -0.68256  -0.67715
 Alpha  occ. eigenvalues --   -0.64924  -0.62174  -0.59725  -0.58834  -0.56356
 Alpha  occ. eigenvalues --   -0.54808  -0.53446  -0.52453  -0.52288  -0.50134
 Alpha  occ. eigenvalues --   -0.48419  -0.39215  -0.38298
 Alpha virt. eigenvalues --    0.01990   0.02176   0.03586   0.04170   0.04830
 Alpha virt. eigenvalues --    0.05719   0.06207   0.06382   0.07222   0.08219
 Alpha virt. eigenvalues --    0.08584   0.09897   0.10856   0.11297   0.11679

 Mulliken charges:
               1
     1  C    0.321868
     2  C    1.031199
     3  C    0.409053
     4  C    1.117759
     5  C    0.436063
     6  C   -0.143004
     7  H   -0.615096
     8  H   -0.435294
     9  H   -0.648060
    10  B    0.642586
    11  O   -0.536675
    12  O   -0.551346
    13  H   -0.440553
    14  N    0.098612
    15  O   -0.566560
    16  O   -0.568337
    17  H    0.218517
    18  H    0.229269
 Sum of Mulliken charges =  -0.00000

 Dipole moment (field-independent basis, Debye):
    X=             -1.4716    Y=              4.3334    Z=             -0.4014  Tot=              4.5941

 Test job not archived.
 1\1\GINC-SE126\SP\RHF\Aug-CC-pVDZ\C6H6B1N1O4\OHZDE\09-Apr-2025\0\\#t h
 f aug-cc-pvdz iop(5/13=1,5/36=2,99/5=2) pseudo=read geom=check guess=(
 read,tcheck) scf=(maxcycle=1)\\title\\0,1\C,0,0.180635,2.257059,-0.199
 103\C,0,-1.053863,1.612284,-0.151744\C,0,1.356365,1.518874,-0.116167\C
 ,0,1.258434,0.137503,0.003949\C,0,0.034717,-0.518537,0.038508\C,0,-1.1
 56178,0.215821,-0.035009\H,0,0.033833,-1.596387,0.142155\H,0,0.22961,3
 .334689,-0.300735\H,0,-1.957324,2.209941,-0.227925\B,0,-2.561063,-0.50
 879,0.010416\O,0,-2.7559,-1.747786,-0.520865\O,0,-3.65452,0.070511,0.5

 Normal termination of Gaussian 16 at Wed Apr  9 00:28:55 2025.
