 Gaussian 16, Revision C.01,

 ----------------------------------------------------------------------
 #t hf aug-cc-pvdz symm=none int=(grid=ultrafine) guess=(read,tcheck) s
 table=opt
 ----------------------------------------------------------------------
 -----
 title
 -----
 Symbolic Z-matrix:
 Charge =  0 Multiplicity = 2

 SCF Done:  E(UHF) =  -666.311353071     A.U. after   19 cycles
 Normal termination of Gaussian 16 at Tue Apr  8 22:48:35 2025.
 Gaussian 16:  ES64L-G16RevC.01  3-Jul-2019

 ----------------------------------------------------------------------
 #t hf aug-cc-pvdz iop(5/13=1,5/36=2,99/5=2) pseudo=read geom=check gue
 ss=(read,tcheck) scf=(maxcycle=1)
 ----------------------------------------------------------------------
 -----
 title
 -----
 Structure from the checkpoint file:  "BDE49_expt_1722_mol2.chk"
 Charge =  0 Multiplicity = 2

                         Standard orientation:
 ---------------------------------------------------------------------
 Center     Atomic      Atomic             Coordinates (Angstroms)
 Number     Number       Type             X           Y           Z
 ---------------------------------------------------------------------
      1          6           0        0.262780   -0.767782   -0.000002
      2          6           0       -1.034386   -0.093418   -0.000001
      3         17           0        1.776629    0.047508    0.000001
      4          1           0        0.299432   -1.846241   -0.000004
      5          7           0       -1.046720    1.270795    0.000000
      6          1           0       -0.205709    1.821618    0.000012
      7          1           0       -1.941558    1.731152    0.000009
      8          8           0       -2.049772   -0.780315   -0.000002
 ---------------------------------------------------------------------

 SCF Done:  E(UHF) =  -666.395502340     A.U. after    2 cycles

 The electronic state is 2-A.
 Alpha  occ. eigenvalues -- -103.69982 -20.56394 -15.65912 -11.38367 -11.34031
 Alpha  occ. eigenvalues --  -10.73258  -8.38870  -8.38841  -8.38675  -1.37296
 Alpha  occ. eigenvalues --   -1.22795  -1.18383  -0.99294  -0.81238  -0.74945
 Alpha  occ. eigenvalues --   -0.69527  -0.63919  -0.63767  -0.61773  -0.55787
 Alpha  occ. eigenvalues --   -0.50914  -0.46952  -0.45092  -0.39579
 Alpha virt. eigenvalues --    0.03218   0.04384   0.05507   0.08913   0.10477
 Alpha virt. eigenvalues --    0.10489   0.12973   0.13436   0.14571   0.15159
 Alpha virt. eigenvalues --    0.15639   0.16867   0.17217   0.18064   0.18127

  Beta  occ. eigenvalues -- -103.69939 -20.55254 -15.65948 -11.38958 -11.31511
  Beta  occ. eigenvalues --  -10.73212  -8.39097  -8.38646  -8.38429  -1.35363
  Beta  occ. eigenvalues --   -1.21079  -1.18004  -0.93977  -0.80019  -0.74355
  Beta  occ. eigenvalues --   -0.68474  -0.62918  -0.60827  -0.58520  -0.50874
  Beta  occ. eigenvalues --   -0.50474  -0.45813  -0.40833
  Beta virt. eigenvalues --    0.03225   0.04018   0.04432   0.05577   0.09109
  Beta virt. eigenvalues --    0.10511   0.10682   0.13081   0.14034   0.14798
  Beta virt. eigenvalues --    0.15378   0.15898   0.17021   0.17270   0.18157

 Mulliken charges and spin densities:
               1          2
     1  C    0.409098   1.151694
     2  C    0.669400  -0.292543
     3  Cl  -0.248449  -0.002156
     4  H   -0.253243  -0.091683
     5  N   -0.085191  -0.010030
     6  H   -0.017345   0.000531
     7  H   -0.004553  -0.002010
     8  O   -0.469717   0.246197
 Sum of Mulliken charges =  -0.00000   1.00000

 Dipole moment (field-independent basis, Debye):
    X=              1.9484    Y=              2.2587    Z=              0.0000  Tot=              2.9830
                          Isotropic Fermi Contact Couplings
        Atom                 a.u.       MegaHertz       Gauss      10(-4) cm-1
     1  C(13)              0.23079     259.45466      92.57987      86.54476
     2  C(13)             -0.08275     -93.02926     -33.19515     -31.03122
     3  Cl(35)             0.03117      13.66701       4.87673       4.55883
     4  H(1)              -0.02501    -111.81229     -39.89741     -37.29657
     5  N(14)             -0.00741      -2.39440      -0.85438      -0.79869
     6  H(1)               0.00033       1.46098       0.52131       0.48733
     7  H(1)              -0.00052      -2.31433      -0.82581      -0.77198
     8  O(17)              0.09797     -59.38817     -21.19118     -19.80976

 1\1\GINC-SE403\SP\UHF\Aug-CC-pVDZ\C2H3Cl1N1O1(2)\OHZDE\08-Apr-2025\0\\
 #t hf aug-cc-pvdz iop(5/13=1,5/36=2,99/5=2) pseudo=read geom=check gue
 ss=(read,tcheck) scf=(maxcycle=1)\\title\\0,2\C,0,0.26278,-0.767782,-0
 .000002\C,0,-1.034386,-0.093418,-0.000001\Cl,0,1.776629,0.047508,0.000
 001\H,0,0.299432,-1.846241,-0.000004\N,0,-1.04672,1.270795,0.\H,0,-0.2
 05709,1.821618,0.000012\H,0,-1.941558,1.731152,0.000009\O,0,-2.049772,
 -0.780315,-0.000002\\Version=ES64L-G16RevC.01\State=2-A\HF=-666.395502
 3\S2=0.796062\S2-1=0.\S2A=0.75123\RMSD=4.166e-03\Dipole=0.7665698,0.88

 Normal termination of Gaussian 16 at Tue Apr  8 22:48:38 2025.
