 Gaussian 16, Revision C.01,

 ----------------------------------------------------------------------
 #t hf aug-cc-pvdz symm=none int=(grid=ultrafine) guess=(read,tcheck) s
 table=(opt,rrhf)
 ----------------------------------------------------------------------
 -----
 title
 -----
 Symbolic Z-matrix:
 Charge =  0 Multiplicity = 1

 SCF Done:  E(RHF) =  -349.949792799     A.U. after   14 cycles
 Normal termination of Gaussian 16 at Wed Apr  9 00:38:19 2025.
 Gaussian 16:  ES64L-G16RevC.01  3-Jul-2019

 ----------------------------------------------------------------------
 #t hf aug-cc-pvdz iop(5/13=1,5/36=2,99/5=2) pseudo=read geom=check gue
 ss=(read,tcheck) scf=(maxcycle=1)
 ----------------------------------------------------------------------
 -----
 title
 -----
 Structure from the checkpoint file:  "BDE49_nonexpt_640_mol1.chk"
 Charge =  0 Multiplicity = 1

                         Standard orientation:
 ---------------------------------------------------------------------
 Center     Atomic      Atomic             Coordinates (Angstroms)
 Number     Number       Type             X           Y           Z
 ---------------------------------------------------------------------
      1          9           0        1.794120   -0.069862   -0.000026
      2          8           0        0.597345   -0.868938   -0.000002
      3          5           0       -0.499788    0.018967    0.000022
      4          8           0       -1.684371   -0.633853    0.000007
      5          1           0       -2.432315   -0.029425    0.000003
      6          8           0       -0.381879    1.365887    0.000009
      7          1           0        0.535413    1.658579    0.000003
 ---------------------------------------------------------------------

 SCF Done:  E(RHF) =  -350.074516927     A.U. after    2 cycles

 The electronic state is 1-A.
 Alpha  occ. eigenvalues --  -26.18560 -20.70482 -20.61183 -20.60789  -7.72722
 Alpha  occ. eigenvalues --   -1.68976  -1.38233  -1.34465  -1.30700  -0.84062
 Alpha  occ. eigenvalues --   -0.80840  -0.78998  -0.78957  -0.72079  -0.66294
 Alpha  occ. eigenvalues --   -0.64140  -0.61559  -0.60654  -0.56960  -0.55296
 Alpha virt. eigenvalues --    0.03447   0.04825   0.05703   0.06302   0.07886
 Alpha virt. eigenvalues --    0.08832   0.11004   0.17677   0.19226   0.19369
 Alpha virt. eigenvalues --    0.20350   0.21454   0.22066   0.23028   0.23652

 Mulliken charges:
               1
     1  F   -0.367815
     2  O   -0.054355
     3  B    0.792830
     4  O   -0.405750
     5  H    0.170807
     6  O   -0.361745
     7  H    0.226030
 Sum of Mulliken charges =  -0.00000

 Dipole moment (field-independent basis, Debye):
    X=             -1.2519    Y=              1.7617    Z=              0.0001  Tot=              2.1612

 Test job not archived.
 1\1\GINC-SE174\SP\RHF\Aug-CC-pVDZ\B1F1H2O3\OHZDE\09-Apr-2025\0\\#t hf
 aug-cc-pvdz iop(5/13=1,5/36=2,99/5=2) pseudo=read geom=check guess=(re
 ad,tcheck) scf=(maxcycle=1)\\title\\0,1\F,0,1.79412,-0.069862,-0.00002
 6\O,0,0.597345,-0.868938,-0.000002\B,0,-0.499788,0.018967,0.000022\O,0
 ,-1.684371,-0.633853,0.000007\H,0,-2.432315,-0.029426,0.000003\O,0,-0.
 381879,1.365887,0.000009\H,0,0.535413,1.658579,0.000003\\Version=ES64L
 -G16RevC.01\State=1-A\HF=-350.0745169\RMSD=3.900e-03\Dipole=-0.4925275
 ,0.6931252,0.0000323\Quadrupole=1.5297714,-1.6763215,0.1465502,0.68796

 Normal termination of Gaussian 16 at Wed Apr  9 00:38:21 2025.
