 Gaussian 16, Revision C.01,

 ----------------------------------------------------------------------
 #t hf aug-cc-pvdz symm=none int=(grid=ultrafine) guess=(read,tcheck) s
 table=opt
 ----------------------------------------------------------------------
 -----
 title
 -----
 Symbolic Z-matrix:
 Charge =  0 Multiplicity = 2

 SCF Done:  E(UHF) =  -746.765768691     A.U. after   19 cycles
 Normal termination of Gaussian 16 at Wed Apr  9 00:30:03 2025.
 Gaussian 16:  ES64L-G16RevC.01  3-Jul-2019

 ----------------------------------------------------------------------
 #t hf aug-cc-pvdz iop(5/13=1,5/36=2,99/5=2) pseudo=read geom=check gue
 ss=(read,tcheck) scf=(maxcycle=1)
 ----------------------------------------------------------------------
 -----
 title
 -----
 Structure from the checkpoint file:  "BDE49_nonexpt_376_mol2.chk"
 Charge =  0 Multiplicity = 2

                         Standard orientation:
 ---------------------------------------------------------------------
 Center     Atomic      Atomic             Coordinates (Angstroms)
 Number     Number       Type             X           Y           Z
 ---------------------------------------------------------------------
      1          9           0       -2.392035   -0.049454   -0.091784
      2          5           0       -1.296904   -0.561289   -0.548348
      3         16           0        0.385420    0.080920    0.108913
      4          8           0        0.435689    1.515388    0.106338
      5          8           0        0.663747   -0.719255    1.281291
      6          8           0        1.411735   -0.393170   -1.057089
      7          1           0        1.756742   -1.266902   -0.819128
 ---------------------------------------------------------------------

 SCF Done:  E(UHF) =  -746.968988779     A.U. after    2 cycles

 The electronic state is 2-A.
 Alpha  occ. eigenvalues --  -93.84067 -26.21026 -20.66193 -20.59923 -20.59618
 Alpha  occ. eigenvalues --   -9.10360  -7.79907  -6.44948  -6.44866  -6.44746
 Alpha  occ. eigenvalues --   -1.75683  -1.49146  -1.37444  -1.35099  -0.95664
 Alpha  occ. eigenvalues --   -0.91165  -0.84519  -0.80839  -0.79470  -0.75304
 Alpha  occ. eigenvalues --   -0.72258  -0.67027  -0.60958  -0.56628  -0.56452
 Alpha  occ. eigenvalues --   -0.54797  -0.53173  -0.42391
 Alpha virt. eigenvalues --    0.01429   0.03087   0.04478   0.05642   0.06582
 Alpha virt. eigenvalues --    0.08126   0.11443   0.12521   0.13380   0.16288
 Alpha virt. eigenvalues --    0.17040   0.18639   0.19863   0.21252   0.21948

  Beta  occ. eigenvalues --  -93.83934 -26.20750 -20.66220 -20.59838 -20.59372
  Beta  occ. eigenvalues --   -9.10173  -7.77794  -6.44895  -6.44792  -6.44297
  Beta  occ. eigenvalues --   -1.74881  -1.48798  -1.37291  -1.34615  -0.94189
  Beta  occ. eigenvalues --   -0.90346  -0.82301  -0.81050  -0.78058  -0.74624
  Beta  occ. eigenvalues --   -0.71889  -0.66424  -0.60959  -0.56434  -0.55239
  Beta  occ. eigenvalues --   -0.53029  -0.50614
  Beta virt. eigenvalues --    0.00406   0.03540   0.03893   0.05325   0.05944
  Beta virt. eigenvalues --    0.07860   0.09080   0.11904   0.12808   0.14163
  Beta virt. eigenvalues --    0.16795   0.17206   0.18967   0.20808   0.22230

 Mulliken charges and spin densities:
               1          2
     1  F   -0.182441  -0.051088
     2  B    0.391546   0.968733
     3  S    2.198243   0.026832
     4  O   -0.929787   0.043085
     5  O   -0.954569   0.018559
     6  O   -0.710201  -0.005954
     7  H    0.187210  -0.000168
 Sum of Mulliken charges =  -0.00000   1.00000

 Dipole moment (field-independent basis, Debye):
    X=             -0.8707    Y=             -3.2490    Z=             -2.4098  Tot=              4.1378
                          Isotropic Fermi Contact Couplings
        Atom                 a.u.       MegaHertz       Gauss      10(-4) cm-1
     1  F(19)              0.05668     238.48700      85.09809      79.55070
     2  B(11)              0.44117     632.79658     225.79755     211.07822
     3  S(33)              0.25166      86.43885      30.84353      28.83290
     4  O(17)              0.02144     -12.99427      -4.63668      -4.33442
     5  O(17)              0.00525      -3.18432      -1.13624      -1.06217
     6  O(17)             -0.00680       4.12223       1.47092       1.37503
     7  H(1)               0.00015       0.64864       0.23145       0.21636
 --------------------------------------------------------

 Normal termination of Gaussian 16 at Wed Apr  9 00:30:06 2025.
