 Gaussian 16, Revision C.01,

 ----------------------------------------------------------------------
 #t hf aug-cc-pvdz symm=none int=(grid=ultrafine) guess=(read,tcheck) s
 table=(opt,rrhf)
 ----------------------------------------------------------------------
 -----
 title
 -----
 Symbolic Z-matrix:
 Charge =  0 Multiplicity = 1

 SCF Done:  E(RHF) =  -465.463222118     A.U. after   14 cycles
 Normal termination of Gaussian 16 at Tue Apr  8 22:37:24 2025.
 Gaussian 16:  ES64L-G16RevC.01  3-Jul-2019

 ----------------------------------------------------------------------
 #t hf aug-cc-pvdz iop(5/13=1,5/36=2,99/5=2) pseudo=read geom=check gue
 ss=(read,tcheck) scf=(maxcycle=1)
 ----------------------------------------------------------------------
 -----
 title
 -----
 Structure from the checkpoint file:  "BDE49_expt_1228_mol1.chk"
 Charge =  0 Multiplicity = 1

                         Standard orientation:
 ---------------------------------------------------------------------
 Center     Atomic      Atomic             Coordinates (Angstroms)
 Number     Number       Type             X           Y           Z
 ---------------------------------------------------------------------
      1          6           0        0.352821    0.001640    0.000003
      2          7           0       -1.008310   -0.713689    0.000015
      3          9           0        1.000814   -0.406082   -1.089318
      4          9           0        1.000797   -0.406011    1.089360
      5          9           0        0.254838    1.322208   -0.000041
      6          8           0       -1.920851    0.049368   -0.000016
 ---------------------------------------------------------------------

 SCF Done:  E(RHF) =  -465.627061470     A.U. after    2 cycles

 The electronic state is 1-A.
 Alpha  occ. eigenvalues --  -26.20529 -26.20523 -26.20501 -20.71407 -15.82896
 Alpha  occ. eigenvalues --  -11.58237  -1.80600  -1.73407  -1.73347  -1.54277
 Alpha  occ. eigenvalues --   -1.11547  -0.99319  -0.92468  -0.92441  -0.87150
 Alpha  occ. eigenvalues --   -0.81054  -0.80953  -0.77143  -0.76905  -0.75493
 Alpha  occ. eigenvalues --   -0.73767  -0.70987  -0.65336  -0.47190
 Alpha virt. eigenvalues --    0.03633   0.07935   0.08345   0.08743   0.08770
 Alpha virt. eigenvalues --    0.14074   0.16093   0.17930   0.21190   0.22015
 Alpha virt. eigenvalues --    0.24157   0.27649   0.28336   0.28764   0.30685

 Mulliken charges:
               1
     1  C    1.191314
     2  N   -0.173400
     3  F   -0.244134
     4  F   -0.244133
     5  F   -0.234018
     6  O   -0.295630
 Sum of Mulliken charges =  -0.00000

 Dipole moment (field-independent basis, Debye):
    X=              0.2063    Y=             -0.2755    Z=              0.0000  Tot=              0.3442

 Test job not archived.
 1\1\GINC-SE252\SP\RHF\Aug-CC-pVDZ\C1F3N1O1\OHZDE\08-Apr-2025\0\\#t hf
 aug-cc-pvdz iop(5/13=1,5/36=2,99/5=2) pseudo=read geom=check guess=(re
 ad,tcheck) scf=(maxcycle=1)\\title\\0,1\C,0,0.352821,0.00164,0.000003\
 N,0,-1.00831,-0.713689,0.000015\F,0,1.000814,-0.406082,-1.089318\F,0,1
 .000797,-0.406011,1.08936\F,0,0.254838,1.322208,-0.000041\O,0,-1.92085
 1,0.049368,-0.000016\\Version=ES64L-G16RevC.01\State=1-A\HF=-465.62706
 15\RMSD=6.157e-03\Dipole=0.0811507,-0.1084095,0.0000054\Quadrupole=-0.
 9434699,-0.1465643,1.0900342,0.2900826,-0.0000227,0.0000401\PG=C01 [X(

 Normal termination of Gaussian 16 at Tue Apr  8 22:37:25 2025.
