 Gaussian 16, Revision C.01,

 ----------------------------------------------------------------------
 #t hf aug-cc-pvdz symm=none int=(grid=ultrafine) guess=(read,tcheck) s
 table=(opt,rrhf)
 ----------------------------------------------------------------------
 -----
 title
 -----
 Symbolic Z-matrix:
 Charge =  0 Multiplicity = 1

 SCF Done:  E(RHF) =  -308.271439871     A.U. after   13 cycles
 Normal termination of Gaussian 16 at Wed Apr  9 00:36:55 2025.
 Gaussian 16:  ES64L-G16RevC.01  3-Jul-2019

 ----------------------------------------------------------------------
 #t hf aug-cc-pvdz iop(5/13=1,5/36=2,99/5=2) pseudo=read geom=check gue
 ss=(read,tcheck) scf=(maxcycle=1)
 ----------------------------------------------------------------------
 -----
 title
 -----
 Structure from the checkpoint file:  "BDE49_nonexpt_601_mol1.chk"
 Charge =  0 Multiplicity = 1

                         Standard orientation:
 ---------------------------------------------------------------------
 Center     Atomic      Atomic             Coordinates (Angstroms)
 Number     Number       Type             X           Y           Z
 ---------------------------------------------------------------------
      1          6           0       -1.488724    0.287698   -0.000000
      2          5           0        1.029417   -0.030853   -0.000001
      3          8           0        1.419397    1.286705   -0.000002
      4          8           0        1.996744   -1.001479    0.000002
      5          6           0       -2.744816   -0.167151    0.000002
      6          1           0       -3.576835    0.522640    0.000002
      7          1           0       -2.971802   -1.227812    0.000002
      8          1           0        2.878923   -0.620013    0.000001
      9          1           0        0.704118    1.925746   -0.000004
     10          7           0       -0.330874   -0.476551   -0.000000
     11          1           0       -1.317671    1.361461   -0.000000
     12          1           0       -0.475590   -1.476990    0.000001
 ---------------------------------------------------------------------

 SCF Done:  E(RHF) =  -308.375888409     A.U. after    2 cycles

 The electronic state is 1-A.
 Alpha  occ. eigenvalues --  -20.58809 -20.57663 -15.62923 -11.29455 -11.22388
 Alpha  occ. eigenvalues --   -7.67601  -1.34837  -1.30986  -1.18671  -1.00046
 Alpha  occ. eigenvalues --   -0.81808  -0.78439  -0.75599  -0.70267  -0.64698
 Alpha  occ. eigenvalues --   -0.60613  -0.60363  -0.58359  -0.56059  -0.53129
 Alpha  occ. eigenvalues --   -0.52785  -0.49994  -0.32637
 Alpha virt. eigenvalues --    0.03235   0.04107   0.04414   0.05650   0.06190
 Alpha virt. eigenvalues --    0.07229   0.08673   0.08820   0.09789   0.11153
 Alpha virt. eigenvalues --    0.11273   0.13619   0.13854   0.15947   0.17446

 Mulliken charges:
               1
     1  C    0.732121
     2  B    0.693578
     3  O   -0.477257
     4  O   -0.488369
     5  C    0.595141
     6  H   -0.292318
     7  H   -0.367046
     8  H    0.205616
     9  H    0.214385
    10  N   -0.202328
    11  H   -0.508605
    12  H   -0.104918
 Sum of Mulliken charges =  -0.00000

 Dipole moment (field-independent basis, Debye):
    X=             -0.3078    Y=              0.9643    Z=             -0.0000  Tot=              1.0122

 Test job not archived.
 1\1\GINC-SE459\SP\RHF\Aug-CC-pVDZ\C2H6B1N1O2\OHZDE\09-Apr-2025\0\\#t h
 f aug-cc-pvdz iop(5/13=1,5/36=2,99/5=2) pseudo=read geom=check guess=(
 read,tcheck) scf=(maxcycle=1)\\title\\0,1\C,0,1.488724,0.287698,0.\B,0
 ,-1.029417,-0.030853,0.000001\O,0,-1.419397,1.286705,0.000002\O,0,-1.9
 96744,-1.001479,-0.000002\C,0,2.744816,-0.167151,-0.000002\H,0,3.57683
 5,0.522641,-0.000002\H,0,2.971802,-1.227812,-0.000002\H,0,-2.878923,-0
 .620013,-0.000001\H,0,-0.704118,1.925746,0.000004\N,0,0.330874,-0.4765
 51,0.\H,0,1.317671,1.361461,0.\H,0,0.47559,-1.47699,-0.000001\\Version

 Normal termination of Gaussian 16 at Wed Apr  9 00:36:58 2025.
