 Gaussian 16, Revision C.01,

 ----------------------------------------------------------------------
 #t hf aug-cc-pvdz symm=none int=(grid=ultrafine) guess=(read,tcheck) s
 table=(opt,rrhf)
 ----------------------------------------------------------------------
 -----
 title
 -----
 Symbolic Z-matrix:
 Charge =  0 Multiplicity = 1

 SCF Done:  E(RHF) =  -655.281230912     A.U. after   12 cycles
 Normal termination of Gaussian 16 at Tue Apr  8 22:29:48 2025.
 Gaussian 16:  ES64L-G16RevC.01  3-Jul-2019

 ----------------------------------------------------------------------
 #t hf aug-cc-pvdz iop(5/13=1,5/36=2,99/5=2) pseudo=read geom=check gue
 ss=(read,tcheck) scf=(maxcycle=1)
 ----------------------------------------------------------------------
 -----
 title
 -----
 Structure from the checkpoint file:  "BDE49_expt_1037_mol1.chk"
 Charge =  0 Multiplicity = 1

                         Standard orientation:
 ---------------------------------------------------------------------
 Center     Atomic      Atomic             Coordinates (Angstroms)
 Number     Number       Type             X           Y           Z
 ---------------------------------------------------------------------
      1          6           0       -1.594094    0.839571    0.374350
      2          6           0       -0.213153    1.028750   -0.233828
      3         17           0       -2.369335   -0.735697   -0.126099
      4          1           0       -2.286778    1.614469    0.051136
      5          1           0       -1.561994    0.816290    1.463418
      6          6           0        0.850915    0.047520    0.266936
      7          1           0        0.095196    2.055468    0.006652
      8          1           0       -0.291914    0.976023   -1.324697
      9          6           0        2.232534    0.295231   -0.349278
     10          1           0        0.532282   -0.976356    0.045876
     11          1           0        0.922664    0.119523    1.360046
     12          6           0        3.298013   -0.683298    0.152527
     13          1           0        2.549115    1.322821   -0.132271
     14          1           0        2.157115    0.224096   -1.440928
     15          1           0        3.421836   -0.611423    1.237555
     16          1           0        4.270007   -0.483649   -0.306320
     17          1           0        3.025880   -1.717067   -0.081031
 ---------------------------------------------------------------------

 SCF Done:  E(RHF) =  -655.362166320     A.U. after    2 cycles

 The electronic state is 1-A.
 Alpha  occ. eigenvalues -- -103.64188 -11.30436 -11.24706 -11.23314 -11.23246
 Alpha  occ. eigenvalues --  -11.22532 -10.67463  -8.33177  -8.32904  -8.32894
 Alpha  occ. eigenvalues --   -1.15508  -1.07230  -1.00820  -0.91878  -0.82732
 Alpha  occ. eigenvalues --   -0.79538  -0.66012  -0.63780  -0.60750  -0.58428
 Alpha  occ. eigenvalues --   -0.57505  -0.54109  -0.51994  -0.49424  -0.47966
 Alpha  occ. eigenvalues --   -0.47587  -0.47126  -0.43953  -0.43673
 Alpha virt. eigenvalues --    0.03367   0.03985   0.04468   0.05127   0.06167
 Alpha virt. eigenvalues --    0.06357   0.06796   0.07686   0.08978   0.09294
 Alpha virt. eigenvalues --    0.09823   0.10991   0.11222   0.13746   0.14283

 Mulliken charges:
               1
     1  C    0.318654
     2  C    0.156179
     3  Cl  -0.166799
     4  H    0.015200
     5  H   -0.008266
     6  C    0.066886
     7  H   -0.089919
     8  H   -0.148530
     9  C    0.202157
    10  H   -0.161156
    11  H   -0.164076
    12  C    0.486494
    13  H   -0.158557
    14  H   -0.139753
    15  H   -0.075283
    16  H   -0.056122
    17  H   -0.077110
 Sum of Mulliken charges =  -0.00000

 Dipole moment (field-independent basis, Debye):
    X=              1.4205    Y=              2.0234    Z=              0.5121  Tot=              2.5247

 Test job not archived.
 1\1\GINC-SE072\SP\RHF\Aug-CC-pVDZ\C5H11Cl1\OHZDE\08-Apr-2025\0\\#t hf
 aug-cc-pvdz iop(5/13=1,5/36=2,99/5=2) pseudo=read geom=check guess=(re
 ad,tcheck) scf=(maxcycle=1)\\title\\0,1\C,0,-1.594094,0.839571,0.37435
 \C,0,-0.213153,1.02875,-0.233828\Cl,0,-2.369335,-0.735697,-0.126099\H,
 0,-2.286778,1.614469,0.051136\H,0,-1.561994,0.81629,1.463418\C,0,0.850
 915,0.04752,0.266936\H,0,0.095196,2.055468,0.006652\H,0,-0.291914,0.97
 6023,-1.324697\C,0,2.232534,0.295231,-0.349278\H,0,0.532282,-0.976356,
 0.045876\H,0,0.922664,0.119523,1.360046\C,0,3.298013,-0.683298,0.15252

 Normal termination of Gaussian 16 at Tue Apr  8 22:29:54 2025.
