 Gaussian 16, Revision C.01,

 ----------------------------------------------------------------------
 #t hf aug-cc-pvdz symm=none int=(grid=ultrafine) guess=(read,tcheck) s
 table=opt
 ----------------------------------------------------------------------
 -----
 title
 -----
 Symbolic Z-matrix:
 Charge =  0 Multiplicity = 2

 SCF Done:  E(UHF) =  -192.402803717     A.U. after   19 cycles
 Normal termination of Gaussian 16 at Wed Apr  9 00:34:47 2025.
 Gaussian 16:  ES64L-G16RevC.01  3-Jul-2019

 ----------------------------------------------------------------------
 #t hf aug-cc-pvdz iop(5/13=1,5/36=2,99/5=2) pseudo=read geom=check gue
 ss=(read,tcheck) scf=(maxcycle=1)
 ----------------------------------------------------------------------
 -----
 title
 -----
 Structure from the checkpoint file:  "BDE49_nonexpt_509_mol2.chk"
 Charge =  0 Multiplicity = 2

                         Standard orientation:
 ---------------------------------------------------------------------
 Center     Atomic      Atomic             Coordinates (Angstroms)
 Number     Number       Type             X           Y           Z
 ---------------------------------------------------------------------
      1          5           0       -1.745971    0.289922    0.000002
      2          6           0        0.596119   -0.084276   -0.000002
      3          7           0        1.706047    0.232207    0.000000
      4          8           0       -0.636119   -0.506202   -0.000001
      5          1           0       -1.700235    1.480221    0.000004
 ---------------------------------------------------------------------

 SCF Done:  E(UHF) =  -192.467779554     A.U. after    2 cycles

 The electronic state is 2-A.
 Alpha  occ. eigenvalues --  -20.70250 -15.65762 -11.37632  -7.73304  -1.47175
 Alpha  occ. eigenvalues --   -1.20984  -0.93838  -0.76610  -0.70879  -0.63705
 Alpha  occ. eigenvalues --   -0.57023  -0.48057  -0.47251  -0.40250
 Alpha virt. eigenvalues --    0.02492   0.04040   0.04655   0.05444   0.09036
 Alpha virt. eigenvalues --    0.09955   0.10443   0.11217   0.11321   0.14124
 Alpha virt. eigenvalues --    0.18316   0.18722   0.21216   0.21934   0.22234

  Beta  occ. eigenvalues --  -20.70170 -15.65931 -11.37336  -7.71181  -1.46838
  Beta  occ. eigenvalues --   -1.21103  -0.92133  -0.75148  -0.70973  -0.59930
  Beta  occ. eigenvalues --   -0.57230  -0.48082  -0.47534
  Beta virt. eigenvalues --    0.02673   0.03557   0.04702   0.05398   0.07177
  Beta virt. eigenvalues --    0.10426   0.10853   0.11207   0.11506   0.12848
  Beta virt. eigenvalues --    0.15509   0.18568   0.18831   0.21705   0.22480

 Mulliken charges and spin densities:
               1          2
     1  B    0.020475   1.045448
     2  C    0.020810   0.108354
     3  N   -0.034801  -0.060653
     4  O   -0.233176  -0.130813
     5  H    0.226692   0.037664
 Sum of Mulliken charges =  -0.00000   1.00000

 Dipole moment (field-independent basis, Debye):
    X=             -3.0337    Y=              0.2536    Z=             -0.0000  Tot=              3.0443
                          Isotropic Fermi Contact Couplings
        Atom                 a.u.       MegaHertz       Gauss      10(-4) cm-1
     1  B(11)              0.37855     542.97510     193.74702     181.11700
     2  C(13)              0.05816      65.38842      23.33221      21.81123
     3  N(14)             -0.01213      -3.91996      -1.39874      -1.30756
     4  O(17)              0.12410     -75.23187     -26.84460     -25.09465
     5  H(1)               0.02555     114.18814      40.74517      38.08906
 --------------------------------------------------------
       Center         ----  Spin Dipole Couplings  ----
                      3XX-RR        3YY-RR        3ZZ-RR

 Normal termination of Gaussian 16 at Wed Apr  9 00:34:50 2025.
