 Gaussian 16, Revision C.01,

 ----------------------------------------------------------------------
 #t hf aug-cc-pvdz symm=none int=(grid=ultrafine) guess=(read,tcheck) s
 table=(opt,rrhf)
 ----------------------------------------------------------------------
 -----
 title
 -----
 Symbolic Z-matrix:
 Charge =  0 Multiplicity = 1

 SCF Done:  E(RHF) =  -573.587307542     A.U. after   11 cycles
 Normal termination of Gaussian 16 at Tue Apr  8 22:36:26 2025.
 Gaussian 16:  ES64L-G16RevC.01  3-Jul-2019

 ----------------------------------------------------------------------
 #t hf aug-cc-pvdz iop(5/13=1,5/36=2,99/5=2) pseudo=read geom=check gue
 ss=(read,tcheck) scf=(maxcycle=1)
 ----------------------------------------------------------------------
 -----
 title
 -----
 Structure from the checkpoint file:  "BDE49_expt_119_mol1.chk"
 Charge =  0 Multiplicity = 1

                         Standard orientation:
 ---------------------------------------------------------------------
 Center     Atomic      Atomic             Coordinates (Angstroms)
 Number     Number       Type             X           Y           Z
 ---------------------------------------------------------------------
      1          6           0       -0.603755    0.751692   -0.000000
      2          9           0       -0.234569    1.446937    1.102033
      3          6           0        0.120702   -0.602927    0.000000
      4          9           0       -0.234569    1.446937   -1.102033
      5          1           0       -1.686986    0.612043   -0.000000
      6          9           0       -0.234569   -1.303746    1.088715
      7          9           0        1.447754   -0.453564    0.000000
      8          9           0       -0.234569   -1.303746   -1.088715
 ---------------------------------------------------------------------

 SCF Done:  E(RHF) =  -573.795286244     A.U. after    2 cycles

 The electronic state is 1-A'.
 Alpha  occ. eigenvalues --  -26.19312 -26.19302 -26.19086 -26.17656 -26.17648
 Alpha  occ. eigenvalues --  -11.55684 -11.47422  -1.79020  -1.74114  -1.71924
 Alpha  occ. eigenvalues --   -1.71807  -1.69625  -1.11847  -1.00864  -0.91415
 Alpha  occ. eigenvalues --   -0.91181  -0.90946  -0.85648  -0.84988  -0.79619
 Alpha  occ. eigenvalues --   -0.79434  -0.79263  -0.76943  -0.75379  -0.75319
 Alpha  occ. eigenvalues --   -0.74268  -0.73219  -0.68862  -0.59790
 Alpha virt. eigenvalues --    0.03461   0.07512   0.08535   0.08637   0.11475
 Alpha virt. eigenvalues --    0.11602   0.11722   0.15478   0.19874   0.20709
 Alpha virt. eigenvalues --    0.21797   0.23481   0.24499   0.27957   0.28144

 Mulliken charges:
               1
     1  C    0.809894
     2  F   -0.330946
     3  C    0.853003
     4  F   -0.330946
     5  H   -0.129229
     6  F   -0.295943
     7  F   -0.279889
     8  F   -0.295943
 Sum of Mulliken charges =  -0.00000

 Dipole moment (field-independent basis, Debye):
    X=             -2.0108    Y=             -0.1007    Z=             -0.0000  Tot=              2.0133

 Test job not archived.
 1\1\GINC-SE367\SP\RHF\Aug-CC-pVDZ\C2H1F5\OHZDE\08-Apr-2025\0\\#t hf au
 g-cc-pvdz iop(5/13=1,5/36=2,99/5=2) pseudo=read geom=check guess=(read
 ,tcheck) scf=(maxcycle=1)\\title\\0,1\C,0,-0.603755,0.751692,0.\F,0,-0
 .234569,1.446937,1.102033\C,0,0.120702,-0.602927,0.\F,0,-0.234569,1.44
 6937,-1.102033\H,0,-1.686986,0.612043,0.\F,0,-0.234569,-1.303746,1.088
 715\F,0,1.447754,-0.453564,0.\F,0,-0.234569,-1.303746,-1.088715\\Versi
 on=ES64L-G16RevC.01\State=1-A'\HF=-573.7952862\RMSD=6.785e-03\Dipole=-
 0.7911173,-0.039638,0.\Quadrupole=2.9468776,-1.5489507,-1.3979269,-0.8

 Normal termination of Gaussian 16 at Tue Apr  8 22:36:29 2025.
