 Gaussian 16, Revision C.01,

 ----------------------------------------------------------------------
 #t hf aug-cc-pvdz symm=none int=(grid=ultrafine) guess=(read,tcheck) s
 table=(opt,rrhf)
 ----------------------------------------------------------------------
 -----
 title
 -----
 Symbolic Z-matrix:
 Charge =  0 Multiplicity = 1

 SCF Done:  E(RHF) =  -974.408087288     A.U. after   13 cycles
 Normal termination of Gaussian 16 at Tue Apr  8 23:40:05 2025.
 Gaussian 16:  ES64L-G16RevC.01  3-Jul-2019

 ----------------------------------------------------------------------
 #t hf aug-cc-pvdz iop(5/13=1,5/36=2,99/5=2) pseudo=read geom=check gue
 ss=(read,tcheck) scf=(maxcycle=1)
 ----------------------------------------------------------------------
 -----
 title
 -----
 Structure from the checkpoint file:  "BDE49_nonexpt_1639_mol1.chk"
 Charge =  0 Multiplicity = 1

                         Standard orientation:
 ---------------------------------------------------------------------
 Center     Atomic      Atomic             Coordinates (Angstroms)
 Number     Number       Type             X           Y           Z
 ---------------------------------------------------------------------
      1         14           0        0.841273    0.713131   -0.442401
      2         15           0       -1.106317   -0.386399    0.000188
      3          8           0       -1.136698   -1.843947   -0.241435
      4          8           0       -2.287793    0.388428   -0.814728
      5          6           0        2.246559   -0.210457    0.404299
      6          6           0        2.465873   -1.649963   -0.097237
      7          1           0        2.049653   -0.208122    1.482613
      8          1           0        3.157587    0.385360    0.265102
      9          1           0        2.732183   -1.661773   -1.157929
     10          1           0        1.563350   -2.253525    0.020053
     11          6           0        0.695240    2.505441    0.092691
     12          1           0        1.599981    3.058474   -0.177062
     13          1           0        0.556690    2.578908    1.173964
     14          1           0       -0.156234    2.989078   -0.391786
     15          1           0        3.276027   -2.137969    0.451751
     16          1           0       -2.609811   -0.162580   -1.539192
     17          8           0       -1.400521    0.092027    1.515026
     18          1           0       -2.163315   -0.350266    1.912421
     19          1           0        0.964894    0.612369   -1.918572
 ---------------------------------------------------------------------

 SCF Done:  E(RHF) =  -974.603439163     A.U. after    2 cycles

 The electronic state is 1-A.
 Alpha  occ. eigenvalues --  -81.39548 -69.07513 -20.60990 -20.60531 -20.51761
 Alpha  occ. eigenvalues --  -11.23095 -11.22938 -11.22749  -7.88083  -6.82821
 Alpha  occ. eigenvalues --   -5.02686  -5.02573  -5.02158  -3.93601  -3.93555
 Alpha  occ. eigenvalues --   -3.93530  -1.36686  -1.33466  -1.24695  -1.01708
 Alpha  occ. eigenvalues --   -0.95207  -0.84955  -0.83772  -0.74929  -0.69263
 Alpha  occ. eigenvalues --   -0.67181  -0.63899  -0.61910  -0.60348  -0.57844
 Alpha  occ. eigenvalues --   -0.57258  -0.56829  -0.56665  -0.55946  -0.51902
 Alpha  occ. eigenvalues --   -0.50666  -0.49940  -0.47868  -0.46656  -0.43539
 Alpha  occ. eigenvalues --   -0.41124
 Alpha virt. eigenvalues --    0.03001   0.04097   0.04437   0.04687   0.05852
 Alpha virt. eigenvalues --    0.06333   0.06824   0.06898   0.07452   0.08940
 Alpha virt. eigenvalues --    0.09297   0.09726   0.10274   0.11617   0.12343

 Mulliken charges:
               1
     1  Si   0.722568
     2  P    2.059181
     3  O   -1.033138
     4  O   -0.760568
     5  C    0.117832
     6  C    0.294087
     7  H   -0.118510
     8  H   -0.244305
     9  H   -0.118025
    10  H   -0.109055
    11  C    0.340827
    12  H   -0.265520
    13  H   -0.107611
    14  H   -0.281415
    15  H   -0.075648
    16  H    0.134913
    17  O   -0.722971
    18  H    0.134206
    19  H    0.033152
 Sum of Mulliken charges =  -0.00000

 Dipole moment (field-independent basis, Debye):
    X=              0.6561    Y=              2.4552    Z=              0.2426  Tot=              2.5529

 Test job not archived.
 1\1\GINC-SE331\SP\RHF\Aug-CC-pVDZ\C3H11O3P1Si1\OHZDE\08-Apr-2025\0\\#t
  hf aug-cc-pvdz iop(5/13=1,5/36=2,99/5=2) pseudo=read geom=check guess
 =(read,tcheck) scf=(maxcycle=1)\\title\\0,1\Si,0,0.841273,0.713131,-0.
 442401\P,0,-1.106317,-0.386399,0.000188\O,0,-1.136698,-1.843947,-0.241
 435\O,0,-2.287793,0.388428,-0.814728\C,0,2.246559,-0.210457,0.404299\C
 ,0,2.465873,-1.649963,-0.097237\H,0,2.049653,-0.208122,1.482613\H,0,3.
 157587,0.38536,0.265102\H,0,2.732183,-1.661773,-1.157929\H,0,1.56335,-
 2.253525,0.020053\C,0,0.69524,2.505441,0.092691\H,0,1.599981,3.058474,

 Normal termination of Gaussian 16 at Tue Apr  8 23:40:14 2025.
