 Gaussian 16, Revision C.01,

 ----------------------------------------------------------------------
 #t hf aug-cc-pvdz symm=none int=(grid=ultrafine) guess=(read,tcheck) s
 table=(opt,rrhf)
 ----------------------------------------------------------------------
 -----
 title
 -----
 Symbolic Z-matrix:
 Charge =  0 Multiplicity = 1

 SCF Done:  E(RHF) =  -672.238549397     A.U. after   16 cycles
 Normal termination of Gaussian 16 at Wed Apr  9 00:43:35 2025.
 Gaussian 16:  ES64L-G16RevC.01  3-Jul-2019

 ----------------------------------------------------------------------
 #t hf aug-cc-pvdz iop(5/13=1,5/36=2,99/5=2) pseudo=read geom=check gue
 ss=(read,tcheck) scf=(maxcycle=1)
 ----------------------------------------------------------------------
 -----
 title
 -----
 Structure from the checkpoint file:  "BDE49_nonexpt_750_mol1.chk"
 Charge =  0 Multiplicity = 1

                         Standard orientation:
 ---------------------------------------------------------------------
 Center     Atomic      Atomic             Coordinates (Angstroms)
 Number     Number       Type             X           Y           Z
 ---------------------------------------------------------------------
      1          6           0       -2.749995    0.356865    0.213518
      2          6           0       -1.947962    1.132797   -0.618260
      3          6           0       -0.635312    0.744090   -0.886889
      4          6           0       -2.230512   -0.807649    0.778495
      5          6           0       -0.915545   -1.187496    0.526826
      6          6           0       -0.095176   -0.416690   -0.309869
      7          1           0       -3.773084    0.651919    0.415891
      8          1           0       -2.344839    2.033699   -1.072861
      9          1           0       -0.036292    1.334399   -1.574172
     10          1           0       -2.850300   -1.419725    1.424455
     11          1           0       -0.522958   -2.088248    0.985060
     12          5           0        2.596836    0.338558    0.515123
     13          8           0        2.067662    1.486889    0.982325
     14          1           0        1.134908    1.604398    0.752748
     15         15           0        1.653077   -0.847340   -0.698524
     16          1           0        3.727888    0.092285    0.805106
     17          1           0        1.790065   -2.018042    0.084495
 ---------------------------------------------------------------------

 SCF Done:  E(RHF) =  -672.360190492     A.U. after    2 cycles

 The electronic state is 1-A.
 Alpha  occ. eigenvalues --  -81.24555 -20.59537 -11.26757 -11.26064 -11.25957
 Alpha  occ. eigenvalues --  -11.25930 -11.25807 -11.25634  -7.75189  -7.65171
 Alpha  occ. eigenvalues --   -4.89343  -4.89167  -4.88924  -1.33780  -1.15505
 Alpha  occ. eigenvalues --   -1.02644  -1.02338  -0.85460  -0.84161  -0.79242
 Alpha  occ. eigenvalues --   -0.76929  -0.70577  -0.64803  -0.64609  -0.63085
 Alpha  occ. eigenvalues --   -0.60440  -0.58812  -0.56627  -0.55239  -0.52221
 Alpha  occ. eigenvalues --   -0.51138  -0.48989  -0.43420  -0.38531  -0.35544
 Alpha  occ. eigenvalues --   -0.31759
 Alpha virt. eigenvalues --    0.02932   0.03762   0.03974   0.05002   0.05684
 Alpha virt. eigenvalues --    0.05771   0.06741   0.07111   0.07683   0.08922
 Alpha virt. eigenvalues --    0.09135   0.09638   0.09923   0.10499   0.11202

 Mulliken charges:
               1
     1  C    0.564834
     2  C    0.381308
     3  C    0.592830
     4  C    0.524092
     5  C    0.606229
     6  C   -0.354049
     7  H   -0.425503
     8  H   -0.450122
     9  H   -0.569490
    10  H   -0.447573
    11  H   -0.547538
    12  B    0.212700
    13  O   -0.511532
    14  H    0.264756
    15  P   -0.250335
    16  H    0.308840
    17  H    0.100553
 Sum of Mulliken charges =  -0.00000

 Dipole moment (field-independent basis, Debye):
    X=             -2.2162    Y=             -0.3229    Z=              0.2079  Tot=              2.2493

 Test job not archived.
 1\1\GINC-SE041\SP\RHF\Aug-CC-pVDZ\C6H8B1O1P1\OHZDE\09-Apr-2025\0\\#t h
 f aug-cc-pvdz iop(5/13=1,5/36=2,99/5=2) pseudo=read geom=check guess=(
 read,tcheck) scf=(maxcycle=1)\\title\\0,1\C,0,-2.749995,0.356865,0.213
 518\C,0,-1.947962,1.132797,-0.61826\C,0,-0.635312,0.74409,-0.886889\C,
 0,-2.230512,-0.807649,0.778495\C,0,-0.915545,-1.187496,0.526826\C,0,-0
 .095176,-0.41669,-0.309869\H,0,-3.773084,0.651919,0.415891\H,0,-2.3448
 39,2.033699,-1.072861\H,0,-0.036292,1.334399,-1.574172\H,0,-2.8503,-1.
 419725,1.424455\H,0,-0.522958,-2.088248,0.98506\B,0,2.596836,0.338558,

 Normal termination of Gaussian 16 at Wed Apr  9 00:43:44 2025.
