 Gaussian 16, Revision C.01,

 ----------------------------------------------------------------------
 #t hf aug-cc-pvdz symm=none int=(grid=ultrafine) guess=(read,tcheck) s
 table=(opt,rrhf)
 ----------------------------------------------------------------------
 -----
 title
 -----
 Symbolic Z-matrix:
 Charge =  0 Multiplicity = 1

 SCF Done:  E(RHF) =  -995.886869210     A.U. after   11 cycles

 1\1\GINC-SE071\Stability\RHF\Aug-CC-pVDZ\C2H2Cl2\OHZDE\08-Apr-2025\0\\
 #t hf aug-cc-pvdz symm=none int=(grid=ultrafine) guess=(read,tcheck) s
 table=(opt,rrhf)\\title\\0,1\C,0,0.564534,-0.346282,-0.000001\C,0,-0.5
 64534,0.346282,-0.000001\Cl,0,-0.564534,2.087446,0.\Cl,0,0.564534,-2.0
 87446,0.\H,0,1.550293,0.095636,0.\H,0,-1.550293,-0.095636,0.\\Version=
 ES64L-G16RevC.01\HF=-995.8868692\RMSD=4.170e-09\Dipole=0.,0.,0.0000005
 \Quadrupole=2.6478929,-1.8600246,-0.7878683,1.1386932,0.,0.\PG=Unknown
 \\@

 Normal termination of Gaussian 16 at Tue Apr  8 22:40:25 2025.
 Gaussian 16:  ES64L-G16RevC.01  3-Jul-2019

 ----------------------------------------------------------------------
 #t hf aug-cc-pvdz iop(5/13=1,5/36=2,99/5=2) pseudo=read geom=check gue
 ss=(read,tcheck) scf=(maxcycle=1)
 ----------------------------------------------------------------------
 -----
 title
 -----
 Structure from the checkpoint file:  "BDE49_expt_141_mol1.chk"
 Charge =  0 Multiplicity = 1

                         Standard orientation:
 ---------------------------------------------------------------------
 Center     Atomic      Atomic             Coordinates (Angstroms)
 Number     Number       Type             X           Y           Z
 ---------------------------------------------------------------------
      1          6           0        0.366378    0.551704    0.000001
      2          6           0       -0.366378   -0.551704    0.000001
      3         17           0        0.366378   -2.131173   -0.000000
      4         17           0       -0.366378    2.131173   -0.000000
      5          1           0        1.446571    0.565674   -0.000000
      6          1           0       -1.446571   -0.565674   -0.000000
 ---------------------------------------------------------------------

 SCF Done:  E(RHF) =  -995.950143786     A.U. after    2 cycles

 The electronic state is 1-A.
 Alpha  occ. eigenvalues -- -103.68408-103.68407 -11.33162 -11.32984 -10.71676
 Alpha  occ. eigenvalues --  -10.71674  -8.37414  -8.37410  -8.37092  -8.37091
 Alpha  occ. eigenvalues --   -8.37081  -8.37081  -1.21660  -1.18351  -1.01571
 Alpha  occ. eigenvalues --   -0.81510  -0.66977  -0.66114  -0.55845  -0.55644
 Alpha  occ. eigenvalues --   -0.50962  -0.48619  -0.48106  -0.38060
 Alpha virt. eigenvalues --    0.04030   0.04601   0.07053   0.08771   0.09515
 Alpha virt. eigenvalues --    0.11751   0.12786   0.14006   0.14582   0.15331
 Alpha virt. eigenvalues --    0.15945   0.17299   0.17454   0.18016   0.18527

 Mulliken charges:
               1
     1  C    0.415913
     2  C    0.415913
     3  Cl  -0.236487
     4  Cl  -0.236487
     5  H   -0.179426
     6  H   -0.179426
 Sum of Mulliken charges =  -0.00000

 Dipole moment (field-independent basis, Debye):
    X=              0.0000    Y=              0.0000    Z=             -0.0000  Tot=              0.0000

 Test job not archived.
 1\1\GINC-SE071\SP\RHF\Aug-CC-pVDZ\C2H2Cl2\OHZDE\08-Apr-2025\0\\#t hf a
 ug-cc-pvdz iop(5/13=1,5/36=2,99/5=2) pseudo=read geom=check guess=(rea
 d,tcheck) scf=(maxcycle=1)\\title\\0,1\C,0,0.564534,-0.346282,-0.00000
 1\C,0,-0.564534,0.346282,-0.000001\Cl,0,-0.564534,2.087446,0.\Cl,0,0.5
 64534,-2.087446,0.\H,0,1.550293,0.095636,0.\H,0,-1.550293,-0.095636,0.
 \\Version=ES64L-G16RevC.01\State=1-A\HF=-995.9501438\RMSD=5.073e-03\Di
 pole=0.,0.,0.0000004\Quadrupole=2.6747493,-1.9031597,-0.7715896,1.1704
 004,0.,0.\PG=C02 [X(C2H2Cl2)]\\@

 Normal termination of Gaussian 16 at Tue Apr  8 22:40:26 2025.
