 Gaussian 16, Revision C.01,

 ----------------------------------------------------------------------
 #t hf aug-cc-pvdz symm=none int=(grid=ultrafine) guess=(read,tcheck) s
 table=(opt,rrhf)
 ----------------------------------------------------------------------
 -----
 title
 -----
 Symbolic Z-matrix:
 Charge =  0 Multiplicity = 1

 SCF Done:  E(RHF) =  -1489.44256147     A.U. after   14 cycles
 Normal termination of Gaussian 16 at Tue Apr  8 22:53:43 2025.
 Gaussian 16:  ES64L-G16RevC.01  3-Jul-2019

 ----------------------------------------------------------------------
 #t hf aug-cc-pvdz iop(5/13=1,5/36=2,99/5=2) pseudo=read geom=check gue
 ss=(read,tcheck) scf=(maxcycle=1)
 ----------------------------------------------------------------------
 -----
 title
 -----
 Structure from the checkpoint file:  "BDE49_expt_1721_mol1.chk"
 Charge =  0 Multiplicity = 1

                         Standard orientation:
 ---------------------------------------------------------------------
 Center     Atomic      Atomic             Coordinates (Angstroms)
 Number     Number       Type             X           Y           Z
 ---------------------------------------------------------------------
      1          6           0        0.225381    1.252272    0.304948
      2          8           0        0.399847    1.997789    1.223713
      3          6           0        1.090281   -0.000011   -0.000003
      4          8           0       -0.709206    1.362119   -0.642818
      5         17           0        2.117469   -0.389910    1.415197
      6         17           0        2.117615    0.389789   -1.415123
      7          6           0       -1.578345    2.530940   -0.578182
      8          6           0       -2.766891    2.285065    0.333188
      9          1           0       -1.883162    2.685365   -1.612382
     10          1           0       -0.983198    3.379670   -0.240637
     11          1           0       -3.337175    1.414150    0.003443
     12          1           0       -3.428269    3.155684    0.311141
     13          1           0       -2.441627    2.129300    1.362779
     14          6           0        0.225283   -1.252210   -0.305018
     15          8           0        0.399788   -1.997781   -1.223732
     16          8           0       -0.709285   -1.362055    0.642768
     17          6           0       -1.578425   -2.530874    0.578151
     18          6           0       -2.766993   -2.284996   -0.333192
     19          1           0       -1.883219   -2.685300    1.612358
     20          1           0       -0.983287   -3.379605    0.240592
     21          1           0       -3.337266   -1.414080   -0.003432
     22          1           0       -3.428371   -3.155614   -0.311130
     23          1           0       -2.441752   -2.129230   -1.362790
 ---------------------------------------------------------------------

 SCF Done:  E(RHF) =  -1489.65887722     A.U. after    2 cycles

 The electronic state is 1-A.
 Alpha  occ. eigenvalues -- -103.68402-103.68402 -20.63967 -20.63966 -20.59050
 Alpha  occ. eigenvalues --  -20.59049 -11.43213 -11.43202 -11.41440 -11.31912
 Alpha  occ. eigenvalues --  -11.31912 -11.24714 -11.24714 -10.71644 -10.71635
 Alpha  occ. eigenvalues --   -8.37371  -8.37362  -8.37039  -8.37037  -8.37029
 Alpha  occ. eigenvalues --   -8.37029  -1.45378  -1.44397  -1.35740  -1.35711
 Alpha  occ. eigenvalues --   -1.23453  -1.15002  -1.06748  -1.05243  -0.98597
 Alpha  occ. eigenvalues --   -0.91782  -0.88207  -0.81983  -0.79008  -0.77430
 Alpha  occ. eigenvalues --   -0.72540  -0.71876  -0.70500  -0.68947  -0.67213
 Alpha  occ. eigenvalues --   -0.65084  -0.62887  -0.61431  -0.59954  -0.59626
 Alpha  occ. eigenvalues --   -0.56893  -0.55808  -0.55753  -0.55365  -0.53504
 Alpha  occ. eigenvalues --   -0.51986  -0.51838  -0.50558  -0.50294  -0.49164
 Alpha  occ. eigenvalues --   -0.48737  -0.47606  -0.46353  -0.46060
 Alpha virt. eigenvalues --    0.02918   0.03517   0.04496   0.04741   0.05644
 Alpha virt. eigenvalues --    0.05928   0.06475   0.07680   0.08023   0.08112
 Alpha virt. eigenvalues --    0.08525   0.09635   0.10432   0.11048   0.11989

 Mulliken charges:
               1
     1  C    0.869463
     2  O   -0.418962
     3  C   -0.986396
     4  O   -0.519590
     5  Cl   0.015191
     6  Cl   0.015184
     7  C    0.754294
     8  C    0.372801
     9  H   -0.293267
    10  H   -0.060260
    11  H   -0.106636
    12  H   -0.032281
    13  H   -0.087563
    14  C    0.869437
    15  O   -0.418945
    16  O   -0.519583
    17  C    0.754290
    18  C    0.372818
    19  H   -0.293264
    20  H   -0.060258
    21  H   -0.106628
    22  H   -0.032278
    23  H   -0.087567
 Sum of Mulliken charges =  -0.00000

 Dipole moment (field-independent basis, Debye):
    X=             -4.5950    Y=              0.0002    Z=             -0.0001  Tot=              4.5950

 Test job not archived.
 1\1\GINC-SE423\SP\RHF\Aug-CC-pVDZ\C7H10Cl2O4\OHZDE\08-Apr-2025\0\\#t h
 f aug-cc-pvdz iop(5/13=1,5/36=2,99/5=2) pseudo=read geom=check guess=(
 read,tcheck) scf=(maxcycle=1)\\title\\0,1\C,0,0.225382,-1.252272,-0.30
 4948\O,0,0.399849,-1.997788,-1.223713\C,0,1.090281,0.000012,0.000003\O
 ,0,-0.709205,-1.36212,0.642818\Cl,0,2.117469,0.389912,-1.415197\Cl,0,2
 .117615,-0.389787,1.415123\C,0,-1.578342,-2.530942,0.578182\C,0,-2.766
 889,-2.285068,-0.333188\H,0,-1.883159,-2.685367,1.612382\H,0,-0.983194
 ,-3.379671,0.240637\H,0,-3.337173,-1.414153,-0.003443\H,0,-3.428266,-3

 Normal termination of Gaussian 16 at Tue Apr  8 22:54:03 2025.
