 Gaussian 16, Revision C.01,

 ----------------------------------------------------------------------
 #t hf aug-cc-pvdz symm=none int=(grid=ultrafine) guess=(read,tcheck) s
 table=opt
 ----------------------------------------------------------------------
 -----
 title
 -----
 Symbolic Z-matrix:
 Charge =  0 Multiplicity = 2

 SCF Done:  E(UHF) =  -801.716575000     A.U. after   21 cycles
 Normal termination of Gaussian 16 at Tue Apr  8 23:09:30 2025.
 Gaussian 16:  ES64L-G16RevC.01  3-Jul-2019

 ----------------------------------------------------------------------
 #t hf aug-cc-pvdz iop(5/13=1,5/36=2,99/5=2) pseudo=read geom=check gue
 ss=(read,tcheck) scf=(maxcycle=1)
 ----------------------------------------------------------------------
 -----
 title
 -----
 Structure from the checkpoint file:  "BDE49_expt_685_mol2.chk"
 Charge =  0 Multiplicity = 2

                         Standard orientation:
 ---------------------------------------------------------------------
 Center     Atomic      Atomic             Coordinates (Angstroms)
 Number     Number       Type             X           Y           Z
 ---------------------------------------------------------------------
      1          6           0        1.275729   -0.122907   -0.007331
      2          7           0        0.006752    0.600486   -0.052671
      3          6           0       -1.287658   -0.098532   -0.002719
      4          8           0        0.050748    1.869123   -0.011509
      5          9           0        1.055911   -1.424446   -0.196651
      6          9           0        1.871541    0.051289    1.172458
      7          9           0        2.082272    0.335227   -0.957514
      8          9           0       -1.468906   -0.832459   -1.103804
      9          9           0       -1.338519   -0.913980    1.056156
     10          9           0       -2.244707    0.803508    0.087252
 ---------------------------------------------------------------------

 SCF Done:  E(UHF) =  -802.004865348     A.U. after    2 cycles

 The electronic state is 2-A.
 Alpha  occ. eigenvalues --  -26.21361 -26.21152 -26.20628 -26.20521 -26.20485
 Alpha  occ. eigenvalues --  -26.20299 -20.70912 -15.79577 -11.60916 -11.60743
 Alpha  occ. eigenvalues --   -1.81359  -1.81044  -1.74213  -1.73890  -1.73455
 Alpha  occ. eigenvalues --   -1.73276  -1.52137  -1.21518  -1.09312  -1.01768
 Alpha  occ. eigenvalues --   -0.95239  -0.93906  -0.93405  -0.92599  -0.91855
 Alpha  occ. eigenvalues --   -0.85142  -0.82195  -0.81643  -0.81477  -0.81185
 Alpha  occ. eigenvalues --   -0.78310  -0.77750  -0.76637  -0.76570  -0.76303
 Alpha  occ. eigenvalues --   -0.75811  -0.75470  -0.73516  -0.73238  -0.58561
 Alpha  occ. eigenvalues --   -0.49626
 Alpha virt. eigenvalues --    0.07302   0.07390   0.07463   0.08139   0.10941
 Alpha virt. eigenvalues --    0.11317   0.11516   0.15140   0.17519   0.19460
 Alpha virt. eigenvalues --    0.22432   0.23076   0.23400   0.25069   0.25725

  Beta  occ. eigenvalues --  -26.21372 -26.21165 -26.20577 -26.20503 -26.20445
  Beta  occ. eigenvalues --  -26.20255 -20.67175 -15.78512 -11.61030 -11.60849
  Beta  occ. eigenvalues --   -1.81286  -1.81006  -1.74188  -1.73869  -1.73321
  Beta  occ. eigenvalues --   -1.73153  -1.44602  -1.16349  -1.09252  -1.00666
  Beta  occ. eigenvalues --   -0.95078  -0.93206  -0.93067  -0.92459  -0.91824
  Beta  occ. eigenvalues --   -0.83130  -0.81441  -0.81367  -0.81184  -0.81029
  Beta  occ. eigenvalues --   -0.77717  -0.77211  -0.76562  -0.76524  -0.75775
  Beta  occ. eigenvalues --   -0.75426  -0.72229  -0.70964  -0.56087  -0.55147
  Beta virt. eigenvalues --    0.06103   0.07305   0.07395   0.07608   0.08206
  Beta virt. eigenvalues --    0.10950   0.11330   0.11519   0.15279   0.17531
  Beta virt. eigenvalues --    0.20723   0.22511   0.23209   0.23596   0.25064

 Mulliken charges and spin densities:
               1          2
     1  C    1.113316  -0.041203
     2  N   -0.349198   0.247103
     3  C    1.127006  -0.055542
     4  O   -0.441066   0.835118
     5  F   -0.261253  -0.001322
     6  F   -0.245409   0.005302
     7  F   -0.230021   0.001625
     8  F   -0.252789   0.004357
     9  F   -0.270228   0.005517
    10  F   -0.190357  -0.000955
 Sum of Mulliken charges =  -0.00000   1.00000

 Dipole moment (field-independent basis, Debye):
    X=             -0.1345    Y=             -0.3416    Z=             -0.0642  Tot=              0.3727
                          Isotropic Fermi Contact Couplings
        Atom                 a.u.       MegaHertz       Gauss      10(-4) cm-1
     1  C(13)             -0.02238     -25.15953      -8.97754      -8.39231
     2  N(14)              0.09150      29.56296      10.54880       9.86114
     3  C(13)             -0.02496     -28.06153     -10.01305      -9.36032
     4  O(17)              0.30035    -182.07332     -64.96829     -60.73312
     5  F(19)             -0.00265     -11.15338      -3.97980      -3.72037
     6  F(19)              0.00551      23.17098       8.26798       7.72901
     7  F(19)              0.00113       4.74497       1.69312       1.58275
     8  F(19)              0.00778      32.73573      11.68092      10.91946

 Normal termination of Gaussian 16 at Tue Apr  8 23:09:39 2025.
