 Gaussian 16, Revision C.01,

 ----------------------------------------------------------------------
 #t hf aug-cc-pvdz symm=none int=(grid=ultrafine) guess=(read,tcheck) s
 table=opt
 ----------------------------------------------------------------------
 -----
 title
 -----
 Symbolic Z-matrix:
 Charge =  0 Multiplicity = 2

 SCF Done:  E(UHF) =  -756.867659664     A.U. after   18 cycles
 Normal termination of Gaussian 16 at Wed Apr  9 00:19:26 2025.
 Gaussian 16:  ES64L-G16RevC.01  3-Jul-2019

 ----------------------------------------------------------------------
 #t hf aug-cc-pvdz iop(5/13=1,5/36=2,99/5=2) pseudo=read geom=check gue
 ss=(read,tcheck) scf=(maxcycle=1)
 ----------------------------------------------------------------------
 -----
 title
 -----
 Structure from the checkpoint file:  "BDE49_nonexpt_256_mol2.chk"
 Charge =  0 Multiplicity = 2

                         Standard orientation:
 ---------------------------------------------------------------------
 Center     Atomic      Atomic             Coordinates (Angstroms)
 Number     Number       Type             X           Y           Z
 ---------------------------------------------------------------------
      1          6           0       -1.350919    1.378139   -0.173871
      2          6           0       -2.538163    0.632524   -0.800541
      3          6           0       -2.899625   -0.626440   -0.000808
      4          6           0       -1.680957   -1.542125    0.177277
      5          6           0       -0.495946   -0.790779    0.801245
      6          6           0        1.050345    1.232705    0.663404
      7          6           0       -0.119836    0.469724    0.001193
      8          5           0        2.470951    0.607430    0.647160
      9         17           0        3.104550   -0.546728   -0.505438
     10          1           0       -1.646019    1.769772    0.809339
     11          1           0       -1.085816    2.246785   -0.786973
     12          1           0       -2.281447    0.345764   -1.828477
     13          1           0       -3.403366    1.299619   -0.871764
     14          1           0       -3.712546   -1.168638   -0.494371
     15          1           0       -3.276477   -0.330784    0.987016
     16          1           0       -1.380662   -1.939202   -0.800817
     17          1           0       -1.942233   -2.406742    0.795791
     18          1           0        0.368650   -1.458246    0.880151
     19          1           0       -0.755609   -0.492843    1.826550
     20          1           0        0.783781    1.524245    1.687398
     21          1           0        1.205789    2.195818    0.143019
     22          1           0        0.204458    0.149197   -0.997606
 ---------------------------------------------------------------------

 SCF Done:  E(UHF) =  -756.972192476     A.U. after    2 cycles

 The electronic state is 2-A.
 Alpha  occ. eigenvalues -- -103.66366 -11.24089 -11.22856 -11.22846 -11.22800
 Alpha  occ. eigenvalues --  -11.22756 -11.22725 -11.22648 -10.69840  -8.35588
 Alpha  occ. eigenvalues --   -8.35321  -8.35271  -7.68597  -1.16059  -1.11248
 Alpha  occ. eigenvalues --   -1.03006  -0.99778  -0.93014  -0.83467  -0.81108
 Alpha  occ. eigenvalues --   -0.75663  -0.66801  -0.64986  -0.61527  -0.60918
 Alpha  occ. eigenvalues --   -0.60235  -0.56928  -0.55331  -0.53077  -0.52845
 Alpha  occ. eigenvalues --   -0.50391  -0.49314  -0.48665  -0.48632  -0.47568
 Alpha  occ. eigenvalues --   -0.45609  -0.44083  -0.42960  -0.33166
 Alpha virt. eigenvalues --    0.03325   0.03966   0.04056   0.04364   0.05560
 Alpha virt. eigenvalues --    0.05700   0.06042   0.06410   0.06658   0.07313
 Alpha virt. eigenvalues --    0.08285   0.08500   0.09052   0.09253   0.09404

  Beta  occ. eigenvalues -- -103.66286 -11.23976 -11.22857 -11.22842 -11.22749
  Beta  occ. eigenvalues --  -11.22723 -11.22683 -11.22648 -10.69747  -8.35442
  Beta  occ. eigenvalues --   -8.35281  -8.35079  -7.66616  -1.15194  -1.11131
  Beta  occ. eigenvalues --   -1.02727  -0.99760  -0.92493  -0.83444  -0.80774
  Beta  occ. eigenvalues --   -0.75605  -0.65152  -0.64003  -0.61241  -0.60784
  Beta  occ. eigenvalues --   -0.59876  -0.56515  -0.53775  -0.53011  -0.52256
  Beta  occ. eigenvalues --   -0.49741  -0.49011  -0.48621  -0.47722  -0.46971
  Beta  occ. eigenvalues --   -0.45520  -0.43512  -0.42810
  Beta virt. eigenvalues --    0.03097   0.03762   0.04058   0.04294   0.05600
  Beta virt. eigenvalues --    0.05795   0.06079   0.06440   0.06693   0.07806
  Beta virt. eigenvalues --    0.08122   0.08399   0.09025   0.09137   0.09788

 Mulliken charges and spin densities:
               1          2
     1  C    0.657647  -0.004296
     2  C    0.358361   0.001420
     3  C    0.254902  -0.000188
     4  C    0.336716   0.002991
     5  C    0.358768   0.010220
     6  C    0.983547  -0.126858
     7  C   -1.189073   0.078282
     8  B    0.070509   1.083837
     9  Cl  -0.267883  -0.002184
    10  H   -0.077592   0.000555
    11  H   -0.182515   0.001086
    12  H   -0.097029   0.000112
    13  H   -0.104393   0.000394
    14  H   -0.124506   0.000052
    15  H   -0.094491   0.000089
    16  H   -0.080984   0.000327
    17  H   -0.109927   0.000121
    18  H   -0.187421  -0.002238
    19  H   -0.092657  -0.000579
    20  H   -0.116406  -0.009420
    21  H   -0.011716  -0.025653
    22  H   -0.283857  -0.008069
 Sum of Mulliken charges =   0.00000   1.00000

 Dipole moment (field-independent basis, Debye):
    X=             -1.6249    Y=              0.7133    Z=              0.2426  Tot=              1.7911
                          Isotropic Fermi Contact Couplings
        Atom                 a.u.       MegaHertz       Gauss      10(-4) cm-1
     1  C(13)              0.00190       2.13885       0.76320       0.71344
     2  C(13)              0.00150       1.68719       0.60203       0.56279
     3  C(13)             -0.00014      -0.16036      -0.05722      -0.05349
     4  C(13)              0.00038       0.43075       0.15370       0.14368
     5  C(13)             -0.00173      -1.94317      -0.69337      -0.64817
     6  C(13)              0.03161      35.54108      12.68194      11.85523
     7  C(13)              0.02100      23.60788       8.42388       7.87474
     8  B(11)              0.33677     483.05463     172.36591     161.12968

 Normal termination of Gaussian 16 at Wed Apr  9 00:19:41 2025.
