 Gaussian 16, Revision C.01,

 ----------------------------------------------------------------------
 #t hf aug-cc-pvdz symm=none int=(grid=ultrafine) guess=(read,tcheck) s
 table=(opt,rrhf)
 ----------------------------------------------------------------------
 -----
 title
 -----
 Symbolic Z-matrix:
 Charge =  0 Multiplicity = 1

 SCF Done:  E(RHF) =  -1074.17037192     A.U. after   14 cycles
 Normal termination of Gaussian 16 at Tue Apr  8 23:46:49 2025.
 Gaussian 16:  ES64L-G16RevC.01  3-Jul-2019

 ----------------------------------------------------------------------
 #t hf aug-cc-pvdz iop(5/13=1,5/36=2,99/5=2) pseudo=read geom=check gue
 ss=(read,tcheck) scf=(maxcycle=1)
 ----------------------------------------------------------------------
 -----
 title
 -----
 Structure from the checkpoint file:  "BDE49_nonexpt_1786_mol1.chk"
 Charge =  0 Multiplicity = 1

                         Standard orientation:
 ---------------------------------------------------------------------
 Center     Atomic      Atomic             Coordinates (Angstroms)
 Number     Number       Type             X           Y           Z
 ---------------------------------------------------------------------
      1         14           0       -1.592998   -1.121568   -0.115723
      2          6           0        0.289042   -0.884291   -0.266437
      3         17           0       -2.845460    0.492717    0.408784
      4          7           0        1.098424    0.179675   -0.072421
      5          6           0        0.621634    1.489852    0.379851
      6          8           0        0.693410   -1.996444   -0.623405
      7          6           0        2.540950    0.007570   -0.311635
      8          6           0        0.431584    2.496387   -0.756859
      9          1           0        1.344264    1.871022    1.107691
     10          1           0       -0.316601    1.353356    0.915888
     11          1           0        1.355916    2.648512   -1.319885
     12          1           0        0.120619    3.463737   -0.353402
     13          1           0       -0.339445    2.155314   -1.451250
     14          6           0        3.293575   -0.475809    0.929732
     15          1           0        2.936035    0.966126   -0.656423
     16          1           0        2.654944   -0.715251   -1.119839
     17          1           0        3.175401    0.216743    1.767580
     18          1           0        4.361758   -0.562006    0.712442
     19          1           0        2.927121   -1.457244    1.235204
     20          1           0       -1.795915   -2.143026    0.921959
     21          1           0       -2.046277   -1.559971   -1.442898
 ---------------------------------------------------------------------

 SCF Done:  E(RHF) =  -1074.31390849     A.U. after    2 cycles

 The electronic state is 1-A.
 Alpha  occ. eigenvalues -- -103.65415 -69.12486 -20.54961 -15.66312 -11.35931
 Alpha  occ. eigenvalues --  -11.29053 -11.27961 -11.24255 -11.23433 -10.68831
 Alpha  occ. eigenvalues --   -8.34516  -8.34316  -8.34298  -6.87264  -3.98119
 Alpha  occ. eigenvalues --   -3.97947  -3.97915  -1.35161  -1.22465  -1.13568
 Alpha  occ. eigenvalues --   -1.04312  -1.00576  -0.88305  -0.88004  -0.77626
 Alpha  occ. eigenvalues --   -0.72788  -0.68151  -0.66387  -0.62909  -0.61963
 Alpha  occ. eigenvalues --   -0.59970  -0.58043  -0.55913  -0.55335  -0.53914
 Alpha  occ. eigenvalues --   -0.53197  -0.52168  -0.52061  -0.51306  -0.50250
 Alpha  occ. eigenvalues --   -0.48071  -0.45727  -0.41276  -0.38401
 Alpha virt. eigenvalues --    0.02993   0.03897   0.04116   0.04328   0.06213
 Alpha virt. eigenvalues --    0.06227   0.06623   0.06810   0.06841   0.08436
 Alpha virt. eigenvalues --    0.08622   0.08871   0.09252   0.09573   0.10482

 Mulliken charges:
               1
     1  Si   0.303822
     2  C   -0.097719
     3  Cl  -0.560862
     4  N    0.083855
     5  C    0.706268
     6  O   -0.608538
     7  C    0.661473
     8  C    0.375374
     9  H   -0.192014
    10  H   -0.330173
    11  H   -0.139322
    12  H   -0.063798
    13  H   -0.110810
    14  C    0.393239
    15  H   -0.243105
    16  H   -0.170816
    17  H   -0.131040
    18  H   -0.066592
    19  H   -0.066633
    20  H    0.120359
    21  H    0.137032
 Sum of Mulliken charges =   0.00000

 Dipole moment (field-independent basis, Debye):
    X=              1.6332    Y=              2.9964    Z=              0.6817  Tot=              3.4800

 Test job not archived.
 1\1\GINC-SE435\SP\RHF\Aug-CC-pVDZ\C5H12Cl1N1O1Si1\OHZDE\08-Apr-2025\0\
 \#t hf aug-cc-pvdz iop(5/13=1,5/36=2,99/5=2) pseudo=read geom=check gu
 ess=(read,tcheck) scf=(maxcycle=1)\\title\\0,1\Si,0,-1.592998,-1.12156
 8,-0.115723\C,0,0.289042,-0.884291,-0.266437\Cl,0,-2.84546,0.492717,0.
 408784\N,0,1.098424,0.179675,-0.072421\C,0,0.621634,1.489852,0.379851\
 O,0,0.69341,-1.996444,-0.623405\C,0,2.54095,0.00757,-0.311635\C,0,0.43
 1584,2.496387,-0.756859\H,0,1.344264,1.871022,1.107691\H,0,-0.316601,1
 .353356,0.915888\H,0,1.355916,2.648512,-1.319885\H,0,0.120619,3.463737

 Normal termination of Gaussian 16 at Tue Apr  8 23:47:01 2025.
