 Gaussian 16, Revision C.01,

 ----------------------------------------------------------------------
 #t hf aug-cc-pvdz symm=none int=(grid=ultrafine) guess=(read,tcheck) s
 table=(opt,rrhf)
 ----------------------------------------------------------------------
 -----
 title
 -----
 Symbolic Z-matrix:
 Charge =  0 Multiplicity = 1

 SCF Done:  E(RHF) =  -934.489266814     A.U. after   14 cycles
 Normal termination of Gaussian 16 at Wed Apr  9 00:15:55 2025.
 Gaussian 16:  ES64L-G16RevC.01  3-Jul-2019

 ----------------------------------------------------------------------
 #t hf aug-cc-pvdz iop(5/13=1,5/36=2,99/5=2) pseudo=read geom=check gue
 ss=(read,tcheck) scf=(maxcycle=1)
 ----------------------------------------------------------------------
 -----
 title
 -----
 Structure from the checkpoint file:  "BDE49_nonexpt_2560_mol1.chk"
 Charge =  0 Multiplicity = 1

                         Standard orientation:
 ---------------------------------------------------------------------
 Center     Atomic      Atomic             Coordinates (Angstroms)
 Number     Number       Type             X           Y           Z
 ---------------------------------------------------------------------
      1         17           0       -1.418403   -0.575638    0.000000
      2         16           0       -0.108507    1.025751    0.000000
      3          6           0        1.475323    0.262731    0.000000
      4          6           0        1.808685   -1.022810    0.000000
      5          1           0        2.222458    1.055094    0.000001
      6          1           0        1.069251   -1.812737   -0.000001
      7          1           0        2.853211   -1.308043    0.000000
 ---------------------------------------------------------------------

 SCF Done:  E(RHF) =  -934.555777989     A.U. after    2 cycles

 The electronic state is 1-A.
 Alpha  occ. eigenvalues -- -103.68602 -93.60824 -11.29902 -11.25710 -10.71765
 Alpha  occ. eigenvalues --   -8.90234  -8.37498  -8.37154  -8.37116  -6.24330
 Alpha  occ. eigenvalues --   -6.24049  -6.23628  -1.18014  -1.07519  -0.94051
 Alpha  occ. eigenvalues --   -0.77759  -0.66065  -0.62782  -0.53472  -0.53220
 Alpha  occ. eigenvalues --   -0.52292  -0.46428  -0.45008  -0.34199
 Alpha virt. eigenvalues --    0.03486   0.03884   0.05603   0.06215   0.08624
 Alpha virt. eigenvalues --    0.09574   0.11288   0.12527   0.14012   0.14620
 Alpha virt. eigenvalues --    0.14701   0.15688   0.16326   0.16615   0.17817

 Mulliken charges:
               1
     1  Cl  -0.322255
     2  S    0.402197
     3  C    0.265988
     4  C    0.505952
     5  H   -0.385164
     6  H   -0.231850
     7  H   -0.234868
 Sum of Mulliken charges =   0.00000

 Dipole moment (field-independent basis, Debye):
    X=              1.9036    Y=              0.2108    Z=              0.0000  Tot=              1.9152

 Test job not archived.
 1\1\GINC-SE162\SP\RHF\Aug-CC-pVDZ\C2H3Cl1S1\OHZDE\09-Apr-2025\0\\#t hf
  aug-cc-pvdz iop(5/13=1,5/36=2,99/5=2) pseudo=read geom=check guess=(r
 ead,tcheck) scf=(maxcycle=1)\\title\\0,1\Cl,0,-1.418403,-0.575639,0.\S
 ,0,-0.108507,1.025751,0.\C,0,1.475323,0.262731,0.\C,0,1.808686,-1.0228
 1,0.\H,0,2.222458,1.055094,0.000001\H,0,1.069252,-1.812737,-0.000001\H
 ,0,2.853212,-1.308042,0.\\Version=ES64L-G16RevC.01\State=1-A\HF=-934.5
 55778\RMSD=6.290e-03\Dipole=0.7489143,0.0829521,0.\Quadrupole=1.880954
 1,1.4198875,-3.3008416,0.6732621,0.000001,0.0000021\PG=C01 [X(C2H3Cl1S

 Normal termination of Gaussian 16 at Wed Apr  9 00:15:57 2025.
