 Gaussian 16, Revision C.01,

 ----------------------------------------------------------------------
 #t hf aug-cc-pvdz symm=none int=(grid=ultrafine) guess=(read,tcheck) s
 table=(opt,rrhf)
 ----------------------------------------------------------------------
 -----
 title
 -----
 Symbolic Z-matrix:
 Charge =  0 Multiplicity = 1

 SCF Done:  E(RHF) =  -444.238390613     A.U. after   12 cycles
 Normal termination of Gaussian 16 at Wed Apr  9 00:04:30 2025.
 Gaussian 16:  ES64L-G16RevC.01  3-Jul-2019

 ----------------------------------------------------------------------
 #t hf aug-cc-pvdz iop(5/13=1,5/36=2,99/5=2) pseudo=read geom=check gue
 ss=(read,tcheck) scf=(maxcycle=1)
 ----------------------------------------------------------------------
 -----
 title
 -----
 Structure from the checkpoint file:  "BDE49_nonexpt_2239_mol1.chk"
 Charge =  0 Multiplicity = 1

                         Standard orientation:
 ---------------------------------------------------------------------
 Center     Atomic      Atomic             Coordinates (Angstroms)
 Number     Number       Type             X           Y           Z
 ---------------------------------------------------------------------
      1          6           0       -2.163562   -0.131292    0.000001
      2          8           0       -0.796936   -0.517004   -0.000002
      3          1           0       -2.770686   -1.038256    0.000001
      4          1           0       -2.414918    0.456801   -0.891113
      5          1           0       -2.414914    0.456797    0.891119
      6         14           0        0.483504    0.525870    0.000000
      7          6           0        2.039899   -0.499494    0.000000
      8          1           0        2.086583   -1.138306    0.885572
      9          1           0        2.921986    0.148189   -0.000001
     10          1           0        2.086583   -1.138307   -0.885572
     11          1           0        0.426888    1.405822    1.198491
     12          1           0        0.426890    1.405826   -1.198488
 ---------------------------------------------------------------------

 SCF Done:  E(RHF) =  -444.325192968     A.U. after    2 cycles

 The electronic state is 1-A.
 Alpha  occ. eigenvalues --  -69.08171 -20.55798 -11.29068 -11.21526  -6.83002
 Alpha  occ. eigenvalues --   -3.93924  -3.93783  -3.93756  -1.30252  -0.94738
 Alpha  occ. eigenvalues --   -0.92119  -0.71083  -0.63895  -0.62785  -0.60590
 Alpha  occ. eigenvalues --   -0.56308  -0.54891  -0.49165  -0.48989  -0.44823
 Alpha  occ. eigenvalues --   -0.43897
 Alpha virt. eigenvalues --    0.03487   0.04491   0.05213   0.05590   0.06464
 Alpha virt. eigenvalues --    0.07043   0.07321   0.08369   0.09569   0.09760
 Alpha virt. eigenvalues --    0.10919   0.13976   0.15301   0.15841   0.16498

 Mulliken charges:
               1
     1  C    0.809724
     2  O   -0.940349
     3  H   -0.250238
     4  H   -0.142155
     5  H   -0.142155
     6  Si   1.166739
     7  C    0.216157
     8  H   -0.172420
     9  H   -0.246086
    10  H   -0.172419
    11  H   -0.063400
    12  H   -0.063400
 Sum of Mulliken charges =  -0.00000

 Dipole moment (field-independent basis, Debye):
    X=             -0.3893    Y=              0.4425    Z=              0.0000  Tot=              0.5894

 Test job not archived.
 1\1\GINC-SE250\SP\RHF\Aug-CC-pVDZ\C2H8O1Si1\OHZDE\09-Apr-2025\0\\#t hf
  aug-cc-pvdz iop(5/13=1,5/36=2,99/5=2) pseudo=read geom=check guess=(r
 ead,tcheck) scf=(maxcycle=1)\\title\\0,1\C,0,-2.163562,-0.131292,0.000
 001\O,0,-0.796936,-0.517004,-0.000002\H,0,-2.770686,-1.038256,0.000001
 \H,0,-2.414918,0.456801,-0.891113\H,0,-2.414914,0.456797,0.891119\Si,0
 ,0.483504,0.52587,0.\C,0,2.039899,-0.499494,0.\H,0,2.086583,-1.138306,
 0.885572\H,0,2.921986,0.148189,-0.000001\H,0,2.086583,-1.138307,-0.885
 572\H,0,0.426888,1.405822,1.198491\H,0,0.42689,1.405826,-1.198488\\Ver

 Normal termination of Gaussian 16 at Wed Apr  9 00:04:33 2025.
