 Gaussian 16, Revision C.01,

 ----------------------------------------------------------------------
 #t hf aug-cc-pvdz symm=none int=(grid=ultrafine) guess=(read,tcheck) s
 table=(opt,rrhf)
 ----------------------------------------------------------------------
 -----
 title
 -----
 Symbolic Z-matrix:
 Charge =  0 Multiplicity = 1

 SCF Done:  E(RHF) =  -719.454393983     A.U. after   14 cycles
 Normal termination of Gaussian 16 at Tue Apr  8 23:12:10 2025.
 Gaussian 16:  ES64L-G16RevC.01  3-Jul-2019

 ----------------------------------------------------------------------
 #t hf aug-cc-pvdz iop(5/13=1,5/36=2,99/5=2) pseudo=read geom=check gue
 ss=(read,tcheck) scf=(maxcycle=1)
 ----------------------------------------------------------------------
 -----
 title
 -----
 Structure from the checkpoint file:  "BDE49_expt_842_mol1.chk"
 Charge =  0 Multiplicity = 1

                         Standard orientation:
 ---------------------------------------------------------------------
 Center     Atomic      Atomic             Coordinates (Angstroms)
 Number     Number       Type             X           Y           Z
 ---------------------------------------------------------------------
      1          6           0        1.038623    0.062329    0.973565
      2          6           0       -0.372887    0.590102    0.685413
      3          7           0       -0.462326    1.795932   -0.144807
      4          6           0       -1.265209   -0.513600    0.071010
      5          1           0       -0.841138    0.819991    1.651074
      6          8           0       -1.143821   -1.679795    0.340445
      7          8           0       -2.199476   -0.040914   -0.758360
      8          1           0       -2.011203    0.921273   -0.832414
      9          1           0        0.244539    1.762117   -0.876900
     10          1           0       -0.318639    2.640430    0.396280
     11         16           0        2.034204   -0.272615   -0.534737
     12          1           0        0.981682   -0.847747    1.567720
     13          1           0        1.609764    0.806953    1.531356
     14          1           0        1.367208   -1.380021   -0.904286
 ---------------------------------------------------------------------

 SCF Done:  E(RHF) =  -719.573730597     A.U. after    2 cycles

 The electronic state is 1-A.
 Alpha  occ. eigenvalues --  -93.54779 -20.61735 -20.56130 -15.65248 -11.39871
 Alpha  occ. eigenvalues --  -11.31602 -11.29334  -8.84523  -6.18691  -6.18485
 Alpha  occ. eigenvalues --   -6.18169  -1.42132  -1.33238  -1.20056  -1.05788
 Alpha  occ. eigenvalues --   -0.96141  -0.86766  -0.82183  -0.74729  -0.70281
 Alpha  occ. eigenvalues --   -0.68690  -0.64944  -0.64386  -0.60342  -0.59085
 Alpha  occ. eigenvalues --   -0.57205  -0.53265  -0.49435  -0.47875  -0.46149
 Alpha  occ. eigenvalues --   -0.43536  -0.37402
 Alpha virt. eigenvalues --    0.02255   0.03910   0.04498   0.05054   0.06814
 Alpha virt. eigenvalues --    0.07134   0.07635   0.09993   0.10431   0.12226
 Alpha virt. eigenvalues --    0.12877   0.13109   0.13799   0.14284   0.14931

 Mulliken charges:
               1
     1  C    0.258413
     2  C   -0.061303
     3  N   -0.564540
     4  C    0.609354
     5  H    0.052688
     6  O   -0.470693
     7  O   -0.485940
     8  H    0.273645
     9  H    0.121800
    10  H    0.054687
    11  S    0.229503
    12  H   -0.083647
    13  H   -0.020435
    14  H    0.086467
 Sum of Mulliken charges =   0.00000

 Dipole moment (field-independent basis, Debye):
    X=              1.4700    Y=              4.6579    Z=              1.6196  Tot=              5.1459

 Test job not archived.
 1\1\GINC-SE338\SP\RHF\Aug-CC-pVDZ\C3H7N1O2S1\OHZDE\08-Apr-2025\0\\#t h
 f aug-cc-pvdz iop(5/13=1,5/36=2,99/5=2) pseudo=read geom=check guess=(
 read,tcheck) scf=(maxcycle=1)\\title\\0,1\C,0,1.038623,0.062329,0.9735
 65\C,0,-0.372887,0.590102,0.685413\N,0,-0.462326,1.795932,-0.144807\C,
 0,-1.265209,-0.5136,0.07101\H,0,-0.841138,0.819991,1.651074\O,0,-1.143
 821,-1.679795,0.340445\O,0,-2.199476,-0.040914,-0.75836\H,0,-2.011203,
 0.921273,-0.832414\H,0,0.244539,1.762117,-0.8769\H,0,-0.318639,2.64043
 ,0.39628\S,0,2.034204,-0.272615,-0.534737\H,0,0.981682,-0.847747,1.567

 Normal termination of Gaussian 16 at Tue Apr  8 23:12:14 2025.
