 Gaussian 16, Revision C.01,

 ----------------------------------------------------------------------
 #t hf aug-cc-pvdz symm=none int=(grid=ultrafine) guess=(read,tcheck) s
 table=(opt,rrhf)
 ----------------------------------------------------------------------
 -----
 title
 -----
 Symbolic Z-matrix:
 Charge =  0 Multiplicity = 1

 SCF Done:  E(RHF) =  -744.688709987     A.U. after   15 cycles
 Normal termination of Gaussian 16 at Tue Apr  8 22:50:08 2025.
 Gaussian 16:  ES64L-G16RevC.01  3-Jul-2019

 ----------------------------------------------------------------------
 #t hf aug-cc-pvdz iop(5/13=1,5/36=2,99/5=2) pseudo=read geom=check gue
 ss=(read,tcheck) scf=(maxcycle=1)
 ----------------------------------------------------------------------
 -----
 title
 -----
 Structure from the checkpoint file:  "BDE49_expt_1731_mol1.chk"
 Charge =  0 Multiplicity = 1

                         Standard orientation:
 ---------------------------------------------------------------------
 Center     Atomic      Atomic             Coordinates (Angstroms)
 Number     Number       Type             X           Y           Z
 ---------------------------------------------------------------------
      1          6           0       -1.958139    1.204778   -0.098262
      2          6           0       -0.628829    1.171105    0.301937
      3          6           0       -2.607200   -0.002447   -0.353247
      4          7           0       -2.018444   -1.195075   -0.230667
      5          6           0       -0.741110   -1.211010    0.152669
      6          6           0        0.008042   -0.064568    0.434313
      7          1           0       -2.485997    2.144215   -0.210755
      8          1           0       -0.087921    2.089462    0.505253
      9          1           0       -0.281637   -2.192598    0.245211
     10          6           0        1.434417   -0.172821    0.867995
     11         17           0        2.601285    0.080093   -0.526588
     12          1           0        1.665611   -1.159915    1.261748
     13          1           0       -3.646701   -0.012751   -0.668599
     14          1           0        1.700823    0.585311    1.601379
 ---------------------------------------------------------------------

 SCF Done:  E(RHF) =  -744.788984056     A.U. after    2 cycles

 The electronic state is 1-A.
 Alpha  occ. eigenvalues -- -103.65263 -15.64075 -11.32278 -11.29694 -11.29603
 Alpha  occ. eigenvalues --  -11.28001 -11.27139 -11.26174 -10.68508  -8.34220
 Alpha  occ. eigenvalues --   -8.33934  -8.33928  -1.24321  -1.16522  -1.09185
 Alpha  occ. eigenvalues --   -1.04975  -0.94184  -0.87242  -0.83851  -0.72749
 Alpha  occ. eigenvalues --   -0.69631  -0.65973  -0.61708  -0.60874  -0.58805
 Alpha  occ. eigenvalues --   -0.57964  -0.53973  -0.53423  -0.45687  -0.45249
 Alpha  occ. eigenvalues --   -0.42137  -0.39170  -0.35583
 Alpha virt. eigenvalues --    0.03009   0.03584   0.04350   0.05510   0.06014
 Alpha virt. eigenvalues --    0.06999   0.07706   0.08574   0.09044   0.10411
 Alpha virt. eigenvalues --    0.10839   0.12213   0.12777   0.13753   0.13908

 Mulliken charges:
               1
     1  C    0.520238
     2  C   -0.133733
     3  C    0.490497
     4  N   -0.529002
     5  C    0.708923
     6  C    0.625762
     7  H   -0.381043
     8  H   -0.495640
     9  H   -0.407872
    10  C    0.314770
    11  Cl  -0.158177
    12  H   -0.123675
    13  H   -0.336754
    14  H   -0.094292
 Sum of Mulliken charges =   0.00000

 Dipole moment (field-independent basis, Debye):
    X=             -0.7651    Y=              1.6279    Z=              1.9645  Tot=              2.6636

 Test job not archived.
 1\1\GINC-SE044\SP\RHF\Aug-CC-pVDZ\C6H6Cl1N1\OHZDE\08-Apr-2025\0\\#t hf
  aug-cc-pvdz iop(5/13=1,5/36=2,99/5=2) pseudo=read geom=check guess=(r
 ead,tcheck) scf=(maxcycle=1)\\title\\0,1\C,0,-1.958139,1.204778,-0.098
 262\C,0,-0.628829,1.171105,0.301937\C,0,-2.6072,-0.002447,-0.353247\N,
 0,-2.018444,-1.195075,-0.230667\C,0,-0.74111,-1.21101,0.152669\C,0,0.0
 08042,-0.064568,0.434313\H,0,-2.485997,2.144215,-0.210755\H,0,-0.08792
 1,2.089462,0.505253\H,0,-0.281637,-2.192598,0.245211\C,0,1.434417,-0.1
 72821,0.867995\Cl,0,2.601285,0.080093,-0.526588\H,0,1.665611,-1.159915

 Normal termination of Gaussian 16 at Tue Apr  8 22:50:13 2025.
