 Gaussian 16, Revision C.01,

 ----------------------------------------------------------------------
 #t hf aug-cc-pvdz symm=none int=(grid=ultrafine) guess=(read,tcheck) s
 table=opt
 ----------------------------------------------------------------------
 -----
 title
 -----
 Symbolic Z-matrix:
 Charge =  0 Multiplicity = 2

 SCF Done:  E(UHF) =  -718.850689046     A.U. after   24 cycles
 Normal termination of Gaussian 16 at Tue Apr  8 23:12:31 2025.
 Gaussian 16:  ES64L-G16RevC.01  3-Jul-2019

 ----------------------------------------------------------------------
 #t hf aug-cc-pvdz iop(5/13=1,5/36=2,99/5=2) pseudo=read geom=check gue
 ss=(read,tcheck) scf=(maxcycle=1)
 ----------------------------------------------------------------------
 -----
 title
 -----
 Structure from the checkpoint file:  "BDE49_expt_842_mol2.chk"
 Charge =  0 Multiplicity = 2

                         Standard orientation:
 ---------------------------------------------------------------------
 Center     Atomic      Atomic             Coordinates (Angstroms)
 Number     Number       Type             X           Y           Z
 ---------------------------------------------------------------------
      1          6           0        1.062639   -0.141174    0.917317
      2          6           0       -0.315196    0.508690    0.709990
      3          7           0       -0.333482    1.783102   -0.012028
      4          6           0       -1.289925   -0.481944    0.027343
      5          1           0       -0.749661    0.683247    1.701980
      6          8           0       -1.258007   -1.667403    0.222607
      7          8           0       -2.190390    0.115307   -0.758316
      8          1           0       -1.937155    1.064554   -0.764126
      9          1           0        0.360014    1.767259   -0.757614
     10          1           0       -0.133054    2.569346    0.594760
     11         16           0        2.063826   -0.298704   -0.581401
     12          1           0        0.947269   -1.134963    1.355083
     13          1           0        1.667808    0.451448    1.614315
 ---------------------------------------------------------------------

 SCF Done:  E(UHF) =  -718.967210543     A.U. after    2 cycles

 The electronic state is 2-A.
 Alpha  occ. eigenvalues --  -93.56947 -20.61660 -20.56028 -15.65429 -11.39781
 Alpha  occ. eigenvalues --  -11.31758 -11.29645  -8.86644  -6.21999  -6.20320
 Alpha  occ. eigenvalues --   -6.19893  -1.42051  -1.33194  -1.20293  -1.06849
 Alpha  occ. eigenvalues --   -0.96696  -0.86143  -0.81971  -0.74847  -0.70543
 Alpha  occ. eigenvalues --   -0.68673  -0.64831  -0.64395  -0.60941  -0.59006
 Alpha  occ. eigenvalues --   -0.56961  -0.50317  -0.49275  -0.47497  -0.44541
 Alpha  occ. eigenvalues --   -0.43496  -0.38950
 Alpha virt. eigenvalues --    0.02104   0.03824   0.04431   0.05322   0.07143
 Alpha virt. eigenvalues --    0.07174   0.08415   0.10498   0.11207   0.12489
 Alpha virt. eigenvalues --    0.13161   0.13994   0.14470   0.14850   0.14922

  Beta  occ. eigenvalues --  -93.56043 -20.61661 -20.56019 -15.65428 -11.39785
  Beta  occ. eigenvalues --  -11.31753 -11.29773  -8.85637  -6.19782  -6.19342
  Beta  occ. eigenvalues --   -6.18034  -1.42047  -1.33178  -1.20230  -1.05112
  Beta  occ. eigenvalues --   -0.94183  -0.83329  -0.80028  -0.74086  -0.70458
  Beta  occ. eigenvalues --   -0.68533  -0.64403  -0.63936  -0.60254  -0.58748
  Beta  occ. eigenvalues --   -0.56148  -0.49597  -0.48939  -0.47099  -0.43583
  Beta  occ. eigenvalues --   -0.36763
  Beta virt. eigenvalues --    0.00537   0.02155   0.03899   0.04606   0.05372
  Beta virt. eigenvalues --    0.07170   0.07270   0.08520   0.10540   0.11739
  Beta virt. eigenvalues --    0.12633   0.13382   0.14140   0.14750   0.14961

 Mulliken charges and spin densities:
               1          2
     1  C    0.224221  -0.118580
     2  C    0.025781  -0.026139
     3  N   -0.528717  -0.001959
     4  C    0.565252   0.007002
     5  H    0.055864   0.001687
     6  O   -0.457614   0.006197
     7  O   -0.474871   0.000074
     8  H    0.268563   0.000131
     9  H    0.106012  -0.009789
    10  H    0.046607  -0.000863
    11  S    0.217658   1.106057
    12  H   -0.030253   0.014036
    13  H   -0.018504   0.022146
 Sum of Mulliken charges =  -0.00000   1.00000

 Dipole moment (field-independent basis, Debye):
    X=              2.1564    Y=              4.9330    Z=              2.2597  Tot=              5.8387
                          Isotropic Fermi Contact Couplings
        Atom                 a.u.       MegaHertz       Gauss      10(-4) cm-1
     1  C(13)             -0.02753     -30.94430     -11.04170     -10.32191
     2  C(13)              0.00093       1.04729       0.37370       0.34934
     3  N(14)             -0.00097      -0.31443      -0.11219      -0.10488
     4  C(13)             -0.00056      -0.62751      -0.22391      -0.20931
     5  H(1)              -0.00059      -2.64012      -0.94206      -0.88065
     6  O(17)              0.00078      -0.47563      -0.16972      -0.15865
     7  O(17)             -0.00022       0.13425       0.04790       0.04478
     8  H(1)               0.00001       0.06026       0.02150       0.02010

 Normal termination of Gaussian 16 at Tue Apr  8 23:12:36 2025.
