 Gaussian 16, Revision C.01,

 ----------------------------------------------------------------------
 #t hf aug-cc-pvdz symm=none int=(grid=ultrafine) guess=(read,tcheck) s
 table=(opt,rrhf)
 ----------------------------------------------------------------------
 -----
 title
 -----
 Symbolic Z-matrix:
 Charge =  0 Multiplicity = 1

 SCF Done:  E(RHF) =  -749.496566013     A.U. after   14 cycles
 Normal termination of Gaussian 16 at Tue Apr  8 22:39:05 2025.
 Gaussian 16:  ES64L-G16RevC.01  3-Jul-2019

 ----------------------------------------------------------------------
 #t hf aug-cc-pvdz iop(5/13=1,5/36=2,99/5=2) pseudo=read geom=check gue
 ss=(read,tcheck) scf=(maxcycle=1)
 ----------------------------------------------------------------------
 -----
 title
 -----
 Structure from the checkpoint file:  "BDE49_expt_1267_mol1.chk"
 Charge =  0 Multiplicity = 1

                         Standard orientation:
 ---------------------------------------------------------------------
 Center     Atomic      Atomic             Coordinates (Angstroms)
 Number     Number       Type             X           Y           Z
 ---------------------------------------------------------------------
      1          6           0        0.000003    0.000006    0.395571
      2          7           0        1.443979   -0.172035   -0.137167
      3          7           0       -0.870945   -1.164476   -0.137249
      4          7           0       -0.572939    1.336518   -0.137278
      5          9           0       -0.000049    0.000033    1.702106
      6          8           0       -1.252824    1.267212   -1.133637
      7          8           0       -1.864167   -1.375551    0.516627
      8          8           0        1.723753    0.450889   -1.133898
      9          8           0       -0.471190   -1.718345   -1.133844
     10          8           0        2.123410   -0.926471    0.516896
     11          8           0       -0.259012    2.302218    0.516540
 ---------------------------------------------------------------------

 SCF Done:  E(RHF) =  -749.730690970     A.U. after    2 cycles

 The electronic state is 1-A.
 Alpha  occ. eigenvalues --  -26.27182 -20.70138 -20.70138 -20.70137 -20.70030
 Alpha  occ. eigenvalues --  -20.70030 -20.70030 -16.00534 -16.00534 -16.00531
 Alpha  occ. eigenvalues --  -11.59445  -1.82883  -1.64969  -1.63162  -1.63162
 Alpha  occ. eigenvalues --   -1.46121  -1.46032  -1.46032  -1.22656  -1.04293
 Alpha  occ. eigenvalues --   -1.04292  -0.96817  -0.90363  -0.90363  -0.89014
 Alpha  occ. eigenvalues --   -0.83212  -0.83211  -0.81134  -0.81103  -0.81102
 Alpha  occ. eigenvalues --   -0.79551  -0.79551  -0.78655  -0.63026  -0.60418
 Alpha  occ. eigenvalues --   -0.60149  -0.60148  -0.56552  -0.56551  -0.55237
 Alpha  occ. eigenvalues --   -0.53900  -0.53900
 Alpha virt. eigenvalues --    0.00070   0.00071   0.00818   0.05769   0.08283
 Alpha virt. eigenvalues --    0.08284   0.08418   0.12989   0.12989   0.13864
 Alpha virt. eigenvalues --    0.13865   0.14166   0.18725   0.20558   0.20744

 Mulliken charges:
               1
     1  C    2.188969
     2  N    0.293812
     3  N    0.293824
     4  N    0.293807
     5  F   -0.074860
     6  O   -0.495801
     7  O   -0.502710
     8  O   -0.495841
     9  O   -0.495814
    10  O   -0.502674
    11  O   -0.502712
 Sum of Mulliken charges =  -0.00000

 Dipole moment (field-independent basis, Debye):
    X=              0.0001    Y=              0.0000    Z=              1.2180  Tot=              1.2180

 Test job not archived.
 1\1\GINC-SE038\SP\RHF\Aug-CC-pVDZ\C1F1N3O6\OHZDE\08-Apr-2025\0\\#t hf
 aug-cc-pvdz iop(5/13=1,5/36=2,99/5=2) pseudo=read geom=check guess=(re
 ad,tcheck) scf=(maxcycle=1)\\title\\0,1\C,0,-0.000003,-0.000006,0.3955
 71\N,0,-1.444104,0.170982,-0.137167\N,0,0.870095,1.165111,-0.137249\N,
 0,0.573914,-1.3361,-0.137278\F,0,0.000049,-0.000033,1.702106\O,0,1.253
 748,-1.266298,-1.133637\O,0,1.863163,1.376911,0.516627\O,0,-1.723424,-
 0.452146,-1.133898\O,0,0.469936,1.718688,-1.133844\O,0,-2.124085,0.924
 922,0.516896\O,0,0.260692,-2.302028,0.51654\\Version=ES64L-G16RevC.01\

 Normal termination of Gaussian 16 at Tue Apr  8 22:39:13 2025.
