 Gaussian 16, Revision C.01,

 ----------------------------------------------------------------------
 #t hf aug-cc-pvdz symm=none int=(grid=ultrafine) guess=(read,tcheck) s
 table=(opt,rrhf)
 ----------------------------------------------------------------------
 -----
 title
 -----
 Symbolic Z-matrix:
 Charge =  0 Multiplicity = 1

 SCF Done:  E(RHF) =  -1459.56042339     A.U. after   18 cycles
 Normal termination of Gaussian 16 at Tue Apr  8 22:53:54 2025.
 Gaussian 16:  ES64L-G16RevC.01  3-Jul-2019

 ----------------------------------------------------------------------
 #t hf aug-cc-pvdz iop(5/13=1,5/36=2,99/5=2) pseudo=read geom=check gue
 ss=(read,tcheck) scf=(maxcycle=1)
 ----------------------------------------------------------------------
 -----
 title
 -----
 Structure from the checkpoint file:  "BDE49_expt_1753_mol1.chk"
 Charge =  0 Multiplicity = 1

                         Standard orientation:
 ---------------------------------------------------------------------
 Center     Atomic      Atomic             Coordinates (Angstroms)
 Number     Number       Type             X           Y           Z
 ---------------------------------------------------------------------
      1          6           0        2.835828    0.105949   -0.064718
      2          6           0        2.237864   -0.825326   -0.909924
      3          6           0        0.889537   -1.124362   -0.744407
      4          6           0        2.116664    0.739494    0.947803
      5          6           0        0.771052    0.438082    1.116429
      6          6           0        0.168286   -0.486120    0.262687
      7          1           0        2.820724   -1.312477   -1.680276
      8          1           0        0.405574   -1.857791   -1.375805
      9          1           0        2.607140    1.452972    1.596513
     10          1           0        0.193558    0.910135    1.900249
     11         16           0       -1.553096   -0.879827    0.484885
     12          8           0       -1.856639   -2.063617   -0.275383
     13          8           0       -1.881972   -0.728672    1.871184
     14          7           0       -2.372889    0.387628   -0.357536
     15          7           0       -2.351811    1.596040    0.273092
     16          8           0       -2.859390    2.487307   -0.365990
     17          6           0       -2.894233    0.246253   -1.719522
     18          1           0       -2.861149   -0.805300   -1.986908
     19          1           0       -2.300177    0.845637   -2.413435
     20          1           0       -3.922954    0.607416   -1.738551
     21         17           0        4.530220    0.483941   -0.272789
 ---------------------------------------------------------------------

 SCF Done:  E(RHF) =  -1459.83851617     A.U. after    2 cycles

 The electronic state is 1-A.
 Alpha  occ. eigenvalues -- -103.69230 -93.84009 -20.64093 -20.59434 -20.59037
 Alpha  occ. eigenvalues --  -15.82698 -15.72681 -11.35185 -11.31276 -11.30250
 Alpha  occ. eigenvalues --  -11.30117 -11.30110 -11.29155 -11.29109 -10.72503
 Alpha  occ. eigenvalues --   -9.10228  -8.38240  -8.37924  -8.37911  -6.44914
 Alpha  occ. eigenvalues --   -6.44775  -6.44615  -1.50319  -1.46543  -1.34859
 Alpha  occ. eigenvalues --   -1.25549  -1.23074  -1.17389  -1.06535  -1.05880
 Alpha  occ. eigenvalues --   -1.02167  -0.95415  -0.88940  -0.87303  -0.81417
 Alpha  occ. eigenvalues --   -0.78379  -0.75226  -0.73093  -0.70430  -0.69992
 Alpha  occ. eigenvalues --   -0.68231  -0.67375  -0.66527  -0.65704  -0.64529
 Alpha  occ. eigenvalues --   -0.60145  -0.59701  -0.58275  -0.57837  -0.55949
 Alpha  occ. eigenvalues --   -0.55609  -0.55184  -0.53094  -0.51573  -0.50226
 Alpha  occ. eigenvalues --   -0.49298  -0.45445  -0.44552  -0.38903  -0.37987
 Alpha virt. eigenvalues --    0.02723   0.03566   0.04021   0.04670   0.05284
 Alpha virt. eigenvalues --    0.05747   0.06233   0.06794   0.07706   0.08408
 Alpha virt. eigenvalues --    0.09265   0.09650   0.10028   0.10777   0.11875

 Mulliken charges:
               1
     1  C   -0.368916
     2  C    0.847375
     3  C    0.441842
     4  C    0.930975
     5  C    0.091194
     6  C    0.177235
     7  H   -0.440547
     8  H   -0.618680
     9  H   -0.437427
    10  H   -0.596839
    11  S    2.824519
    12  O   -0.965379
    13  O   -1.013414
    14  N   -0.517422
    15  N   -0.042313
    16  O   -0.464839
    17  C    0.881815
    18  H   -0.207652
    19  H   -0.066985
    20  H   -0.126536
    21  Cl  -0.328005
 Sum of Mulliken charges =  -0.00000

 Dipole moment (field-independent basis, Debye):
    X=              2.4856    Y=             -0.1721    Z=             -2.7852  Tot=              3.7369

 Test job not archived.
 1\1\GINC-SE332\SP\RHF\Aug-CC-pVDZ\C7H7Cl1N2O3S1\OHZDE\08-Apr-2025\0\\#
 t hf aug-cc-pvdz iop(5/13=1,5/36=2,99/5=2) pseudo=read geom=check gues
 s=(read,tcheck) scf=(maxcycle=1)\\title\\0,1\C,0,2.835828,0.105949,-0.
 064718\C,0,2.237864,-0.825326,-0.909924\C,0,0.889537,-1.124362,-0.7444
 07\C,0,2.116664,0.739494,0.947803\C,0,0.771052,0.438082,1.116429\C,0,0
 .168286,-0.48612,0.262687\H,0,2.820724,-1.312477,-1.680276\H,0,0.40557
 4,-1.857791,-1.375805\H,0,2.60714,1.452972,1.596513\H,0,0.193558,0.910
 135,1.900249\S,0,-1.553096,-0.879827,0.484885\O,0,-1.856639,-2.063617,

 Normal termination of Gaussian 16 at Tue Apr  8 22:54:10 2025.
