 Gaussian 16, Revision C.01,

 ----------------------------------------------------------------------
 #t hf aug-cc-pvdz symm=none int=(grid=ultrafine) guess=(read,tcheck) s
 table=(opt,rrhf)
 ----------------------------------------------------------------------
 -----
 title
 -----
 Symbolic Z-matrix:
 Charge =  0 Multiplicity = 1

 SCF Done:  E(RHF) =  -799.085994171     A.U. after   12 cycles

 1\1\GINC-SE419\Stability\RHF\Aug-CC-pVDZ\H6N4Si2\OHZDE\09-Apr-2025\0\\
 #t hf aug-cc-pvdz symm=none int=(grid=ultrafine) guess=(read,tcheck) s
 table=(opt,rrhf)\\title\\0,1\Si,0,-0.655317,0.987851,-0.000001\Si,0,0.
 655317,-0.987851,0.000003\N,0,2.383642,-0.418816,-0.000006\H,0,0.52545
 1,-1.832019,-1.208684\H,0,0.525459,-1.832009,1.208697\N,0,2.453473,0.8
 25167,-0.000011\H,0,3.456088,1.100879,-0.000015\N,0,-2.383642,0.418816
 ,0.000004\H,0,-0.525457,1.832011,-1.208694\H,0,-0.525453,1.832018,1.20
 8687\N,0,-2.453473,-0.825167,0.000008\H,0,-3.456088,-1.10088,0.000011\

 Normal termination of Gaussian 16 at Wed Apr  9 00:10:39 2025.
 Gaussian 16:  ES64L-G16RevC.01  3-Jul-2019

 ----------------------------------------------------------------------
 #t hf aug-cc-pvdz iop(5/13=1,5/36=2,99/5=2) pseudo=read geom=check gue
 ss=(read,tcheck) scf=(maxcycle=1)
 ----------------------------------------------------------------------
 -----
 title
 -----
 Structure from the checkpoint file:  "BDE49_nonexpt_2394_mol1.chk"
 Charge =  0 Multiplicity = 1

                         Standard orientation:
 ---------------------------------------------------------------------
 Center     Atomic      Atomic             Coordinates (Angstroms)
 Number     Number       Type             X           Y           Z
 ---------------------------------------------------------------------
      1         14           0       -0.655317    0.987851   -0.000001
      2         14           0        0.655317   -0.987851    0.000003
      3          7           0        2.383642   -0.418816   -0.000006
      4          1           0        0.525451   -1.832019   -1.208684
      5          1           0        0.525459   -1.832009    1.208697
      6          7           0        2.453473    0.825167   -0.000011
      7          1           0        3.456088    1.100879   -0.000015
      8          7           0       -2.383642    0.418816    0.000004
      9          1           0       -0.525457    1.832011   -1.208694
     10          1           0       -0.525453    1.832018    1.208687
     11          7           0       -2.453473   -0.825167    0.000008
     12          1           0       -3.456088   -1.100880    0.000011
 ---------------------------------------------------------------------

 SCF Done:  E(RHF) =  -799.193112502     A.U. after    2 cycles

 The electronic state is 1-A.
 Alpha  occ. eigenvalues --  -69.08635 -69.08635 -15.70486 -15.70485 -15.68013
 Alpha  occ. eigenvalues --  -15.68013  -6.83808  -6.83796  -3.94623  -3.94614
 Alpha  occ. eigenvalues --   -3.94518  -3.94516  -3.94508  -3.94437  -1.30268
 Alpha  occ. eigenvalues --   -1.30062  -0.90139  -0.89649  -0.72894  -0.68558
 Alpha  occ. eigenvalues --   -0.65691  -0.63964  -0.57749  -0.56538  -0.54411
 Alpha  occ. eigenvalues --   -0.52825  -0.47300  -0.47189  -0.42090  -0.36672
 Alpha  occ. eigenvalues --   -0.36318
 Alpha virt. eigenvalues --    0.03484   0.04019   0.04189   0.05890   0.06078
 Alpha virt. eigenvalues --    0.06966   0.07317   0.07858   0.09175   0.09598
 Alpha virt. eigenvalues --    0.09688   0.10184   0.10451   0.10554   0.13073

 Mulliken charges:
               1
     1  Si   0.571291
     2  Si   0.571290
     3  N   -0.747784
     4  H    0.041894
     5  H    0.041893
     6  N    0.012353
     7  H    0.080353
     8  N   -0.747783
     9  H    0.041894
    10  H    0.041893
    11  N    0.012353
    12  H    0.080353
 Sum of Mulliken charges =  -0.00000

 Dipole moment (field-independent basis, Debye):
    X=              0.0000    Y=             -0.0000    Z=              0.0000  Tot=              0.0000

 Test job not archived.
 1\1\GINC-SE419\SP\RHF\Aug-CC-pVDZ\H6N4Si2\OHZDE\09-Apr-2025\0\\#t hf a
 ug-cc-pvdz iop(5/13=1,5/36=2,99/5=2) pseudo=read geom=check guess=(rea
 d,tcheck) scf=(maxcycle=1)\\title\\0,1\Si,0,-0.655317,0.987851,-0.0000
 01\Si,0,0.655317,-0.987851,0.000003\N,0,2.383642,-0.418816,-0.000006\H
 ,0,0.525451,-1.832019,-1.208684\H,0,0.525459,-1.832009,1.208697\N,0,2.
 453473,0.825167,-0.000011\H,0,3.456088,1.100879,-0.000015\N,0,-2.38364
 2,0.418816,0.000004\H,0,-0.525457,1.832011,-1.208694\H,0,-0.525453,1.8
 32018,1.208687\N,0,-2.453473,-0.825167,0.000008\H,0,-3.456088,-1.10088

 Normal termination of Gaussian 16 at Wed Apr  9 00:10:46 2025.
