 Gaussian 16, Revision C.01,

 ----------------------------------------------------------------------
 #t hf aug-cc-pvdz symm=none int=(grid=ultrafine) guess=(read,tcheck) s
 table=(opt,rrhf)
 ----------------------------------------------------------------------
 -----
 title
 -----
 Symbolic Z-matrix:
 Charge =  0 Multiplicity = 1

 SCF Done:  E(RHF) =  -1982.95650457     A.U. after   13 cycles
 Normal termination of Gaussian 16 at Tue Apr  8 23:27:14 2025.
 Gaussian 16:  ES64L-G16RevC.01  3-Jul-2019

 ----------------------------------------------------------------------
 #t hf aug-cc-pvdz iop(5/13=1,5/36=2,99/5=2) pseudo=read geom=check gue
 ss=(read,tcheck) scf=(maxcycle=1)
 ----------------------------------------------------------------------
 -----
 title
 -----
 Structure from the checkpoint file:  "BDE49_nonexpt_1330_mol1.chk"
 Charge =  0 Multiplicity = 1

                         Standard orientation:
 ---------------------------------------------------------------------
 Center     Atomic      Atomic             Coordinates (Angstroms)
 Number     Number       Type             X           Y           Z
 ---------------------------------------------------------------------
      1          6           0       -0.593601   -0.004744    0.007332
      2         15           0        1.274164   -0.139018    0.136318
      3         17           0       -1.191116   -1.414697   -0.929387
      4         17           0       -1.058080    1.516265   -0.847745
      5         17           0       -1.294305   -0.011016    1.644363
      6          8           0        1.689406   -1.316443    0.883105
      7          8           0        1.744567   -0.013030   -1.385737
      8          1           0        1.842704   -0.866652   -1.825771
      9          8           0        1.713945    1.258995    0.736245
     10          1           0        1.662613    2.004826    0.125181
 ---------------------------------------------------------------------

 SCF Done:  E(RHF) =  -1983.16281668     A.U. after    2 cycles

 The electronic state is 1-A.
 Alpha  occ. eigenvalues -- -103.70805-103.70647-103.70255 -81.45686 -20.64775
 Alpha  occ. eigenvalues --  -20.64481 -20.55158 -11.46108 -10.74076 -10.73916
 Alpha  occ. eigenvalues --  -10.73532  -8.39791  -8.39635  -8.39465  -8.39452
 Alpha  occ. eigenvalues --   -8.39302  -8.39289  -8.39256  -8.38907  -8.38901
 Alpha  occ. eigenvalues --   -7.93953  -5.08634  -5.08549  -5.08175  -1.41515
 Alpha  occ. eigenvalues --   -1.37851  -1.29180  -1.27183  -1.17319  -1.17168
 Alpha  occ. eigenvalues --   -0.92572  -0.85023  -0.81211  -0.72761  -0.69661
 Alpha  occ. eigenvalues --   -0.66292  -0.65700  -0.64343  -0.61589  -0.59870
 Alpha  occ. eigenvalues --   -0.59222  -0.53681  -0.53535  -0.52373  -0.51622
 Alpha  occ. eigenvalues --   -0.49042  -0.48823  -0.47774  -0.46594
 Alpha virt. eigenvalues --    0.02954   0.04573   0.06011   0.07850   0.08381
 Alpha virt. eigenvalues --    0.08506   0.09745   0.10923   0.11493   0.12748
 Alpha virt. eigenvalues --    0.13060   0.13711   0.15286   0.16821   0.17092

 Mulliken charges:
               1
     1  C   -0.611519
     2  P    2.542638
     3  Cl  -0.001120
     4  Cl  -0.046509
     5  Cl   0.014342
     6  O   -0.848632
     7  O   -0.701981
     8  H    0.159099
     9  O   -0.660668
    10  H    0.154348
 Sum of Mulliken charges =   0.00000

 Dipole moment (field-independent basis, Debye):
    X=             -0.2470    Y=              2.0679    Z=             -3.1098  Tot=              3.7427

 Test job not archived.
 1\1\GINC-SE222\SP\RHF\Aug-CC-pVDZ\C1H2Cl3O3P1\OHZDE\08-Apr-2025\0\\#t
 hf aug-cc-pvdz iop(5/13=1,5/36=2,99/5=2) pseudo=read geom=check guess=
 (read,tcheck) scf=(maxcycle=1)\\title\\0,1\C,0,0.593601,0.004744,0.007
 332\P,0,-1.274164,0.139018,0.136318\Cl,0,1.191116,1.414697,-0.929387\C
 l,0,1.05808,-1.516265,-0.847745\Cl,0,1.294305,0.011016,1.644363\O,0,-1
 .689406,1.316443,0.883105\O,0,-1.744567,0.01303,-1.385737\H,0,-1.84270
 4,0.866652,-1.825771\O,0,-1.713945,-1.258995,0.736245\H,0,-1.662613,-2
 .004826,0.125181\\Version=ES64L-G16RevC.01\State=1-A\HF=-1983.1628167\

 Normal termination of Gaussian 16 at Tue Apr  8 23:27:21 2025.
