 Gaussian 16, Revision C.01,

 ----------------------------------------------------------------------
 #t hf aug-cc-pvdz symm=none int=(grid=ultrafine) guess=(read,tcheck) s
 table=(opt,rrhf)
 ----------------------------------------------------------------------
 -----
 title
 -----
 Symbolic Z-matrix:
 Charge =  0 Multiplicity = 1

 SCF Done:  E(RHF) =  -155.075676056     A.U. after   12 cycles
 Normal termination of Gaussian 16 at Wed Apr  9 00:34:45 2025.
 Gaussian 16:  ES64L-G16RevC.01  3-Jul-2019

 ----------------------------------------------------------------------
 #t hf aug-cc-pvdz iop(5/13=1,5/36=2,99/5=2) pseudo=read geom=check gue
 ss=(read,tcheck) scf=(maxcycle=1)
 ----------------------------------------------------------------------
 -----
 title
 -----
 Structure from the checkpoint file:  "BDE49_nonexpt_493_mol1.chk"
 Charge =  0 Multiplicity = 1

                         Standard orientation:
 ---------------------------------------------------------------------
 Center     Atomic      Atomic             Coordinates (Angstroms)
 Number     Number       Type             X           Y           Z
 ---------------------------------------------------------------------
      1          1           0       -1.817334    1.065048    0.000003
      2          1           0       -1.817335   -1.065047    0.000003
      3          5           0       -1.289544    0.000000    0.000002
      4          7           0        0.046304   -0.000001    0.000000
      5          8           0        1.219783    0.000000   -0.000002
 ---------------------------------------------------------------------

 SCF Done:  E(RHF) =  -155.128594559     A.U. after    2 cycles

 The electronic state is 1-A.
 Alpha  occ. eigenvalues --  -20.69330 -15.79368  -7.64041  -1.51987  -1.04549
 Alpha  occ. eigenvalues --   -0.79715  -0.72839  -0.66852  -0.61062  -0.51568
 Alpha  occ. eigenvalues --   -0.39816
 Alpha virt. eigenvalues --    0.04178   0.04567   0.04617   0.05486   0.05962
 Alpha virt. eigenvalues --    0.10347   0.11008   0.14397   0.15053   0.18579
 Alpha virt. eigenvalues --    0.19372   0.19821   0.24541   0.25339   0.26256

 Mulliken charges:
               1
     1  H    0.142052
     2  H    0.142053
     3  B   -0.235412
     4  N    0.223195
     5  O   -0.271888
 Sum of Mulliken charges =  -0.00000

 Dipole moment (field-independent basis, Debye):
    X=             -1.3064    Y=             -0.0000    Z=              0.0000  Tot=              1.3064

 Test job not archived.
 1\1\GINC-SE150\SP\RHF\Aug-CC-pVDZ\B1H2N1O1\OHZDE\09-Apr-2025\0\\#t hf
 aug-cc-pvdz iop(5/13=1,5/36=2,99/5=2) pseudo=read geom=check guess=(re
 ad,tcheck) scf=(maxcycle=1)\\title\\0,1\H,0,1.817334,-1.065048,0.00000
 3\H,0,1.817335,1.065047,0.000003\B,0,1.289544,0.,0.000002\N,0,-0.04630
 4,0.000001,0.\O,0,-1.219783,0.,-0.000002\\Version=ES64L-G16RevC.01\Sta
 te=1-A\HF=-155.1285946\RMSD=3.555e-03\Dipole=0.5139747,0.0000003,0.000
 0007\Quadrupole=-0.9170632,0.8392779,0.0777853,-0.0000012,-0.0000018,0
 .\PG=C01 [X(B1H2N1O1)]\\@

 Normal termination of Gaussian 16 at Wed Apr  9 00:34:47 2025.
