 Gaussian 16, Revision C.01,

 ----------------------------------------------------------------------
 #t hf aug-cc-pvdz symm=none int=(grid=ultrafine) guess=(read,tcheck) s
 table=(opt,rrhf)
 ----------------------------------------------------------------------
 -----
 title
 -----
 Symbolic Z-matrix:
 Charge =  0 Multiplicity = 1

 SCF Done:  E(RHF) =  -1662.50688726     A.U. after   15 cycles
 Normal termination of Gaussian 16 at Tue Apr  8 22:50:43 2025.
 Gaussian 16:  ES64L-G16RevC.01  3-Jul-2019

 ----------------------------------------------------------------------
 #t hf aug-cc-pvdz iop(5/13=1,5/36=2,99/5=2) pseudo=read geom=check gue
 ss=(read,tcheck) scf=(maxcycle=1)
 ----------------------------------------------------------------------
 -----
 title
 -----
 Structure from the checkpoint file:  "BDE49_expt_1736_mol1.chk"
 Charge =  0 Multiplicity = 1

                         Standard orientation:
 ---------------------------------------------------------------------
 Center     Atomic      Atomic             Coordinates (Angstroms)
 Number     Number       Type             X           Y           Z
 ---------------------------------------------------------------------
      1          6           0        2.703686   -1.156085   -0.000000
      2          6           0        1.317045   -1.187931   -0.000000
      3          6           0        3.352095    0.077651   -0.000001
      4          6           0        2.573906    1.228661   -0.000002
      5          7           0        1.236862    1.208905   -0.000002
      6          6           0        0.630943    0.031477   -0.000002
      7          1           0        3.269998   -2.080055    0.000001
      8          1           0        0.780828   -2.127538    0.000001
      9          6           0       -0.903230    0.028797   -0.000000
     10         17           0       -1.600737    1.663152   -0.000006
     11         17           0       -1.500252   -0.853586    1.467374
     12         17           0       -1.500256   -0.853597   -1.467365
     13          1           0        4.433046    0.145809   -0.000001
     14          1           0        3.032598    2.212568   -0.000003
 ---------------------------------------------------------------------

 SCF Done:  E(RHF) =  -1662.64127094     A.U. after    2 cycles

 The electronic state is 1-A.
 Alpha  occ. eigenvalues -- -103.68443-103.68443-103.67948 -15.65365 -11.45230
 Alpha  occ. eigenvalues --  -11.32825 -11.30356 -11.28660 -11.27416 -11.27118
 Alpha  occ. eigenvalues --  -10.71714 -10.71702 -10.71238  -8.37424  -8.37420
 Alpha  occ. eigenvalues --   -8.37099  -8.37097  -8.37092  -8.37091  -8.36963
 Alpha  occ. eigenvalues --   -8.36618  -8.36618  -1.27798  -1.23942  -1.15009
 Alpha  occ. eigenvalues --   -1.14938  -1.09755  -1.05975  -0.92339  -0.88248
 Alpha  occ. eigenvalues --   -0.82347  -0.73287  -0.69908  -0.67487  -0.63979
 Alpha  occ. eigenvalues --   -0.63469  -0.61992  -0.59523  -0.56298  -0.55693
 Alpha  occ. eigenvalues --   -0.50958  -0.50641  -0.48203  -0.46868  -0.46865
 Alpha  occ. eigenvalues --   -0.45615  -0.43243  -0.40477  -0.36580
 Alpha virt. eigenvalues --    0.02702   0.03808   0.04873   0.06250   0.06727
 Alpha virt. eigenvalues --    0.07707   0.07865   0.08533   0.09507   0.10191
 Alpha virt. eigenvalues --    0.10908   0.10923   0.12270   0.12693   0.13343

 Mulliken charges:
               1
     1  C   -0.365163
     2  C    1.006197
     3  C    0.918006
     4  C    0.513964
     5  N   -0.316468
     6  C    0.783247
     7  H   -0.395383
     8  H   -0.553216
     9  C   -0.853727
    10  Cl  -0.018834
    11  Cl   0.031275
    12  Cl   0.031275
    13  H   -0.406114
    14  H   -0.375060
 Sum of Mulliken charges =  -0.00000

 Dipole moment (field-independent basis, Debye):
    X=              3.6893    Y=             -1.4613    Z=             -0.0000  Tot=              3.9682

 Test job not archived.
 1\1\GINC-SE132\SP\RHF\Aug-CC-pVDZ\C6H4Cl3N1\OHZDE\08-Apr-2025\0\\#t hf
  aug-cc-pvdz iop(5/13=1,5/36=2,99/5=2) pseudo=read geom=check guess=(r
 ead,tcheck) scf=(maxcycle=1)\\title\\0,1\C,0,2.703686,-1.156085,0.\C,0
 ,1.317045,-1.187931,0.\C,0,3.352095,0.077651,-0.000001\C,0,2.573906,1.
 228661,-0.000002\N,0,1.236862,1.208905,-0.000002\C,0,0.630943,0.031477
 ,-0.000002\H,0,3.269998,-2.080055,0.000001\H,0,0.780828,-2.127538,0.00
 0001\C,0,-0.90323,0.028797,0.\Cl,0,-1.600737,1.663152,-0.000006\Cl,0,-
 1.500252,-0.853586,1.467374\Cl,0,-1.500256,-0.853597,-1.467365\H,0,4.4

 Normal termination of Gaussian 16 at Tue Apr  8 22:50:52 2025.
