 Gaussian 16, Revision C.01,

 ----------------------------------------------------------------------
 #t hf aug-cc-pvdz symm=none int=(grid=ultrafine) guess=(read,tcheck) s
 table=(opt,rrhf)
 ----------------------------------------------------------------------
 -----
 title
 -----
 Symbolic Z-matrix:
 Charge =  0 Multiplicity = 1

 SCF Done:  E(RHF) =  -601.171446175     A.U. after   15 cycles
 Normal termination of Gaussian 16 at Wed Apr  9 00:47:05 2025.
 Gaussian 16:  ES64L-G16RevC.01  3-Jul-2019

 ----------------------------------------------------------------------
 #t hf aug-cc-pvdz iop(5/13=1,5/36=2,99/5=2) pseudo=read geom=check gue
 ss=(read,tcheck) scf=(maxcycle=1)
 ----------------------------------------------------------------------
 -----
 title
 -----
 Structure from the checkpoint file:  "BDE49_nonexpt_852_mol1.chk"
 Charge =  0 Multiplicity = 1

                         Standard orientation:
 ---------------------------------------------------------------------
 Center     Atomic      Atomic             Coordinates (Angstroms)
 Number     Number       Type             X           Y           Z
 ---------------------------------------------------------------------
      1          6           0        0.213658   -0.437174    0.258814
      2          5           0       -2.890807    0.326539   -0.267675
      3          7           0       -2.423462    1.471149   -0.900165
      4          1           0       -1.440172    1.684227   -0.995635
      5          1           0       -3.028992    2.166307   -1.312700
      6          6           0        1.054990   -1.082199   -0.661917
      7          6           0        2.357603   -0.639617   -0.886580
      8          6           0        2.849942    0.463297   -0.192589
      9          6           0        2.033753    1.120180    0.726680
     10          6           0        0.732259    0.673896    0.946808
     11          1           0        0.116034    1.194419    1.674618
     12          1           0        0.690845   -1.947344   -1.207011
     13          1           0        2.989076   -1.158262   -1.599936
     14          1           0        3.864087    0.807059   -0.363792
     15          1           0        2.412573    1.975981    1.275161
     16         14           0       -1.573449   -0.993681    0.524283
     17          1           0       -1.814495   -1.153783    1.984770
     18          1           0       -1.721977   -2.339547   -0.092630
     19          1           0       -4.073659    0.161449   -0.210573
 ---------------------------------------------------------------------

 SCF Done:  E(RHF) =  -601.286294779     A.U. after    2 cycles

 The electronic state is 1-A.
 Alpha  occ. eigenvalues --  -69.03936 -15.62746 -11.24902 -11.24870 -11.24767
 Alpha  occ. eigenvalues --  -11.24668 -11.24572 -11.23274  -7.60166  -6.79438
 Alpha  occ. eigenvalues --   -3.90200  -3.90182  -3.90093  -1.14024  -1.12852
 Alpha  occ. eigenvalues --   -1.00996  -1.00679  -0.82631  -0.82385  -0.73316
 Alpha  occ. eigenvalues --   -0.70683  -0.68635  -0.65694  -0.62846  -0.62687
 Alpha  occ. eigenvalues --   -0.59144  -0.55523  -0.52726  -0.50818  -0.49624
 Alpha  occ. eigenvalues --   -0.46746  -0.44594  -0.43498  -0.39895  -0.34185
 Alpha  occ. eigenvalues --   -0.33416
 Alpha virt. eigenvalues --    0.03021   0.03643   0.04087   0.04531   0.05129
 Alpha virt. eigenvalues --    0.05632   0.06393   0.07141   0.07277   0.07465
 Alpha virt. eigenvalues --    0.08620   0.09107   0.09701   0.09984   0.10306

 Mulliken charges:
               1
     1  C   -0.401478
     2  B    0.110691
     3  N   -0.162311
     4  H    0.078532
     5  H   -0.072786
     6  C    0.492891
     7  C    0.618695
     8  C    0.647992
     9  C    0.526454
    10  C    0.682315
    11  H   -0.605449
    12  H   -0.630226
    13  H   -0.447364
    14  H   -0.441583
    15  H   -0.448957
    16  Si  -0.362841
    17  H    0.127638
    18  H    0.031093
    19  H    0.256692
 Sum of Mulliken charges =  -0.00000

 Dipole moment (field-independent basis, Debye):
    X=              0.6172    Y=              1.9016    Z=             -1.1075  Tot=              2.2855

 Test job not archived.
 1\1\GINC-SE419\SP\RHF\Aug-CC-pVDZ\C6H10B1N1Si1\OHZDE\09-Apr-2025\0\\#t
  hf aug-cc-pvdz iop(5/13=1,5/36=2,99/5=2) pseudo=read geom=check guess
 =(read,tcheck) scf=(maxcycle=1)\\title\\0,1\C,0,0.213658,-0.437174,0.2
 58814\B,0,-2.890807,0.326539,-0.267675\N,0,-2.423462,1.471149,-0.90016
 5\H,0,-1.440172,1.684227,-0.995635\H,0,-3.028992,2.166307,-1.3127\C,0,
 1.05499,-1.082199,-0.661917\C,0,2.357603,-0.639617,-0.88658\C,0,2.8499
 42,0.463297,-0.192589\C,0,2.033753,1.12018,0.72668\C,0,0.732259,0.6738
 96,0.946808\H,0,0.116034,1.194419,1.674618\H,0,0.690845,-1.947344,-1.2

 Normal termination of Gaussian 16 at Wed Apr  9 00:47:15 2025.
