 Gaussian 16, Revision C.01,

 ----------------------------------------------------------------------
 #t hf aug-cc-pvdz symm=none int=(grid=ultrafine) guess=(read,tcheck) s
 table=(opt,rrhf)
 ----------------------------------------------------------------------
 -----
 title
 -----
 Symbolic Z-matrix:
 Charge =  0 Multiplicity = 1

 SCF Done:  E(RHF) =  -785.840252206     A.U. after   14 cycles
 Normal termination of Gaussian 16 at Tue Apr  8 23:24:44 2025.
 Gaussian 16:  ES64L-G16RevC.01  3-Jul-2019

 ----------------------------------------------------------------------
 #t hf aug-cc-pvdz iop(5/13=1,5/36=2,99/5=2) pseudo=read geom=check gue
 ss=(read,tcheck) scf=(maxcycle=1)
 ----------------------------------------------------------------------
 -----
 title
 -----
 Structure from the checkpoint file:  "BDE49_nonexpt_1211_mol1.chk"
 Charge =  0 Multiplicity = 1

                         Standard orientation:
 ---------------------------------------------------------------------
 Center     Atomic      Atomic             Coordinates (Angstroms)
 Number     Number       Type             X           Y           Z
 ---------------------------------------------------------------------
      1          6           0       -1.798492   -0.579836    0.255063
      2          8           0       -0.938949   -0.065937   -0.800209
      3         16           0        0.627120   -0.698813   -0.860233
      4          6           0        1.564753    0.619391    0.019701
      5          6           0       -2.274525   -1.987104   -0.084592
      6          6           0        1.534393    1.927995   -0.768332
      7          1           0       -1.424937   -2.662332   -0.207472
      8          1           0       -2.849612   -1.979143   -1.014419
      9          1           0        0.509096    2.210285   -1.011538
     10          1           0        2.088826    1.826989   -1.705244
     11          6           0       -2.948603    0.418619    0.384124
     12          1           0       -1.221381   -0.600257    1.188896
     13          6           0       -2.523020    1.810368    0.855511
     14          1           0       -3.678977   -0.004515    1.082860
     15          1           0       -3.448195    0.487118   -0.588442
     16          1           0       -2.038465    1.765197    1.836224
     17          1           0       -3.387016    2.474136    0.943762
     18          1           0       -1.821223    2.262336    0.152731
     19          6           0        2.995640    0.099597    0.248425
     20          1           0        1.074619    0.756098    0.989246
     21          6           0        3.129783   -0.990445    1.316466
     22          1           0        3.609247    0.962164    0.532267
     23          1           0        3.406998   -0.253700   -0.705548
     24          1           0        2.770329   -0.633297    2.286391
     25          1           0        4.175108   -1.285921    1.438216
     26          1           0        2.555985   -1.882617    1.058322
     27          1           0       -2.908227   -2.382619    0.714382
     28          1           0        1.985936    2.737066   -0.183429
 ---------------------------------------------------------------------

 SCF Done:  E(RHF) =  -785.986859429     A.U. after    2 cycles

 The electronic state is 1-A.
 Alpha  occ. eigenvalues --  -93.56430 -20.58730 -11.29238 -11.27075 -11.24298
 Alpha  occ. eigenvalues --  -11.23089 -11.22788 -11.22694 -11.22331 -11.22242
 Alpha  occ. eigenvalues --   -8.85557  -6.19823  -6.19445  -6.19127  -1.32004
 Alpha  occ. eigenvalues --   -1.09069  -1.05657  -0.99141  -0.98005  -0.91358
 Alpha  occ. eigenvalues --   -0.87032  -0.85020  -0.79528  -0.76254  -0.67165
 Alpha  occ. eigenvalues --   -0.64604  -0.61626  -0.61325  -0.59705  -0.59545
 Alpha  occ. eigenvalues --   -0.58174  -0.57261  -0.55729  -0.54140  -0.52632
 Alpha  occ. eigenvalues --   -0.52041  -0.50964  -0.50039  -0.49049  -0.48890
 Alpha  occ. eigenvalues --   -0.47560  -0.47021  -0.45656  -0.40514  -0.33951
 Alpha virt. eigenvalues --    0.03270   0.03920   0.04309   0.04639   0.05248
 Alpha virt. eigenvalues --    0.05805   0.05896   0.06444   0.06694   0.07498
 Alpha virt. eigenvalues --    0.07868   0.08052   0.08599   0.09320   0.09573

 Mulliken charges:
               1
     1  C   -0.271700
     2  O   -0.977122
     3  S    0.637315
     4  C   -0.898692
     5  C    0.596120
     6  C    0.602151
     7  H   -0.069493
     8  H    0.036445
     9  H   -0.166953
    10  H   -0.001257
    11  C    0.316463
    12  H   -0.239093
    13  C    0.635816
    14  H   -0.093487
    15  H   -0.095430
    16  H   -0.108602
    17  H   -0.051562
    18  H   -0.171131
    19  C    0.688591
    20  H   -0.272045
    21  C    0.446616
    22  H   -0.094768
    23  H   -0.127602
    24  H   -0.071977
    25  H   -0.077290
    26  H   -0.087991
    27  H   -0.009760
    28  H   -0.073561
 Sum of Mulliken charges =  -0.00000

 Dipole moment (field-independent basis, Debye):
    X=              0.3630    Y=              0.3444    Z=              1.9864  Tot=              2.0485

 Test job not archived.
 1\1\GINC-SE070\SP\RHF\Aug-CC-pVDZ\C8H18O1S1\OHZDE\08-Apr-2025\0\\#t hf
  aug-cc-pvdz iop(5/13=1,5/36=2,99/5=2) pseudo=read geom=check guess=(r
 ead,tcheck) scf=(maxcycle=1)\\title\\0,1\C,0,-1.798492,-0.579836,0.255
 063\O,0,-0.938949,-0.065937,-0.800209\S,0,0.62712,-0.698813,-0.860233\
 C,0,1.564753,0.619391,0.019701\C,0,-2.274525,-1.987104,-0.084592\C,0,1
 .534393,1.927995,-0.768332\H,0,-1.424937,-2.662332,-0.207472\H,0,-2.84
 9612,-1.979143,-1.014419\H,0,0.509096,2.210285,-1.011538\H,0,2.088826,
 1.826989,-1.705244\C,0,-2.948603,0.418619,0.384124\H,0,-1.221381,-0.60

 Normal termination of Gaussian 16 at Tue Apr  8 23:25:06 2025.
