 Gaussian 16, Revision C.01,

 ----------------------------------------------------------------------
 #t hf aug-cc-pvdz symm=none int=(grid=ultrafine) guess=(read,tcheck) s
 table=(opt,rrhf)
 ----------------------------------------------------------------------
 -----
 title
 -----
 Symbolic Z-matrix:
 Charge =  0 Multiplicity = 1

 SCF Done:  E(RHF) =  -706.617621184     A.U. after   14 cycles
 Normal termination of Gaussian 16 at Tue Apr  8 23:04:56 2025.
 Gaussian 16:  ES64L-G16RevC.01  3-Jul-2019

 ----------------------------------------------------------------------
 #t hf aug-cc-pvdz iop(5/13=1,5/36=2,99/5=2) pseudo=read geom=check gue
 ss=(read,tcheck) scf=(maxcycle=1)
 ----------------------------------------------------------------------
 -----
 title
 -----
 Structure from the checkpoint file:  "BDE49_expt_388_mol1.chk"
 Charge =  0 Multiplicity = 1

                         Standard orientation:
 ---------------------------------------------------------------------
 Center     Atomic      Atomic             Coordinates (Angstroms)
 Number     Number       Type             X           Y           Z
 ---------------------------------------------------------------------
      1          8           0       -0.509135    1.293689   -0.503477
      2          6           0       -1.558623    1.252959    0.456886
      3          6           0       -2.347159   -0.027188    0.198620
      4          1           0       -2.157302    2.152017    0.300460
      5          1           0       -1.163072    1.259952    1.480277
      6         16           0       -1.048171   -1.277939   -0.123899
      7          1           0       -2.998317    0.073648   -0.670494
      8          1           0       -2.933031   -0.333595    1.065833
      9          6           0        0.193732    0.065623   -0.562088
     10          6           0        1.438703    0.033071    0.338430
     11          1           0        0.487665   -0.070291   -1.606066
     12          6           0        2.170107   -1.309150    0.215762
     13          6           0        2.368397    1.204835   -0.011296
     14          1           0        1.100185    0.149118    1.374547
     15          1           0        2.752873    1.107932   -1.032424
     16          1           0        3.226804    1.227514    0.665700
     17          1           0        1.844181    2.158646    0.061301
     18          1           0        2.492875   -1.485394   -0.816173
     19          1           0        1.537425   -2.145319    0.522705
     20          1           0        3.062581   -1.317617    0.846659
 ---------------------------------------------------------------------

 SCF Done:  E(RHF) =  -706.732769972     A.U. after    2 cycles

 The electronic state is 1-A.
 Alpha  occ. eigenvalues --  -93.52347 -20.58491 -11.32221 -11.30161 -11.27124
 Alpha  occ. eigenvalues --  -11.24228 -11.22553 -11.22209  -8.82115  -6.16256
 Alpha  occ. eigenvalues --   -6.16092  -6.15726  -1.35409  -1.08065  -1.04961
 Alpha  occ. eigenvalues --   -0.97843  -0.92783  -0.84766  -0.81617  -0.76888
 Alpha  occ. eigenvalues --   -0.69931  -0.67449  -0.63391  -0.61658  -0.58678
 Alpha  occ. eigenvalues --   -0.57047  -0.55557  -0.53944  -0.53570  -0.50405
 Alpha  occ. eigenvalues --   -0.49521  -0.47955  -0.46521  -0.44153  -0.42070
 Alpha  occ. eigenvalues --   -0.33933
 Alpha virt. eigenvalues --    0.03503   0.04166   0.04697   0.04858   0.05893
 Alpha virt. eigenvalues --    0.06004   0.06259   0.07097   0.07648   0.08593
 Alpha virt. eigenvalues --    0.08900   0.09337   0.10613   0.12236   0.13560

 Mulliken charges:
               1
     1  O   -0.767405
     2  C    0.745757
     3  C   -0.119751
     4  H   -0.231731
     5  H   -0.136305
     6  S    0.426608
     7  H   -0.127563
     8  H   -0.062122
     9  C    0.849065
    10  C   -1.347285
    11  H   -0.310706
    12  C    0.803425
    13  C    0.704215
    14  H   -0.172681
    15  H    0.004187
    16  H   -0.054135
    17  H   -0.053900
    18  H   -0.016211
    19  H   -0.081184
    20  H   -0.052280
 Sum of Mulliken charges =  -0.00000

 Dipole moment (field-independent basis, Debye):
    X=             -0.4193    Y=              0.7515    Z=              1.0845  Tot=              1.3845

 Test job not archived.
 1\1\GINC-SE029\SP\RHF\Aug-CC-pVDZ\C6H12O1S1\OHZDE\08-Apr-2025\0\\#t hf
  aug-cc-pvdz iop(5/13=1,5/36=2,99/5=2) pseudo=read geom=check guess=(r
 ead,tcheck) scf=(maxcycle=1)\\title\\0,1\O,0,-0.509135,1.293689,-0.503
 477\C,0,-1.558623,1.252959,0.456886\C,0,-2.347159,-0.027188,0.19862\H,
 0,-2.157302,2.152017,0.30046\H,0,-1.163072,1.259952,1.480277\S,0,-1.04
 8171,-1.277939,-0.123899\H,0,-2.998317,0.073648,-0.670494\H,0,-2.93303
 1,-0.333595,1.065833\C,0,0.193732,0.065623,-0.562088\C,0,1.438703,0.03
 3071,0.33843\H,0,0.487665,-0.070291,-1.606066\C,0,2.170107,-1.30915,0.

 Normal termination of Gaussian 16 at Tue Apr  8 23:05:06 2025.
