 Gaussian 16, Revision C.01,

 ----------------------------------------------------------------------
 #t hf aug-cc-pvdz symm=none int=(grid=ultrafine) guess=(read,tcheck) s
 table=(opt,rrhf)
 ----------------------------------------------------------------------
 -----
 title
 -----
 Symbolic Z-matrix:
 Charge =  0 Multiplicity = 1

 SCF Done:  E(RHF) =  -1049.76144537     A.U. after   14 cycles
 Normal termination of Gaussian 16 at Tue Apr  8 22:48:30 2025.
 Gaussian 16:  ES64L-G16RevC.01  3-Jul-2019

 ----------------------------------------------------------------------
 #t hf aug-cc-pvdz iop(5/13=1,5/36=2,99/5=2) pseudo=read geom=check gue
 ss=(read,tcheck) scf=(maxcycle=1)
 ----------------------------------------------------------------------
 -----
 title
 -----
 Structure from the checkpoint file:  "BDE49_expt_1707_mol1.chk"
 Charge =  0 Multiplicity = 1

                         Standard orientation:
 ---------------------------------------------------------------------
 Center     Atomic      Atomic             Coordinates (Angstroms)
 Number     Number       Type             X           Y           Z
 ---------------------------------------------------------------------
      1          6           0        1.432586   -0.010476    0.087056
      2          6           0        0.034492   -0.000440    0.483609
      3          7           0        2.548145   -0.017003   -0.200066
      4         17           0       -0.792514   -1.482420   -0.105624
      5         17           0       -0.771261    1.493264   -0.105539
      6          1           0       -0.055297    0.000170    1.566249
 ---------------------------------------------------------------------

 SCF Done:  E(RHF) =  -1049.83746567     A.U. after    2 cycles

 The electronic state is 1-A.
 Alpha  occ. eigenvalues -- -103.70866-103.70866 -15.68158 -11.44273 -11.32627
 Alpha  occ. eigenvalues --  -10.74114 -10.74109  -8.39836  -8.39832  -8.39495
 Alpha  occ. eigenvalues --   -8.39494  -8.39486  -8.39485  -1.26717  -1.21836
 Alpha  occ. eigenvalues --   -1.17395  -0.99907  -0.77328  -0.68151  -0.64837
 Alpha  occ. eigenvalues --   -0.58515  -0.52952  -0.52676  -0.50004  -0.49546
 Alpha  occ. eigenvalues --   -0.49090  -0.48474
 Alpha virt. eigenvalues --    0.03094   0.05799   0.06642   0.07847   0.09284
 Alpha virt. eigenvalues --    0.10412   0.11408   0.12901   0.13440   0.13864
 Alpha virt. eigenvalues --    0.14369   0.14835   0.16904   0.17868   0.17897

 Mulliken charges:
               1
     1  C    0.036013
     2  C   -0.178530
     3  N   -0.104554
     4  Cl   0.020125
     5  Cl   0.020096
     6  H    0.206850
 Sum of Mulliken charges =  -0.00000

 Dipole moment (field-independent basis, Debye):
    X=             -1.9925    Y=              0.0125    Z=              1.7467  Tot=              2.6498

 Test job not archived.
 1\1\GINC-SE097\SP\RHF\Aug-CC-pVDZ\C2H1Cl2N1\OHZDE\08-Apr-2025\0\\#t hf
  aug-cc-pvdz iop(5/13=1,5/36=2,99/5=2) pseudo=read geom=check guess=(r
 ead,tcheck) scf=(maxcycle=1)\\title\\0,1\C,0,1.432586,-0.010471,0.0870
 56\C,0,0.034492,-0.00044,0.483609\N,0,2.548145,-0.016993,-0.200066\Cl,
 0,-0.792509,-1.482423,-0.105624\Cl,0,-0.771267,1.493261,-0.105539\H,0,
 -0.055297,0.00017,1.566249\\Version=ES64L-G16RevC.01\State=1-A\HF=-104
 9.8374657\RMSD=5.040e-03\Dipole=-0.783916,0.0049248,0.6872011\Quadrupo
 le=-5.023856,1.708204,3.3156519,0.0441196,1.0718791,-0.0076899\PG=C01

 Normal termination of Gaussian 16 at Tue Apr  8 22:48:33 2025.
