 Gaussian 16, Revision C.01,

 ----------------------------------------------------------------------
 #t hf aug-cc-pvdz symm=none int=(grid=ultrafine) guess=(read,tcheck) s
 table=opt
 ----------------------------------------------------------------------
 -----
 title
 -----
 Symbolic Z-matrix:
 Charge =  0 Multiplicity = 2

 SCF Done:  E(UHF) =  -188.162849537     A.U. after   17 cycles
 Normal termination of Gaussian 16 at Tue Apr  8 22:32:36 2025.
 Gaussian 16:  ES64L-G16RevC.01  3-Jul-2019

 ----------------------------------------------------------------------
 #t hf aug-cc-pvdz iop(5/13=1,5/36=2,99/5=2) pseudo=read geom=check gue
 ss=(read,tcheck) scf=(maxcycle=1)
 ----------------------------------------------------------------------
 -----
 title
 -----
 Structure from the checkpoint file:  "BDE49_expt_1111_mol3.chk"
 Charge =  0 Multiplicity = 2

                         Standard orientation:
 ---------------------------------------------------------------------
 Center     Atomic      Atomic             Coordinates (Angstroms)
 Number     Number       Type             X           Y           Z
 ---------------------------------------------------------------------
      1          6           0        0.000000    0.412256   -0.000000
      2          8           0        1.167476    0.254210    0.000000
      3          8           0       -0.941521   -0.548178   -0.000000
      4          1           0       -1.807641   -0.121792   -0.000000
 ---------------------------------------------------------------------

 SCF Done:  E(UHF) =  -188.225684451     A.U. after    2 cycles

 The electronic state is 2-A'.
 Alpha  occ. eigenvalues --  -20.67152 -20.61943 -11.42425  -1.46760  -1.39287
 Alpha  occ. eigenvalues --   -0.89027  -0.77784  -0.72843  -0.67832  -0.62947
 Alpha  occ. eigenvalues --   -0.54403  -0.43728
 Alpha virt. eigenvalues --    0.02611   0.08401   0.08989   0.09577   0.13239
 Alpha virt. eigenvalues --    0.15321   0.17802   0.19799   0.21740   0.25274
 Alpha virt. eigenvalues --    0.27070   0.28017   0.30223   0.34863   0.36057

  Beta  occ. eigenvalues --  -20.66271 -20.60952 -11.40265  -1.43614  -1.36374
  Beta  occ. eigenvalues --   -0.86141  -0.71164  -0.68130  -0.66718  -0.54812
  Beta  occ. eigenvalues --   -0.53954
  Beta virt. eigenvalues --    0.01592   0.05969   0.08792   0.09436   0.10278
  Beta virt. eigenvalues --    0.16783   0.18026   0.19275   0.20077   0.21798
  Beta virt. eigenvalues --    0.25680   0.27188   0.28222   0.30338   0.35626

 Mulliken charges and spin densities:
               1          2
     1  C    0.393004   0.729871
     2  O   -0.269673   0.152029
     3  O   -0.369798   0.151807
     4  H    0.246467  -0.033707
 Sum of Mulliken charges =  -0.00000   1.00000

 Dipole moment (field-independent basis, Debye):
    X=             -3.5792    Y=              0.8318    Z=             -0.0000  Tot=              3.6746
                          Isotropic Fermi Contact Couplings
        Atom                 a.u.       MegaHertz       Gauss      10(-4) cm-1
     1  C(13)              0.50991     573.23541     204.54465     191.21075
     2  O(17)              0.11303     -68.51676     -24.44848     -22.85473
     3  O(17)              0.09257     -56.11420     -20.02294     -18.71768
     4  H(1)              -0.00237     -10.59517      -3.78062      -3.53417
 --------------------------------------------------------
       Center         ----  Spin Dipole Couplings  ----
                      3XX-RR        3YY-RR        3ZZ-RR
 --------------------------------------------------------

 Normal termination of Gaussian 16 at Tue Apr  8 22:32:38 2025.
