 Gaussian 16, Revision C.01,

 ----------------------------------------------------------------------
 #t hf aug-cc-pvdz symm=none int=(grid=ultrafine) guess=(read,tcheck) s
 table=(opt,rrhf)
 ----------------------------------------------------------------------
 -----
 title
 -----
 Symbolic Z-matrix:
 Charge =  0 Multiplicity = 1

 SCF Done:  E(RHF) =  -993.900951329     A.U. after   13 cycles
 Normal termination of Gaussian 16 at Tue Apr  8 22:57:35 2025.
 Gaussian 16:  ES64L-G16RevC.01  3-Jul-2019

 ----------------------------------------------------------------------
 #t hf aug-cc-pvdz iop(5/13=1,5/36=2,99/5=2) pseudo=read geom=check gue
 ss=(read,tcheck) scf=(maxcycle=1)
 ----------------------------------------------------------------------
 -----
 title
 -----
 Structure from the checkpoint file:  "BDE49_expt_1952_mol1.chk"
 Charge =  0 Multiplicity = 1

                         Standard orientation:
 ---------------------------------------------------------------------
 Center     Atomic      Atomic             Coordinates (Angstroms)
 Number     Number       Type             X           Y           Z
 ---------------------------------------------------------------------
      1         16           0        0.398043    0.871821   -0.411399
      2         16           0       -0.398043   -0.871821   -0.411399
      3          9           0       -0.398043    1.831015    0.731376
      4          9           0        0.398043   -1.831015    0.731376
 ---------------------------------------------------------------------

 SCF Done:  E(RHF) =  -994.023064392     A.U. after    2 cycles

 The electronic state is 1-A.
 Alpha  occ. eigenvalues --  -93.68721 -93.68711 -26.14748 -26.14748  -8.97518
 Alpha  occ. eigenvalues --   -8.97483  -6.31593  -6.31557  -6.31249  -6.31188
 Alpha  occ. eigenvalues --   -6.30830  -6.30830  -1.65612  -1.65462  -1.12363
 Alpha  occ. eigenvalues --   -0.91517  -0.77500  -0.75219  -0.75175  -0.74063
 Alpha  occ. eigenvalues --   -0.73611  -0.65414  -0.52636  -0.45754  -0.44672
 Alpha virt. eigenvalues --    0.03722   0.04507   0.06164   0.08829   0.10655
 Alpha virt. eigenvalues --    0.10960   0.12572   0.14685   0.15206   0.15462
 Alpha virt. eigenvalues --    0.23866   0.23943   0.24723   0.27401   0.31172

 Mulliken charges:
               1
     1  S    0.567891
     2  S    0.567891
     3  F   -0.567891
     4  F   -0.567891
 Sum of Mulliken charges =  -0.00000

 Dipole moment (field-independent basis, Debye):
    X=              0.0000    Y=              0.0000    Z=             -2.5547  Tot=              2.5547

 Test job not archived.
 1\1\GINC-SE247\SP\RHF\Aug-CC-pVDZ\F2S2\OHZDE\08-Apr-2025\0\\#t hf aug-
 cc-pvdz iop(5/13=1,5/36=2,99/5=2) pseudo=read geom=check guess=(read,t
 check) scf=(maxcycle=1)\\title\\0,1\S,0,0.861086,-0.411399,0.420762\S,
 0,-0.861086,-0.411399,-0.420762\F,0,1.840821,0.731376,-0.349904\F,0,-1
 .840821,0.731376,0.349904\\Version=ES64L-G16RevC.01\State=1-A\HF=-994.
 0230644\RMSD=5.115e-03\Dipole=0.,-1.0050844,0.\Quadrupole=-2.0824667,0
 .5368651,1.5456016,0.,2.4678893,0.\PG=C02 [X(F2S2)]\\@

 Normal termination of Gaussian 16 at Tue Apr  8 22:57:36 2025.
