 Gaussian 16, Revision C.01,

 ----------------------------------------------------------------------
 #t hf aug-cc-pvdz symm=none int=(grid=ultrafine) guess=(read,tcheck) s
 table=(opt,rrhf)
 ----------------------------------------------------------------------
 -----
 title
 -----
 Symbolic Z-matrix:
 Charge =  0 Multiplicity = 1

 SCF Done:  E(RHF) =  -554.910474301     A.U. after   12 cycles
 Normal termination of Gaussian 16 at Tue Apr  8 23:57:25 2025.
 Gaussian 16:  ES64L-G16RevC.01  3-Jul-2019

 ----------------------------------------------------------------------
 #t hf aug-cc-pvdz iop(5/13=1,5/36=2,99/5=2) pseudo=read geom=check gue
 ss=(read,tcheck) scf=(maxcycle=1)
 ----------------------------------------------------------------------
 -----
 title
 -----
 Structure from the checkpoint file:  "BDE49_nonexpt_2067_mol1.chk"
 Charge =  0 Multiplicity = 1

                         Standard orientation:
 ---------------------------------------------------------------------
 Center     Atomic      Atomic             Coordinates (Angstroms)
 Number     Number       Type             X           Y           Z
 ---------------------------------------------------------------------
      1         14           0        1.520469   -0.000000    0.011002
      2          6           0       -0.406207    0.000000   -0.013086
      3          8           0       -0.927639    1.099094   -0.720918
      4          1           0       -0.697649    1.888771   -0.219110
      5          8           0       -0.851749   -0.000004    1.322072
      6          1           0       -1.821368    0.000000    1.287076
      7          8           0       -0.927638   -1.099090   -0.720925
      8          1           0       -0.697657   -1.888769   -0.219115
      9          1           0        2.010965    1.211421    0.709570
     10          1           0        2.001624    0.000002   -1.385325
     11          1           0        2.010964   -1.211423    0.709567
 ---------------------------------------------------------------------

 SCF Done:  E(RHF) =  -555.017981832     A.U. after    2 cycles

 The electronic state is 1-A.
 Alpha  occ. eigenvalues --  -69.07357 -20.60020 -20.59668 -20.59665 -11.40260
 Alpha  occ. eigenvalues --   -6.82744  -3.93519  -3.93515  -3.93503  -1.42146
 Alpha  occ. eigenvalues --   -1.31847  -1.31640  -0.90418  -0.80912  -0.73023
 Alpha  occ. eigenvalues --   -0.69228  -0.66487  -0.64114  -0.63461  -0.56169
 Alpha  occ. eigenvalues --   -0.54431  -0.51435  -0.48991  -0.48936  -0.43294
 Alpha virt. eigenvalues --    0.03025   0.04577   0.04674   0.05582   0.06645
 Alpha virt. eigenvalues --    0.07411   0.08345   0.09049   0.10380   0.11918
 Alpha virt. eigenvalues --    0.14249   0.14929   0.15308   0.16773   0.19127

 Mulliken charges:
               1
     1  Si   0.307371
     2  C    1.074873
     3  O   -0.557605
     4  H    0.122771
     5  O   -0.522942
     6  H    0.083207
     7  O   -0.557605
     8  H    0.122771
     9  H   -0.037267
    10  H    0.001692
    11  H   -0.037267
 Sum of Mulliken charges =  -0.00000

 Dipole moment (field-independent basis, Debye):
    X=              0.5776    Y=              0.0000    Z=              1.6187  Tot=              1.7187

 Test job not archived.
 1\1\GINC-SE404\SP\RHF\Aug-CC-pVDZ\C1H6O3Si1\OHZDE\08-Apr-2025\0\\#t hf
  aug-cc-pvdz iop(5/13=1,5/36=2,99/5=2) pseudo=read geom=check guess=(r
 ead,tcheck) scf=(maxcycle=1)\\title\\0,1\Si,0,1.520469,0.,0.011002\C,0
 ,-0.406207,0.,-0.013086\O,0,-0.927639,1.099094,-0.720918\H,0,-0.697649
 ,1.888771,-0.21911\O,0,-0.851749,-0.000004,1.322072\H,0,-1.821368,0.,1
 .287076\O,0,-0.927638,-1.09909,-0.720925\H,0,-0.697657,-1.888769,-0.21
 9115\H,0,2.010965,1.211421,0.70957\H,0,2.001624,0.000002,-1.385325\H,0
 ,2.010964,-1.211423,0.709567\\Version=ES64L-G16RevC.01\State=1-A\HF=-5

 Normal termination of Gaussian 16 at Tue Apr  8 23:57:28 2025.
