 Gaussian 16, Revision C.01,

 ----------------------------------------------------------------------
 #t hf aug-cc-pvdz symm=none int=(grid=ultrafine) guess=(read,tcheck) s
 table=(opt,rrhf)
 ----------------------------------------------------------------------
 -----
 title
 -----
 Symbolic Z-matrix:
 Charge =  0 Multiplicity = 1

 SCF Done:  E(RHF) =  -805.954305564     A.U. after   12 cycles
 Normal termination of Gaussian 16 at Wed Apr  9 00:12:52 2025.
 Gaussian 16:  ES64L-G16RevC.01  3-Jul-2019

 ----------------------------------------------------------------------
 #t hf aug-cc-pvdz iop(5/13=1,5/36=2,99/5=2) pseudo=read geom=check gue
 ss=(read,tcheck) scf=(maxcycle=1)
 ----------------------------------------------------------------------
 -----
 title
 -----
 Structure from the checkpoint file:  "BDE49_nonexpt_2470_mol1.chk"
 Charge =  0 Multiplicity = 1

                         Standard orientation:
 ---------------------------------------------------------------------
 Center     Atomic      Atomic             Coordinates (Angstroms)
 Number     Number       Type             X           Y           Z
 ---------------------------------------------------------------------
      1         16           0        1.173581   -1.436592   -0.167588
      2         14           0        0.224038    0.444077    0.394284
      3          6           0        1.397202    1.789675   -0.179145
      4          1           0        0.314323   -2.225056    0.501772
      5          1           0        0.992339    2.775842    0.067437
      6          1           0        1.547364    1.749084   -1.261604
      7          6           0       -1.483371    0.642351   -0.376175
      8          6           0       -2.521067   -0.417780    0.028506
      9          1           0       -1.367316    0.660710   -1.465920
     10          1           0       -1.840873    1.641162   -0.091312
     11          1           0       -2.218250   -1.416348   -0.298379
     12          1           0       -3.497070   -0.211384   -0.419570
     13          1           0       -2.659511   -0.450790    1.113401
     14          1           0        2.372563    1.694265    0.303918
     15          1           0        0.086014    0.465442    1.872578
 ---------------------------------------------------------------------

 SCF Done:  E(RHF) =  -806.036892204     A.U. after    2 cycles

 The electronic state is 1-A.
 Alpha  occ. eigenvalues --  -93.52046 -69.08071 -11.23492 -11.22611 -11.22267
 Alpha  occ. eigenvalues --   -8.81954  -6.83076  -6.16128  -6.15893  -6.15628
 Alpha  occ. eigenvalues --   -3.93896  -3.93814  -3.93780  -1.01958  -0.95600
 Alpha  occ. eigenvalues --   -0.92761  -0.84628  -0.65531  -0.61363  -0.58264
 Alpha  occ. eigenvalues --   -0.57149  -0.56710  -0.52430  -0.52046  -0.49997
 Alpha  occ. eigenvalues --   -0.45730  -0.43980  -0.42091  -0.36223
 Alpha virt. eigenvalues --    0.03204   0.04307   0.04842   0.05085   0.06496
 Alpha virt. eigenvalues --    0.06767   0.06833   0.07401   0.08633   0.09260
 Alpha virt. eigenvalues --    0.09541   0.10355   0.10907   0.12893   0.14193

 Mulliken charges:
               1
     1  S   -0.516985
     2  Si   1.015122
     3  C    0.326812
     4  H    0.025980
     5  H   -0.232509
     6  H   -0.164830
     7  C    0.188161
     8  C    0.209991
     9  H   -0.192493
    10  H   -0.182126
    11  H   -0.113881
    12  H   -0.078470
    13  H   -0.110043
    14  H   -0.261708
    15  H    0.086978
 Sum of Mulliken charges =  -0.00000

 Dipole moment (field-independent basis, Debye):
    X=             -1.3073    Y=              1.2485    Z=              0.1545  Tot=              1.8143

 Test job not archived.
 1\1\GINC-SE435\SP\RHF\Aug-CC-pVDZ\C3H10S1Si1\OHZDE\09-Apr-2025\0\\#t h
 f aug-cc-pvdz iop(5/13=1,5/36=2,99/5=2) pseudo=read geom=check guess=(
 read,tcheck) scf=(maxcycle=1)\\title\\0,1\S,0,1.173581,-1.436592,-0.16
 7588\Si,0,0.224038,0.444077,0.394284\C,0,1.397202,1.789675,-0.179145\H
 ,0,0.314323,-2.225056,0.501772\H,0,0.992338,2.775842,0.067437\H,0,1.54
 7364,1.749084,-1.261604\C,0,-1.483371,0.642351,-0.376175\C,0,-2.521067
 ,-0.41778,0.028506\H,0,-1.367316,0.66071,-1.46592\H,0,-1.840873,1.6411
 62,-0.091312\H,0,-2.21825,-1.416348,-0.298379\H,0,-3.49707,-0.211384,-

 Normal termination of Gaussian 16 at Wed Apr  9 00:12:57 2025.
