 Gaussian 16, Revision C.01,

 ----------------------------------------------------------------------
 #t hf aug-cc-pvdz symm=none int=(grid=ultrafine) guess=(read,tcheck) s
 table=(opt,rrhf)
 ----------------------------------------------------------------------
 -----
 title
 -----
 Symbolic Z-matrix:
 Charge =  0 Multiplicity = 1

 SCF Done:  E(RHF) =  -1013.42781102     A.U. after   13 cycles
 Normal termination of Gaussian 16 at Tue Apr  8 23:42:18 2025.
 Gaussian 16:  ES64L-G16RevC.01  3-Jul-2019

 ----------------------------------------------------------------------
 #t hf aug-cc-pvdz iop(5/13=1,5/36=2,99/5=2) pseudo=read geom=check gue
 ss=(read,tcheck) scf=(maxcycle=1)
 ----------------------------------------------------------------------
 -----
 title
 -----
 Structure from the checkpoint file:  "BDE49_nonexpt_1647_mol1.chk"
 Charge =  0 Multiplicity = 1

                         Standard orientation:
 ---------------------------------------------------------------------
 Center     Atomic      Atomic             Coordinates (Angstroms)
 Number     Number       Type             X           Y           Z
 ---------------------------------------------------------------------
      1          6           0       -1.873723   -0.075113    0.018904
      2         15           0        1.601114   -0.084775    0.100308
      3          8           0        1.739337   -0.895154    1.327177
      4          6           0       -3.133029    0.809852   -0.114036
      5          1           0       -3.187318    1.302275   -1.089887
      6          1           0       -3.172829    1.583865    0.658470
      7          6           0       -1.859932   -0.754024    1.404747
      8          1           0       -1.898697   -0.018344    2.213902
      9          1           0       -0.965211   -1.362870    1.554154
     10          1           0       -2.736926   -1.404287    1.507957
     11          1           0       -4.033285    0.192844   -0.006833
     12          6           0       -1.878776   -1.144211   -1.093105
     13          1           0       -2.776687   -1.767251   -1.003616
     14          1           0       -1.009474   -1.803414   -1.033134
     15          1           0       -1.887510   -0.694078   -2.090437
     16         14           0       -0.353379    1.057686   -0.157787
     17          8           0        2.799670    1.006230   -0.052762
     18          1           0        3.212220    1.177771    0.803219
     19          8           0        1.712133   -0.874804   -1.300719
     20          1           0        2.479122   -1.462338   -1.348371
     21          1           0       -0.315896    2.071934    0.923146
     22          1           0       -0.313280    1.738705   -1.472804
 ---------------------------------------------------------------------

 SCF Done:  E(RHF) =  -1013.63231008     A.U. after    2 cycles

 The electronic state is 1-A.
 Alpha  occ. eigenvalues --  -81.40173 -69.07765 -20.61330 -20.60926 -20.52151
 Alpha  occ. eigenvalues --  -11.24796 -11.23740 -11.23288 -11.22762  -7.88676
 Alpha  occ. eigenvalues --   -6.83185  -5.03289  -5.03176  -5.02771  -3.93928
 Alpha  occ. eigenvalues --   -3.93884  -3.93846  -1.37133  -1.33875  -1.25130
 Alpha  occ. eigenvalues --   -1.08020  -0.93651  -0.93243  -0.84903  -0.77851
 Alpha  occ. eigenvalues --   -0.75418  -0.70383  -0.67545  -0.64746  -0.62270
 Alpha  occ. eigenvalues --   -0.60938  -0.60742  -0.59671  -0.57233  -0.56839
 Alpha  occ. eigenvalues --   -0.55017  -0.54806  -0.52420  -0.51068  -0.49260
 Alpha  occ. eigenvalues --   -0.48233  -0.47682  -0.47380  -0.43176  -0.40482
 Alpha virt. eigenvalues --    0.03048   0.04118   0.04478   0.05040   0.05454
 Alpha virt. eigenvalues --    0.05987   0.06663   0.06757   0.07348   0.08239
 Alpha virt. eigenvalues --    0.08812   0.09566   0.09681   0.09866   0.10463

 Mulliken charges:
               1
     1  C   -1.715284
     2  P    2.121529
     3  O   -1.019900
     4  C    0.855234
     5  H   -0.095480
     6  H   -0.096395
     7  C    0.906753
     8  H   -0.090231
     9  H   -0.101644
    10  H   -0.030204
    11  H   -0.027099
    12  C    0.885811
    13  H   -0.044437
    14  H   -0.079388
    15  H   -0.102165
    16  Si  -0.897363
    17  O   -0.734662
    18  H    0.137209
    19  O   -0.726397
    20  H    0.142999
    21  H    0.307084
    22  H    0.404030
 Sum of Mulliken charges =  -0.00000

 Dipole moment (field-independent basis, Debye):
    X=             -0.7883    Y=              1.0496    Z=             -1.2571  Tot=              1.8175

 Test job not archived.
 1\1\GINC-SE045\SP\RHF\Aug-CC-pVDZ\C4H13O3P1Si1\OHZDE\08-Apr-2025\0\\#t
  hf aug-cc-pvdz iop(5/13=1,5/36=2,99/5=2) pseudo=read geom=check guess
 =(read,tcheck) scf=(maxcycle=1)\\title\\0,1\C,0,-1.873723,-0.075113,0.
 018904\P,0,1.601114,-0.084775,0.100308\O,0,1.739337,-0.895154,1.327177
 \C,0,-3.133029,0.809852,-0.114036\H,0,-3.187318,1.302275,-1.089887\H,0
 ,-3.172829,1.583865,0.65847\C,0,-1.859932,-0.754024,1.404747\H,0,-1.89
 8697,-0.018344,2.213902\H,0,-0.965211,-1.36287,1.554154\H,0,-2.736926,
 -1.404287,1.507957\H,0,-4.033285,0.192844,-0.006833\C,0,-1.878776,-1.1

 Normal termination of Gaussian 16 at Tue Apr  8 23:42:33 2025.
