 Gaussian 16, Revision C.01,

 ----------------------------------------------------------------------
 #t hf aug-cc-pvdz symm=none int=(grid=ultrafine) guess=(read,tcheck) s
 table=(opt,rrhf)
 ----------------------------------------------------------------------
 -----
 title
 -----
 Symbolic Z-matrix:
 Charge =  0 Multiplicity = 1

 SCF Done:  E(RHF) =  -743.750440883     A.U. after   15 cycles
 Normal termination of Gaussian 16 at Tue Apr  8 23:28:16 2025.
 Gaussian 16:  ES64L-G16RevC.01  3-Jul-2019

 ----------------------------------------------------------------------
 #t hf aug-cc-pvdz iop(5/13=1,5/36=2,99/5=2) pseudo=read geom=check gue
 ss=(read,tcheck) scf=(maxcycle=1)
 ----------------------------------------------------------------------
 -----
 title
 -----
 Structure from the checkpoint file:  "BDE49_nonexpt_1352_mol1.chk"
 Charge =  0 Multiplicity = 1

                         Standard orientation:
 ---------------------------------------------------------------------
 Center     Atomic      Atomic             Coordinates (Angstroms)
 Number     Number       Type             X           Y           Z
 ---------------------------------------------------------------------
      1          6           0       -1.277115    0.285517   -0.060666
      2          6           0       -0.774997    1.725655    0.112575
      3          1           0       -1.181651    2.112556    1.052496
      4          1           0       -1.202300    2.326255   -0.692397
      5          6           0        0.774814    1.725740    0.112509
      6          1           0        1.201977    2.326312   -0.692560
      7          1           0        1.181512    2.112776    1.052354
      8          6           0        1.277087    0.285645   -0.060656
      9          9           0        0.000115   -2.142650   -0.290577
     10         15           0        0.000040   -0.874042    0.710420
     11          8           0       -2.304642   -0.038781   -0.586488
     12          8           0        2.304653   -0.038563   -0.586459
 ---------------------------------------------------------------------

 SCF Done:  E(RHF) =  -743.905344654     A.U. after    2 cycles

 The electronic state is 1-A.
 Alpha  occ. eigenvalues --  -81.35738 -26.14573 -20.60704 -20.60703 -11.38103
 Alpha  occ. eigenvalues --  -11.38100 -11.29036 -11.28988  -7.85420  -4.99568
 Alpha  occ. eigenvalues --   -4.99189  -4.98973  -1.66723  -1.39739  -1.39470
 Alpha  occ. eigenvalues --   -1.11929  -0.95887  -0.92498  -0.81246  -0.78395
 Alpha  occ. eigenvalues --   -0.75658  -0.74347  -0.72488  -0.69312  -0.67218
 Alpha  occ. eigenvalues --   -0.65945  -0.63077  -0.60253  -0.59269  -0.55748
 Alpha  occ. eigenvalues --   -0.52877  -0.51209  -0.40604  -0.39082
 Alpha virt. eigenvalues --    0.02383   0.03231   0.04515   0.04578   0.06586
 Alpha virt. eigenvalues --    0.07025   0.07581   0.08286   0.09510   0.10672
 Alpha virt. eigenvalues --    0.11899   0.13148   0.13518   0.14110   0.14218

 Mulliken charges:
               1
     1  C    0.180294
     2  C    0.076368
     3  H    0.042447
     4  H   -0.065206
     5  C    0.076278
     6  H   -0.065175
     7  H    0.042434
     8  C    0.180322
     9  F   -0.629088
    10  P    1.134082
    11  O   -0.486369
    12  O   -0.486386
 Sum of Mulliken charges =  -0.00000

 Dipole moment (field-independent basis, Debye):
    X=             -0.0002    Y=              4.2129    Z=              2.8640  Tot=              5.0942

 Test job not archived.
 1\1\GINC-SE162\SP\RHF\Aug-CC-pVDZ\C4H4F1O2P1\OHZDE\08-Apr-2025\0\\#t h
 f aug-cc-pvdz iop(5/13=1,5/36=2,99/5=2) pseudo=read geom=check guess=(
 read,tcheck) scf=(maxcycle=1)\\title\\0,1\C,0,-1.277114,0.28552,-0.060
 666\C,0,-0.774993,1.725657,0.112575\H,0,-1.181646,2.112559,1.052496\H,
 0,-1.202295,2.326258,-0.692397\C,0,0.774818,1.725738,0.112509\H,0,1.20
 1982,2.326309,-0.69256\H,0,1.181517,2.112774,1.052354\C,0,1.277088,0.2
 85642,-0.060656\F,0,0.00011,-2.14265,-0.290577\P,0,0.000038,-0.874042,
 0.71042\O,0,-2.304642,-0.038776,-0.586488\O,0,2.304653,-0.038568,-0.58

 Normal termination of Gaussian 16 at Tue Apr  8 23:28:22 2025.
