 Gaussian 16, Revision C.01,

 ----------------------------------------------------------------------
 #t hf aug-cc-pvdz symm=none int=(grid=ultrafine) guess=(read,tcheck) s
 table=(opt,rrhf)
 ----------------------------------------------------------------------
 -----
 title
 -----
 Symbolic Z-matrix:
 Charge =  0 Multiplicity = 1

 SCF Done:  E(RHF) =  -776.715005586     A.U. after   16 cycles
 Normal termination of Gaussian 16 at Tue Apr  8 23:37:23 2025.
 Gaussian 16:  ES64L-G16RevC.01  3-Jul-2019

 ----------------------------------------------------------------------
 #t hf aug-cc-pvdz iop(5/13=1,5/36=2,99/5=2) pseudo=read geom=check gue
 ss=(read,tcheck) scf=(maxcycle=1)
 ----------------------------------------------------------------------
 -----
 title
 -----
 Structure from the checkpoint file:  "BDE49_nonexpt_1555_mol1.chk"
 Charge =  0 Multiplicity = 1

                         Standard orientation:
 ---------------------------------------------------------------------
 Center     Atomic      Atomic             Coordinates (Angstroms)
 Number     Number       Type             X           Y           Z
 ---------------------------------------------------------------------
      1          6           0       -2.370988   -1.240690   -0.312927
      2          6           0       -1.081687   -1.251740    0.211205
      3          6           0       -3.039168   -0.030998   -0.496244
      4          6           0       -2.413461    1.167665   -0.159753
      5          6           0       -1.119013    1.158495    0.356322
      6          6           0       -0.436813   -0.053013    0.552932
      7          1           0       -0.637407    2.094773    0.614509
      8          1           0       -4.046419   -0.022883   -0.897389
      9          1           0       -2.931710    2.109738   -0.299742
     10          1           0       -2.856812   -2.174621   -0.572059
     11          1           0       -0.568502   -2.195468    0.360216
     12          7           0        2.293679    0.187444   -0.201910
     13          8           0        2.306678   -1.027331   -0.964806
     14          8           0        1.832444    1.217455   -1.044268
     15          1           0        0.937614    0.958604   -1.328455
     16          1           0        3.204882   -1.048763   -1.317275
     17         15           0        1.276644   -0.149333    1.222648
     18          1           0        1.346741    1.187203    1.677238
 ---------------------------------------------------------------------

 SCF Done:  E(RHF) =  -776.869083136     A.U. after    2 cycles

 The electronic state is 1-A.
 Alpha  occ. eigenvalues --  -81.28915 -20.61624 -20.61356 -15.73486 -11.26555
 Alpha  occ. eigenvalues --  -11.26396 -11.26371 -11.26123 -11.25930 -11.25818
 Alpha  occ. eigenvalues --   -7.78965  -4.93074  -4.92936  -4.92648  -1.41363
 Alpha  occ. eigenvalues --   -1.30889  -1.15752  -1.03277  -1.02564  -1.00476
 Alpha  occ. eigenvalues --   -0.85228  -0.84332  -0.78571  -0.75455  -0.71369
 Alpha  occ. eigenvalues --   -0.66440  -0.65296  -0.64900  -0.63830  -0.62893
 Alpha  occ. eigenvalues --   -0.60678  -0.56794  -0.52371  -0.51526  -0.51307
 Alpha  occ. eigenvalues --   -0.50541  -0.49470  -0.40962  -0.37752  -0.35573
 Alpha  occ. eigenvalues --   -0.34808
 Alpha virt. eigenvalues --    0.03046   0.03995   0.04298   0.05207   0.05822
 Alpha virt. eigenvalues --    0.06285   0.06991   0.07805   0.07980   0.09307
 Alpha virt. eigenvalues --    0.09531   0.10339   0.12162   0.12697   0.13238

 Mulliken charges:
               1
     1  C    0.557832
     2  C    0.164351
     3  C    0.519055
     4  C    0.502375
     5  C    0.579487
     6  C   -0.063670
     7  H   -0.608186
     8  H   -0.425079
     9  H   -0.437397
    10  H   -0.438705
    11  H   -0.516298
    12  N   -0.127225
    13  O   -0.491104
    14  O   -0.458944
    15  H    0.240365
    16  H    0.232237
    17  P    0.679004
    18  H    0.091904
 Sum of Mulliken charges =  -0.00000

 Dipole moment (field-independent basis, Debye):
    X=             -2.2105    Y=             -0.2535    Z=             -0.3354  Tot=              2.2501

 Test job not archived.
 1\1\GINC-SE332\SP\RHF\Aug-CC-pVDZ\C6H8N1O2P1\OHZDE\08-Apr-2025\0\\#t h
 f aug-cc-pvdz iop(5/13=1,5/36=2,99/5=2) pseudo=read geom=check guess=(
 read,tcheck) scf=(maxcycle=1)\\title\\0,1\C,0,2.370988,1.24069,-0.3129
 27\C,0,1.081687,1.25174,0.211205\C,0,3.039168,0.030998,-0.496244\C,0,2
 .413461,-1.167665,-0.159753\C,0,1.119013,-1.158495,0.356322\C,0,0.4368
 13,0.053013,0.552932\H,0,0.637407,-2.094773,0.614509\H,0,4.046419,0.02
 2883,-0.897389\H,0,2.93171,-2.109738,-0.299742\H,0,2.856812,2.174621,-
 0.572059\H,0,0.568502,2.195468,0.360216\N,0,-2.293679,-0.187444,-0.201

 Normal termination of Gaussian 16 at Tue Apr  8 23:37:31 2025.
