 Gaussian 16, Revision C.01,

 ----------------------------------------------------------------------
 #t hf aug-cc-pvdz symm=none int=(grid=ultrafine) guess=(read,tcheck) s
 table=(opt,rrhf)
 ----------------------------------------------------------------------
 -----
 title
 -----
 Symbolic Z-matrix:
 Charge =  0 Multiplicity = 1

 SCF Done:  E(RHF) =  -1303.61138296     A.U. after   16 cycles
 Normal termination of Gaussian 16 at Wed Apr  9 00:15:53 2025.
 Gaussian 16:  ES64L-G16RevC.01  3-Jul-2019

 ----------------------------------------------------------------------
 #t hf aug-cc-pvdz iop(5/13=1,5/36=2,99/5=2) pseudo=read geom=check gue
 ss=(read,tcheck) scf=(maxcycle=1)
 ----------------------------------------------------------------------
 -----
 title
 -----
 Structure from the checkpoint file:  "BDE49_nonexpt_2540_mol1.chk"
 Charge =  0 Multiplicity = 1

                         Standard orientation:
 ---------------------------------------------------------------------
 Center     Atomic      Atomic             Coordinates (Angstroms)
 Number     Number       Type             X           Y           Z
 ---------------------------------------------------------------------
      1         17           0        2.625186   -0.110428   -0.276263
      2         16           0        0.909721   -1.045215    0.426525
      3          6           0       -0.306645   -0.016774   -0.433138
      4          7           0       -1.643428   -0.727754   -0.309292
      5          8           0       -1.675035   -1.682389    0.448916
      6          8           0       -2.553155   -0.274593   -0.965476
      7          7           0       -0.488485    1.374841    0.205318
      8          1           0       -0.082861    0.145330   -1.483014
      9          8           0       -1.132351    1.429345    1.231079
     10          8           0        0.068345    2.280938   -0.379301
 ---------------------------------------------------------------------

 SCF Done:  E(RHF) =  -1303.78647903     A.U. after    2 cycles

 The electronic state is 1-A.
 Alpha  occ. eigenvalues -- -103.72274 -93.66410 -20.67892 -20.67820 -20.66916
 Alpha  occ. eigenvalues --  -20.66642 -15.97780 -15.96802 -11.45614 -10.75399
 Alpha  occ. eigenvalues --   -8.95636  -8.41135  -8.40773  -8.40735  -6.29700
 Alpha  occ. eigenvalues --   -6.29477  -6.28982  -1.61698  -1.59845  -1.43310
 Alpha  occ. eigenvalues --   -1.42330  -1.22878  -1.17770  -0.99255  -0.98398
 Alpha  occ. eigenvalues --   -0.87523  -0.84378  -0.82399  -0.79605  -0.78057
 Alpha  occ. eigenvalues --   -0.76911  -0.74293  -0.65468  -0.59335  -0.57896
 Alpha  occ. eigenvalues --   -0.56837  -0.55870  -0.55557  -0.54283  -0.52834
 Alpha  occ. eigenvalues --   -0.51464  -0.50338  -0.42478
 Alpha virt. eigenvalues --    0.01558   0.02041   0.02962   0.03783   0.05836
 Alpha virt. eigenvalues --    0.08854   0.09645   0.10452   0.11268   0.12307
 Alpha virt. eigenvalues --    0.12792   0.13851   0.14236   0.15422   0.16393

 Mulliken charges:
               1
     1  Cl  -0.278042
     2  S    0.680546
     3  C    0.996431
     4  N    0.504328
     5  O   -0.544326
     6  O   -0.543181
     7  N    0.500864
     8  H   -0.203373
     9  O   -0.570860
    10  O   -0.542387
 Sum of Mulliken charges =  -0.00000

 Dipole moment (field-independent basis, Debye):
    X=              2.2608    Y=             -1.6617    Z=             -1.6571  Tot=              3.2585

 Test job not archived.
 1\1\GINC-SE179\SP\RHF\Aug-CC-pVDZ\C1H1Cl1N2O4S1\OHZDE\09-Apr-2025\0\\#
 t hf aug-cc-pvdz iop(5/13=1,5/36=2,99/5=2) pseudo=read geom=check gues
 s=(read,tcheck) scf=(maxcycle=1)\\title\\0,1\Cl,0,2.625186,-0.110428,-
 0.276263\S,0,0.909721,-1.045215,0.426525\C,0,-0.306645,-0.016774,-0.43
 3138\N,0,-1.643428,-0.727754,-0.309292\O,0,-1.675035,-1.682389,0.44891
 6\O,0,-2.553155,-0.274593,-0.965476\N,0,-0.488485,1.374841,0.205318\H,
 0,-0.082861,0.14533,-1.483014\O,0,-1.132351,1.429345,1.231079\O,0,0.06
 8345,2.280938,-0.379301\\Version=ES64L-G16RevC.01\State=1-A\HF=-1303.7

 Normal termination of Gaussian 16 at Wed Apr  9 00:15:59 2025.
