 Gaussian 16, Revision C.01,

 ----------------------------------------------------------------------
 #t hf aug-cc-pvdz symm=none int=(grid=ultrafine) guess=(read,tcheck) s
 table=(opt,rrhf)
 ----------------------------------------------------------------------
 -----
 title
 -----
 Symbolic Z-matrix:
 Charge =  0 Multiplicity = 1

 SCF Done:  E(RHF) =  -496.924061264     A.U. after   13 cycles
 Normal termination of Gaussian 16 at Wed Apr  9 00:05:31 2025.
 Gaussian 16:  ES64L-G16RevC.01  3-Jul-2019

 ----------------------------------------------------------------------
 #t hf aug-cc-pvdz iop(5/13=1,5/36=2,99/5=2) pseudo=read geom=check gue
 ss=(read,tcheck) scf=(maxcycle=1)
 ----------------------------------------------------------------------
 -----
 title
 -----
 Structure from the checkpoint file:  "BDE49_nonexpt_2261_mol1.chk"
 Charge =  0 Multiplicity = 1

                         Standard orientation:
 ---------------------------------------------------------------------
 Center     Atomic      Atomic             Coordinates (Angstroms)
 Number     Number       Type             X           Y           Z
 ---------------------------------------------------------------------
      1         14           0       -1.662679   -0.409724    0.065832
      2          8           0       -0.522955    0.695180   -0.434589
      3          6           0        0.697204    0.995229    0.203686
      4          6           0        1.703989   -0.068058    0.041187
      5          1           0        0.562014    1.176468    1.278109
      6          1           0        1.091342    1.912722   -0.240219
      7          7           0        2.485007   -0.906296   -0.080624
      8          1           0       -2.847899   -0.140657   -0.766153
      9          1           0       -1.957494   -0.195162    1.503682
     10          1           0       -1.189025   -1.797627   -0.125232
 ---------------------------------------------------------------------

 SCF Done:  E(RHF) =  -497.020208768     A.U. after    2 cycles

 The electronic state is 1-A.
 Alpha  occ. eigenvalues --  -69.11145 -20.59921 -15.65422 -11.36572 -11.29770
 Alpha  occ. eigenvalues --   -6.85973  -3.96894  -3.96738  -3.96707  -1.35049
 Alpha  occ. eigenvalues --   -1.20390  -1.01415  -0.78210  -0.73046  -0.69140
 Alpha  occ. eigenvalues --   -0.65245  -0.57758  -0.55188  -0.54503  -0.49407
 Alpha  occ. eigenvalues --   -0.48086  -0.47622  -0.46776
 Alpha virt. eigenvalues --    0.02864   0.04053   0.04877   0.05715   0.06208
 Alpha virt. eigenvalues --    0.07673   0.08566   0.09098   0.09221   0.11924
 Alpha virt. eigenvalues --    0.12936   0.13307   0.14329   0.14820   0.14869

 Mulliken charges:
               1
     1  Si   0.596686
     2  O   -0.889903
     3  C    0.908445
     4  C   -0.295748
     5  H   -0.031600
     6  H   -0.107411
     7  N   -0.166192
     8  H    0.012207
     9  H   -0.027011
    10  H    0.000527
 Sum of Mulliken charges =   0.00000

 Dipole moment (field-independent basis, Debye):
    X=             -2.1561    Y=              2.2056    Z=              1.2991  Tot=              3.3468

 Test job not archived.
 1\1\GINC-SE342\SP\RHF\Aug-CC-pVDZ\C2H5N1O1Si1\OHZDE\09-Apr-2025\0\\#t
 hf aug-cc-pvdz iop(5/13=1,5/36=2,99/5=2) pseudo=read geom=check guess=
 (read,tcheck) scf=(maxcycle=1)\\title\\0,1\Si,0,-1.662679,-0.409724,0.
 065832\O,0,-0.522955,0.69518,-0.434589\C,0,0.697204,0.995229,0.203686\
 C,0,1.703989,-0.068058,0.041187\H,0,0.562014,1.176468,1.278109\H,0,1.0
 91342,1.912722,-0.240219\N,0,2.485007,-0.906296,-0.080624\H,0,-2.84789
 9,-0.140657,-0.766153\H,0,-1.957494,-0.195162,1.503682\H,0,-1.189025,-
 1.797627,-0.125232\\Version=ES64L-G16RevC.01\State=1-A\HF=-497.0202088

 Normal termination of Gaussian 16 at Wed Apr  9 00:05:34 2025.
