 Gaussian 16, Revision C.01,

 ----------------------------------------------------------------------
 #t hf aug-cc-pvdz symm=none int=(grid=ultrafine) guess=(read,tcheck) s
 table=(opt,rrhf)
 ----------------------------------------------------------------------
 -----
 title
 -----
 Symbolic Z-matrix:
 Charge =  0 Multiplicity = 1

 SCF Done:  E(RHF) =  -1871.55337220     A.U. after   15 cycles
 Normal termination of Gaussian 16 at Wed Apr  9 00:50:51 2025.
 Gaussian 16:  ES64L-G16RevC.01  3-Jul-2019

 ----------------------------------------------------------------------
 #t hf aug-cc-pvdz iop(5/13=1,5/36=2,99/5=2) pseudo=read geom=check gue
 ss=(read,tcheck) scf=(maxcycle=1)
 ----------------------------------------------------------------------
 -----
 title
 -----
 Structure from the checkpoint file:  "BDE49_nonexpt_887_mol1.chk"
 Charge =  0 Multiplicity = 1

                         Standard orientation:
 ---------------------------------------------------------------------
 Center     Atomic      Atomic             Coordinates (Angstroms)
 Number     Number       Type             X           Y           Z
 ---------------------------------------------------------------------
      1          5           0       -0.000000   -0.000000    2.991922
      2         16           0        1.554140    0.424804    3.835799
      3         16           0       -1.554140   -0.424804    3.835799
      4          6           0       -0.000000   -0.000000    1.430279
      5          6           0       -0.826531   -0.871014    0.696584
      6          1           0       -1.475389   -1.563655    1.221511
      7          6           0        0.826531    0.871014    0.696584
      8          1           0        1.475389    1.563655    1.221511
      9          6           0       -0.814284   -0.882594   -0.692501
     10          6           0        0.000000    0.000000   -1.424523
     11          5           0        0.000000    0.000000   -2.986075
     12         16           0        0.000000    1.527814   -3.973903
     13         16           0       -0.000000   -1.527814   -3.973903
     14          6           0        0.814284    0.882594   -0.692501
     15          1           0        1.465232    1.573425   -1.217626
     16          1           0       -1.465232   -1.573425   -1.217626
     17          1           0        0.192948   -2.381463   -2.954202
     18          1           0       -0.192948    2.381463   -2.954202
     19          1           0        1.110731    0.455246    5.103587
     20          1           0       -1.110731   -0.455246    5.103587
 ---------------------------------------------------------------------

 SCF Done:  E(RHF) =  -1871.70335050     A.U. after    2 cycles

 The electronic state is 1-A.
 Alpha  occ. eigenvalues --  -93.54962 -93.54960 -93.54329 -93.54328 -11.26442
 Alpha  occ. eigenvalues --  -11.26442 -11.26295 -11.26283 -11.25506 -11.25146
 Alpha  occ. eigenvalues --   -8.84925  -8.84897  -8.84313  -8.84256  -7.68085
 Alpha  occ. eigenvalues --   -7.67817  -6.19117  -6.19110  -6.18846  -6.18845
 Alpha  occ. eigenvalues --   -6.18624  -6.18603  -6.18483  -6.18466  -6.18229
 Alpha  occ. eigenvalues --   -6.18228  -6.18011  -6.17980  -1.15670  -1.04226
 Alpha  occ. eigenvalues --   -1.02725  -1.00251  -0.98348  -0.95505  -0.95137
 Alpha  occ. eigenvalues --   -0.84437  -0.84127  -0.73596  -0.68380  -0.65241
 Alpha  occ. eigenvalues --   -0.63871  -0.63596  -0.60618  -0.57849  -0.56684
 Alpha  occ. eigenvalues --   -0.53239  -0.53103  -0.52484  -0.50884  -0.49350
 Alpha  occ. eigenvalues --   -0.47229  -0.44871  -0.43881  -0.43351  -0.42633
 Alpha  occ. eigenvalues --   -0.37788  -0.36990  -0.35641  -0.34880
 Alpha virt. eigenvalues --    0.02954   0.03604   0.03753   0.04316   0.05077
 Alpha virt. eigenvalues --    0.05652   0.05983   0.06494   0.06604   0.07475
 Alpha virt. eigenvalues --    0.07510   0.07820   0.08503   0.09120   0.09484

 Mulliken charges:
               1
     1  B    0.520839
     2  S   -0.180558
     3  S   -0.180558
     4  C    0.204287
     5  C    0.370011
     6  H   -0.665735
     7  C    0.370011
     8  H   -0.665735
     9  C    0.686519
    10  C    0.177451
    11  B    0.556229
    12  S   -0.265840
    13  S   -0.265840
    14  C    0.686519
    15  H   -0.655722
    16  H   -0.655722
    17  H    0.008187
    18  H    0.008187
    19  H   -0.026265
    20  H   -0.026265
 Sum of Mulliken charges =  -0.00000

 Dipole moment (field-independent basis, Debye):
    X=              0.0000    Y=             -0.0000    Z=              2.7847  Tot=              2.7847

 Test job not archived.
 1\1\GINC-SE128\SP\RHF\Aug-CC-pVDZ\C6H8B2S4\OHZDE\09-Apr-2025\0\\#t hf
 aug-cc-pvdz iop(5/13=1,5/36=2,99/5=2) pseudo=read geom=check guess=(re
 ad,tcheck) scf=(maxcycle=1)\\title\\0,1\B,0,0.,0.,-2.991922\S,0,-1.554
 14,0.424804,-3.835799\S,0,1.55414,-0.424804,-3.835799\C,0,0.,0.,-1.430
 279\C,0,0.826531,-0.871014,-0.696584\H,0,1.475389,-1.563655,-1.221511\
 C,0,-0.826531,0.871014,-0.696584\H,0,-1.475389,1.563655,-1.221511\C,0,
 0.814284,-0.882594,0.692501\C,0,0.,0.,1.424523\B,0,0.,0.,2.986075\S,0,
 0.,1.527814,3.973903\S,0,0.,-1.527814,3.973903\C,0,-0.814284,0.882594,

 Normal termination of Gaussian 16 at Wed Apr  9 00:51:01 2025.
