 Gaussian 16, Revision C.01,

 ----------------------------------------------------------------------
 #t hf aug-cc-pvdz symm=none int=(grid=ultrafine) guess=(read,tcheck) s
 table=(opt,rrhf)
 ----------------------------------------------------------------------
 -----
 title
 -----
 Symbolic Z-matrix:
 Charge =  0 Multiplicity = 1

 SCF Done:  E(RHF) =  -1433.67916149     A.U. after   14 cycles
 Normal termination of Gaussian 16 at Tue Apr  8 23:57:23 2025.
 Gaussian 16:  ES64L-G16RevC.01  3-Jul-2019

 ----------------------------------------------------------------------
 #t hf aug-cc-pvdz iop(5/13=1,5/36=2,99/5=2) pseudo=read geom=check gue
 ss=(read,tcheck) scf=(maxcycle=1)
 ----------------------------------------------------------------------
 -----
 title
 -----
 Structure from the checkpoint file:  "BDE49_nonexpt_205_mol1.chk"
 Charge =  0 Multiplicity = 1

                         Standard orientation:
 ---------------------------------------------------------------------
 Center     Atomic      Atomic             Coordinates (Angstroms)
 Number     Number       Type             X           Y           Z
 ---------------------------------------------------------------------
      1         17           0        1.794343   -1.524336    0.000002
      2         17           0        1.794341    1.524337    0.000002
      3          5           0        0.909167    0.000000    0.000002
      4          7           0       -0.489284   -0.000001    0.000002
      5          6           0       -1.684095   -0.000004   -0.000001
      6         16           0       -3.251494    0.000001   -0.000005
 ---------------------------------------------------------------------

 SCF Done:  E(RHF) =  -1433.77073834     A.U. after    2 cycles

 The electronic state is 1-A.
 Alpha  occ. eigenvalues -- -103.68509-103.68508 -93.56571 -15.69175 -11.42986
 Alpha  occ. eigenvalues --  -10.71998 -10.71964  -8.86498  -8.37680  -8.37673
 Alpha  occ. eigenvalues --   -8.37443  -8.37443  -8.37415  -8.37412  -7.78790
 Alpha  occ. eigenvalues --   -6.20809  -6.20122  -6.20080  -1.27957  -1.19517
 Alpha  occ. eigenvalues --   -1.16170  -1.05947  -0.89047  -0.66889  -0.64395
 Alpha  occ. eigenvalues --   -0.62164  -0.61302  -0.56097  -0.53205  -0.51575
 Alpha  occ. eigenvalues --   -0.49541  -0.48421  -0.39723  -0.38856
 Alpha virt. eigenvalues --    0.02843   0.04181   0.05152   0.05191   0.05335
 Alpha virt. eigenvalues --    0.07554   0.08931   0.11123   0.12420   0.12808
 Alpha virt. eigenvalues --    0.13267   0.14030   0.14968   0.15756   0.15823

 Mulliken charges:
               1
     1  Cl  -0.263094
     2  Cl  -0.263094
     3  B    0.538037
     4  N   -0.017596
     5  C   -0.295017
     6  S    0.300764
 Sum of Mulliken charges =   0.00000

 Dipole moment (field-independent basis, Debye):
    X=             -0.2364    Y=             -0.0000    Z=              0.0000  Tot=              0.2364

 Test job not archived.
 1\1\GINC-SE322\SP\RHF\Aug-CC-pVDZ\C1B1Cl2N1S1\OHZDE\08-Apr-2025\0\\#t
 hf aug-cc-pvdz iop(5/13=1,5/36=2,99/5=2) pseudo=read geom=check guess=
 (read,tcheck) scf=(maxcycle=1)\\title\\0,1\Cl,0,-1.794343,1.524336,0.0
 00002\Cl,0,-1.794341,-1.524337,0.000002\B,0,-0.909167,0.,0.000002\N,0,
 0.489284,0.000001,0.000002\C,0,1.684095,0.000004,-0.000001\S,0,3.25149
 4,0.,-0.000005\\Version=ES64L-G16RevC.01\State=1-A\HF=-1433.7707383\RM
 SD=7.338e-03\Dipole=0.0930022,0.0000005,0.0000001\Quadrupole=-1.144166
 9,-0.3377442,1.4819111,-0.0000034,0.0000006,0.\PG=C01 [X(C1B1Cl2N1S1)]

 Normal termination of Gaussian 16 at Tue Apr  8 23:57:26 2025.
