 Gaussian 16, Revision C.01,

 ----------------------------------------------------------------------
 #t hf aug-cc-pvdz symm=none int=(grid=ultrafine) guess=(read,tcheck) s
 table=(opt,rrhf)
 ----------------------------------------------------------------------
 -----
 title
 -----
 Symbolic Z-matrix:
 Charge =  0 Multiplicity = 1

 SCF Done:  E(RHF) =  -1438.72724594     A.U. after   15 cycles
 Normal termination of Gaussian 16 at Tue Apr  8 23:46:19 2025.
 Gaussian 16:  ES64L-G16RevC.01  3-Jul-2019

 ----------------------------------------------------------------------
 #t hf aug-cc-pvdz iop(5/13=1,5/36=2,99/5=2) pseudo=read geom=check gue
 ss=(read,tcheck) scf=(maxcycle=1)
 ----------------------------------------------------------------------
 -----
 title
 -----
 Structure from the checkpoint file:  "BDE49_nonexpt_1772_mol1.chk"
 Charge =  0 Multiplicity = 1

                         Standard orientation:
 ---------------------------------------------------------------------
 Center     Atomic      Atomic             Coordinates (Angstroms)
 Number     Number       Type             X           Y           Z
 ---------------------------------------------------------------------
      1          6           0        0.152343    1.741329    0.087782
      2          6           0       -1.130877    2.148993   -0.264813
      3          6           0       -2.171994    1.225692   -0.323719
      4          6           0       -1.908775   -0.107230   -0.024555
      5          6           0       -0.632241   -0.530420    0.328112
      6          6           0        0.419220    0.396329    0.386520
      7          1           0        0.948912    2.476357    0.131202
      8          1           0       -1.328106    3.189858   -0.494137
      9         14           0        2.137547   -0.158708    0.853710
     10         17           0       -3.216333   -1.277767   -0.090290
     11          1           0       -3.174185    1.531687   -0.594838
     12          1           0       -0.467316   -1.576805    0.556112
     13         17           0        3.263196   -0.615287   -0.845284
     14          1           0        2.075866   -1.388399    1.665660
     15          1           0        2.856445    0.922965    1.552859
 ---------------------------------------------------------------------

 SCF Done:  E(RHF) =  -1438.85429267     A.U. after    2 cycles

 The electronic state is 1-A.
 Alpha  occ. eigenvalues -- -103.67402-103.65083 -69.12116 -11.32478 -11.27785
 Alpha  occ. eigenvalues --  -11.27631 -11.27343 -11.27062 -11.26126 -10.70672
 Alpha  occ. eigenvalues --  -10.68514  -8.36408  -8.36102  -8.36084  -8.34206
 Alpha  occ. eigenvalues --   -8.33983  -8.33981  -6.87004  -3.97809  -3.97703
 Alpha  occ. eigenvalues --   -3.97693  -1.20788  -1.14428  -1.13282  -1.03854
 Alpha  occ. eigenvalues --   -1.01509  -0.86036  -0.83790  -0.73949  -0.69965
 Alpha  occ. eigenvalues --   -0.66987  -0.64474  -0.60903  -0.58689  -0.56328
 Alpha  occ. eigenvalues --   -0.53483  -0.53404  -0.52564  -0.50834  -0.48564
 Alpha  occ. eigenvalues --   -0.47801  -0.45878  -0.45312  -0.36887  -0.35466
 Alpha virt. eigenvalues --    0.02985   0.03910   0.04529   0.05184   0.05703
 Alpha virt. eigenvalues --    0.06158   0.06920   0.07877   0.08330   0.08827
 Alpha virt. eigenvalues --    0.09768   0.09999   0.10757   0.11820   0.12730

 Mulliken charges:
               1
     1  C    0.518590
     2  C    0.852069
     3  C    0.716965
     4  C    0.055404
     5  C    0.644606
     6  C   -0.589836
     7  H   -0.610468
     8  H   -0.429048
     9  Si   0.743952
    10  Cl  -0.375194
    11  H   -0.422514
    12  H   -0.537336
    13  Cl  -0.570374
    14  H   -0.009325
    15  H    0.012511
 Sum of Mulliken charges =  -0.00000

 Dipole moment (field-independent basis, Debye):
    X=             -0.4991    Y=              2.1008    Z=              1.1642  Tot=              2.4531

 Test job not archived.
 1\1\GINC-SE045\SP\RHF\Aug-CC-pVDZ\C6H6Cl2Si1\OHZDE\08-Apr-2025\0\\#t h
 f aug-cc-pvdz iop(5/13=1,5/36=2,99/5=2) pseudo=read geom=check guess=(
 read,tcheck) scf=(maxcycle=1)\\title\\0,1\C,0,0.152343,1.741329,0.0877
 82\C,0,-1.130877,2.148993,-0.264813\C,0,-2.171994,1.225692,-0.323719\C
 ,0,-1.908775,-0.10723,-0.024555\C,0,-0.632241,-0.53042,0.328112\C,0,0.
 41922,0.396329,0.38652\H,0,0.948912,2.476357,0.131202\H,0,-1.328106,3.
 189858,-0.494137\Si,0,2.137547,-0.158708,0.85371\Cl,0,-3.216333,-1.277
 767,-0.09029\H,0,-3.174185,1.531687,-0.594838\H,0,-0.467316,-1.576805,

 Normal termination of Gaussian 16 at Tue Apr  8 23:46:28 2025.
