 Gaussian 16, Revision C.01,

 ----------------------------------------------------------------------
 #t hf aug-cc-pvdz symm=none int=(grid=ultrafine) guess=(read,tcheck) s
 table=opt
 ----------------------------------------------------------------------
 -----
 title
 -----
 Symbolic Z-matrix:
 Charge =  0 Multiplicity = 2

 SCF Done:  E(UHF) =  -492.159857902     A.U. after   20 cycles
 Normal termination of Gaussian 16 at Wed Apr  9 00:14:34 2025.
 Gaussian 16:  ES64L-G16RevC.01  3-Jul-2019

 ----------------------------------------------------------------------
 #t hf aug-cc-pvdz iop(5/13=1,5/36=2,99/5=2) pseudo=read geom=check gue
 ss=(read,tcheck) scf=(maxcycle=1)
 ----------------------------------------------------------------------
 -----
 title
 -----
 Structure from the checkpoint file:  "BDE49_nonexpt_2528_mol2.chk"
 Charge =  0 Multiplicity = 2

                         Standard orientation:
 ---------------------------------------------------------------------
 Center     Atomic      Atomic             Coordinates (Angstroms)
 Number     Number       Type             X           Y           Z
 ---------------------------------------------------------------------
      1          7           0        0.367003    0.509689   -0.027445
      2         16           0       -1.149378   -0.132908    0.003344
      3          6           0        1.601886   -0.261008    0.004750
      4          1           0        0.457749    1.511024    0.085653
      5          1           0        1.408513   -1.249810   -0.408981
      6          1           0        1.975964   -0.375022    1.029206
      7          1           0        2.367482    0.238560   -0.595772
 ---------------------------------------------------------------------

 SCF Done:  E(UHF) =  -492.213445770     A.U. after    2 cycles

 The electronic state is 2-A.
 Alpha  occ. eigenvalues --  -93.55259 -15.68194 -11.28154  -8.84675  -6.19585
 Alpha  occ. eigenvalues --   -6.18555  -6.17965  -1.21817  -0.97113  -0.85976
 Alpha  occ. eigenvalues --   -0.67803  -0.63585  -0.59973  -0.53914  -0.50137
 Alpha  occ. eigenvalues --   -0.36011  -0.34888
 Alpha virt. eigenvalues --    0.03149   0.04725   0.05442   0.06397   0.09058
 Alpha virt. eigenvalues --    0.11039   0.13070   0.13487   0.15615   0.16241
 Alpha virt. eigenvalues --    0.16863   0.19281   0.20784   0.21693   0.22981

  Beta  occ. eigenvalues --  -93.54570 -15.66711 -11.28282  -8.83910  -6.18316
  Beta  occ. eigenvalues --   -6.17539  -6.16436  -1.18432  -0.95505  -0.81674
  Beta  occ. eigenvalues --   -0.66342  -0.60670  -0.58370  -0.52238  -0.39628
  Beta  occ. eigenvalues --   -0.34356
  Beta virt. eigenvalues --    0.03152   0.04408   0.04765   0.06084   0.06640
  Beta virt. eigenvalues --    0.09286   0.11132   0.13290   0.15283   0.15979
  Beta virt. eigenvalues --    0.16458   0.16945   0.19526   0.21310   0.21940

 Mulliken charges and spin densities:
               1          2
     1  N   -0.634107   0.299673
     2  S    0.291937   0.771332
     3  C    0.729531  -0.059035
     4  H   -0.061157  -0.039057
     5  H   -0.149446  -0.001563
     6  H   -0.061341   0.019748
     7  H   -0.115416   0.008902
 Sum of Mulliken charges =  -0.00000   1.00000

 Dipole moment (field-independent basis, Debye):
    X=              2.5486    Y=              0.8897    Z=              0.1513  Tot=              2.7037
                          Isotropic Fermi Contact Couplings
        Atom                 a.u.       MegaHertz       Gauss      10(-4) cm-1
     1  N(14)              0.15728      50.81914      18.13353      16.95144
     2  S(33)              0.18784      64.51948      23.02215      21.52138
     3  C(13)             -0.02218     -24.93518      -8.89749      -8.31748
     4  H(1)              -0.01061     -47.43029     -16.92431     -15.82104
     5  H(1)               0.00165       7.36033       2.62635       2.45514
     6  H(1)               0.00683      30.54004      10.89745      10.18706
     7  H(1)               0.00246      10.98116       3.91835       3.66292
 --------------------------------------------------------

 Normal termination of Gaussian 16 at Wed Apr  9 00:14:35 2025.
