 Gaussian 16, Revision C.01,

 ----------------------------------------------------------------------
 #t hf aug-cc-pvdz symm=none int=(grid=ultrafine) guess=(read,tcheck) s
 table=(opt,rrhf)
 ----------------------------------------------------------------------
 -----
 title
 -----
 Symbolic Z-matrix:
 Charge =  0 Multiplicity = 1

 SCF Done:  E(RHF) =  -690.212791660     A.U. after   13 cycles

 1\1\GINC-SE329\Stability\RHF\Aug-CC-pVDZ\H6N2Si2\OHZDE\09-Apr-2025\0\\
 #t hf aug-cc-pvdz symm=none int=(grid=ultrafine) guess=(read,tcheck) s
 table=(opt,rrhf)\\title\\0,1\Si,0,1.684007,-0.420332,0.000004\Si,0,-0.
 212234,0.986894,0.000004\H,0,1.708264,-1.272098,1.210862\H,0,2.898668,
 0.433419,0.000013\H,0,1.708273,-1.272086,-1.210862\N,0,-1.764955,0.053
 105,-0.000005\H,0,-0.289301,1.853396,-1.200377\H,0,-0.289309,1.853386,
 1.200392\N,0,-1.629636,-1.184425,-0.000012\H,0,-2.57928,-1.608643,-0.0
 00015\\Version=ES64L-G16RevC.01\HF=-690.2127917\RMSD=2.179e-09\Dipole=

 Normal termination of Gaussian 16 at Wed Apr  9 00:10:32 2025.
 Gaussian 16:  ES64L-G16RevC.01  3-Jul-2019

 ----------------------------------------------------------------------
 #t hf aug-cc-pvdz iop(5/13=1,5/36=2,99/5=2) pseudo=read geom=check gue
 ss=(read,tcheck) scf=(maxcycle=1)
 ----------------------------------------------------------------------
 -----
 title
 -----
 Structure from the checkpoint file:  "BDE49_nonexpt_2392_mol1.chk"
 Charge =  0 Multiplicity = 1

                         Standard orientation:
 ---------------------------------------------------------------------
 Center     Atomic      Atomic             Coordinates (Angstroms)
 Number     Number       Type             X           Y           Z
 ---------------------------------------------------------------------
      1         14           0        1.684007   -0.420332    0.000004
      2         14           0       -0.212234    0.986894    0.000004
      3          1           0        1.708264   -1.272098    1.210862
      4          1           0        2.898668    0.433419    0.000013
      5          1           0        1.708273   -1.272086   -1.210862
      6          7           0       -1.764955    0.053105   -0.000005
      7          1           0       -0.289301    1.853396   -1.200377
      8          1           0       -0.289309    1.853386    1.200392
      9          7           0       -1.629636   -1.184425   -0.000012
     10          1           0       -2.579280   -1.608643   -0.000015
 ---------------------------------------------------------------------

 SCF Done:  E(RHF) =  -690.287824645     A.U. after    2 cycles

 The electronic state is 1-A.
 Alpha  occ. eigenvalues --  -69.08565 -69.06524 -15.70411 -15.68008  -6.83804
 Alpha  occ. eigenvalues --   -6.81927  -3.94615  -3.94521  -3.94487  -3.92686
 Alpha  occ. eigenvalues --   -3.92682  -3.92666  -1.30055  -0.89948  -0.73438
 Alpha  occ. eigenvalues --   -0.68243  -0.63935  -0.57706  -0.53693  -0.48789
 Alpha  occ. eigenvalues --   -0.48399  -0.46993  -0.41410  -0.36104
 Alpha virt. eigenvalues --    0.03633   0.04213   0.04770   0.06170   0.06840
 Alpha virt. eigenvalues --    0.07254   0.07379   0.07969   0.09320   0.09761
 Alpha virt. eigenvalues --    0.10042   0.10339   0.10435   0.13726   0.14591

 Mulliken charges:
               1
     1  Si  -0.093513
     2  Si   0.710429
     3  H    0.031434
     4  H   -0.035948
     5  H    0.031434
     6  N   -0.720279
     7  H   -0.013239
     8  H   -0.013239
     9  N    0.020585
    10  H    0.082335
 Sum of Mulliken charges =  -0.00000

 Dipole moment (field-independent basis, Debye):
    X=              0.0021    Y=             -0.0942    Z=              0.0000  Tot=              0.0943

 Test job not archived.
 1\1\GINC-SE329\SP\RHF\Aug-CC-pVDZ\H6N2Si2\OHZDE\09-Apr-2025\0\\#t hf a
 ug-cc-pvdz iop(5/13=1,5/36=2,99/5=2) pseudo=read geom=check guess=(rea
 d,tcheck) scf=(maxcycle=1)\\title\\0,1\Si,0,1.684007,-0.420332,0.00000
 4\Si,0,-0.212234,0.986894,0.000004\H,0,1.708264,-1.272098,1.210862\H,0
 ,2.898668,0.433419,0.000013\H,0,1.708273,-1.272086,-1.210862\N,0,-1.76
 4955,0.053105,-0.000005\H,0,-0.289301,1.853396,-1.200377\H,0,-0.289309
 ,1.853386,1.200392\N,0,-1.629636,-1.184425,-0.000012\H,0,-2.57928,-1.6
 08643,-0.000015\\Version=ES64L-G16RevC.01\State=1-A\HF=-690.2878246\RM

 Normal termination of Gaussian 16 at Wed Apr  9 00:10:44 2025.
