 Gaussian 16, Revision C.01,

 ----------------------------------------------------------------------
 #t hf aug-cc-pvdz symm=none int=(grid=ultrafine) guess=(read,tcheck) s
 table=opt
 ----------------------------------------------------------------------
 -----
 title
 -----
 Symbolic Z-matrix:
 Charge =  0 Multiplicity = 2

 SCF Done:  E(UHF) =  -445.236217325     A.U. after   18 cycles
 Normal termination of Gaussian 16 at Tue Apr  8 23:36:12 2025.
 Gaussian 16:  ES64L-G16RevC.01  3-Jul-2019

 ----------------------------------------------------------------------
 #t hf aug-cc-pvdz iop(5/13=1,5/36=2,99/5=2) pseudo=read geom=check gue
 ss=(read,tcheck) scf=(maxcycle=1)
 ----------------------------------------------------------------------
 -----
 title
 -----
 Structure from the checkpoint file:  "BDE49_nonexpt_1547_mol2.chk"
 Charge =  0 Multiplicity = 2

                         Standard orientation:
 ---------------------------------------------------------------------
 Center     Atomic      Atomic             Coordinates (Angstroms)
 Number     Number       Type             X           Y           Z
 ---------------------------------------------------------------------
      1          6           0        1.125618    1.398472   -0.041210
      2          5           0        0.406981    0.001408    0.018704
      3          1           0        1.336804    1.679401    1.003263
      4          1           0        0.534278    2.213454   -0.465032
      5          1           0        2.097314    1.358665   -0.545309
      6          6           0        1.247624   -1.326297    0.042130
      7          1           0        1.441014   -1.591883   -1.010110
      8          1           0        0.748135   -2.189435    0.488832
      9          1           0        2.232216   -1.200476    0.504204
     10         15           0       -1.525844   -0.118614   -0.051285
     11          1           0       -1.776462    1.069399    0.694386
 ---------------------------------------------------------------------

 SCF Done:  E(UHF) =  -445.285576679     A.U. after    2 cycles

 The electronic state is 2-A.
 Alpha  occ. eigenvalues --  -81.24390 -11.21262 -11.21163  -7.75031  -7.62238
 Alpha  occ. eigenvalues --   -4.89796  -4.88655  -4.88390  -0.97169  -0.92598
 Alpha  occ. eigenvalues --   -0.78714  -0.60869  -0.57579  -0.56664  -0.55318
 Alpha  occ. eigenvalues --   -0.53830  -0.47892  -0.44836  -0.36545  -0.34899
 Alpha virt. eigenvalues --    0.03130   0.04918   0.05065   0.05269   0.07041
 Alpha virt. eigenvalues --    0.07223   0.07364   0.08619   0.08665   0.09318
 Alpha virt. eigenvalues --    0.10276   0.11693   0.12101   0.14355   0.15087

  Beta  occ. eigenvalues --  -81.23754 -11.21223 -11.21137  -7.74271  -7.62318
  Beta  occ. eigenvalues --   -4.88227  -4.88035  -4.86869  -0.96939  -0.92459
  Beta  occ. eigenvalues --   -0.72836  -0.60451  -0.57244  -0.56392  -0.54925
  Beta  occ. eigenvalues --   -0.53614  -0.47302  -0.43645  -0.34837
  Beta virt. eigenvalues --    0.02156   0.03195   0.04983   0.05293   0.05491
  Beta virt. eigenvalues --    0.07121   0.07279   0.07447   0.08864   0.09178
  Beta virt. eigenvalues --    0.10136   0.10430   0.11933   0.12621   0.14763

 Mulliken charges and spin densities:
               1          2
     1  C    0.451076   0.008075
     2  B    0.590632  -0.133644
     3  H   -0.093229   0.012055
     4  H   -0.308725   0.003949
     5  H   -0.236954  -0.001366
     6  C    0.459757   0.002030
     7  H   -0.098359   0.008213
     8  H   -0.309350   0.000269
     9  H   -0.243733  -0.001757
    10  P   -0.257390   1.261468
    11  H    0.046275  -0.159291
 Sum of Mulliken charges =  -0.00000   1.00000

 Dipole moment (field-independent basis, Debye):
    X=              1.3279    Y=              0.4009    Z=              0.3335  Tot=              1.4267
                          Isotropic Fermi Contact Couplings
        Atom                 a.u.       MegaHertz       Gauss      10(-4) cm-1
     1  C(13)              0.00801       9.00615       3.21362       3.00413
     2  B(11)             -0.01597     -22.91296      -8.17591      -7.64294
     3  H(1)               0.00220       9.81216       3.50122       3.27298
     4  H(1)               0.00031       1.38778       0.49519       0.46291
     5  H(1)              -0.00058      -2.59624      -0.92640      -0.86601
     6  C(13)              0.00466       5.23550       1.86816       1.74638
     7  H(1)               0.00208       9.30408       3.31993       3.10351
     8  H(1)               0.00024       1.08383       0.38674       0.36153

 Normal termination of Gaussian 16 at Tue Apr  8 23:36:16 2025.
