 Gaussian 16, Revision C.01,

 ----------------------------------------------------------------------
 #t hf aug-cc-pvdz symm=none int=(grid=ultrafine) guess=(read,tcheck) s
 table=(opt,rrhf)
 ----------------------------------------------------------------------
 -----
 title
 -----
 Symbolic Z-matrix:
 Charge =  0 Multiplicity = 1

 SCF Done:  E(RHF) =  -519.029450900     A.U. after   14 cycles
 Normal termination of Gaussian 16 at Wed Apr  9 00:05:41 2025.
 Gaussian 16:  ES64L-G16RevC.01  3-Jul-2019

 ----------------------------------------------------------------------
 #t hf aug-cc-pvdz iop(5/13=1,5/36=2,99/5=2) pseudo=read geom=check gue
 ss=(read,tcheck) scf=(maxcycle=1)
 ----------------------------------------------------------------------
 -----
 title
 -----
 Structure from the checkpoint file:  "BDE49_nonexpt_2257_mol1.chk"
 Charge =  0 Multiplicity = 1

                         Standard orientation:
 ---------------------------------------------------------------------
 Center     Atomic      Atomic             Coordinates (Angstroms)
 Number     Number       Type             X           Y           Z
 ---------------------------------------------------------------------
      1         14           0       -0.370839    0.023437    0.359209
      2          8           0        0.899585   -0.827838   -0.371109
      3          8           0        2.141243   -0.125306   -0.027762
      4          1           0        2.619229   -0.844901    0.405640
      5          6           0       -0.411752    1.800593   -0.208259
      6          1           0        0.534489    2.297547    0.017985
      7          1           0       -1.212453    2.348330    0.299309
      8          1           0       -0.582859    1.867430   -1.286312
      9          6           0       -1.875407   -0.949904   -0.170555
     10          1           0       -1.993248   -0.931308   -1.257225
     11          1           0       -2.777654   -0.519958    0.275734
     12          1           0       -1.806159   -1.992907    0.148041
     13          1           0       -0.193272   -0.031332    1.831744
 ---------------------------------------------------------------------

 SCF Done:  E(RHF) =  -519.137228125     A.U. after    2 cycles

 The electronic state is 1-A.
 Alpha  occ. eigenvalues --  -69.08463 -20.64270 -20.61644 -11.21746 -11.21446
 Alpha  occ. eigenvalues --   -6.83309  -3.94230  -3.94082  -3.94042  -1.40439
 Alpha  occ. eigenvalues --   -1.17228  -0.95358  -0.92747  -0.72639  -0.70770
 Alpha  occ. eigenvalues --   -0.63298  -0.59962  -0.57452  -0.55520  -0.55128
 Alpha  occ. eigenvalues --   -0.54987  -0.52338  -0.49077  -0.45120  -0.43978
 Alpha virt. eigenvalues --    0.03266   0.04530   0.04982   0.05414   0.06715
 Alpha virt. eigenvalues --    0.07111   0.07633   0.07869   0.09306   0.09816
 Alpha virt. eigenvalues --    0.10656   0.14207   0.15332   0.15750   0.16163

 Mulliken charges:
               1
     1  Si   1.735063
     2  O   -0.720355
     3  O   -0.322846
     4  H    0.237254
     5  C    0.267025
     6  H   -0.257951
     7  H   -0.240997
     8  H   -0.196001
     9  C    0.298077
    10  H   -0.159864
    11  H   -0.248894
    12  H   -0.282201
    13  H   -0.108309
 Sum of Mulliken charges =   0.00000

 Dipole moment (field-independent basis, Debye):
    X=             -0.6646    Y=             -0.1281    Z=              1.0185  Tot=              1.2229

 Test job not archived.
 1\1\GINC-SE402\SP\RHF\Aug-CC-pVDZ\C2H8O2Si1\OHZDE\09-Apr-2025\0\\#t hf
  aug-cc-pvdz iop(5/13=1,5/36=2,99/5=2) pseudo=read geom=check guess=(r
 ead,tcheck) scf=(maxcycle=1)\\title\\0,1\Si,0,-0.370839,0.023437,0.359
 209\O,0,0.899585,-0.827838,-0.371109\O,0,2.141243,-0.125307,-0.027762\
 H,0,2.619229,-0.844902,0.40564\C,0,-0.411751,1.800593,-0.208259\H,0,0.
 53449,2.297547,0.017985\H,0,-1.212452,2.34833,0.299309\H,0,-0.582858,1
 .86743,-1.286312\C,0,-1.875407,-0.949904,-0.170555\H,0,-1.993248,-0.93
 1308,-1.257225\H,0,-2.777654,-0.519957,0.275734\H,0,-1.806159,-1.99290

 Normal termination of Gaussian 16 at Wed Apr  9 00:05:45 2025.
