 Gaussian 16, Revision C.01,

 ----------------------------------------------------------------------
 #t hf aug-cc-pvdz symm=none int=(grid=ultrafine) guess=(read,tcheck) s
 table=(opt,rrhf)
 ----------------------------------------------------------------------
 -----
 title
 -----
 Symbolic Z-matrix:
 Charge =  0 Multiplicity = 1

 SCF Done:  E(RHF) =  -1285.68654312     A.U. after   12 cycles
 Normal termination of Gaussian 16 at Tue Apr  8 23:43:10 2025.
 Gaussian 16:  ES64L-G16RevC.01  3-Jul-2019

 ----------------------------------------------------------------------
 #t hf aug-cc-pvdz iop(5/13=1,5/36=2,99/5=2) pseudo=read geom=check gue
 ss=(read,tcheck) scf=(maxcycle=1)
 ----------------------------------------------------------------------
 -----
 title
 -----
 Structure from the checkpoint file:  "BDE49_nonexpt_172_mol1.chk"
 Charge =  0 Multiplicity = 1

                         Standard orientation:
 ---------------------------------------------------------------------
 Center     Atomic      Atomic             Coordinates (Angstroms)
 Number     Number       Type             X           Y           Z
 ---------------------------------------------------------------------
      1         17           0       -0.941221   -1.516687    0.001274
      2         17           0       -0.941214    1.516690    0.001274
      3          5           0       -0.043127    0.000000    0.031270
      4         15           0        1.863322   -0.000003   -0.116802
      5          1           0        2.133597   -1.061018    0.776177
      6          1           0        2.133599    1.061010    0.776178
 ---------------------------------------------------------------------

 SCF Done:  E(RHF) =  -1285.74796490     A.U. after    2 cycles

 The electronic state is 1-A.
 Alpha  occ. eigenvalues -- -103.67855-103.67855 -81.26709 -10.71353 -10.71324
 Alpha  occ. eigenvalues --   -8.37031  -8.37027  -8.36805  -8.36803  -8.36773
 Alpha  occ. eigenvalues --   -8.36769  -7.77371  -7.74886  -4.91345  -4.91304
 Alpha  occ. eigenvalues --   -4.91038  -1.19032  -1.15417  -0.83095  -0.68580
 Alpha  occ. eigenvalues --   -0.60277  -0.56723  -0.53700  -0.53299  -0.48899
 Alpha  occ. eigenvalues --   -0.47568  -0.46111  -0.37509
 Alpha virt. eigenvalues --    0.03513   0.05587   0.05779   0.05852   0.06055
 Alpha virt. eigenvalues --    0.07890   0.08423   0.10787   0.10924   0.12912
 Alpha virt. eigenvalues --    0.13005   0.15503   0.16200   0.17659   0.17833

 Mulliken charges:
               1
     1  Cl  -0.301270
     2  Cl  -0.301270
     3  B    0.582658
     4  P   -0.321114
     5  H    0.170498
     6  H    0.170497
 Sum of Mulliken charges =  -0.00000

 Dipole moment (field-independent basis, Debye):
    X=              1.1447    Y=             -0.0000    Z=              0.6493  Tot=              1.3160

 Test job not archived.
 1\1\GINC-SE247\SP\RHF\Aug-CC-pVDZ\B1Cl2H2P1\OHZDE\08-Apr-2025\0\\#t hf
  aug-cc-pvdz iop(5/13=1,5/36=2,99/5=2) pseudo=read geom=check guess=(r
 ead,tcheck) scf=(maxcycle=1)\\title\\0,1\Cl,0,-0.941222,-1.516686,0.00
 1274\Cl,0,-0.941213,1.516691,0.001274\B,0,-0.043127,0.,0.03127\P,0,1.8
 63322,-0.000005,-0.116802\H,0,2.133596,-1.06102,0.776177\H,0,2.1336,1.
 061008,0.776178\\Version=ES64L-G16RevC.01\State=1-A\HF=-1285.7479649\R
 MSD=8.901e-03\Dipole=0.4503401,-0.0000011,0.2554682\Quadrupole=-0.0098
 496,-0.1770891,0.1869387,-0.0000042,1.4856178,-0.0000026\PG=C01 [X(B1C

 Normal termination of Gaussian 16 at Tue Apr  8 23:43:12 2025.
