 Gaussian 16, Revision C.01,

 ----------------------------------------------------------------------
 #t hf aug-cc-pvdz symm=none int=(grid=ultrafine) guess=(read,tcheck) s
 table=opt
 ----------------------------------------------------------------------
 -----
 title
 -----
 Symbolic Z-matrix:
 Charge =  0 Multiplicity = 2

 SCF Done:  E(UHF) =  -788.594130461     A.U. after   16 cycles
 Normal termination of Gaussian 16 at Tue Apr  8 23:44:14 2025.
 Gaussian 16:  ES64L-G16RevC.01  3-Jul-2019

 ----------------------------------------------------------------------
 #t hf aug-cc-pvdz iop(5/13=1,5/36=2,99/5=2) pseudo=read geom=check gue
 ss=(read,tcheck) scf=(maxcycle=1)
 ----------------------------------------------------------------------
 -----
 title
 -----
 Structure from the checkpoint file:  "BDE49_nonexpt_1758_mol2.chk"
 Charge =  0 Multiplicity = 2

                         Standard orientation:
 ---------------------------------------------------------------------
 Center     Atomic      Atomic             Coordinates (Angstroms)
 Number     Number       Type             X           Y           Z
 ---------------------------------------------------------------------
      1         14           0        1.582790   -0.127171    0.000001
      2          6           0       -0.028381    0.862490    0.000002
      3          1           0       -0.127009    1.487615   -0.886269
      4          1           0       -0.127010    1.487611    0.886276
      5         17           0       -1.476784   -0.261884   -0.000001
      6          1           0        1.685288   -0.958868   -1.222707
      7          1           0        1.685286   -0.958874    1.222705
 ---------------------------------------------------------------------

 SCF Done:  E(UHF) =  -788.645884013     A.U. after    2 cycles

 The electronic state is 2-A.
 Alpha  occ. eigenvalues -- -103.65581 -69.08751 -11.30208 -10.68800  -8.34609
 Alpha  occ. eigenvalues --   -8.34223  -8.34197  -6.84102  -3.95461  -3.94567
 Alpha  occ. eigenvalues --   -3.94540  -1.15678  -0.92665  -0.70647  -0.63028
 Alpha  occ. eigenvalues --   -0.56929  -0.52357  -0.49517  -0.45306  -0.44127
 Alpha  occ. eigenvalues --   -0.33515
 Alpha virt. eigenvalues --    0.03332   0.04643   0.04880   0.06901   0.07527
 Alpha virt. eigenvalues --    0.08232   0.08749   0.09308   0.13127   0.14500
 Alpha virt. eigenvalues --    0.15691   0.16649   0.16678   0.17497   0.17946

  Beta  occ. eigenvalues -- -103.65499 -69.08192 -11.30183 -10.68710  -8.34352
  Beta  occ. eigenvalues --   -8.34148  -8.34113  -6.83269  -3.94187  -3.94154
  Beta  occ. eigenvalues --   -3.93291  -1.15096  -0.92176  -0.67045  -0.62898
  Beta  occ. eigenvalues --   -0.55578  -0.51895  -0.48621  -0.45161  -0.43116
  Beta virt. eigenvalues --    0.01909   0.04132   0.04846   0.04960   0.07637
  Beta virt. eigenvalues --    0.08297   0.08747   0.09517   0.09672   0.13729
  Beta virt. eigenvalues --    0.15442   0.16222   0.17123   0.17558   0.17663

 Mulliken charges and spin densities:
               1          2
     1  Si   0.622570   0.951131
     2  C   -0.201525  -0.016708
     3  H   -0.040147  -0.002097
     4  H   -0.040146  -0.002097
     5  Cl  -0.213202   0.039407
     6  H   -0.063775   0.015182
     7  H   -0.063774   0.015182
 Sum of Mulliken charges =  -0.00000   1.00000

 Dipole moment (field-independent basis, Debye):
    X=              1.5717    Y=              1.4606    Z=              0.0000  Tot=              2.1456
                          Isotropic Fermi Contact Couplings
        Atom                 a.u.       MegaHertz       Gauss      10(-4) cm-1
     1  Si(29)             0.51306    -455.96860    -162.70093    -152.09475
     2  C(13)              0.02949      33.15371      11.83007      11.05889
     3  H(1)              -0.00000      -0.01576      -0.00562      -0.00526
     4  H(1)              -0.00000      -0.01575      -0.00562      -0.00525
     5  Cl(35)             0.04615      20.23704       7.22108       6.75035
     6  H(1)               0.00365      16.30470       5.81792       5.43866
     7  H(1)               0.00365      16.30472       5.81793       5.43867
 --------------------------------------------------------

 Normal termination of Gaussian 16 at Tue Apr  8 23:44:17 2025.
