 Gaussian 16, Revision C.01,

 ----------------------------------------------------------------------
 #t hf aug-cc-pvdz symm=none int=(grid=ultrafine) guess=(read,tcheck) s
 table=(opt,rrhf)
 ----------------------------------------------------------------------
 -----
 title
 -----
 Symbolic Z-matrix:
 Charge =  0 Multiplicity = 1

 SCF Done:  E(RHF) =  -561.377873569     A.U. after   12 cycles
 Normal termination of Gaussian 16 at Wed Apr  9 00:04:27 2025.
 Gaussian 16:  ES64L-G16RevC.01  3-Jul-2019

 ----------------------------------------------------------------------
 #t hf aug-cc-pvdz iop(5/13=1,5/36=2,99/5=2) pseudo=read geom=check gue
 ss=(read,tcheck) scf=(maxcycle=1)
 ----------------------------------------------------------------------
 -----
 title
 -----
 Structure from the checkpoint file:  "BDE49_nonexpt_2227_mol1.chk"
 Charge =  0 Multiplicity = 1

                         Standard orientation:
 ---------------------------------------------------------------------
 Center     Atomic      Atomic             Coordinates (Angstroms)
 Number     Number       Type             X           Y           Z
 ---------------------------------------------------------------------
      1         14           0       -1.196653   -0.134366   -0.347496
      2          8           0        0.305669   -0.355324    0.311721
      3          6           0        1.557404    0.078584   -0.239180
      4          6           0        2.155073    1.149649    0.669271
      5          1           0        1.484997    2.008669    0.749126
      6          1           0        3.116890    1.497763    0.281480
      7          1           0        2.310370    0.743678    1.672429
      8          6           0        2.464174   -1.139283   -0.385791
      9          1           0        1.387547    0.511905   -1.235982
     10          1           0        3.437120   -0.855433   -0.797362
     11          1           0        2.009774   -1.877878   -1.049804
     12          1           0        2.620598   -1.606844    0.590035
     13          6           0       -1.736245    1.661820   -0.278162
     14          1           0       -1.795780    2.020384    0.753807
     15          1           0       -2.724670    1.781814   -0.734284
     16          1           0       -1.043972    2.311681   -0.821900
     17          6           0       -2.360702   -1.232022    0.615831
     18          1           0       -3.378654   -1.162428    0.220070
     19          1           0       -2.387420   -0.941314    1.669924
     20          1           0       -2.046221   -2.277354    0.561927
     21          1           0       -1.161009   -0.543411   -1.780101
 ---------------------------------------------------------------------

 SCF Done:  E(RHF) =  -561.501615614     A.U. after    2 cycles

 The electronic state is 1-A.
 Alpha  occ. eigenvalues --  -69.07271 -20.54586 -11.29517 -11.22339 -11.22198
 Alpha  occ. eigenvalues --  -11.20961 -11.20752  -6.82072  -3.92987  -3.92849
 Alpha  occ. eigenvalues --   -3.92820  -1.29423  -1.03393  -0.94639  -0.93243
 Alpha  occ. eigenvalues --   -0.91969  -0.80316  -0.71222  -0.62095  -0.61406
 Alpha  occ. eigenvalues --   -0.60437  -0.56600  -0.55839  -0.54907  -0.54409
 Alpha  occ. eigenvalues --   -0.54121  -0.53505  -0.52212  -0.51454  -0.46745
 Alpha  occ. eigenvalues --   -0.46017  -0.43604  -0.41811
 Alpha virt. eigenvalues --    0.03264   0.04382   0.04588   0.04824   0.06034
 Alpha virt. eigenvalues --    0.06099   0.06404   0.06755   0.07113   0.08328
 Alpha virt. eigenvalues --    0.08957   0.09027   0.09210   0.10007   0.10301

 Mulliken charges:
               1
     1  Si   1.365731
     2  O   -0.955463
     3  C   -0.148012
     4  C    0.470780
     5  H   -0.114719
     6  H   -0.019151
     7  H   -0.011249
     8  C    0.479780
     9  H   -0.141796
    10  H   -0.015945
    11  H   -0.074249
    12  H   -0.004878
    13  C    0.362118
    14  H   -0.163549
    15  H   -0.279736
    16  H   -0.330394
    17  C    0.328746
    18  H   -0.289956
    19  H   -0.172993
    20  H   -0.298579
    21  H    0.013515
 Sum of Mulliken charges =  -0.00000

 Dipole moment (field-independent basis, Debye):
    X=              0.2766    Y=              0.7247    Z=             -0.4399  Tot=              0.8918

 Test job not archived.
 1\1\GINC-SE344\SP\RHF\Aug-CC-pVDZ\C5H14O1Si1\OHZDE\09-Apr-2025\0\\#t h
 f aug-cc-pvdz iop(5/13=1,5/36=2,99/5=2) pseudo=read geom=check guess=(
 read,tcheck) scf=(maxcycle=1)\\title\\0,1\Si,0,-1.196653,-0.134366,-0.
 347496\O,0,0.305669,-0.355324,0.311721\C,0,1.557404,0.078584,-0.23918\
 C,0,2.155073,1.149649,0.669271\H,0,1.484997,2.008669,0.749126\H,0,3.11
 689,1.497763,0.28148\H,0,2.31037,0.743678,1.672429\C,0,2.464174,-1.139
 283,-0.385791\H,0,1.387547,0.511905,-1.235982\H,0,3.43712,-0.855433,-0
 .797362\H,0,2.009774,-1.877878,-1.049804\H,0,2.620598,-1.606844,0.5900

 Normal termination of Gaussian 16 at Wed Apr  9 00:04:37 2025.
