 Gaussian 16, Revision C.01,

 ----------------------------------------------------------------------
 #t hf aug-cc-pvdz symm=none int=(grid=ultrafine) guess=(read,tcheck) s
 table=(opt,rrhf)
 ----------------------------------------------------------------------
 -----
 title
 -----
 Symbolic Z-matrix:
 Charge =  0 Multiplicity = 1

 SCF Done:  E(RHF) =  -1074.18051947     A.U. after   13 cycles
 Normal termination of Gaussian 16 at Wed Apr  9 00:36:59 2025.
 Gaussian 16:  ES64L-G16RevC.01  3-Jul-2019

 ----------------------------------------------------------------------
 #t hf aug-cc-pvdz iop(5/13=1,5/36=2,99/5=2) pseudo=read geom=check gue
 ss=(read,tcheck) scf=(maxcycle=1)
 ----------------------------------------------------------------------
 -----
 title
 -----
 Structure from the checkpoint file:  "BDE49_nonexpt_606_mol1.chk"
 Charge =  0 Multiplicity = 1

                         Standard orientation:
 ---------------------------------------------------------------------
 Center     Atomic      Atomic             Coordinates (Angstroms)
 Number     Number       Type             X           Y           Z
 ---------------------------------------------------------------------
      1          7           0       -0.088194   -0.179011   -0.000000
      2          5           0        0.905104   -1.208863    0.000002
      3         17           0        0.323640    1.504044    0.000004
      4         17           0       -1.776503   -0.496621   -0.000007
      5          8           0        2.228638   -0.937887    0.000005
      6          1           0        2.448273    0.001019    0.000007
      7          1           0        0.513121   -2.326735   -0.000003
 ---------------------------------------------------------------------

 SCF Done:  E(RHF) =  -1074.27455103     A.U. after    2 cycles

 The electronic state is 1-A.
 Alpha  occ. eigenvalues -- -103.72398-103.71961 -20.60065 -15.73646 -10.75353
 Alpha  occ. eigenvalues --  -10.74896  -8.41106  -8.40727  -8.40670  -8.40660
 Alpha  occ. eigenvalues --   -8.40252  -8.40206  -7.67278  -1.34979  -1.29691
 Alpha  occ. eigenvalues --   -1.17518  -1.00319  -0.79055  -0.71747  -0.67128
 Alpha  occ. eigenvalues --   -0.62789  -0.59879  -0.56767  -0.53653  -0.51168
 Alpha  occ. eigenvalues --   -0.51086  -0.48918  -0.40416
 Alpha virt. eigenvalues --    0.04076   0.04880   0.05360   0.05439   0.07058
 Alpha virt. eigenvalues --    0.08594   0.09479   0.11959   0.12893   0.14185
 Alpha virt. eigenvalues --    0.15486   0.16041   0.16832   0.17027   0.18020

 Mulliken charges:
               1
     1  N   -0.758592
     2  B    0.115021
     3  Cl   0.285437
     4  Cl   0.303076
     5  O   -0.411230
     6  H    0.187825
     7  H    0.278463
 Sum of Mulliken charges =  -0.00000

 Dipole moment (field-independent basis, Debye):
    X=             -0.0225    Y=              0.9472    Z=              0.0000  Tot=              0.9474

 Test job not archived.
 1\1\GINC-SE141\SP\RHF\Aug-CC-pVDZ\B1Cl2H2N1O1\OHZDE\09-Apr-2025\0\\#t
 hf aug-cc-pvdz iop(5/13=1,5/36=2,99/5=2) pseudo=read geom=check guess=
 (read,tcheck) scf=(maxcycle=1)\\title\\0,1\N,0,-0.088194,-0.179011,0.\
 B,0,0.905103,-1.208864,0.000002\Cl,0,0.323641,1.504044,0.000004\Cl,0,-
 1.776503,-0.49662,-0.000007\O,0,2.228637,-0.937888,0.000005\H,0,2.4482
 73,0.001018,0.000007\H,0,0.51312,-2.326735,-0.000003\\Version=ES64L-G1
 6RevC.01\State=1-A\HF=-1074.274551\RMSD=2.903e-03\Dipole=-0.0088715,0.
 3726378,0.0000018\Quadrupole=-0.0336126,0.1470996,-0.113487,3.3328808,

 Normal termination of Gaussian 16 at Wed Apr  9 00:37:02 2025.
