 Gaussian 16, Revision C.01,

 ----------------------------------------------------------------------
 #t hf aug-cc-pvdz symm=none int=(grid=ultrafine) guess=(read,tcheck) s
 table=(opt,rrhf)
 ----------------------------------------------------------------------
 -----
 title
 -----
 Symbolic Z-matrix:
 Charge =  0 Multiplicity = 1

 SCF Done:  E(RHF) =  -263.170603944     A.U. after   12 cycles
 Normal termination of Gaussian 16 at Wed Apr  9 00:33:45 2025.
 Gaussian 16:  ES64L-G16RevC.01  3-Jul-2019

 ----------------------------------------------------------------------
 #t hf aug-cc-pvdz iop(5/13=1,5/36=2,99/5=2) pseudo=read geom=check gue
 ss=(read,tcheck) scf=(maxcycle=1)
 ----------------------------------------------------------------------
 -----
 title
 -----
 Structure from the checkpoint file:  "BDE49_nonexpt_456_mol1.chk"
 Charge =  0 Multiplicity = 1

                         Standard orientation:
 ---------------------------------------------------------------------
 Center     Atomic      Atomic             Coordinates (Angstroms)
 Number     Number       Type             X           Y           Z
 ---------------------------------------------------------------------
      1          1           0        2.302237   -0.520584    0.564066
      2          1           0        1.337333   -1.265655   -1.115860
      3          5           0        1.318476   -0.690365   -0.078837
      4          6           0       -0.041499   -0.033229    0.396149
      5          9           0        0.073289    1.228491   -0.199142
      6          9           0       -1.157468   -0.638621   -0.122160
      7          1           0       -0.225351    0.128609    1.460809
 ---------------------------------------------------------------------

 SCF Done:  E(RHF) =  -263.264159541     A.U. after    2 cycles

 The electronic state is 1-A.
 Alpha  occ. eigenvalues --  -26.13599 -26.13310 -11.40331  -7.65142  -1.68894
 Alpha  occ. eigenvalues --   -1.64855  -0.99662  -0.82084  -0.80552  -0.79875
 Alpha  occ. eigenvalues --   -0.72814  -0.69372  -0.68965  -0.62853  -0.52580
 Alpha  occ. eigenvalues --   -0.50964
 Alpha virt. eigenvalues --    0.02674   0.03702   0.04805   0.05381   0.07689
 Alpha virt. eigenvalues --    0.08700   0.09886   0.11287   0.12677   0.14835
 Alpha virt. eigenvalues --    0.16114   0.19864   0.23032   0.23641   0.25261

 Mulliken charges:
               1
     1  H    0.185900
     2  H    0.196004
     3  B   -0.120289
     4  C    0.832158
     5  F   -0.440397
     6  F   -0.395718
     7  H   -0.257658
 Sum of Mulliken charges =  -0.00000

 Dipole moment (field-independent basis, Debye):
    X=              1.6225    Y=             -1.1150    Z=              1.7033  Tot=              2.6032

 Test job not archived.
 1\1\GINC-SE229\SP\RHF\Aug-CC-pVDZ\C1H3B1F2\OHZDE\09-Apr-2025\0\\#t hf
 aug-cc-pvdz iop(5/13=1,5/36=2,99/5=2) pseudo=read geom=check guess=(re
 ad,tcheck) scf=(maxcycle=1)\\title\\0,1\H,0,2.302238,-0.520582,0.56406
 6\H,0,1.337335,-1.265654,-1.11586\B,0,1.318477,-0.690364,-0.078837\C,0
 ,-0.041499,-0.033229,0.396149\F,0,0.073288,1.228491,-0.199142\F,0,-1.1
 57467,-0.638623,-0.12216\H,0,-0.225351,0.128608,1.460809\\Version=ES64
 L-G16RevC.01\State=1-A\HF=-263.2641595\RMSD=4.827e-03\Dipole=0.638335,
 -0.4386714,0.6701294\Quadrupole=-0.8508066,-0.6974922,1.5482988,-0.955

 Normal termination of Gaussian 16 at Wed Apr  9 00:33:48 2025.
