 Gaussian 16, Revision C.01,

 ----------------------------------------------------------------------
 #t hf aug-cc-pvdz symm=none int=(grid=ultrafine) guess=(read,tcheck) s
 table=(opt,rrhf)
 ----------------------------------------------------------------------
 -----
 title
 -----
 Symbolic Z-matrix:
 Charge =  0 Multiplicity = 1

 SCF Done:  E(RHF) =  -299.229698981     A.U. after   12 cycles
 Normal termination of Gaussian 16 at Wed Apr  9 00:28:09 2025.
 Gaussian 16:  ES64L-G16RevC.01  3-Jul-2019

 ----------------------------------------------------------------------
 #t hf aug-cc-pvdz iop(5/13=1,5/36=2,99/5=2) pseudo=read geom=check gue
 ss=(read,tcheck) scf=(maxcycle=1)
 ----------------------------------------------------------------------
 -----
 title
 -----
 Structure from the checkpoint file:  "BDE49_nonexpt_350_mol1.chk"
 Charge =  0 Multiplicity = 1

                         Standard orientation:
 ---------------------------------------------------------------------
 Center     Atomic      Atomic             Coordinates (Angstroms)
 Number     Number       Type             X           Y           Z
 ---------------------------------------------------------------------
      1          9           0        1.105692   -0.766749   -0.000004
      2          9           0        0.162166    1.309294    0.000000
      3          8           0       -1.195506   -0.603063    0.000004
      4          5           0        0.015467   -0.016592   -0.000001
      5          1           0       -1.923998    0.024564    0.000007
 ---------------------------------------------------------------------

 SCF Done:  E(RHF) =  -299.349960409     A.U. after    2 cycles

 The electronic state is 1-A.
 Alpha  occ. eigenvalues --  -26.14671 -26.14088 -20.62058  -7.77262  -1.69711
 Alpha  occ. eigenvalues --   -1.67563  -1.37082  -0.88478  -0.84496  -0.81452
 Alpha  occ. eigenvalues --   -0.78001  -0.73864  -0.73006  -0.71661  -0.62849
 Alpha  occ. eigenvalues --   -0.58879
 Alpha virt. eigenvalues --    0.03215   0.05560   0.06002   0.06197   0.08705
 Alpha virt. eigenvalues --    0.17418   0.19201   0.20333   0.21046   0.21953
 Alpha virt. eigenvalues --    0.24381   0.25952   0.27251   0.27998   0.29354

 Mulliken charges:
               1
     1  F   -0.397860
     2  F   -0.410894
     3  O   -0.412355
     4  B    1.023694
     5  H    0.197415
 Sum of Mulliken charges =   0.00000

 Dipole moment (field-independent basis, Debye):
    X=             -2.0339    Y=              0.8502    Z=              0.0000  Tot=              2.2044

 Test job not archived.
 1\1\GINC-SE329\SP\RHF\Aug-CC-pVDZ\B1F2H1O1\OHZDE\09-Apr-2025\0\\#t hf
 aug-cc-pvdz iop(5/13=1,5/36=2,99/5=2) pseudo=read geom=check guess=(re
 ad,tcheck) scf=(maxcycle=1)\\title\\0,1\F,0,1.105692,-0.766748,-0.0000
 04\F,0,0.162165,1.309294,0.\O,0,-1.195506,-0.603064,0.000004\B,0,0.015
 467,-0.016592,-0.000001\H,0,-1.923998,0.024563,0.000007\\Version=ES64L
 -G16RevC.01\State=1-A\HF=-299.3499604\RMSD=5.767e-03\Dipole=-0.8001846
 ,0.3345133,0.0000008\Quadrupole=1.6936847,-2.8896143,1.1959296,-1.1515
 783,-0.0000038,0.0000026\PG=C01 [X(B1F2H1O1)]\\@

 Normal termination of Gaussian 16 at Wed Apr  9 00:28:11 2025.
