 Gaussian 16, Revision C.01,

 ----------------------------------------------------------------------
 #t hf aug-cc-pvdz symm=none int=(grid=ultrafine) guess=(read,tcheck) s
 table=(opt,rrhf)
 ----------------------------------------------------------------------
 -----
 title
 -----
 Symbolic Z-matrix:
 Charge =  0 Multiplicity = 1

 SCF Done:  E(RHF) =  -996.102268254     A.U. after   13 cycles

 1\1\GINC-SE120\Stability\RHF\Aug-CC-pVDZ\C8H20P2\OHZDE\08-Apr-2025\0\\
 #t hf aug-cc-pvdz symm=none int=(grid=ultrafine) guess=(read,tcheck) s
 table=(opt,rrhf)\\title\\0,1\P,0,0.984278,0.540065,-0.701023\P,0,-0.98
 4275,-0.540077,-0.701016\C,0,2.137905,-0.886269,-1.087687\C,0,1.392783
 ,0.914679,1.090145\C,0,-2.137901,0.88625,-1.08771\C,0,-1.392786,-0.914
 659,1.090157\C,0,2.780684,1.552442,1.245189\H,0,1.313471,0.024078,1.71
 8667\H,0,0.628078,1.615024,1.43789\H,0,3.577714,0.864115,0.95195\H,0,2
 .961524,1.837451,2.286052\H,0,2.876196,2.450688,0.629316\C,0,2.166318,

 Normal termination of Gaussian 16 at Tue Apr  8 23:03:47 2025.
 Gaussian 16:  ES64L-G16RevC.01  3-Jul-2019

 ----------------------------------------------------------------------
 #t hf aug-cc-pvdz iop(5/13=1,5/36=2,99/5=2) pseudo=read geom=check gue
 ss=(read,tcheck) scf=(maxcycle=1)
 ----------------------------------------------------------------------
 -----
 title
 -----
 Structure from the checkpoint file:  "BDE49_expt_1950_mol1.chk"
 Charge =  0 Multiplicity = 1

                         Standard orientation:
 ---------------------------------------------------------------------
 Center     Atomic      Atomic             Coordinates (Angstroms)
 Number     Number       Type             X           Y           Z
 ---------------------------------------------------------------------
      1         15           0        0.984278    0.540065   -0.701023
      2         15           0       -0.984275   -0.540077   -0.701016
      3          6           0        2.137905   -0.886269   -1.087687
      4          6           0        1.392783    0.914679    1.090145
      5          6           0       -2.137901    0.886250   -1.087710
      6          6           0       -1.392786   -0.914659    1.090157
      7          6           0        2.780684    1.552442    1.245189
      8          1           0        1.313471    0.024078    1.718667
      9          1           0        0.628078    1.615024    1.437890
     10          1           0        3.577714    0.864115    0.951950
     11          1           0        2.961524    1.837451    2.286052
     12          1           0        2.876196    2.450688    0.629316
     13          6           0        2.166318   -2.103492   -0.158907
     14          1           0        3.137750   -0.445419   -1.166055
     15          1           0        1.869763   -1.194783   -2.102781
     16          1           0        2.440907   -1.832126    0.863769
     17          1           0        2.899131   -2.838086   -0.507762
     18          1           0        1.193720   -2.601150   -0.128030
     19          6           0       -2.780688   -1.552419    1.245207
     20          1           0       -1.313477   -0.024047    1.718663
     21          1           0       -0.628082   -1.614998    1.437916
     22          1           0       -3.577717   -0.864098    0.951953
     23          1           0       -2.961531   -1.837410    2.286075
     24          1           0       -2.876198   -2.450676    0.629350
     25          6           0       -2.166318    2.103488   -0.158950
     26          1           0       -3.137746    0.445398   -1.166074
     27          1           0       -1.869755    1.194747   -2.102809
     28          1           0       -2.440911    1.832140    0.863729
     29          1           0       -2.899130    2.838077   -0.507821
     30          1           0       -1.193720    2.601147   -0.128079
 ---------------------------------------------------------------------

 SCF Done:  E(RHF) =  -996.244786517     A.U. after    2 cycles

 The electronic state is 1-A.
 Alpha  occ. eigenvalues --  -81.24040 -81.24040 -11.23909 -11.23908 -11.23541
 Alpha  occ. eigenvalues --  -11.23540 -11.23183 -11.23181 -11.22836 -11.22836
 Alpha  occ. eigenvalues --   -7.74330  -7.74321  -4.88370  -4.88304  -4.88297
 Alpha  occ. eigenvalues --   -4.88243  -4.87982  -4.87973  -1.03813  -1.02710
 Alpha  occ. eigenvalues --   -1.00882  -1.00871  -0.87505  -0.85670  -0.84781
 Alpha  occ. eigenvalues --   -0.83778  -0.72623  -0.65652  -0.63002  -0.62582
 Alpha  occ. eigenvalues --   -0.61086  -0.60949  -0.57609  -0.57261  -0.56262
 Alpha  occ. eigenvalues --   -0.54698  -0.53663  -0.52511  -0.52134  -0.51151
 Alpha  occ. eigenvalues --   -0.50826  -0.50355  -0.49586  -0.49342  -0.43363
 Alpha  occ. eigenvalues --   -0.42809  -0.39833  -0.32851  -0.29285
 Alpha virt. eigenvalues --    0.03287   0.03850   0.04215   0.04379   0.05697
 Alpha virt. eigenvalues --    0.05741   0.05988   0.06311   0.06421   0.07593
 Alpha virt. eigenvalues --    0.07658   0.08014   0.08254   0.08338   0.09205

 Mulliken charges:
               1
     1  P    0.406395
     2  P    0.406396
     3  C    0.157325
     4  C    0.018274
     5  C    0.157321
     6  C    0.018276
     7  C    0.558943
     8  H   -0.197613
     9  H   -0.319156
    10  H   -0.107116
    11  H   -0.055317
    12  H   -0.054482
    13  C    0.423512
    14  H   -0.202307
    15  H   -0.206991
    16  H   -0.171935
    17  H   -0.120229
    18  H   -0.129303
    19  C    0.558943
    20  H   -0.197615
    21  H   -0.319155
    22  H   -0.107118
    23  H   -0.055315
    24  H   -0.054483
    25  C    0.423511
    26  H   -0.202305
    27  H   -0.206989
    28  H   -0.171938
    29  H   -0.120227
    30  H   -0.129302
 Sum of Mulliken charges =  -0.00000

 Dipole moment (field-independent basis, Debye):
    X=             -0.0000    Y=              0.0000    Z=              1.7582  Tot=              1.7582

 Test job not archived.
 1\1\GINC-SE120\SP\RHF\Aug-CC-pVDZ\C8H20P2\OHZDE\08-Apr-2025\0\\#t hf a
 ug-cc-pvdz iop(5/13=1,5/36=2,99/5=2) pseudo=read geom=check guess=(rea
 d,tcheck) scf=(maxcycle=1)\\title\\0,1\P,0,0.984278,0.540065,-0.701023
 \P,0,-0.984275,-0.540077,-0.701016\C,0,2.137905,-0.886269,-1.087687\C,
 0,1.392783,0.914679,1.090145\C,0,-2.137901,0.88625,-1.08771\C,0,-1.392
 786,-0.914659,1.090157\C,0,2.780684,1.552442,1.245189\H,0,1.313471,0.0
 24078,1.718667\H,0,0.628078,1.615024,1.43789\H,0,3.577714,0.864115,0.9
 5195\H,0,2.961524,1.837451,2.286052\H,0,2.876196,2.450688,0.629316\C,0

 Normal termination of Gaussian 16 at Tue Apr  8 23:04:16 2025.
