 Gaussian 16, Revision C.01,

 ----------------------------------------------------------------------
 #t hf aug-cc-pvdz symm=none int=(grid=ultrafine) guess=(read,tcheck) s
 table=(opt,rrhf)
 ----------------------------------------------------------------------
 -----
 title
 -----
 Symbolic Z-matrix:
 Charge =  0 Multiplicity = 1

 SCF Done:  E(RHF) =  -457.404320832     A.U. after   16 cycles
 Normal termination of Gaussian 16 at Tue Apr  8 22:35:42 2025.
 Gaussian 16:  ES64L-G16RevC.01  3-Jul-2019

 ----------------------------------------------------------------------
 #t hf aug-cc-pvdz iop(5/13=1,5/36=2,99/5=2) pseudo=read geom=check gue
 ss=(read,tcheck) scf=(maxcycle=1)
 ----------------------------------------------------------------------
 -----
 title
 -----
 Structure from the checkpoint file:  "BDE49_expt_1133_mol1.chk"
 Charge =  0 Multiplicity = 1

                         Standard orientation:
 ---------------------------------------------------------------------
 Center     Atomic      Atomic             Coordinates (Angstroms)
 Number     Number       Type             X           Y           Z
 ---------------------------------------------------------------------
      1          6           0       -1.233557    0.395227   -0.000026
      2          8           0       -1.724574    1.499961   -0.000003
      3          8           0       -1.970013   -0.737407   -0.000006
      4          6           0        0.231806    0.120841   -0.000011
      5          6           0       -3.394976   -0.550334    0.000014
      6          1           0       -3.820354   -1.551528    0.000027
      7          1           0       -3.708597    0.000863   -0.887947
      8          1           0       -3.708571    0.000875    0.887976
      9          6           0        0.751113   -1.178264   -0.000010
     10          6           0        1.100468    1.217090    0.000001
     11          6           0        2.475804    1.016719    0.000013
     12          6           0        2.991316   -0.279221    0.000014
     13          6           0        2.128521   -1.374344    0.000002
     14          1           0        2.529676   -2.381389    0.000003
     15          1           0        0.074124   -2.022039   -0.000019
     16          1           0        3.146331    1.868399    0.000022
     17          1           0        4.064328   -0.435498    0.000024
     18          1           0        0.676787    2.213614    0.000000
 ---------------------------------------------------------------------

 SCF Done:  E(RHF) =  -457.544906577     A.U. after    2 cycles

 The electronic state is 1-A.
 Alpha  occ. eigenvalues --  -20.61788 -20.55874 -11.39673 -11.29846 -11.26246
 Alpha  occ. eigenvalues --  -11.26238 -11.26124 -11.25862 -11.25431 -11.25347
 Alpha  occ. eigenvalues --   -1.42002  -1.32366  -1.15845  -1.04638  -1.02304
 Alpha  occ. eigenvalues --   -0.97382  -0.86623  -0.84006  -0.78616  -0.74757
 Alpha  occ. eigenvalues --   -0.69603  -0.68393  -0.68141  -0.63938  -0.63593
 Alpha  occ. eigenvalues --   -0.60619  -0.59220  -0.56764  -0.54201  -0.53020
 Alpha  occ. eigenvalues --   -0.51158  -0.50754  -0.48091  -0.47002  -0.35541
 Alpha  occ. eigenvalues --   -0.35072
 Alpha virt. eigenvalues --    0.03139   0.03737   0.04230   0.05301   0.05816
 Alpha virt. eigenvalues --    0.06401   0.06942   0.07066   0.07509   0.10119
 Alpha virt. eigenvalues --    0.10550   0.10989   0.11390   0.13205   0.13641

 Mulliken charges:
               1
     1  C   -0.214622
     2  O   -0.439286
     3  O   -0.562671
     4  C    1.428008
     5  C    0.738266
     6  H   -0.276126
     7  H   -0.046948
     8  H   -0.046947
     9  C    0.436201
    10  C   -0.019563
    11  C    0.598146
    12  C    0.523829
    13  C    0.380351
    14  H   -0.445478
    15  H   -0.598531
    16  H   -0.422509
    17  H   -0.432959
    18  H   -0.599162
 Sum of Mulliken charges =  -0.00000

 Dipole moment (field-independent basis, Debye):
    X=              0.9359    Y=             -2.0573    Z=             -0.0000  Tot=              2.2601

 Test job not archived.
 1\1\GINC-SE073\SP\RHF\Aug-CC-pVDZ\C8H8O2\OHZDE\08-Apr-2025\0\\#t hf au
 g-cc-pvdz iop(5/13=1,5/36=2,99/5=2) pseudo=read geom=check guess=(read
 ,tcheck) scf=(maxcycle=1)\\title\\0,1\C,0,-1.233557,0.395227,-0.000026
 \O,0,-1.724574,1.499961,-0.000003\O,0,-1.970013,-0.737407,-0.000006\C,
 0,0.231806,0.120841,-0.000011\C,0,-3.394976,-0.550334,0.000014\H,0,-3.
 820354,-1.551528,0.000027\H,0,-3.708597,0.000863,-0.887947\H,0,-3.7085
 71,0.000875,0.887976\C,0,0.751113,-1.178264,-0.00001\C,0,1.100468,1.21
 709,0.000001\C,0,2.475804,1.016719,0.000013\C,0,2.991316,-0.279221,0.0

 Normal termination of Gaussian 16 at Tue Apr  8 22:35:52 2025.
