 Gaussian 16, Revision C.01,

 ----------------------------------------------------------------------
 #t hf aug-cc-pvdz symm=none int=(grid=ultrafine) guess=(read,tcheck) s
 table=(opt,rrhf)
 ----------------------------------------------------------------------
 -----
 title
 -----
 Symbolic Z-matrix:
 Charge =  0 Multiplicity = 1

 SCF Done:  E(RHF) =  -611.929830574     A.U. after   14 cycles
 Normal termination of Gaussian 16 at Tue Apr  8 23:58:55 2025.
 Gaussian 16:  ES64L-G16RevC.01  3-Jul-2019

 ----------------------------------------------------------------------
 #t hf aug-cc-pvdz iop(5/13=1,5/36=2,99/5=2) pseudo=read geom=check gue
 ss=(read,tcheck) scf=(maxcycle=1)
 ----------------------------------------------------------------------
 -----
 title
 -----
 Structure from the checkpoint file:  "BDE49_nonexpt_2103_mol1.chk"
 Charge =  0 Multiplicity = 1

                         Standard orientation:
 ---------------------------------------------------------------------
 Center     Atomic      Atomic             Coordinates (Angstroms)
 Number     Number       Type             X           Y           Z
 ---------------------------------------------------------------------
      1         14           0        0.606473    0.003390    0.000010
      2          7           0       -1.279708    0.042869    0.000023
      3          8           0       -1.875752    1.117321   -0.000016
      4          8           0       -1.837740   -1.055149   -0.000047
      5          6           0        1.036199   -0.930509   -1.555889
      6          1           0        0.707261   -0.393180   -2.449173
      7          1           0        0.560898   -1.913739   -1.552921
      8          6           0        1.036215   -0.930524    1.555896
      9          1           0        2.119004   -1.072586    1.628390
     10          1           0        0.560913   -1.913753    1.552924
     11          1           0        0.707288   -0.393202    2.449189
     12          6           0        1.177395    1.775119    0.000016
     13          1           0        0.815282    2.306230   -0.883091
     14          1           0        2.271500    1.817130    0.000011
     15          1           0        0.815289    2.306223    0.883130
     16          1           0        2.118987   -1.072570   -1.628397
 ---------------------------------------------------------------------

 SCF Done:  E(RHF) =  -612.058889432     A.U. after    2 cycles

 The electronic state is 1-A.
 Alpha  occ. eigenvalues --  -69.11072 -20.60762 -20.60458 -15.86712 -11.23821
 Alpha  occ. eigenvalues --  -11.23816 -11.23673  -6.86112  -3.97000  -3.96798
 Alpha  occ. eigenvalues --   -3.96791  -1.51743  -1.34049  -0.99862  -0.94912
 Alpha  occ. eigenvalues --   -0.94819  -0.91120  -0.77219  -0.71702  -0.69349
 Alpha  occ. eigenvalues --   -0.62332  -0.59388  -0.59051  -0.58356  -0.57447
 Alpha  occ. eigenvalues --   -0.57187  -0.55965  -0.50755  -0.46957  -0.46599
 Alpha  occ. eigenvalues --   -0.45972  -0.45763
 Alpha virt. eigenvalues --    0.02168   0.04153   0.04353   0.05008   0.06342
 Alpha virt. eigenvalues --    0.06640   0.07047   0.07222   0.08190   0.08947
 Alpha virt. eigenvalues --    0.09037   0.10637   0.10662   0.10788   0.13689

 Mulliken charges:
               1
     1  Si   1.897125
     2  N    0.188165
     3  O   -0.535297
     4  O   -0.598968
     5  C    0.399113
     6  H   -0.301449
     7  H   -0.216910
     8  C    0.399119
     9  H   -0.212856
    10  H   -0.216922
    11  H   -0.301440
    12  C    0.361563
    13  H   -0.205817
    14  H   -0.236745
    15  H   -0.205822
    16  H   -0.212859
 Sum of Mulliken charges =  -0.00000

 Dipole moment (field-independent basis, Debye):
    X=              5.3604    Y=             -0.0152    Z=              0.0001  Tot=              5.3604

 Test job not archived.
 1\1\GINC-SE343\SP\RHF\Aug-CC-pVDZ\C3H9N1O2Si1\OHZDE\08-Apr-2025\0\\#t
 hf aug-cc-pvdz iop(5/13=1,5/36=2,99/5=2) pseudo=read geom=check guess=
 (read,tcheck) scf=(maxcycle=1)\\title\\0,1\Si,0,-0.606473,0.00339,-0.0
 0001\N,0,1.279708,0.042869,-0.000023\O,0,1.875752,1.117321,0.000016\O,
 0,1.83774,-1.055149,0.000047\C,0,-1.036199,-0.930509,1.555889\H,0,-0.7
 07261,-0.39318,2.449173\H,0,-0.560898,-1.913739,1.552921\C,0,-1.036215
 ,-0.930524,-1.555896\H,0,-2.119004,-1.072586,-1.62839\H,0,-0.560913,-1
 .913753,-1.552924\H,0,-0.707288,-0.393202,-2.449189\C,0,-1.177395,1.77

 Normal termination of Gaussian 16 at Tue Apr  8 23:59:01 2025.
