 Gaussian 16, Revision C.01,

 ----------------------------------------------------------------------
 #t hf aug-cc-pvdz symm=none int=(grid=ultrafine) guess=(read,tcheck) s
 table=(opt,rrhf)
 ----------------------------------------------------------------------
 -----
 title
 -----
 Symbolic Z-matrix:
 Charge =  0 Multiplicity = 1

 SCF Done:  E(RHF) =  -103.301560188     A.U. after   12 cycles
 Normal termination of Gaussian 16 at Wed Apr  9 00:24:39 2025.
 Gaussian 16:  ES64L-G16RevC.01  3-Jul-2019

 ----------------------------------------------------------------------
 #t hf aug-cc-pvdz iop(5/13=1,5/36=2,99/5=2) pseudo=read geom=check gue
 ss=(read,tcheck) scf=(maxcycle=1)
 ----------------------------------------------------------------------
 -----
 title
 -----
 Structure from the checkpoint file:  "BDE49_nonexpt_292_mol1.chk"
 Charge =  0 Multiplicity = 1

                         Standard orientation:
 ---------------------------------------------------------------------
 Center     Atomic      Atomic             Coordinates (Angstroms)
 Number     Number       Type             X           Y           Z
 ---------------------------------------------------------------------
      1          5           0        1.349982    0.206448   -0.000113
      2          6           0       -0.023493   -0.484333   -0.000002
      3          6           0       -1.162851    0.229326    0.000035
      4          1           0       -0.109545   -1.570161    0.000042
      5          1           0       -1.139925    1.315577   -0.000005
      6          1           0       -2.148361   -0.230206    0.000101
      7          1           0        1.399297    1.399790    0.000122
      8          1           0        2.366688   -0.417199    0.000111
 ---------------------------------------------------------------------

 SCF Done:  E(RHF) =  -103.335457278     A.U. after    2 cycles

 The electronic state is 1-A.
 Alpha  occ. eigenvalues --  -11.26839 -11.22359  -7.60738  -1.03644  -0.80439
 Alpha  occ. eigenvalues --   -0.68674  -0.62779  -0.56575  -0.47875  -0.47062
 Alpha  occ. eigenvalues --   -0.39237
 Alpha virt. eigenvalues --    0.03666   0.04273   0.04535   0.05137   0.06671
 Alpha virt. eigenvalues --    0.07036   0.07213   0.10112   0.10937   0.13187
 Alpha virt. eigenvalues --    0.14075   0.15217   0.15424   0.16292   0.17880

 Mulliken charges:
               1
     1  B   -0.438236
     2  C    0.379737
     3  C    0.426498
     4  H   -0.325099
     5  H   -0.292704
     6  H   -0.239036
     7  H    0.196828
     8  H    0.292012
 Sum of Mulliken charges =  -0.00000

 Dipole moment (field-independent basis, Debye):
    X=             -1.1677    Y=             -0.0781    Z=             -0.0003  Tot=              1.1703

 Test job not archived.
 1\1\GINC-SE462\SP\RHF\Aug-CC-pVDZ\C2H5B1\OHZDE\09-Apr-2025\0\\#t hf au
 g-cc-pvdz iop(5/13=1,5/36=2,99/5=2) pseudo=read geom=check guess=(read
 ,tcheck) scf=(maxcycle=1)\\title\\0,1\B,0,-1.349982,0.206448,0.000113\
 C,0,0.023493,-0.484333,0.000002\C,0,1.162851,0.229326,-0.000035\H,0,0.
 109545,-1.570161,-0.000042\H,0,1.139925,1.315577,0.000005\H,0,2.148361
 ,-0.230206,-0.000101\H,0,-1.399297,1.39979,-0.000122\H,0,-2.366688,-0.
 417199,-0.000111\\Version=ES64L-G16RevC.01\State=1-A\HF=-103.3354573\R
 MSD=4.836e-03\Dipole=0.4593985,-0.0307158,0.0001344\Quadrupole=0.17396

 Normal termination of Gaussian 16 at Wed Apr  9 00:24:41 2025.
