 Gaussian 16, Revision C.01,

 ----------------------------------------------------------------------
 #t hf aug-cc-pvdz symm=none int=(grid=ultrafine) guess=(read,tcheck) s
 table=opt
 ----------------------------------------------------------------------
 -----
 title
 -----
 Symbolic Z-matrix:
 Charge =  0 Multiplicity = 2

 SCF Done:  E(UHF) =  -527.393641793     A.U. after   15 cycles
 Normal termination of Gaussian 16 at Tue Apr  8 23:53:54 2025.
 Gaussian 16:  ES64L-G16RevC.01  3-Jul-2019

 ----------------------------------------------------------------------
 #t hf aug-cc-pvdz iop(5/13=1,5/36=2,99/5=2) pseudo=read geom=check gue
 ss=(read,tcheck) scf=(maxcycle=1)
 ----------------------------------------------------------------------
 -----
 title
 -----
 Structure from the checkpoint file:  "BDE49_nonexpt_1976_mol2.chk"
 Charge =  0 Multiplicity = 2

                         Standard orientation:
 ---------------------------------------------------------------------
 Center     Atomic      Atomic             Coordinates (Angstroms)
 Number     Number       Type             X           Y           Z
 ---------------------------------------------------------------------
      1          6           0       -0.488682    0.019696    0.398913
      2         14           0        1.387163   -0.132343    0.002100
      3          9           0       -0.993610    1.151032   -0.213531
      4          1           0       -0.743569    0.086468    1.460517
      5          9           0       -1.163313   -1.061637   -0.123356
      6          1           0        2.109494    1.007881    0.617647
      7          1           0        1.558189   -0.164287   -1.469058
 ---------------------------------------------------------------------

 SCF Done:  E(UHF) =  -527.498602998     A.U. after    2 cycles

 The electronic state is 2-A.
 Alpha  occ. eigenvalues --  -69.09763 -26.13593 -26.13533 -11.41206  -6.85194
 Alpha  occ. eigenvalues --   -3.96544  -3.95642  -3.95612  -1.69291  -1.65116
 Alpha  occ. eigenvalues --   -0.99164  -0.81471  -0.80824  -0.80329  -0.72979
 Alpha  occ. eigenvalues --   -0.70448  -0.69456  -0.63316  -0.51062  -0.48871
 Alpha  occ. eigenvalues --   -0.35743
 Alpha virt. eigenvalues --    0.03363   0.04509   0.05922   0.06629   0.07151
 Alpha virt. eigenvalues --    0.08627   0.10794   0.11213   0.13960   0.15118
 Alpha virt. eigenvalues --    0.15965   0.17028   0.18076   0.20442   0.21817

  Beta  occ. eigenvalues --  -69.09177 -26.13610 -26.13370 -11.41159  -6.84311
  Beta  occ. eigenvalues --   -3.95237  -3.95204  -3.94311  -1.69093  -1.64874
  Beta  occ. eigenvalues --   -0.98828  -0.81038  -0.80229  -0.80000  -0.72757
  Beta  occ. eigenvalues --   -0.69349  -0.67372  -0.62463  -0.50117  -0.48065
  Beta virt. eigenvalues --    0.01506   0.03833   0.04705   0.06091   0.07328
  Beta virt. eigenvalues --    0.08511   0.08937   0.11272   0.11456   0.15338
  Beta virt. eigenvalues --    0.15913   0.16869   0.19098   0.20098   0.22156

 Mulliken charges and spin densities:
               1          2
     1  C    0.593789   0.006843
     2  Si   0.578472   0.958595
     3  F   -0.413897   0.001997
     4  H   -0.221308   0.000642
     5  F   -0.376248  -0.006178
     6  H   -0.076702   0.018335
     7  H   -0.084107   0.019766
 Sum of Mulliken charges =  -0.00000   1.00000

 Dipole moment (field-independent basis, Debye):
    X=              2.0434    Y=             -0.1310    Z=              1.6120  Tot=              2.6060
                          Isotropic Fermi Contact Couplings
        Atom                 a.u.       MegaHertz       Gauss      10(-4) cm-1
     1  C(13)              0.02117      23.79777       8.49164       7.93808
     2  Si(29)             0.56620    -503.19500    -179.55249    -167.84778
     3  F(19)              0.03343     140.67118      50.19498      46.92286
     4  H(1)              -0.00084      -3.77362      -1.34652      -1.25874
     5  F(19)             -0.00326     -13.69682      -4.88737      -4.56877
     6  H(1)               0.00339      15.15637       5.40817       5.05562
     7  H(1)               0.00341      15.24024       5.43810       5.08360
 --------------------------------------------------------

 Normal termination of Gaussian 16 at Tue Apr  8 23:53:56 2025.
