 Gaussian 16, Revision C.01,

 ----------------------------------------------------------------------
 #t hf aug-cc-pvdz symm=none int=(grid=ultrafine) guess=(read,tcheck) s
 table=(opt,rrhf)
 ----------------------------------------------------------------------
 -----
 title
 -----
 Symbolic Z-matrix:
 Charge =  0 Multiplicity = 1

 SCF Done:  E(RHF) =  -686.995916602     A.U. after   10 cycles
 Normal termination of Gaussian 16 at Tue Apr  8 22:55:35 2025.
 Gaussian 16:  ES64L-G16RevC.01  3-Jul-2019

 ----------------------------------------------------------------------
 #t hf aug-cc-pvdz iop(5/13=1,5/36=2,99/5=2) pseudo=read geom=check gue
 ss=(read,tcheck) scf=(maxcycle=1)
 ----------------------------------------------------------------------
 -----
 title
 -----
 Structure from the checkpoint file:  "BDE49_expt_1930_mol1.chk"
 Charge =  0 Multiplicity = 1

                         Standard orientation:
 ---------------------------------------------------------------------
 Center     Atomic      Atomic             Coordinates (Angstroms)
 Number     Number       Type             X           Y           Z
 ---------------------------------------------------------------------
      1         14           0        0.000004    0.000006   -0.000001
      2          9           0        0.038922    1.539407    0.300100
      3          9           0       -0.346087   -0.780778    1.316022
      4          9           0        1.401251   -0.464927   -0.530752
      5          9           0       -1.094093   -0.293710   -1.085368
 ---------------------------------------------------------------------

 SCF Done:  E(RHF) =  -687.207291894     A.U. after    2 cycles

 The electronic state is 1-A.
 Alpha  occ. eigenvalues --  -69.27743 -26.16833 -26.16831 -26.16830 -26.16830
 Alpha  occ. eigenvalues --   -7.00919  -4.12019  -4.12019  -4.12019  -1.71950
 Alpha  occ. eigenvalues --   -1.69596  -1.69596  -1.69596  -0.91409  -0.84350
 Alpha  occ. eigenvalues --   -0.84349  -0.84349  -0.79038  -0.79038  -0.77540
 Alpha  occ. eigenvalues --   -0.77540  -0.77540  -0.74677  -0.74677  -0.74677
 Alpha virt. eigenvalues --    0.05078   0.06011   0.06011   0.06011   0.19035
 Alpha virt. eigenvalues --    0.19035   0.19035   0.22670   0.23083   0.23084
 Alpha virt. eigenvalues --    0.24196   0.24197   0.24197   0.28493   0.31481

 Mulliken charges:
               1
     1  Si   3.108451
     2  F   -0.777112
     3  F   -0.777114
     4  F   -0.777111
     5  F   -0.777113
 Sum of Mulliken charges =  -0.00000

 Dipole moment (field-independent basis, Debye):
    X=              0.0001    Y=              0.0001    Z=             -0.0000  Tot=              0.0001

 Test job not archived.
 1\1\GINC-SE072\SP\RHF\Aug-CC-pVDZ\F4Si1\OHZDE\08-Apr-2025\0\\#t hf aug
 -cc-pvdz iop(5/13=1,5/36=2,99/5=2) pseudo=read geom=check guess=(read,
 tcheck) scf=(maxcycle=1)\\title\\0,1\Si,0,-0.000004,0.000006,0.000001\
 F,0,-0.027036,1.538191,-0.307548\F,0,0.325171,-0.790692,-1.315437\F,0,
 -1.400249,-0.448591,0.5472\F,0,1.102121,-0.298917,1.075782\\Version=ES
 64L-G16RevC.01\State=1-A\HF=-687.2072919\RMSD=5.320e-03\Dipole=-0.0000
 21,0.0000354,0.0000025\Quadrupole=-0.0000863,-0.0000226,0.0001089,0.,-
 0.0000017,-0.0000012\PG=C01 [X(F4Si1)]\\@

 Normal termination of Gaussian 16 at Tue Apr  8 22:55:37 2025.
