 Gaussian 16, Revision C.01,

 ----------------------------------------------------------------------
 #t hf aug-cc-pvdz symm=none int=(grid=ultrafine) guess=(read,tcheck) s
 table=opt
 ----------------------------------------------------------------------
 -----
 title
 -----
 Symbolic Z-matrix:
 Charge =  0 Multiplicity = 2

 SCF Done:  E(UHF) =  -501.432565861     A.U. after   17 cycles
 Normal termination of Gaussian 16 at Wed Apr  9 00:47:05 2025.
 Gaussian 16:  ES64L-G16RevC.01  3-Jul-2019

 ----------------------------------------------------------------------
 #t hf aug-cc-pvdz iop(5/13=1,5/36=2,99/5=2) pseudo=read geom=check gue
 ss=(read,tcheck) scf=(maxcycle=1)
 ----------------------------------------------------------------------
 -----
 title
 -----
 Structure from the checkpoint file:  "BDE49_nonexpt_882_mol2.chk"
 Charge =  0 Multiplicity = 2

                         Standard orientation:
 ---------------------------------------------------------------------
 Center     Atomic      Atomic             Coordinates (Angstroms)
 Number     Number       Type             X           Y           Z
 ---------------------------------------------------------------------
      1          5           0        0.138529   -0.381008   -0.199607
      2          6           0       -1.142292    0.490360   -0.103167
      3          6           0       -2.473206   -0.256979    0.106571
      4          1           0       -2.474663   -0.800724    1.054512
      5          1           0       -2.644008   -0.985306   -0.689451
      6          1           0       -3.318150    0.436961    0.119057
      7         16           0        1.858963   -0.103694    0.028347
      8          1           0       -1.183681    1.049590   -1.051456
      9          1           0       -1.013194    1.259063    0.673882
     10          1           0        1.890625    1.204268    0.417509
 ---------------------------------------------------------------------

 SCF Done:  E(UHF) =  -501.484118409     A.U. after    2 cycles

 The electronic state is 2-A.
 Alpha  occ. eigenvalues --  -93.54516 -11.23278 -11.22903  -8.84473  -7.65199
 Alpha  occ. eigenvalues --   -6.18566  -6.18359  -6.18123  -1.02663  -0.97537
 Alpha  occ. eigenvalues --   -0.85535  -0.65110  -0.61213  -0.59487  -0.54204
 Alpha  occ. eigenvalues --   -0.50610  -0.50441  -0.45014  -0.39741  -0.32280
 Alpha virt. eigenvalues --    0.03429   0.04558   0.05011   0.05070   0.06834
 Alpha virt. eigenvalues --    0.07097   0.07216   0.07700   0.09099   0.10470
 Alpha virt. eigenvalues --    0.12232   0.12651   0.14103   0.15113   0.16500

  Beta  occ. eigenvalues --  -93.54555 -11.23218 -11.22924  -8.84479  -7.63352
  Beta  occ. eigenvalues --   -6.18744  -6.18399  -6.18233  -1.02143  -0.96765
  Beta  occ. eigenvalues --   -0.85192  -0.61428  -0.61044  -0.58373  -0.53259
  Beta  occ. eigenvalues --   -0.50294  -0.49756  -0.44432  -0.39841
  Beta virt. eigenvalues --    0.02787   0.04643   0.04950   0.05073   0.06872
  Beta virt. eigenvalues --    0.07056   0.07486   0.07899   0.08859   0.09674
  Beta virt. eigenvalues --    0.12138   0.12607   0.14161   0.14657   0.15512

 Mulliken charges and spin densities:
               1          2
     1  B    0.145380   1.117811
     2  C    0.262555  -0.072872
     3  C    0.250823   0.018042
     4  H   -0.101609  -0.008482
     5  H   -0.078368  -0.004794
     6  H   -0.068975   0.002479
     7  S   -0.131004  -0.132844
     8  H   -0.094226  -0.019296
     9  H   -0.196990   0.012796
    10  H    0.012413   0.087159
 Sum of Mulliken charges =  -0.00000   1.00000

 Dipole moment (field-independent basis, Debye):
    X=             -0.8818    Y=              1.4515    Z=              0.2911  Tot=              1.7231
                          Isotropic Fermi Contact Couplings
        Atom                 a.u.       MegaHertz       Gauss      10(-4) cm-1
     1  B(11)              0.26534     380.59443     135.80556     126.95264
     2  C(13)              0.00423       4.76061       1.69871       1.58797
     3  C(13)              0.01896      21.31550       7.60590       7.11008
     4  H(1)              -0.00036      -1.61719      -0.57705      -0.53944
     5  H(1)              -0.00046      -2.07046      -0.73879      -0.69063
     6  H(1)              -0.00033      -1.49383      -0.53304      -0.49829
     7  S(33)              0.16086      55.25214      19.71534      18.43013
     8  H(1)              -0.00009      -0.42314      -0.15099      -0.14115

 Normal termination of Gaussian 16 at Wed Apr  9 00:47:09 2025.
