 Gaussian 16, Revision C.01,

 ----------------------------------------------------------------------
 #t hf aug-cc-pvdz symm=none int=(grid=ultrafine) guess=(read,tcheck) s
 table=(opt,rrhf)
 ----------------------------------------------------------------------
 -----
 title
 -----
 Symbolic Z-matrix:
 Charge =  0 Multiplicity = 1

 SCF Done:  E(RHF) =  -746.509736464     A.U. after   15 cycles
 Normal termination of Gaussian 16 at Tue Apr  8 23:15:47 2025.
 Gaussian 16:  ES64L-G16RevC.01  3-Jul-2019

 ----------------------------------------------------------------------
 #t hf aug-cc-pvdz iop(5/13=1,5/36=2,99/5=2) pseudo=read geom=check gue
 ss=(read,tcheck) scf=(maxcycle=1)
 ----------------------------------------------------------------------
 -----
 title
 -----
 Structure from the checkpoint file:  "BDE49_nonexpt_1046_mol1.chk"
 Charge =  0 Multiplicity = 1

                         Standard orientation:
 ---------------------------------------------------------------------
 Center     Atomic      Atomic             Coordinates (Angstroms)
 Number     Number       Type             X           Y           Z
 ---------------------------------------------------------------------
      1         17           0       -1.671340    0.315250    0.000000
      2          8           0        0.000000    0.756543    0.000000
      3          6           0        0.839469   -0.308139    0.000000
      4          8           0        0.610772   -1.461392    0.000000
      5          9           0        2.054421    0.236486    0.000000
 ---------------------------------------------------------------------

 SCF Done:  E(RHF) =  -746.628671531     A.U. after    2 cycles

 The electronic state is 1-A'.
 Alpha  occ. eigenvalues -- -103.76518 -26.19928 -20.72448 -20.62567 -11.52596
 Alpha  occ. eigenvalues --  -10.79125  -8.44899  -8.44415  -8.44400  -1.75160
 Alpha  occ. eigenvalues --   -1.48318  -1.41463  -1.17211  -0.94788  -0.84928
 Alpha  occ. eigenvalues --   -0.82717  -0.80175  -0.72037  -0.70357  -0.66537
 Alpha  occ. eigenvalues --   -0.58584  -0.56477  -0.52577  -0.50803
 Alpha virt. eigenvalues --    0.01381   0.06975   0.08830   0.09110   0.09981
 Alpha virt. eigenvalues --    0.13330   0.13773   0.14321   0.15413   0.20396
 Alpha virt. eigenvalues --    0.22089   0.23714   0.25118   0.27467   0.28062

 Mulliken charges:
               1
     1  Cl   0.402483
     2  O   -0.593678
     3  C    0.686929
     4  O   -0.263547
     5  F   -0.232187
 Sum of Mulliken charges =   0.00000

 Dipole moment (field-independent basis, Debye):
    X=             -1.5042    Y=              1.0172    Z=              0.0000  Tot=              1.8158

 Test job not archived.
 1\1\GINC-SE332\SP\RHF\Aug-CC-pVDZ\C1Cl1F1O2\OHZDE\08-Apr-2025\0\\#t hf
  aug-cc-pvdz iop(5/13=1,5/36=2,99/5=2) pseudo=read geom=check guess=(r
 ead,tcheck) scf=(maxcycle=1)\\title\\0,1\Cl,0,-1.67134,0.31525,0.\O,0,
 0.,0.756543,0.\C,0,0.839469,-0.308139,0.\O,0,0.610772,-1.461392,0.\F,0
 ,2.054421,0.236486,0.\\Version=ES64L-G16RevC.01\State=1-A'\HF=-746.628
 6715\RMSD=4.243e-03\Dipole=-0.5917842,0.4001887,0.\Quadrupole=1.843666
 7,-3.0565321,1.2128654,0.3567511,0.,0.\PG=CS [SG(C1Cl1F1O2)]\\@

 Normal termination of Gaussian 16 at Tue Apr  8 23:15:49 2025.
