 Gaussian 16, Revision C.01,

 ----------------------------------------------------------------------
 #t hf aug-cc-pvdz symm=none int=(grid=ultrafine) guess=(read,tcheck) s
 table=(opt,rrhf)
 ----------------------------------------------------------------------
 -----
 title
 -----
 Symbolic Z-matrix:
 Charge =  0 Multiplicity = 1

 SCF Done:  E(RHF) =  -952.381903648     A.U. after   14 cycles

 1\1\GINC-SE329\Stability\RHF\Aug-CC-pVDZ\C4H10S2\OHZDE\08-Apr-2025\0\\
 #t hf aug-cc-pvdz symm=none int=(grid=ultrafine) guess=(read,tcheck) s
 table=(opt,rrhf)\\title\\0,1\C,0,1.334403,0.041162,0.444786\S,0,0.0625
 05,-0.606119,-0.752942\S,0,-1.647876,0.504858,-0.36028\C,0,-2.474351,-
 0.448262,0.967027\H,0,-3.423706,0.060361,1.152664\H,0,-1.882243,-0.447
 577,1.881542\H,0,-2.667103,-1.46839,0.638319\C,0,1.681571,1.503082,0.1
 84946\H,0,2.125655,1.625789,-0.806572\H,0,2.401626,1.85671,0.930981\H,
 0,0.795187,2.137034,0.244923\C,0,2.546798,-0.88526,0.315042\H,0,0.9011

 Normal termination of Gaussian 16 at Tue Apr  8 22:46:01 2025.
 Gaussian 16:  ES64L-G16RevC.01  3-Jul-2019

 ----------------------------------------------------------------------
 #t hf aug-cc-pvdz iop(5/13=1,5/36=2,99/5=2) pseudo=read geom=check gue
 ss=(read,tcheck) scf=(maxcycle=1)
 ----------------------------------------------------------------------
 -----
 title
 -----
 Structure from the checkpoint file:  "BDE49_expt_1593_mol1.chk"
 Charge =  0 Multiplicity = 1

                         Standard orientation:
 ---------------------------------------------------------------------
 Center     Atomic      Atomic             Coordinates (Angstroms)
 Number     Number       Type             X           Y           Z
 ---------------------------------------------------------------------
      1          6           0        1.334403    0.041162    0.444786
      2         16           0        0.062505   -0.606119   -0.752942
      3         16           0       -1.647876    0.504858   -0.360280
      4          6           0       -2.474351   -0.448262    0.967027
      5          1           0       -3.423706    0.060361    1.152664
      6          1           0       -1.882243   -0.447577    1.881542
      7          1           0       -2.667103   -1.468390    0.638319
      8          6           0        1.681571    1.503082    0.184946
      9          1           0        2.125655    1.625789   -0.806572
     10          1           0        2.401626    1.856710    0.930981
     11          1           0        0.795187    2.137034    0.244923
     12          6           0        2.546798   -0.885260    0.315042
     13          1           0        0.901176   -0.069615    1.441853
     14          1           0        2.966481   -0.845965   -0.694487
     15          1           0        2.290055   -1.923020    0.539052
     16          1           0        3.328287   -0.569473    1.012472
 ---------------------------------------------------------------------

 SCF Done:  E(RHF) =  -952.474152001     A.U. after    2 cycles

 The electronic state is 1-A.
 Alpha  occ. eigenvalues --  -93.55141 -93.54642 -11.27985 -11.26891 -11.23937
 Alpha  occ. eigenvalues --  -11.23095  -8.84689  -8.84208  -6.18820  -6.18554
 Alpha  occ. eigenvalues --   -6.18337  -6.18247  -6.18065  -6.17764  -1.09010
 Alpha  occ. eigenvalues --   -1.03415  -0.94004  -0.93518  -0.82595  -0.75631
 Alpha  occ. eigenvalues --   -0.63714  -0.61004  -0.59630  -0.58570  -0.57856
 Alpha  occ. eigenvalues --   -0.54967  -0.51256  -0.50325  -0.49783  -0.45799
 Alpha  occ. eigenvalues --   -0.42848  -0.35080  -0.34555
 Alpha virt. eigenvalues --    0.03383   0.04213   0.04861   0.05252   0.06273
 Alpha virt. eigenvalues --    0.06550   0.06903   0.07770   0.08379   0.08780
 Alpha virt. eigenvalues --    0.10296   0.10545   0.12826   0.13955   0.14103

 Mulliken charges:
               1
     1  C   -0.755507
     2  S    0.122379
     3  S    0.082472
     4  C    0.080462
     5  H   -0.066844
     6  H   -0.085529
     7  H   -0.034072
     8  C    0.474549
     9  H   -0.020483
    10  H   -0.039342
    11  H   -0.078548
    12  C    0.625502
    13  H   -0.128675
    14  H   -0.037888
    15  H   -0.097966
    16  H   -0.040509
 Sum of Mulliken charges =   0.00000

 Dipole moment (field-independent basis, Debye):
    X=              0.6308    Y=             -0.1900    Z=              2.3174  Tot=              2.4092

 Test job not archived.
 1\1\GINC-SE329\SP\RHF\Aug-CC-pVDZ\C4H10S2\OHZDE\08-Apr-2025\0\\#t hf a
 ug-cc-pvdz iop(5/13=1,5/36=2,99/5=2) pseudo=read geom=check guess=(rea
 d,tcheck) scf=(maxcycle=1)\\title\\0,1\C,0,1.334403,0.041162,0.444786\
 S,0,0.062505,-0.606119,-0.752942\S,0,-1.647876,0.504858,-0.36028\C,0,-
 2.474351,-0.448262,0.967027\H,0,-3.423706,0.060361,1.152664\H,0,-1.882
 243,-0.447577,1.881542\H,0,-2.667103,-1.46839,0.638319\C,0,1.681571,1.
 503082,0.184946\H,0,2.125655,1.625789,-0.806572\H,0,2.401626,1.85671,0
 .930981\H,0,0.795187,2.137034,0.244923\C,0,2.546798,-0.88526,0.315042\

 Normal termination of Gaussian 16 at Tue Apr  8 22:46:07 2025.
