 Gaussian 16, Revision C.01,

 ----------------------------------------------------------------------
 #t hf aug-cc-pvdz symm=none int=(grid=ultrafine) guess=(read,tcheck) s
 table=opt
 ----------------------------------------------------------------------
 -----
 title
 -----
 Symbolic Z-matrix:
 Charge =  0 Multiplicity = 2

 SCF Done:  E(UHF) =  -646.600519855     A.U. after   18 cycles
 Normal termination of Gaussian 16 at Tue Apr  8 22:52:33 2025.
 Gaussian 16:  ES64L-G16RevC.01  3-Jul-2019

 ----------------------------------------------------------------------
 #t hf aug-cc-pvdz iop(5/13=1,5/36=2,99/5=2) pseudo=read geom=check gue
 ss=(read,tcheck) scf=(maxcycle=1)
 ----------------------------------------------------------------------
 -----
 title
 -----
 Structure from the checkpoint file:  "BDE49_expt_1833_mol2.chk"
 Charge =  0 Multiplicity = 2

                         Standard orientation:
 ---------------------------------------------------------------------
 Center     Atomic      Atomic             Coordinates (Angstroms)
 Number     Number       Type             X           Y           Z
 ---------------------------------------------------------------------
      1         16           0        0.150485    0.000001    0.254918
      2          8           0        0.670083   -1.272514   -0.192700
      3          8           0        0.670065    1.272522   -0.192700
      4          9           0       -1.458771   -0.000010   -0.110610
 ---------------------------------------------------------------------

 SCF Done:  E(UHF) =  -646.754743873     A.U. after    2 cycles

 The electronic state is 2-A.
 Alpha  occ. eigenvalues --  -93.87078 -26.19975 -20.66815 -20.66814  -9.13630
 Alpha  occ. eigenvalues --   -6.48270  -6.47723  -6.47617  -1.72989  -1.50305
 Alpha  occ. eigenvalues --   -1.41487  -0.98545  -0.83167  -0.81708  -0.80930
 Alpha  occ. eigenvalues --   -0.74388  -0.73089  -0.64650  -0.62322  -0.59187
 Alpha  occ. eigenvalues --   -0.52907
 Alpha virt. eigenvalues --    0.07366   0.08001   0.08284   0.08567   0.12869
 Alpha virt. eigenvalues --    0.19730   0.19876   0.20875   0.21927   0.24149
 Alpha virt. eigenvalues --    0.24400   0.24692   0.28221   0.28637   0.31796

  Beta  occ. eigenvalues --  -93.86652 -26.19178 -20.65325 -20.65323  -9.13029
  Beta  occ. eigenvalues --   -6.47783  -6.47607  -6.46370  -1.70444  -1.46590
  Beta  occ. eigenvalues --   -1.36825  -0.92782  -0.79843  -0.79408  -0.78281
  Beta  occ. eigenvalues --   -0.69121  -0.66044  -0.62504  -0.57877  -0.53389
  Beta virt. eigenvalues --   -0.06435   0.08224   0.08363   0.08789   0.09271
  Beta virt. eigenvalues --    0.14976   0.20366   0.20560   0.20989   0.22210
  Beta virt. eigenvalues --    0.24652   0.24933   0.27014   0.28445   0.29694

 Mulliken charges and spin densities:
               1          2
     1  S    1.878924   0.346790
     2  O   -0.681112   0.292440
     3  O   -0.681112   0.292439
     4  F   -0.516700   0.068332
 Sum of Mulliken charges =   0.00000   1.00000

 Dipole moment (field-independent basis, Debye):
    X=             -0.0481    Y=              0.0000    Z=              1.6368  Tot=              1.6375
                          Isotropic Fermi Contact Couplings
        Atom                 a.u.       MegaHertz       Gauss      10(-4) cm-1
     1  S(33)              0.89627     307.84469     109.84664     102.68593
     2  O(17)              0.08423     -51.05823     -18.21885     -17.03119
     3  O(17)              0.08423     -51.05826     -18.21886     -17.03120
     4  F(19)              0.09985     420.13166     149.91342     140.14084
 --------------------------------------------------------
       Center         ----  Spin Dipole Couplings  ----
                      3XX-RR        3YY-RR        3ZZ-RR
 --------------------------------------------------------

 Normal termination of Gaussian 16 at Tue Apr  8 22:52:35 2025.
