 Gaussian 16, Revision C.01,

 ----------------------------------------------------------------------
 #t hf aug-cc-pvdz symm=none int=(grid=ultrafine) guess=(read,tcheck) s
 table=(opt,rrhf)
 ----------------------------------------------------------------------
 -----
 title
 -----
 Symbolic Z-matrix:
 Charge =  0 Multiplicity = 1

 SCF Done:  E(RHF) =  -650.118102071     A.U. after   15 cycles

 1\1\GINC-SE252\Stability\RHF\Aug-CC-pVDZ\C8H11P1\OHZDE\08-Apr-2025\0\\
 #t hf aug-cc-pvdz symm=none int=(grid=ultrafine) guess=(read,tcheck) s
 table=(opt,rrhf)\\title\\0,1\C,0,-2.50185,-0.171329,0.590353\P,0,-1.49
 8808,-0.737715,-0.888998\C,0,0.217556,-0.280092,-0.394418\C,0,0.851873
 ,0.898348,-0.810883\C,0,0.943229,-1.181667,0.398082\C,0,2.251369,-0.90
 3009,0.784093\C,0,2.868667,0.273667,0.363386\C,0,2.167495,1.169923,-0.
 439857\H,0,3.89095,0.48712,0.654592\H,0,2.642359,2.085643,-0.774893\H,
 0,0.314971,1.609311,-1.428883\H,0,0.483501,-2.115039,0.708056\H,0,2.79

 Normal termination of Gaussian 16 at Tue Apr  8 23:28:30 2025.
 Gaussian 16:  ES64L-G16RevC.01  3-Jul-2019

 ----------------------------------------------------------------------
 #t hf aug-cc-pvdz iop(5/13=1,5/36=2,99/5=2) pseudo=read geom=check gue
 ss=(read,tcheck) scf=(maxcycle=1)
 ----------------------------------------------------------------------
 -----
 title
 -----
 Structure from the checkpoint file:  "BDE49_nonexpt_1336_mol1.chk"
 Charge =  0 Multiplicity = 1

                         Standard orientation:
 ---------------------------------------------------------------------
 Center     Atomic      Atomic             Coordinates (Angstroms)
 Number     Number       Type             X           Y           Z
 ---------------------------------------------------------------------
      1          6           0       -2.501850   -0.171329    0.590353
      2         15           0       -1.498808   -0.737715   -0.888998
      3          6           0        0.217556   -0.280092   -0.394418
      4          6           0        0.851873    0.898348   -0.810883
      5          6           0        0.943229   -1.181667    0.398082
      6          6           0        2.251369   -0.903009    0.784093
      7          6           0        2.868667    0.273667    0.363386
      8          6           0        2.167495    1.169923   -0.439857
      9          1           0        3.890950    0.487120    0.654592
     10          1           0        2.642359    2.085643   -0.774893
     11          1           0        0.314971    1.609311   -1.428883
     12          1           0        0.483501   -2.115039    0.708056
     13          1           0        2.793299   -1.610502    1.402014
     14          6           0       -2.334148    1.277653    1.050522
     15          1           0       -2.259776   -0.865734    1.401817
     16          1           0       -3.544964   -0.374711    0.323854
     17          1           0       -1.298148    1.491266    1.322253
     18          1           0       -2.959585    1.484506    1.924940
     19          1           0       -2.623199    1.978099    0.261876
     20          1           0       -1.742434    0.394804   -1.708329
 ---------------------------------------------------------------------

 SCF Done:  E(RHF) =  -650.232494378     A.U. after    2 cycles

 The electronic state is 1-A.
 Alpha  occ. eigenvalues --  -81.25117 -11.25155 -11.24991 -11.24970 -11.24912
 Alpha  occ. eigenvalues --  -11.24822 -11.24777 -11.24168 -11.22875  -7.75426
 Alpha  occ. eigenvalues --   -4.89541  -4.89408  -4.89126  -1.14479  -1.02927
 Alpha  occ. eigenvalues --   -1.01313  -1.00861  -0.86528  -0.83136  -0.82808
 Alpha  occ. eigenvalues --   -0.74597  -0.69045  -0.63881  -0.63071  -0.61535
 Alpha  occ. eigenvalues --   -0.59445  -0.57842  -0.55157  -0.53183  -0.51015
 Alpha  occ. eigenvalues --   -0.50484  -0.49969  -0.47001  -0.44537  -0.36705
 Alpha  occ. eigenvalues --   -0.34403  -0.31427
 Alpha virt. eigenvalues --    0.03279   0.04013   0.04099   0.05102   0.05449
 Alpha virt. eigenvalues --    0.05666   0.07038   0.07247   0.07606   0.07899
 Alpha virt. eigenvalues --    0.09295   0.09660   0.10292   0.10618   0.10992

 Mulliken charges:
               1
     1  C   -0.072915
     2  P    0.073550
     3  C   -0.138653
     4  C    0.671017
     5  C    0.404736
     6  C    0.540748
     7  C    0.609144
     8  C    0.429105
     9  H   -0.435896
    10  H   -0.443819
    11  H   -0.625331
    12  H   -0.540933
    13  H   -0.444615
    14  C    0.383744
    15  H   -0.083121
    16  H   -0.160194
    17  H   -0.097626
    18  H   -0.101956
    19  H   -0.102037
    20  H    0.135053
 Sum of Mulliken charges =  -0.00000

 Dipole moment (field-independent basis, Debye):
    X=              0.2592    Y=              0.9710    Z=              0.9537  Tot=              1.3855

 Test job not archived.
 1\1\GINC-SE252\SP\RHF\Aug-CC-pVDZ\C8H11P1\OHZDE\08-Apr-2025\0\\#t hf a
 ug-cc-pvdz iop(5/13=1,5/36=2,99/5=2) pseudo=read geom=check guess=(rea
 d,tcheck) scf=(maxcycle=1)\\title\\0,1\C,0,-2.50185,-0.171329,0.590353
 \P,0,-1.498808,-0.737715,-0.888998\C,0,0.217556,-0.280092,-0.394418\C,
 0,0.851873,0.898348,-0.810883\C,0,0.943229,-1.181667,0.398082\C,0,2.25
 1369,-0.903009,0.784093\C,0,2.868667,0.273667,0.363386\C,0,2.167495,1.
 169923,-0.439857\H,0,3.89095,0.48712,0.654592\H,0,2.642359,2.085643,-0
 .774893\H,0,0.314971,1.609311,-1.428883\H,0,0.483501,-2.115039,0.70805

 Normal termination of Gaussian 16 at Tue Apr  8 23:28:41 2025.
