 Gaussian 16, Revision C.01,

 ----------------------------------------------------------------------
 #t hf aug-cc-pvdz symm=none int=(grid=ultrafine) guess=(read,tcheck) s
 table=opt
 ----------------------------------------------------------------------
 -----
 title
 -----
 Symbolic Z-matrix:
 Charge =  0 Multiplicity = 2

 SCF Done:  E(UHF) =  -754.328505918     A.U. after   21 cycles
 Normal termination of Gaussian 16 at Tue Apr  8 23:31:40 2025.
 Gaussian 16:  ES64L-G16RevC.01  3-Jul-2019

 ----------------------------------------------------------------------
 #t hf aug-cc-pvdz iop(5/13=1,5/36=2,99/5=2) pseudo=read geom=check gue
 ss=(read,tcheck) scf=(maxcycle=1)
 ----------------------------------------------------------------------
 -----
 title
 -----
 Structure from the checkpoint file:  "BDE49_nonexpt_1399_mol2.chk"
 Charge =  0 Multiplicity = 2

                         Standard orientation:
 ---------------------------------------------------------------------
 Center     Atomic      Atomic             Coordinates (Angstroms)
 Number     Number       Type             X           Y           Z
 ---------------------------------------------------------------------
      1          6           0        1.285302   -0.527002    0.151065
      2         15           0       -0.000036   -1.859554    0.000049
      3          6           0       -1.285297   -0.526965   -0.151364
      4          7           0       -0.696781    0.728091   -0.133094
      5          7           0        0.696809    0.728064    0.132997
      6          8           0       -2.488218   -0.711207   -0.167510
      7          8           0        2.488209   -0.711315    0.167605
      8          6           0        1.457602    1.875113   -0.353973
      9          1           0        1.239899    2.062222   -1.410902
     10          1           0        2.508705    1.621118   -0.235158
     11          1           0        1.234460    2.768309    0.231059
     12          6           0       -1.457559    1.875068    0.354068
     13          1           0       -2.508667    1.621106    0.235208
     14          1           0       -1.234410    2.768357   -0.230820
     15          1           0       -1.239855    2.062005    1.411027
 ---------------------------------------------------------------------

 SCF Done:  E(UHF) =  -754.472849052     A.U. after    2 cycles

 The electronic state is 2-A.
 Alpha  occ. eigenvalues --  -81.31114 -20.57990 -20.57990 -15.70978 -15.70937
 Alpha  occ. eigenvalues --  -11.39050 -11.39048 -11.29414 -11.29412  -7.81648
 Alpha  occ. eigenvalues --   -4.96235  -4.95269  -4.95048  -1.39584  -1.38111
 Alpha  occ. eigenvalues --   -1.31375  -1.13947  -1.02727  -0.94255  -0.90092
 Alpha  occ. eigenvalues --   -0.81757  -0.75264  -0.70395  -0.69801  -0.66454
 Alpha  occ. eigenvalues --   -0.65337  -0.64640  -0.63151  -0.59915  -0.58507
 Alpha  occ. eigenvalues --   -0.57317  -0.57220  -0.53891  -0.49814  -0.42998
 Alpha  occ. eigenvalues --   -0.42879  -0.39570  -0.36842
 Alpha virt. eigenvalues --    0.02685   0.04078   0.04365   0.05551   0.07020
 Alpha virt. eigenvalues --    0.07448   0.07847   0.08758   0.09129   0.09314
 Alpha virt. eigenvalues --    0.11119   0.11943   0.12210   0.12260   0.13175

  Beta  occ. eigenvalues --  -81.30437 -20.57252 -20.57252 -15.71075 -15.71035
  Beta  occ. eigenvalues --  -11.39432 -11.39430 -11.29420 -11.29418  -7.80838
  Beta  occ. eigenvalues --   -4.94755  -4.94671  -4.93185  -1.38804  -1.36788
  Beta  occ. eigenvalues --   -1.30811  -1.13919  -1.02127  -0.94305  -0.88156
  Beta  occ. eigenvalues --   -0.80021  -0.75060  -0.69872  -0.69668  -0.65341
  Beta  occ. eigenvalues --   -0.65081  -0.64093  -0.62744  -0.58390  -0.57149
  Beta  occ. eigenvalues --   -0.56332  -0.55757  -0.51709  -0.47559  -0.42280
  Beta  occ. eigenvalues --   -0.41467  -0.35657
  Beta virt. eigenvalues --   -0.01698   0.02696   0.04257   0.04368   0.05621
  Beta virt. eigenvalues --    0.07102   0.07523   0.07903   0.08809   0.09433
  Beta virt. eigenvalues --    0.09704   0.11869   0.12336   0.12355   0.13364

 Mulliken charges and spin densities:
               1          2
     1  C    0.274773  -0.201223
     2  P    0.463454   1.097316
     3  C    0.274817  -0.201239
     4  N   -0.416497  -0.025411
     5  N   -0.416583  -0.025398
     6  O   -0.513250   0.168404
     7  O   -0.513245   0.168391
     8  C    0.838824   0.009207
     9  H   -0.057931  -0.000036
    10  H   -0.213467  -0.000151
    11  H   -0.144149   0.000557
    12  C    0.838852   0.009210
    13  H   -0.213461  -0.000149
    14  H   -0.144165   0.000558
    15  H   -0.057973  -0.000035
 Sum of Mulliken charges =  -0.00000   1.00000

 Dipole moment (field-independent basis, Debye):
    X=              0.0000    Y=              3.4513    Z=             -0.0005  Tot=              3.4513
                          Isotropic Fermi Contact Couplings
        Atom                 a.u.       MegaHertz       Gauss      10(-4) cm-1
     1  C(13)             -0.05631     -63.29874     -22.58656     -21.11419
     2  P(31)              0.20856     377.71831     134.77928     125.99326
     3  C(13)             -0.05632     -63.30971     -22.59048     -21.11785
     4  N(14)             -0.01451      -4.68664      -1.67231      -1.56329
     5  N(14)             -0.01449      -4.68295      -1.67099      -1.56207
     6  O(17)              0.06264     -37.97424     -13.55015     -12.66684
     7  O(17)              0.06264     -37.97022     -13.54872     -12.66550
     8  C(13)             -0.00178      -2.00451      -0.71526      -0.66863

 Normal termination of Gaussian 16 at Tue Apr  8 23:31:49 2025.
