 Gaussian 16, Revision C.01,

 ----------------------------------------------------------------------
 #t hf aug-cc-pvdz symm=none int=(grid=ultrafine) guess=(read,tcheck) s
 table=(opt,rrhf)
 ----------------------------------------------------------------------
 -----
 title
 -----
 Symbolic Z-matrix:
 Charge =  0 Multiplicity = 1

 SCF Done:  E(RHF) =  -522.312293573     A.U. after   12 cycles
 Normal termination of Gaussian 16 at Wed Apr  9 00:03:59 2025.
 Gaussian 16:  ES64L-G16RevC.01  3-Jul-2019

 ----------------------------------------------------------------------
 #t hf aug-cc-pvdz iop(5/13=1,5/36=2,99/5=2) pseudo=read geom=check gue
 ss=(read,tcheck) scf=(maxcycle=1)
 ----------------------------------------------------------------------
 -----
 title
 -----
 Structure from the checkpoint file:  "BDE49_nonexpt_2215_mol1.chk"
 Charge =  0 Multiplicity = 1

                         Standard orientation:
 ---------------------------------------------------------------------
 Center     Atomic      Atomic             Coordinates (Angstroms)
 Number     Number       Type             X           Y           Z
 ---------------------------------------------------------------------
      1          6           0        3.238024   -0.560883   -0.084641
      2          6           0        1.772269   -0.450880    0.347622
      3          1           0        3.741847   -1.388885    0.422461
      4          1           0        3.788244    0.356707    0.146403
      5          1           0        3.318037   -0.731864   -1.162647
      6          6           0        1.021218    0.703027   -0.343006
      7          1           0        1.724768   -0.317549    1.434747
      8          1           0        1.256552   -1.392617    0.134791
      9         14           0       -0.777341    0.871538    0.142360
     10          1           0        1.069159    0.583079   -1.432574
     11          1           0        1.514917    1.659708   -0.123628
     12          8           0       -1.530171   -0.544505   -0.257617
     13          6           0       -2.895167   -0.846137   -0.009574
     14          1           0       -3.129429   -0.796317    1.060862
     15          1           0       -3.086588   -1.861908   -0.360139
     16          1           0       -3.561481   -0.160402   -0.546986
     17          1           0       -1.412780    2.012310   -0.571431
     18          1           0       -0.917171    1.121491    1.603622
 ---------------------------------------------------------------------

 SCF Done:  E(RHF) =  -522.422458609     A.U. after    2 cycles

 The electronic state is 1-A.
 Alpha  occ. eigenvalues --  -69.07821 -20.55710 -11.29015 -11.23166 -11.22111
 Alpha  occ. eigenvalues --  -11.21586  -6.82693  -3.93606  -3.93462  -3.93443
 Alpha  occ. eigenvalues --   -1.30149  -1.04338  -0.93439  -0.91422  -0.80310
 Alpha  occ. eigenvalues --   -0.71006  -0.63838  -0.63549  -0.62370  -0.60448
 Alpha  occ. eigenvalues --   -0.56926  -0.54131  -0.53552  -0.49660  -0.48474
 Alpha  occ. eigenvalues --   -0.47567  -0.47097  -0.43772  -0.42240
 Alpha virt. eigenvalues --    0.03433   0.04322   0.04634   0.04936   0.06011
 Alpha virt. eigenvalues --    0.06161   0.06509   0.06924   0.08165   0.08682
 Alpha virt. eigenvalues --    0.08779   0.09887   0.10193   0.10809   0.11902

 Mulliken charges:
               1
     1  C    0.430671
     2  C    0.009543
     3  H   -0.068420
     4  H   -0.072267
     5  H   -0.060367
     6  C    0.183631
     7  H   -0.154531
     8  H   -0.156394
     9  Si   1.003118
    10  H   -0.174814
    11  H   -0.218143
    12  O   -0.956632
    13  C    0.810465
    14  H   -0.136483
    15  H   -0.266927
    16  H   -0.158360
    17  H   -0.042792
    18  H    0.028702
 Sum of Mulliken charges =  -0.00000

 Dipole moment (field-independent basis, Debye):
    X=             -0.4933    Y=              0.0772    Z=              0.2484  Tot=              0.5577

 Test job not archived.
 1\1\GINC-SE284\SP\RHF\Aug-CC-pVDZ\C4H12O1Si1\OHZDE\09-Apr-2025\0\\#t h
 f aug-cc-pvdz iop(5/13=1,5/36=2,99/5=2) pseudo=read geom=check guess=(
 read,tcheck) scf=(maxcycle=1)\\title\\0,1\C,0,3.238024,-0.560883,-0.08
 4641\C,0,1.772269,-0.45088,0.347622\H,0,3.741847,-1.388885,0.422461\H,
 0,3.788244,0.356707,0.146403\H,0,3.318037,-0.731864,-1.162647\C,0,1.02
 1218,0.703027,-0.343006\H,0,1.724768,-0.317549,1.434747\H,0,1.256552,-
 1.392617,0.134791\Si,0,-0.777341,0.871538,0.14236\H,0,1.069159,0.58307
 9,-1.432574\H,0,1.514917,1.659708,-0.123628\O,0,-1.530171,-0.544505,-0

 Normal termination of Gaussian 16 at Wed Apr  9 00:04:06 2025.
