 Gaussian 16, Revision C.01,

 ----------------------------------------------------------------------
 #t hf aug-cc-pvdz symm=none int=(grid=ultrafine) guess=(read,tcheck) s
 table=(opt,rrhf)
 ----------------------------------------------------------------------
 -----
 title
 -----
 Symbolic Z-matrix:
 Charge =  0 Multiplicity = 1

 SCF Done:  E(RHF) =  -420.326031684     A.U. after   16 cycles
 Normal termination of Gaussian 16 at Tue Apr  8 23:21:03 2025.
 Gaussian 16:  ES64L-G16RevC.01  3-Jul-2019

 ----------------------------------------------------------------------
 #t hf aug-cc-pvdz iop(5/13=1,5/36=2,99/5=2) pseudo=read geom=check gue
 ss=(read,tcheck) scf=(maxcycle=1)
 ----------------------------------------------------------------------
 -----
 title
 -----
 Structure from the checkpoint file:  "BDE49_nonexpt_1176_mol1.chk"
 Charge =  0 Multiplicity = 1

                         Standard orientation:
 ---------------------------------------------------------------------
 Center     Atomic      Atomic             Coordinates (Angstroms)
 Number     Number       Type             X           Y           Z
 ---------------------------------------------------------------------
      1          9           0       -2.616614    0.415772    0.000000
      2          8           0       -1.746330   -0.721777    0.000001
      3          6           0       -0.431837   -0.268578    0.000000
      4          6           0       -0.063812    1.074727    0.000001
      5          7           0        0.390786   -1.293747   -0.000001
      6          6           0        1.700529   -1.023188   -0.000001
      7          6           0        1.302348    1.331200    0.000000
      8          6           0        2.208361    0.271205   -0.000001
      9          1           0       -0.801098    1.862184    0.000002
     10          1           0        1.654189    2.356406    0.000001
     11          1           0        3.277162    0.442243   -0.000001
     12          1           0        2.360871   -1.884527   -0.000002
 ---------------------------------------------------------------------

 SCF Done:  E(RHF) =  -420.456853988     A.U. after    2 cycles

 The electronic state is 1-A.
 Alpha  occ. eigenvalues --  -26.18233 -20.72609 -15.65094 -11.37712 -11.31050
 Alpha  occ. eigenvalues --  -11.29113 -11.27112 -11.26349  -1.68945  -1.36856
 Alpha  occ. eigenvalues --   -1.24487  -1.10078  -1.04066  -0.89429  -0.88204
 Alpha  occ. eigenvalues --   -0.80059  -0.79101  -0.76240  -0.70381  -0.69170
 Alpha  occ. eigenvalues --   -0.66433  -0.63659  -0.62469  -0.59371  -0.56093
 Alpha  occ. eigenvalues --   -0.54325  -0.44813  -0.40577  -0.36113
 Alpha virt. eigenvalues --    0.02730   0.03705   0.04775   0.06113   0.07526
 Alpha virt. eigenvalues --    0.08936   0.09530   0.10320   0.11100   0.11501
 Alpha virt. eigenvalues --    0.12829   0.12930   0.13637   0.14077   0.14186

 Mulliken charges:
               1
     1  F   -0.342887
     2  O   -0.193603
     3  C    0.701008
     4  C    0.791628
     5  N   -0.375494
     6  C    0.367413
     7  C   -0.303673
     8  C    0.887675
     9  H   -0.388824
    10  H   -0.390695
    11  H   -0.400014
    12  H   -0.352534
 Sum of Mulliken charges =  -0.00000

 Dipole moment (field-independent basis, Debye):
    X=              3.4504    Y=              2.0757    Z=              0.0000  Tot=              4.0266

 Test job not archived.
 1\1\GINC-SE036\SP\RHF\Aug-CC-pVDZ\C5H4F1N1O1\OHZDE\08-Apr-2025\0\\#t h
 f aug-cc-pvdz iop(5/13=1,5/36=2,99/5=2) pseudo=read geom=check guess=(
 read,tcheck) scf=(maxcycle=1)\\title\\0,1\F,0,-2.616614,0.415772,0.\O,
 0,-1.74633,-0.721777,0.000001\C,0,-0.431837,-0.268578,0.\C,0,-0.063812
 ,1.074727,0.000001\N,0,0.390786,-1.293747,-0.000001\C,0,1.700529,-1.02
 3188,-0.000001\C,0,1.302348,1.3312,0.\C,0,2.208361,0.271205,-0.000001\
 H,0,-0.801098,1.862184,0.000002\H,0,1.654189,2.356406,0.000001\H,0,3.2
 77162,0.442243,-0.000001\H,0,2.360871,-1.884527,-0.000002\\Version=ES6

 Normal termination of Gaussian 16 at Tue Apr  8 23:21:08 2025.
