 Gaussian 16, Revision C.01,

 ----------------------------------------------------------------------
 #t hf aug-cc-pvdz symm=none int=(grid=ultrafine) guess=(read,tcheck) s
 table=(opt,rrhf)
 ----------------------------------------------------------------------
 -----
 title
 -----
 Symbolic Z-matrix:
 Charge =  0 Multiplicity = 1

 SCF Done:  E(RHF) =  -468.321783167     A.U. after   13 cycles
 Normal termination of Gaussian 16 at Wed Apr  9 00:43:27 2025.
 Gaussian 16:  ES64L-G16RevC.01  3-Jul-2019

 ----------------------------------------------------------------------
 #t hf aug-cc-pvdz iop(5/13=1,5/36=2,99/5=2) pseudo=read geom=check gue
 ss=(read,tcheck) scf=(maxcycle=1)
 ----------------------------------------------------------------------
 -----
 title
 -----
 Structure from the checkpoint file:  "BDE49_nonexpt_788_mol1.chk"
 Charge =  0 Multiplicity = 1

                         Standard orientation:
 ---------------------------------------------------------------------
 Center     Atomic      Atomic             Coordinates (Angstroms)
 Number     Number       Type             X           Y           Z
 ---------------------------------------------------------------------
      1         14           0       -0.189250   -1.124669   -0.000007
      2          5           0        1.657770   -0.276818   -0.000108
      3          8           0        1.796531    1.072104    0.000033
      4          6           0       -1.644590    0.055629    0.000026
      5          6           0       -1.545028    1.387933   -0.000002
      6          1           0       -2.644834   -0.379184    0.000071
      7          1           0       -0.583405    1.890414   -0.000051
      8          1           0       -2.423376    2.029102    0.000020
      9          1           0        2.713646    1.368632    0.000116
     10          1           0        2.643664   -0.964511    0.000058
     11          1           0       -0.289749   -2.026582    1.182882
     12          1           0       -0.289832   -2.026614   -1.182863
 ---------------------------------------------------------------------

 SCF Done:  E(RHF) =  -468.404121971     A.U. after    2 cycles

 The electronic state is 1-A.
 Alpha  occ. eigenvalues --  -69.04131 -20.60391 -11.24208 -11.22499  -7.64472
 Alpha  occ. eigenvalues --   -6.79607  -3.90385  -3.90372  -3.90336  -1.34402
 Alpha  occ. eigenvalues --   -1.02050  -0.79486  -0.78040  -0.68053  -0.66911
 Alpha  occ. eigenvalues --   -0.61731  -0.57102  -0.56204  -0.54018  -0.47175
 Alpha  occ. eigenvalues --   -0.44545  -0.39594  -0.37148
 Alpha virt. eigenvalues --    0.02886   0.04238   0.05044   0.05355   0.05845
 Alpha virt. eigenvalues --    0.06310   0.07428   0.07788   0.09012   0.09535
 Alpha virt. eigenvalues --    0.09842   0.10417   0.10484   0.11849   0.12536

 Mulliken charges:
               1
     1  Si   0.185386
     2  B    0.198164
     3  O   -0.481169
     4  C   -0.005057
     5  C    0.693410
     6  H   -0.497909
     7  H   -0.270144
     8  H   -0.290969
     9  H    0.190325
    10  H    0.224398
    11  H    0.026788
    12  H    0.026775
 Sum of Mulliken charges =  -0.00000

 Dipole moment (field-independent basis, Debye):
    X=              1.6575    Y=              0.9909    Z=             -0.0001  Tot=              1.9311

 Test job not archived.
 1\1\GINC-SE048\SP\RHF\Aug-CC-pVDZ\C2H7B1O1Si1\OHZDE\09-Apr-2025\0\\#t
 hf aug-cc-pvdz iop(5/13=1,5/36=2,99/5=2) pseudo=read geom=check guess=
 (read,tcheck) scf=(maxcycle=1)\\title\\0,1\Si,0,-0.18925,-1.124669,-0.
 000007\B,0,1.65777,-0.276818,-0.000108\O,0,1.796531,1.072104,0.000033\
 C,0,-1.64459,0.055629,0.000026\C,0,-1.545028,1.387933,-0.000002\H,0,-2
 .644834,-0.379184,0.000071\H,0,-0.583405,1.890414,-0.000051\H,0,-2.423
 376,2.029102,0.00002\H,0,2.713646,1.368633,0.000116\H,0,2.643664,-0.96
 451,0.000058\H,0,-0.289749,-2.026582,1.182882\H,0,-0.289832,-2.026614,

 Normal termination of Gaussian 16 at Wed Apr  9 00:43:31 2025.
