 Gaussian 16, Revision C.01,

 ----------------------------------------------------------------------
 #t hf aug-cc-pvdz symm=none int=(grid=ultrafine) guess=(read,tcheck) s
 table=(opt,rrhf)
 ----------------------------------------------------------------------
 -----
 title
 -----
 Symbolic Z-matrix:
 Charge =  0 Multiplicity = 1

 SCF Done:  E(RHF) =  -306.739523471     A.U. after   14 cycles
 Normal termination of Gaussian 16 at Tue Apr  8 22:31:48 2025.
 Gaussian 16:  ES64L-G16RevC.01  3-Jul-2019

 ----------------------------------------------------------------------
 #t hf aug-cc-pvdz iop(5/13=1,5/36=2,99/5=2) pseudo=read geom=check gue
 ss=(read,tcheck) scf=(maxcycle=1)
 ----------------------------------------------------------------------
 -----
 title
 -----
 Structure from the checkpoint file:  "BDE49_expt_1075_mol1.chk"
 Charge =  0 Multiplicity = 1

                         Standard orientation:
 ---------------------------------------------------------------------
 Center     Atomic      Atomic             Coordinates (Angstroms)
 Number     Number       Type             X           Y           Z
 ---------------------------------------------------------------------
      1          8           0        0.849442   -1.101238   -0.000004
      2          6           0        2.039696   -0.432703   -0.000000
      3          6           0        1.826999    0.906271    0.000004
      4          6           0        0.401897    1.083391   -0.000000
      5          6           0       -0.146454   -0.163519   -0.000001
      6          1           0        2.923896   -1.047133   -0.000000
      7          1           0        2.582182    1.676146    0.000007
      8          1           0       -0.135217    2.018047   -0.000000
      9          6           0       -1.544651   -0.686160   -0.000004
     10          6           0       -2.605392    0.416526    0.000005
     11          1           0       -1.679812   -1.334431    0.874351
     12          1           0       -1.679814   -1.334418   -0.874367
     13          1           0       -2.515869    1.053093    0.884168
     14          1           0       -3.607607   -0.017339    0.000003
     15          1           0       -2.515871    1.053105   -0.884149
 ---------------------------------------------------------------------

 SCF Done:  E(RHF) =  -306.835847182     A.U. after    2 cycles

 The electronic state is 1-A.
 Alpha  occ. eigenvalues --  -20.62815 -11.29835 -11.29152 -11.24834 -11.23554
 Alpha  occ. eigenvalues --  -11.23379 -11.22970  -1.41071  -1.07660  -1.05958
 Alpha  occ. eigenvalues --   -0.97420  -0.86757  -0.80459  -0.76181  -0.71187
 Alpha  occ. eigenvalues --   -0.65665  -0.62086  -0.60709  -0.58051  -0.56800
 Alpha  occ. eigenvalues --   -0.54463  -0.52600  -0.50513  -0.50465  -0.39955
 Alpha  occ. eigenvalues --   -0.30913
 Alpha virt. eigenvalues --    0.03525   0.03890   0.04426   0.05413   0.05682
 Alpha virt. eigenvalues --    0.06183   0.07806   0.08075   0.11182   0.11207
 Alpha virt. eigenvalues --    0.11683   0.12835   0.13233   0.14587   0.14890

 Mulliken charges:
               1
     1  O   -0.587201
     2  C    0.705427
     3  C    0.330990
     4  C    0.765996
     5  C   -0.444779
     6  H   -0.360781
     7  H   -0.314098
     8  H   -0.454635
     9  C   -0.007327
    10  C    0.541187
    11  H    0.007491
    12  H    0.007490
    13  H   -0.039042
    14  H   -0.111675
    15  H   -0.039043
 Sum of Mulliken charges =  -0.00000

 Dipole moment (field-independent basis, Debye):
    X=             -0.5490    Y=              0.7023    Z=              0.0000  Tot=              0.8914

 Test job not archived.
 1\1\GINC-SE094\SP\RHF\Aug-CC-pVDZ\C6H8O1\OHZDE\08-Apr-2025\0\\#t hf au
 g-cc-pvdz iop(5/13=1,5/36=2,99/5=2) pseudo=read geom=check guess=(read
 ,tcheck) scf=(maxcycle=1)\\title\\0,1\O,0,0.849442,-1.101238,-0.000004
 \C,0,2.039696,-0.432703,0.\C,0,1.826999,0.906271,0.000004\C,0,0.401897
 ,1.083391,0.\C,0,-0.146454,-0.163519,-0.000001\H,0,2.923896,-1.047132,
 0.\H,0,2.582182,1.676146,0.000007\H,0,-0.135217,2.018047,0.\C,0,-1.544
 651,-0.68616,-0.000004\C,0,-2.605392,0.416526,0.000005\H,0,-1.679812,-
 1.334431,0.874351\H,0,-1.679814,-1.334418,-0.874367\H,0,-2.515869,1.05

 Normal termination of Gaussian 16 at Tue Apr  8 22:31:53 2025.
