 Gaussian 16, Revision C.01,

 ----------------------------------------------------------------------
 #t hf aug-cc-pvdz symm=none int=(grid=ultrafine) guess=(read,tcheck) s
 table=opt
 ----------------------------------------------------------------------
 -----
 title
 -----
 Symbolic Z-matrix:
 Charge =  0 Multiplicity = 2

 SCF Done:  E(UHF) =  -820.395270457     A.U. after   18 cycles
 Normal termination of Gaussian 16 at Wed Apr  9 00:19:02 2025.
 Gaussian 16:  ES64L-G16RevC.01  3-Jul-2019

 ----------------------------------------------------------------------
 #t hf aug-cc-pvdz iop(5/13=1,5/36=2,99/5=2) pseudo=read geom=check gue
 ss=(read,tcheck) scf=(maxcycle=1)
 ----------------------------------------------------------------------
 -----
 title
 -----
 Structure from the checkpoint file:  "BDE49_nonexpt_261_mol2.chk"
 Charge =  0 Multiplicity = 2

                         Standard orientation:
 ---------------------------------------------------------------------
 Center     Atomic      Atomic             Coordinates (Angstroms)
 Number     Number       Type             X           Y           Z
 ---------------------------------------------------------------------
      1         17           0        2.117977   -0.006213    0.018471
      2          9           0       -1.288245    1.082116   -0.649165
      3          9           0       -0.775903   -1.033830   -0.799275
      4          9           0       -1.724009   -0.282216    1.003071
      5          6           0       -0.817359    0.017812    0.049441
      6          5           0        0.598391    0.420823    0.679535
 ---------------------------------------------------------------------

 SCF Done:  E(UHF) =  -820.541737393     A.U. after    2 cycles

 The electronic state is 2-A.
 Alpha  occ. eigenvalues -- -103.70904 -26.17536 -26.17352 -26.17229 -11.52477
 Alpha  occ. eigenvalues --  -10.74406  -8.40142  -8.39873  -8.39804  -7.74713
 Alpha  occ. eigenvalues --   -1.76542  -1.69718  -1.69616  -1.20878  -1.04234
 Alpha  occ. eigenvalues --   -0.89354  -0.88307  -0.88256  -0.78006  -0.77876
 Alpha  occ. eigenvalues --   -0.73615  -0.73542  -0.72431  -0.70710  -0.60701
 Alpha  occ. eigenvalues --   -0.55361  -0.53746  -0.40004
 Alpha virt. eigenvalues --    0.01845   0.04691   0.05327   0.05709   0.06044
 Alpha virt. eigenvalues --    0.11382   0.12072   0.12791   0.14345   0.15909
 Alpha virt. eigenvalues --    0.16529   0.19469   0.19897   0.22478   0.23641

  Beta  occ. eigenvalues -- -103.70840 -26.17550 -26.17380 -26.17094 -11.52313
  Beta  occ. eigenvalues --  -10.74332  -8.40036  -8.39858  -8.39616  -7.72558
  Beta  occ. eigenvalues --   -1.76435  -1.69768  -1.69362  -1.20119  -1.03702
  Beta  occ. eigenvalues --   -0.88564  -0.88202  -0.87902  -0.77952  -0.77563
  Beta  occ. eigenvalues --   -0.73616  -0.73469  -0.72355  -0.67911  -0.59090
  Beta  occ. eigenvalues --   -0.53875  -0.52221
  Beta virt. eigenvalues --    0.02505   0.04019   0.05169   0.05610   0.07083
  Beta virt. eigenvalues --    0.08265   0.12029   0.12219   0.13152   0.15057
  Beta virt. eigenvalues --    0.15927   0.16679   0.19905   0.20738   0.22944

 Mulliken charges and spin densities:
               1          2
     1  Cl  -0.134436  -0.005070
     2  F   -0.342962  -0.002615
     3  F   -0.348456   0.013429
     4  F   -0.320476  -0.011826
     5  C    0.904644   0.001122
     6  B    0.241686   1.004960
 Sum of Mulliken charges =   0.00000   1.00000

 Dipole moment (field-independent basis, Debye):
    X=              1.7075    Y=              0.3229    Z=              0.7524  Tot=              1.8937
                          Isotropic Fermi Contact Couplings
        Atom                 a.u.       MegaHertz       Gauss      10(-4) cm-1
     1  Cl(35)             0.06144      26.93832       9.61226       8.98566
     2  F(19)             -0.00381     -16.03432      -5.72144      -5.34847
     3  F(19)              0.02274      95.67467      34.13910      31.91363
     4  F(19)             -0.00424     -17.83425      -6.36370      -5.94887
     5  C(13)              0.04409      49.56957      17.68766      16.53463
     6  B(11)              0.38318     549.62467     196.11975     183.33505
 --------------------------------------------------------
       Center         ----  Spin Dipole Couplings  ----

 Normal termination of Gaussian 16 at Wed Apr  9 00:19:05 2025.
