 Gaussian 16, Revision C.01,

 ----------------------------------------------------------------------
 #t hf aug-cc-pvdz symm=none int=(grid=ultrafine) guess=(read,tcheck) s
 table=(opt,rrhf)
 ----------------------------------------------------------------------
 -----
 title
 -----
 Symbolic Z-matrix:
 Charge =  0 Multiplicity = 1

 SCF Done:  E(RHF) =  -1031.74589200     A.U. after   12 cycles

 1\1\GINC-SE110\Stability\RHF\Aug-CC-pVDZ\C1Cl2O1\OHZDE\08-Apr-2025\0\\
 #t hf aug-cc-pvdz symm=none int=(grid=ultrafine) guess=(read,tcheck) s
 table=(opt,rrhf)\\title\\0,1\C,0,0.000001,0.507678,0.00065\O,0,-0.0004
 03,1.679588,-0.000109\Cl,0,-1.461396,-0.484927,-0.000086\Cl,0,1.461585
 ,-0.484647,-0.000092\\Version=ES64L-G16RevC.01\HF=-1031.745892\RMSD=8.
 453e-09\Dipole=0.0004587,-0.5426726,0.0004434\Quadrupole=1.4304011,-2.
 1860064,0.7556053,0.0002228,-0.0000014,0.0017833\PG=Unknown\\@
 The archive entry for this job was punched.

 Normal termination of Gaussian 16 at Tue Apr  8 22:48:28 2025.
 Gaussian 16:  ES64L-G16RevC.01  3-Jul-2019

 ----------------------------------------------------------------------
 #t hf aug-cc-pvdz iop(5/13=1,5/36=2,99/5=2) pseudo=read geom=check gue
 ss=(read,tcheck) scf=(maxcycle=1)
 ----------------------------------------------------------------------
 -----
 title
 -----
 Structure from the checkpoint file:  "BDE49_expt_1708_mol1.chk"
 Charge =  0 Multiplicity = 1

                         Standard orientation:
 ---------------------------------------------------------------------
 Center     Atomic      Atomic             Coordinates (Angstroms)
 Number     Number       Type             X           Y           Z
 ---------------------------------------------------------------------
      1          6           0        0.000001    0.507678    0.000650
      2          8           0       -0.000403    1.679588   -0.000109
      3         17           0       -1.461396   -0.484928   -0.000086
      4         17           0        1.461585   -0.484647   -0.000092
 ---------------------------------------------------------------------

 SCF Done:  E(RHF) =  -1031.82119149     A.U. after    2 cycles

 The electronic state is 1-A.
 Alpha  occ. eigenvalues -- -103.71523-103.71519 -20.64701 -11.49269 -10.74839
 Alpha  occ. eigenvalues --  -10.74828  -8.40555  -8.40546  -8.40213  -8.40210
 Alpha  occ. eigenvalues --   -8.40196  -8.40192  -1.46341  -1.23257  -1.18461
 Alpha  occ. eigenvalues --   -0.83081  -0.72850  -0.72098  -0.66583  -0.54334
 Alpha  occ. eigenvalues --   -0.51679  -0.51462  -0.51235  -0.49343
 Alpha virt. eigenvalues --    0.05255   0.07957   0.07977   0.08788   0.10214
 Alpha virt. eigenvalues --    0.11009   0.12926   0.14590   0.15299   0.15623
 Alpha virt. eigenvalues --    0.17187   0.18162   0.25805   0.25873   0.28175

 Mulliken charges:
               1
     1  C    0.056221
     2  O   -0.211136
     3  Cl   0.077385
     4  Cl   0.077529
 Sum of Mulliken charges =   0.00000

 Dipole moment (field-independent basis, Debye):
    X=              0.0012    Y=             -1.5387    Z=              0.0013  Tot=              1.5387

 Test job not archived.
 1\1\GINC-SE110\SP\RHF\Aug-CC-pVDZ\C1Cl2O1\OHZDE\08-Apr-2025\0\\#t hf a
 ug-cc-pvdz iop(5/13=1,5/36=2,99/5=2) pseudo=read geom=check guess=(rea
 d,tcheck) scf=(maxcycle=1)\\title\\0,1\C,0,0.000001,0.507678,0.00065\O
 ,0,-0.000403,1.679588,-0.000109\Cl,0,-1.461396,-0.484927,-0.000086\Cl,
 0,1.461585,-0.484647,-0.000092\\Version=ES64L-G16RevC.01\State=1-A\HF=
 -1031.8211915\RMSD=2.933e-03\Dipole=0.0004843,-0.6053845,0.0005044\Qua
 drupole=1.5639427,-2.3622147,0.798272,0.0003221,-0.0000016,0.0018864\P
 G=C01 [X(C1Cl2O1)]\\@

 Normal termination of Gaussian 16 at Tue Apr  8 22:48:29 2025.
