 Gaussian 16, Revision C.01,

 ----------------------------------------------------------------------
 #t hf aug-cc-pvdz symm=none int=(grid=ultrafine) guess=(read,tcheck) s
 table=(opt,rrhf)
 ----------------------------------------------------------------------
 -----
 title
 -----
 Symbolic Z-matrix:
 Charge =  0 Multiplicity = 1

 SCF Done:  E(RHF) =  -1453.30881039     A.U. after   15 cycles
 Normal termination of Gaussian 16 at Wed Apr  9 00:12:28 2025.
 Gaussian 16:  ES64L-G16RevC.01  3-Jul-2019

 ----------------------------------------------------------------------
 #t hf aug-cc-pvdz iop(5/13=1,5/36=2,99/5=2) pseudo=read geom=check gue
 ss=(read,tcheck) scf=(maxcycle=1)
 ----------------------------------------------------------------------
 -----
 title
 -----
 Structure from the checkpoint file:  "BDE49_nonexpt_2440_mol1.chk"
 Charge =  0 Multiplicity = 1

                         Standard orientation:
 ---------------------------------------------------------------------
 Center     Atomic      Atomic             Coordinates (Angstroms)
 Number     Number       Type             X           Y           Z
 ---------------------------------------------------------------------
      1         14           0       -2.863263   -0.013659   -0.707094
      2         14           0       -1.198397   -0.607925    0.854350
      3          6           0        0.479526    0.107321    0.302895
      4          1           0       -1.093056   -2.087250    0.949252
      5          1           0       -1.492623   -0.061287    2.197077
      6         16           0        0.663587    1.742168    0.234316
      7         16           0        1.670657   -1.085706   -0.102655
      8          1           0       -4.131785   -0.686324   -0.333582
      9          1           0       -2.462038   -0.470813   -2.058809
     10          1           0       -3.075263    1.450266   -0.724044
     11          6           0        3.115422   -0.123611   -0.633555
     12          1           0        3.878124   -0.853026   -0.907415
     13          1           0        3.465925    0.506511    0.183177
     14          1           0        2.856360    0.498426   -1.489862
 ---------------------------------------------------------------------

 SCF Done:  E(RHF) =  -1453.41308178     A.U. after    2 cycles

 The electronic state is 1-A.
 Alpha  occ. eigenvalues --  -93.57470 -93.51949 -69.08077 -69.06724 -11.34355
 Alpha  occ. eigenvalues --  -11.28067  -8.87256  -8.81790  -6.83435  -6.82134
 Alpha  occ. eigenvalues --   -6.21399  -6.21134  -6.20880  -6.15935  -6.15569
 Alpha  occ. eigenvalues --   -6.15377  -3.94226  -3.94170  -3.94131  -3.92890
 Alpha  occ. eigenvalues --   -3.92882  -3.92870  -1.10382  -1.00381  -0.90063
 Alpha  occ. eigenvalues --   -0.76689  -0.70702  -0.65297  -0.61020  -0.60872
 Alpha  occ. eigenvalues --   -0.55761  -0.52461  -0.50392  -0.48668  -0.48033
 Alpha  occ. eigenvalues --   -0.46527  -0.45304  -0.40060  -0.34531  -0.33262
 Alpha virt. eigenvalues --    0.03058   0.03478   0.04232   0.04699   0.05730
 Alpha virt. eigenvalues --    0.06330   0.06688   0.07058   0.07603   0.08344
 Alpha virt. eigenvalues --    0.08491   0.08926   0.09514   0.10139   0.10677

 Mulliken charges:
               1
     1  Si  -0.218741
     2  Si   0.286598
     3  C   -0.572899
     4  H    0.007570
     5  H    0.077658
     6  S   -0.036436
     7  S    0.390410
     8  H    0.021641
     9  H    0.058367
    10  H    0.065907
    11  C    0.079549
    12  H   -0.111920
    13  H   -0.020132
    14  H   -0.027573
 Sum of Mulliken charges =  -0.00000

 Dipole moment (field-independent basis, Debye):
    X=              1.0743    Y=             -1.4369    Z=             -0.5280  Tot=              1.8702

 Test job not archived.
 1\1\GINC-SE016\SP\RHF\Aug-CC-pVDZ\C2H8S2Si2\OHZDE\09-Apr-2025\0\\#t hf
  aug-cc-pvdz iop(5/13=1,5/36=2,99/5=2) pseudo=read geom=check guess=(r
 ead,tcheck) scf=(maxcycle=1)\\title\\0,1\Si,0,2.863263,-0.013659,0.707
 094\Si,0,1.198397,-0.607925,-0.85435\C,0,-0.479526,0.107321,-0.302895\
 H,0,1.093056,-2.08725,-0.949252\H,0,1.492623,-0.061287,-2.197077\S,0,-
 0.663587,1.742168,-0.234316\S,0,-1.670657,-1.085706,0.102655\H,0,4.131
 785,-0.686324,0.333582\H,0,2.462038,-0.470813,2.058809\H,0,3.075263,1.
 450266,0.724044\C,0,-3.115422,-0.123611,0.633555\H,0,-3.878124,-0.8530

 Normal termination of Gaussian 16 at Wed Apr  9 00:12:34 2025.
