 Gaussian 16, Revision C.01,

 ----------------------------------------------------------------------
 #t hf aug-cc-pvdz symm=none int=(grid=ultrafine) guess=(read,tcheck) s
 table=opt
 ----------------------------------------------------------------------
 -----
 title
 -----
 Symbolic Z-matrix:
 Charge =  0 Multiplicity = 2

 SCF Done:  E(UHF) =  -536.488483410     A.U. after   20 cycles
 Normal termination of Gaussian 16 at Tue Apr  8 23:45:49 2025.
 Gaussian 16:  ES64L-G16RevC.01  3-Jul-2019

 ----------------------------------------------------------------------
 #t hf aug-cc-pvdz iop(5/13=1,5/36=2,99/5=2) pseudo=read geom=check gue
 ss=(read,tcheck) scf=(maxcycle=1)
 ----------------------------------------------------------------------
 -----
 title
 -----
 Structure from the checkpoint file:  "BDE49_nonexpt_1784_mol2.chk"
 Charge =  0 Multiplicity = 2

                         Standard orientation:
 ---------------------------------------------------------------------
 Center     Atomic      Atomic             Coordinates (Angstroms)
 Number     Number       Type             X           Y           Z
 ---------------------------------------------------------------------
      1         14           0       -1.956331    0.347619   -0.057535
      2          6           0       -0.238190   -0.527326   -0.020467
      3          7           0        0.930157    0.182385   -0.031583
      4          6           0        0.985724    1.630852   -0.048329
      5          8           0       -0.279868   -1.752516    0.009782
      6          1           0       -0.006300    2.046084   -0.235586
      7          1           0        1.647991    1.975641   -0.849411
      8          1           0        1.356615    2.030184    0.902978
      9          6           0        2.202998   -0.523286    0.052199
     10          1           0        2.837998   -0.264483   -0.801458
     11          1           0        2.001470   -1.592142    0.046245
     12          1           0        2.732689   -0.258481    0.974025
     13          1           0       -2.180452    1.178693    1.157559
     14          1           0       -2.976725   -0.720181   -0.146456
 ---------------------------------------------------------------------

 SCF Done:  E(UHF) =  -536.587042057     A.U. after    2 cycles

 The electronic state is 2-A.
 Alpha  occ. eigenvalues --  -69.08494 -20.54026 -15.65778 -11.35271 -11.28976
 Alpha  occ. eigenvalues --  -11.26989  -6.83880  -3.95231  -3.94325  -3.94301
 Alpha  occ. eigenvalues --   -1.34507  -1.21745  -0.98196  -0.93992  -0.78180
 Alpha  occ. eigenvalues --   -0.72129  -0.66870  -0.66100  -0.64141  -0.57576
 Alpha  occ. eigenvalues --   -0.57025  -0.55348  -0.54996  -0.54306  -0.49167
 Alpha  occ. eigenvalues --   -0.42180  -0.38180  -0.33318
 Alpha virt. eigenvalues --    0.02917   0.04021   0.04588   0.04882   0.06385
 Alpha virt. eigenvalues --    0.07049   0.07367   0.07705   0.08455   0.09267
 Alpha virt. eigenvalues --    0.11006   0.11777   0.12509   0.13169   0.13915

  Beta  occ. eigenvalues --  -69.07930 -20.53731 -15.65787 -11.35269 -11.28944
  Beta  occ. eigenvalues --  -11.26988  -6.83041  -3.93936  -3.93913  -3.93040
  Beta  occ. eigenvalues --   -1.33958  -1.21621  -0.98114  -0.93850  -0.76659
  Beta  occ. eigenvalues --   -0.71005  -0.66423  -0.66027  -0.62416  -0.57367
  Beta  occ. eigenvalues --   -0.56976  -0.55022  -0.54220  -0.53605  -0.48269
  Beta  occ. eigenvalues --   -0.40530  -0.37585
  Beta virt. eigenvalues --    0.02030   0.03200   0.04279   0.04855   0.05256
  Beta virt. eigenvalues --    0.06581   0.07218   0.07640   0.08500   0.08606
  Beta virt. eigenvalues --    0.09399   0.11357   0.12136   0.13112   0.13338

 Mulliken charges and spin densities:
               1          2
     1  Si  -0.064520   0.990997
     2  C    0.093665  -0.014791
     3  N   -0.269567  -0.032489
     4  C    0.818748   0.019976
     5  O   -0.578173   0.054373
     6  H   -0.313992  -0.025905
     7  H   -0.110757   0.000926
     8  H   -0.092539  -0.002240
     9  C    0.767258   0.001957
    10  H   -0.106983  -0.000000
    11  H   -0.218697  -0.000276
    12  H   -0.073694   0.000398
    13  H    0.054904  -0.012717
    14  H    0.094345   0.019792
 Sum of Mulliken charges =  -0.00000   1.00000

 Dipole moment (field-independent basis, Debye):
    X=              1.5614    Y=              3.9263    Z=             -0.0890  Tot=              4.2263
                          Isotropic Fermi Contact Couplings
        Atom                 a.u.       MegaHertz       Gauss      10(-4) cm-1
     1  Si(29)             0.50508    -448.87663    -160.17034    -149.72913
     2  C(13)              0.00613       6.88928       2.45827       2.29802
     3  N(14)             -0.00565      -1.82544      -0.65136      -0.60890
     4  C(13)              0.00486       5.46095       1.94860       1.82158
     5  O(17)              0.03217     -19.49906      -6.95775      -6.50419
     6  H(1)              -0.00053      -2.38615      -0.85144      -0.79593
     7  H(1)              -0.00008      -0.36857      -0.13151      -0.12294
     8  H(1)              -0.00036      -1.62619      -0.58027      -0.54244

 1\1\GINC-SE333\SP\UHF\Aug-CC-pVDZ\C3H8N1O1Si1(2)\OHZDE\08-Apr-2025\0\\
 #t hf aug-cc-pvdz iop(5/13=1,5/36=2,99/5=2) pseudo=read geom=check gue
 ss=(read,tcheck) scf=(maxcycle=1)\\title\\0,2\Si,0,-1.956331,0.34762,-
 0.057535\C,0,-0.23819,-0.527326,-0.020467\N,0,0.930157,0.182385,-0.031
 583\C,0,0.985725,1.630852,-0.048329\O,0,-0.279868,-1.752516,0.009782\H
 ,0,-0.006299,2.046084,-0.235586\H,0,1.647992,1.975641,-0.849411\H,0,1.
 356616,2.030184,0.902978\C,0,2.202998,-0.523286,0.052199\H,0,2.837998,
 -0.264484,-0.801458\H,0,2.00147,-1.592142,0.046245\H,0,2.732689,-0.258

 Normal termination of Gaussian 16 at Tue Apr  8 23:45:53 2025.
