 Gaussian 16, Revision C.01,

 ----------------------------------------------------------------------
 #t hf aug-cc-pvdz symm=none int=(grid=ultrafine) guess=(read,tcheck) s
 table=(opt,rrhf)
 ----------------------------------------------------------------------
 -----
 title
 -----
 Symbolic Z-matrix:
 Charge =  0 Multiplicity = 1

 SCF Done:  E(RHF) =  -381.511989963     A.U. after   11 cycles
 Normal termination of Gaussian 16 at Tue Apr  8 23:10:43 2025.
 Gaussian 16:  ES64L-G16RevC.01  3-Jul-2019

 ----------------------------------------------------------------------
 #t hf aug-cc-pvdz iop(5/13=1,5/36=2,99/5=2) pseudo=read geom=check gue
 ss=(read,tcheck) scf=(maxcycle=1)
 ----------------------------------------------------------------------
 -----
 title
 -----
 Structure from the checkpoint file:  "BDE49_expt_817_mol1.chk"
 Charge =  0 Multiplicity = 1

                         Standard orientation:
 ---------------------------------------------------------------------
 Center     Atomic      Atomic             Coordinates (Angstroms)
 Number     Number       Type             X           Y           Z
 ---------------------------------------------------------------------
      1         15           0        0.070326   -0.675971   -0.000000
      2          1           0       -0.886515   -0.865209    1.032015
      3          6           0        0.070326    1.192480   -0.000000
      4          1           0       -0.886515   -0.865209   -1.032015
      5          1           0        0.612025    1.542422    0.881396
      6          1           0       -0.927861    1.630256    0.000000
      7          1           0        0.612025    1.542422   -0.881396
 ---------------------------------------------------------------------

 SCF Done:  E(RHF) =  -381.548798235     A.U. after    2 cycles

 The electronic state is 1-A'.
 Alpha  occ. eigenvalues --  -81.25328 -11.24114  -7.75666  -4.89590  -4.89586
 Alpha  occ. eigenvalues --   -4.89269  -0.96242  -0.75700  -0.58335  -0.57871
 Alpha  occ. eigenvalues --   -0.49088  -0.47884  -0.34966
 Alpha virt. eigenvalues --    0.03463   0.05113   0.05572   0.06111   0.08401
 Alpha virt. eigenvalues --    0.09716   0.11332   0.11566   0.15160   0.15924
 Alpha virt. eigenvalues --    0.16731   0.16920   0.20053   0.21053   0.24059

 Mulliken charges:
               1
     1  P    0.076141
     2  H    0.102554
     3  C    0.118923
     4  H    0.102554
     5  H   -0.123329
     6  H   -0.153515
     7  H   -0.123329
 Sum of Mulliken charges =  -0.00000

 Dipole moment (field-independent basis, Debye):
    X=             -0.5426    Y=              1.0135    Z=             -0.0000  Tot=              1.1496

 Test job not archived.
 1\1\GINC-SE249\SP\RHF\Aug-CC-pVDZ\C1H5P1\OHZDE\08-Apr-2025\0\\#t hf au
 g-cc-pvdz iop(5/13=1,5/36=2,99/5=2) pseudo=read geom=check guess=(read
 ,tcheck) scf=(maxcycle=1)\\title\\0,1\P,0,0.070326,-0.675971,0.\H,0,-0
 .886515,-0.865209,1.032015\C,0,0.070326,1.19248,0.\H,0,-0.886515,-0.86
 5209,-1.032015\H,0,0.612025,1.542422,0.881396\H,0,-0.927861,1.630256,0
 .\H,0,0.612025,1.542422,-0.881396\\Version=ES64L-G16RevC.01\State=1-A'
 \HF=-381.5487982\RMSD=1.171e-02\Dipole=-0.213469,0.3987526,0.\Quadrupo
 le=-0.5007756,-0.3290823,0.8298579,1.0961982,0.,0.\PG=CS [SG(C1H1P1),X

 Normal termination of Gaussian 16 at Tue Apr  8 23:10:45 2025.
