 Gaussian 16, Revision C.01,

 ----------------------------------------------------------------------
 #t hf aug-cc-pvdz symm=none int=(grid=ultrafine) guess=(read,tcheck) s
 table=(opt,rrhf)
 ----------------------------------------------------------------------
 -----
 title
 -----
 Symbolic Z-matrix:
 Charge =  0 Multiplicity = 1

 SCF Done:  E(RHF) =  -1380.90814527     A.U. after   17 cycles
 Normal termination of Gaussian 16 at Tue Apr  8 23:42:01 2025.
 Gaussian 16:  ES64L-G16RevC.01  3-Jul-2019

 ----------------------------------------------------------------------
 #t hf aug-cc-pvdz iop(5/13=1,5/36=2,99/5=2) pseudo=read geom=check gue
 ss=(read,tcheck) scf=(maxcycle=1)
 ----------------------------------------------------------------------
 -----
 title
 -----
 Structure from the checkpoint file:  "BDE49_nonexpt_1684_mol1.chk"
 Charge =  0 Multiplicity = 1

                         Standard orientation:
 ---------------------------------------------------------------------
 Center     Atomic      Atomic             Coordinates (Angstroms)
 Number     Number       Type             X           Y           Z
 ---------------------------------------------------------------------
      1          7           0        2.484747   -0.606226   -0.088043
      2         15           0        1.967628    0.999846    0.725885
      3         14           0       -0.092212    1.178592   -0.288660
      4         15           0       -1.071598   -0.888133   -0.145817
      5          7           0       -2.799774   -0.166438    0.025722
      6          8           0       -3.060704    0.779161   -0.713746
      7          8           0       -3.584086   -0.716086    0.773445
      8          8           0        1.652458   -1.514616   -0.074621
      9          8           0        3.621428   -0.708335   -0.494779
     10          1           0        2.697644    1.799996   -0.182461
     11          1           0       -0.908286   -1.064957    1.245989
     12          1           0        0.036304    1.569782   -1.705455
     13          1           0       -0.802738    2.206861    0.495988
 ---------------------------------------------------------------------

 SCF Done:  E(RHF) =  -1381.09227436     A.U. after    2 cycles

 The electronic state is 1-A.
 Alpha  occ. eigenvalues --  -81.34733 -81.33843 -69.13620 -20.65409 -20.64496
 Alpha  occ. eigenvalues --  -20.63131 -20.62564 -15.93130 -15.90795  -7.84931
 Alpha  occ. eigenvalues --   -7.83896  -6.88769  -4.98959  -4.98666  -4.98417
 Alpha  occ. eigenvalues --   -4.97900  -4.97591  -4.97365  -3.99525  -3.99468
 Alpha  occ. eigenvalues --   -3.99428  -1.57163  -1.54991  -1.39360  -1.37289
 Alpha  occ. eigenvalues --   -0.99031  -0.97058  -0.86151  -0.82815  -0.76927
 Alpha  occ. eigenvalues --   -0.76542  -0.74355  -0.74265  -0.73373  -0.71937
 Alpha  occ. eigenvalues --   -0.68078  -0.57075  -0.55606  -0.54162  -0.52535
 Alpha  occ. eigenvalues --   -0.51098  -0.50244  -0.49402  -0.48297  -0.46603
 Alpha  occ. eigenvalues --   -0.42267  -0.40199
 Alpha virt. eigenvalues --    0.02033   0.03255   0.03364   0.04428   0.05196
 Alpha virt. eigenvalues --    0.05416   0.06545   0.06796   0.07721   0.07914
 Alpha virt. eigenvalues --    0.09025   0.09522   0.10253   0.10764   0.11014

 Mulliken charges:
               1
     1  N    0.427833
     2  P    0.172688
     3  Si   0.264428
     4  P    0.298276
     5  N    0.379292
     6  O   -0.555354
     7  O   -0.550040
     8  O   -0.527977
     9  O   -0.525025
    10  H    0.190202
    11  H    0.244986
    12  H    0.110466
    13  H    0.070226
 Sum of Mulliken charges =  -0.00000

 Dipole moment (field-independent basis, Debye):
    X=              3.0747    Y=              3.2024    Z=              0.9558  Tot=              4.5412

 Test job not archived.
 1\1\GINC-SE361\SP\RHF\Aug-CC-pVDZ\H4N2O4P2Si1\OHZDE\08-Apr-2025\0\\#t
 hf aug-cc-pvdz iop(5/13=1,5/36=2,99/5=2) pseudo=read geom=check guess=
 (read,tcheck) scf=(maxcycle=1)\\title\\0,1\N,0,2.484747,-0.606226,-0.0
 88043\P,0,1.967628,0.999846,0.725885\Si,0,-0.092212,1.178592,-0.28866\
 P,0,-1.071598,-0.888133,-0.145817\N,0,-2.799774,-0.166438,0.025722\O,0
 ,-3.060704,0.779161,-0.713746\O,0,-3.584086,-0.716086,0.773445\O,0,1.6
 52458,-1.514616,-0.074621\O,0,3.621428,-0.708335,-0.494779\H,0,2.69764
 4,1.799996,-0.182461\H,0,-0.908286,-1.064957,1.245989\H,0,0.036304,1.5

 Normal termination of Gaussian 16 at Tue Apr  8 23:42:08 2025.
