 Gaussian 16, Revision C.01,

 ----------------------------------------------------------------------
 #t hf aug-cc-pvdz symm=none int=(grid=ultrafine) guess=(read,tcheck) s
 table=(opt,rrhf)
 ----------------------------------------------------------------------
 -----
 title
 -----
 Symbolic Z-matrix:
 Charge =  0 Multiplicity = 1

 SCF Done:  E(RHF) =  -1825.50955981     A.U. after   13 cycles
 Normal termination of Gaussian 16 at Wed Apr  9 00:12:48 2025.
 Gaussian 16:  ES64L-G16RevC.01  3-Jul-2019

 ----------------------------------------------------------------------
 #t hf aug-cc-pvdz iop(5/13=1,5/36=2,99/5=2) pseudo=read geom=check gue
 ss=(read,tcheck) scf=(maxcycle=1)
 ----------------------------------------------------------------------
 -----
 title
 -----
 Structure from the checkpoint file:  "BDE49_nonexpt_2423_mol1.chk"
 Charge =  0 Multiplicity = 1

                         Standard orientation:
 ---------------------------------------------------------------------
 Center     Atomic      Atomic             Coordinates (Angstroms)
 Number     Number       Type             X           Y           Z
 ---------------------------------------------------------------------
      1         14           0        1.183390    1.690705   -0.123249
      2         14           0       -1.183426    1.690679    0.123265
      3         16           0       -1.941950   -0.418786    0.066340
      4          1           0       -1.855221    2.419297   -0.969685
      5          1           0       -1.591704    2.179453    1.454579
      6          8           0       -1.196614   -1.174285    1.073134
      7          8           0       -1.504934   -0.950836   -1.381762
      8          8           0       -3.376900   -0.420538    0.092108
      9         16           0        1.941947   -0.418766   -0.066347
     10          1           0        1.855187    2.419326    0.969697
     11          1           0        1.591651    2.179478   -1.454568
     12          8           0        1.196607   -1.174312   -1.073107
     13          8           0        3.376896   -0.420492   -0.092152
     14          8           0        1.505012   -0.950869    1.381759
     15          1           0       -0.548455   -1.202671   -1.358902
     16          1           0        0.548547   -1.202761    1.358936
 ---------------------------------------------------------------------

 SCF Done:  E(RHF) =  -1825.84767985     A.U. after    2 cycles

 The electronic state is 1-A.
 Alpha  occ. eigenvalues --  -93.83707 -93.83705 -69.15364 -69.15363 -20.64968
 Alpha  occ. eigenvalues --  -20.64968 -20.60191 -20.60191 -20.59180 -20.59180
 Alpha  occ. eigenvalues --   -9.10018  -9.10017  -6.90625  -6.90623  -6.44674
 Alpha  occ. eigenvalues --   -6.44668  -6.44590  -6.44583  -6.44265  -6.44255
 Alpha  occ. eigenvalues --   -4.01424  -4.01412  -4.01324  -4.01305  -4.01297
 Alpha  occ. eigenvalues --   -4.01254  -1.48949  -1.48365  -1.37204  -1.36481
 Alpha  occ. eigenvalues --   -1.34639  -1.34449  -0.94223  -0.91799  -0.83877
 Alpha  occ. eigenvalues --   -0.81819  -0.76965  -0.75028  -0.73002  -0.71288
 Alpha  occ. eigenvalues --   -0.70995  -0.67633  -0.67154  -0.64978  -0.60936
 Alpha  occ. eigenvalues --   -0.60065  -0.57750  -0.57276  -0.56640  -0.55980
 Alpha  occ. eigenvalues --   -0.55244  -0.53937  -0.53524  -0.52825  -0.50235
 Alpha  occ. eigenvalues --   -0.47252  -0.45929
 Alpha virt. eigenvalues --    0.00644   0.02529   0.03257   0.04748   0.05376
 Alpha virt. eigenvalues --    0.05631   0.06246   0.06525   0.06792   0.08201
 Alpha virt. eigenvalues --    0.08291   0.08825   0.10059   0.10143   0.10772

 Mulliken charges:
               1
     1  Si   0.008524
     2  Si   0.008533
     3  S    2.310120
     4  H    0.154749
     5  H    0.160572
     6  O   -1.112379
     7  O   -0.797211
     8  O   -0.971071
     9  S    2.310119
    10  H    0.154752
    11  H    0.160574
    12  O   -1.112393
    13  O   -0.971068
    14  O   -0.797212
    15  H    0.246696
    16  H    0.246694
 Sum of Mulliken charges =  -0.00000

 Dipole moment (field-independent basis, Debye):
    X=              0.0001    Y=              7.1364    Z=              0.0001  Tot=              7.1364

 Test job not archived.
 1\1\GINC-SE419\SP\RHF\Aug-CC-pVDZ\H6O6S2Si2\OHZDE\09-Apr-2025\0\\#t hf
  aug-cc-pvdz iop(5/13=1,5/36=2,99/5=2) pseudo=read geom=check guess=(r
 ead,tcheck) scf=(maxcycle=1)\\title\\0,1\Si,0,1.18339,1.690705,-0.1232
 49\Si,0,-1.183426,1.690679,0.123265\S,0,-1.94195,-0.418786,0.06634\H,0
 ,-1.855221,2.419297,-0.969685\H,0,-1.591704,2.179453,1.454579\O,0,-1.1
 96614,-1.174285,1.073134\O,0,-1.504934,-0.950836,-1.381762\O,0,-3.3769
 ,-0.420538,0.092108\S,0,1.941947,-0.418766,-0.066347\H,0,1.855187,2.41
 9326,0.969697\H,0,1.591651,2.179478,-1.454568\O,0,1.196607,-1.174312,-

 Normal termination of Gaussian 16 at Wed Apr  9 00:12:57 2025.
