 Gaussian 16, Revision C.01,

 ----------------------------------------------------------------------
 #t hf aug-cc-pvdz symm=none int=(grid=ultrafine) guess=(read,tcheck) s
 table=(opt,rrhf)
 ----------------------------------------------------------------------
 -----
 title
 -----
 Symbolic Z-matrix:
 Charge =  0 Multiplicity = 1

 SCF Done:  E(RHF) =  -701.897378408     A.U. after   15 cycles
 Normal termination of Gaussian 16 at Tue Apr  8 23:37:56 2025.
 Gaussian 16:  ES64L-G16RevC.01  3-Jul-2019

 ----------------------------------------------------------------------
 #t hf aug-cc-pvdz iop(5/13=1,5/36=2,99/5=2) pseudo=read geom=check gue
 ss=(read,tcheck) scf=(maxcycle=1)
 ----------------------------------------------------------------------
 -----
 title
 -----
 Structure from the checkpoint file:  "BDE49_nonexpt_1563_mol1.chk"
 Charge =  0 Multiplicity = 1

                         Standard orientation:
 ---------------------------------------------------------------------
 Center     Atomic      Atomic             Coordinates (Angstroms)
 Number     Number       Type             X           Y           Z
 ---------------------------------------------------------------------
      1          6           0       -2.854081    0.395617   -0.227722
      2          6           0       -1.977377    1.305168    0.362474
      3          6           0       -0.659007    0.938342    0.621051
      4          6           0       -2.410712   -0.883324   -0.556793
      5          6           0       -1.092959   -1.251625   -0.294194
      6          6           0       -0.200581   -0.345695    0.293349
      7          1           0       -3.880996    0.682134   -0.425804
      8          1           0       -2.321564    2.300229    0.622425
      9          1           0        0.022403    1.649022    1.072714
     10          1           0       -3.090822   -1.594897   -1.011568
     11          1           0       -0.753084   -2.251336   -0.543323
     12          7           0        2.354999   -0.073595   -0.680671
     13          8           0        2.360322    1.367053   -0.590275
     14          1           0        1.822109    1.626574   -1.346788
     15         15           0        1.525835   -0.894147    0.597519
     16          1           0        1.783726   -0.021873    1.691952
     17          1           0        3.331440   -0.349806   -0.724479
 ---------------------------------------------------------------------

 SCF Done:  E(RHF) =  -702.030011569     A.U. after    2 cycles

 The electronic state is 1-A.
 Alpha  occ. eigenvalues --  -81.27951 -20.61060 -15.67481 -11.25526 -11.25494
 Alpha  occ. eigenvalues --  -11.25419 -11.25158 -11.25071 -11.25035  -7.78021
 Alpha  occ. eigenvalues --   -4.92155  -4.92016  -4.91748  -1.35486  -1.14881
 Alpha  occ. eigenvalues --   -1.06566  -1.01720  -1.01673  -0.84485  -0.83473
 Alpha  occ. eigenvalues --   -0.77000  -0.70347  -0.70044  -0.65940  -0.64144
 Alpha  occ. eigenvalues --   -0.63634  -0.60266  -0.59816  -0.56004  -0.52081
 Alpha  occ. eigenvalues --   -0.50825  -0.50387  -0.47085  -0.40754  -0.36391
 Alpha  occ. eigenvalues --   -0.34651  -0.34273
 Alpha virt. eigenvalues --    0.03261   0.04163   0.04266   0.05294   0.05472
 Alpha virt. eigenvalues --    0.06113   0.06866   0.08293   0.08904   0.09663
 Alpha virt. eigenvalues --    0.09700   0.10707   0.11972   0.13024   0.13306

 Mulliken charges:
               1
     1  C    0.423007
     2  C    0.609681
     3  C    0.437411
     4  C    0.668478
     5  C    0.053184
     6  C    0.180626
     7  H   -0.427126
     8  H   -0.441614
     9  H   -0.583717
    10  H   -0.441643
    11  H   -0.521381
    12  N   -0.303069
    13  O   -0.526207
    14  H    0.214300
    15  P    0.543028
    16  H    0.084665
    17  H    0.030376
 Sum of Mulliken charges =   0.00000

 Dipole moment (field-independent basis, Debye):
    X=             -1.0503    Y=              0.3611    Z=             -0.6987  Tot=              1.3121

 Test job not archived.
 1\1\GINC-SE097\SP\RHF\Aug-CC-pVDZ\C6H8N1O1P1\OHZDE\08-Apr-2025\0\\#t h
 f aug-cc-pvdz iop(5/13=1,5/36=2,99/5=2) pseudo=read geom=check guess=(
 read,tcheck) scf=(maxcycle=1)\\title\\0,1\C,0,2.854081,0.395617,0.2277
 22\C,0,1.977377,1.305168,-0.362474\C,0,0.659007,0.938342,-0.621051\C,0
 ,2.410712,-0.883324,0.556793\C,0,1.092959,-1.251625,0.294194\C,0,0.200
 581,-0.345695,-0.293349\H,0,3.880996,0.682134,0.425804\H,0,2.321564,2.
 300229,-0.622425\H,0,-0.022403,1.649022,-1.072714\H,0,3.090822,-1.5948
 97,1.011568\H,0,0.753084,-2.251336,0.543323\N,0,-2.354999,-0.073595,0.

 Normal termination of Gaussian 16 at Tue Apr  8 23:38:04 2025.
