 Gaussian 16, Revision C.01,

 ----------------------------------------------------------------------
 #t hf aug-cc-pvdz symm=none int=(grid=ultrafine) guess=(read,tcheck) s
 table=(opt,rrhf)
 ----------------------------------------------------------------------
 -----
 title
 -----
 Symbolic Z-matrix:
 Charge =  0 Multiplicity = 1

 SCF Done:  E(RHF) =  -670.593967335     A.U. after   15 cycles
 Normal termination of Gaussian 16 at Wed Apr  9 00:02:22 2025.
 Gaussian 16:  ES64L-G16RevC.01  3-Jul-2019

 ----------------------------------------------------------------------
 #t hf aug-cc-pvdz iop(5/13=1,5/36=2,99/5=2) pseudo=read geom=check gue
 ss=(read,tcheck) scf=(maxcycle=1)
 ----------------------------------------------------------------------
 -----
 title
 -----
 Structure from the checkpoint file:  "BDE49_nonexpt_2192_mol1.chk"
 Charge =  0 Multiplicity = 1

                         Standard orientation:
 ---------------------------------------------------------------------
 Center     Atomic      Atomic             Coordinates (Angstroms)
 Number     Number       Type             X           Y           Z
 ---------------------------------------------------------------------
      1          6           0        2.788719    0.229224    0.049503
      2          6           0        1.795026    1.207232    0.022153
      3          6           0        0.453366    0.843819   -0.027351
      4          6           0        2.434154   -1.115635    0.026149
      5          6           0        1.089926   -1.480713   -0.021516
      6          6           0        0.090590   -0.512195   -0.047092
      7          1           0        3.198080   -1.883601    0.045930
      8          1           0        0.786950   -2.520520   -0.039282
      9          8           0       -1.208675   -0.913819   -0.099688
     10         14           0       -2.698910   -0.187743    0.059449
     11          1           0        3.830422    0.524255    0.087449
     12          1           0        2.060086    2.260644    0.036135
     13          8           0       -0.577198    1.748551   -0.062767
     14          1           0       -0.232068    2.643847    0.006880
     15          1           0       -3.027337    0.693071   -1.078899
     16          1           0       -2.830819    0.541978    1.337679
     17          1           0       -3.624273   -1.339522    0.060386
 ---------------------------------------------------------------------

 SCF Done:  E(RHF) =  -670.742031190     A.U. after    2 cycles

 The electronic state is 1-A.
 Alpha  occ. eigenvalues --  -69.09447 -20.61774 -20.58247 -11.31683 -11.31495
 Alpha  occ. eigenvalues --  -11.25350 -11.24846 -11.24598 -11.24464  -6.84116
 Alpha  occ. eigenvalues --   -3.95045  -3.94886  -3.94859  -1.38328  -1.33682
 Alpha  occ. eigenvalues --   -1.14012  -1.01530  -1.00536  -0.86886  -0.84534
 Alpha  occ. eigenvalues --   -0.76443  -0.75054  -0.68823  -0.66362  -0.63789
 Alpha  occ. eigenvalues --   -0.63292  -0.61066  -0.60600  -0.59030  -0.56229
 Alpha  occ. eigenvalues --   -0.52950  -0.50916  -0.49569  -0.46295  -0.45842
 Alpha  occ. eigenvalues --   -0.34164  -0.31646
 Alpha virt. eigenvalues --    0.02884   0.03947   0.04105   0.05162   0.05692
 Alpha virt. eigenvalues --    0.06565   0.07033   0.07717   0.08560   0.09489
 Alpha virt. eigenvalues --    0.10379   0.11203   0.12083   0.12600   0.12865

 Mulliken charges:
               1
     1  C    0.404393
     2  C    0.868160
     3  C    0.542574
     4  C    0.456788
     5  C    0.858988
     6  C   -0.387319
     7  H   -0.437540
     8  H   -0.575639
     9  O   -0.839197
    10  Si   0.394124
    11  H   -0.433153
    12  H   -0.607317
    13  O   -0.521687
    14  H    0.165425
    15  H    0.055056
    16  H    0.049034
    17  H    0.007311
 Sum of Mulliken charges =  -0.00000

 Dipole moment (field-independent basis, Debye):
    X=              1.4703    Y=              1.9232    Z=              0.2384  Tot=              2.4326

 Test job not archived.
 1\1\GINC-SE457\SP\RHF\Aug-CC-pVDZ\C6H8O2Si1\OHZDE\09-Apr-2025\0\\#t hf
  aug-cc-pvdz iop(5/13=1,5/36=2,99/5=2) pseudo=read geom=check guess=(r
 ead,tcheck) scf=(maxcycle=1)\\title\\0,1\C,0,2.788719,0.229224,0.04950
 3\C,0,1.795026,1.207232,0.022153\C,0,0.453366,0.843819,-0.027351\C,0,2
 .434154,-1.115635,0.026149\C,0,1.089926,-1.480713,-0.021516\C,0,0.0905
 9,-0.512195,-0.047092\H,0,3.19808,-1.883602,0.04593\H,0,0.78695,-2.520
 52,-0.039282\O,0,-1.208675,-0.913819,-0.099688\Si,0,-2.69891,-0.187743
 ,0.059449\H,0,3.830422,0.524254,0.087449\H,0,2.060086,2.260644,0.03613

 Normal termination of Gaussian 16 at Wed Apr  9 00:02:31 2025.
