 Gaussian 16, Revision C.01,

 ----------------------------------------------------------------------
 #t hf aug-cc-pvdz symm=none int=(grid=ultrafine) guess=(read,tcheck) s
 table=(opt,rrhf)
 ----------------------------------------------------------------------
 -----
 title
 -----
 Symbolic Z-matrix:
 Charge =  0 Multiplicity = 1

 SCF Done:  E(RHF) =  -366.163729443     A.U. after   14 cycles
 Normal termination of Gaussian 16 at Wed Apr  9 00:38:56 2025.
 Gaussian 16:  ES64L-G16RevC.01  3-Jul-2019

 ----------------------------------------------------------------------
 #t hf aug-cc-pvdz iop(5/13=1,5/36=2,99/5=2) pseudo=read geom=check gue
 ss=(read,tcheck) scf=(maxcycle=1)
 ----------------------------------------------------------------------
 -----
 title
 -----
 Structure from the checkpoint file:  "BDE49_nonexpt_614_mol1.chk"
 Charge =  0 Multiplicity = 1

                         Standard orientation:
 ---------------------------------------------------------------------
 Center     Atomic      Atomic             Coordinates (Angstroms)
 Number     Number       Type             X           Y           Z
 ---------------------------------------------------------------------
      1          6           0       -0.060329   -0.448588   -0.176660
      2          5           0       -2.641256   -0.415530   -0.071607
      3          7           0       -2.868905    0.872376    0.446951
      4          1           0       -3.800617    1.187683    0.656507
      5          1           0       -2.144977    1.485131    0.785407
      6          6           0        0.207637    0.916325   -0.363708
      7          6           0        1.499194    1.410946   -0.202416
      8          6           0        2.553062    0.562477    0.127498
      9          6           0        2.298602   -0.798476    0.290374
     10          6           0        1.009776   -1.298051    0.145579
     11          1           0        0.818847   -2.356807    0.291484
     12          1           0       -0.588114    1.579733   -0.677880
     13          1           0        1.682996    2.468947   -0.355448
     14          1           0        3.556935    0.952393    0.246827
     15          1           0        3.107487   -1.476741    0.539250
     16          7           0       -1.351568   -0.980352   -0.330874
     17          1           0       -3.582810   -1.110522   -0.309403
     18          1           0       -1.347803   -1.964126   -0.555255
 ---------------------------------------------------------------------

 SCF Done:  E(RHF) =  -366.275749372     A.U. after    2 cycles

 The electronic state is 1-A.
 Alpha  occ. eigenvalues --  -15.61880 -15.60545 -11.29034 -11.24720 -11.24712
 Alpha  occ. eigenvalues --  -11.23796 -11.23681 -11.23480  -7.61293  -1.19236
 Alpha  occ. eigenvalues --   -1.12200  -1.10527  -1.00955  -0.98273  -0.83526
 Alpha  occ. eigenvalues --   -0.82054  -0.72672  -0.70910  -0.67856  -0.66651
 Alpha  occ. eigenvalues --   -0.63412  -0.60739  -0.58986  -0.58548  -0.52770
 Alpha  occ. eigenvalues --   -0.52343  -0.49614  -0.48653  -0.46349  -0.40462
 Alpha  occ. eigenvalues --   -0.34228  -0.30115
 Alpha virt. eigenvalues --    0.03152   0.03636   0.03850   0.04903   0.05382
 Alpha virt. eigenvalues --    0.05581   0.06986   0.07718   0.08168   0.08980
 Alpha virt. eigenvalues --    0.10258   0.10331   0.11128   0.11629   0.12153

 Mulliken charges:
               1
     1  C    0.399716
     2  B   -0.137999
     3  N   -0.158407
     4  H   -0.053205
     5  H    0.067160
     6  C    0.681102
     7  C    0.362804
     8  C    0.544726
     9  C    0.453750
    10  C    0.655440
    11  H   -0.589624
    12  H   -0.650530
    13  H   -0.452003
    14  H   -0.447230
    15  H   -0.435043
    16  N   -0.480260
    17  H    0.318940
    18  H   -0.079337
 Sum of Mulliken charges =  -0.00000

 Dipole moment (field-independent basis, Debye):
    X=             -0.1800    Y=              0.2397    Z=              0.4812  Tot=              0.5669

 Test job not archived.
 1\1\GINC-SE099\SP\RHF\Aug-CC-pVDZ\C6H9B1N2\OHZDE\09-Apr-2025\0\\#t hf
 aug-cc-pvdz iop(5/13=1,5/36=2,99/5=2) pseudo=read geom=check guess=(re
 ad,tcheck) scf=(maxcycle=1)\\title\\0,1\C,0,-0.060329,-0.448588,-0.176
 66\B,0,-2.641256,-0.41553,-0.071607\N,0,-2.868905,0.872376,0.446951\H,
 0,-3.800617,1.187683,0.656507\H,0,-2.144977,1.485131,0.785407\C,0,0.20
 7637,0.916325,-0.363708\C,0,1.499194,1.410946,-0.202416\C,0,2.553062,0
 .562477,0.127498\C,0,2.298602,-0.798476,0.290374\C,0,1.009776,-1.29805
 1,0.145579\H,0,0.818847,-2.356807,0.291484\H,0,-0.588114,1.579733,-0.6

 Normal termination of Gaussian 16 at Wed Apr  9 00:39:05 2025.
