 Gaussian 16, Revision C.01,

 ----------------------------------------------------------------------
 #t hf aug-cc-pvdz symm=none int=(grid=ultrafine) guess=(read,tcheck) s
 table=(opt,rrhf)
 ----------------------------------------------------------------------
 -----
 title
 -----
 Symbolic Z-matrix:
 Charge =  0 Multiplicity = 1

 SCF Done:  E(RHF) =  -1103.46611334     A.U. after   15 cycles
 Normal termination of Gaussian 16 at Wed Apr  9 00:17:03 2025.
 Gaussian 16:  ES64L-G16RevC.01  3-Jul-2019

 ----------------------------------------------------------------------
 #t hf aug-cc-pvdz iop(5/13=1,5/36=2,99/5=2) pseudo=read geom=check gue
 ss=(read,tcheck) scf=(maxcycle=1)
 ----------------------------------------------------------------------
 -----
 title
 -----
 Structure from the checkpoint file:  "BDE49_nonexpt_2566_mol1.chk"
 Charge =  0 Multiplicity = 1

                         Standard orientation:
 ---------------------------------------------------------------------
 Center     Atomic      Atomic             Coordinates (Angstroms)
 Number     Number       Type             X           Y           Z
 ---------------------------------------------------------------------
      1         17           0        2.586230   -0.252890    0.000420
      2         16           0        0.890760    0.904228    0.017032
      3          6           0       -0.386032   -0.455834   -0.024896
      4          8           0       -0.065139   -1.614150   -0.006139
      5          7           0       -1.655351    0.031916   -0.075540
      6          6           0       -2.766907   -0.909775    0.038652
      7          1           0       -2.378580   -1.920364   -0.055844
      8          1           0       -3.493830   -0.722282   -0.756417
      9          1           0       -3.266878   -0.805996    1.008109
     10          6           0       -1.975101    1.448847    0.001399
     11          1           0       -1.188471    2.049355   -0.460603
     12          1           0       -2.121745    1.785195    1.034072
     13          1           0       -2.891756    1.635924   -0.562015
 ---------------------------------------------------------------------

 SCF Done:  E(RHF) =  -1103.58516774     A.U. after    2 cycles

 The electronic state is 1-A.
 Alpha  occ. eigenvalues -- -103.67999 -93.60680 -20.56457 -15.67945 -11.41437
 Alpha  occ. eigenvalues --  -11.30197 -11.28662 -10.71148  -8.90080  -8.36889
 Alpha  occ. eigenvalues --   -8.36517  -8.36492  -6.24174  -6.23890  -6.23494
 Alpha  occ. eigenvalues --   -1.38358  -1.24336  -1.17089  -1.00574  -0.98141
 Alpha  occ. eigenvalues --   -0.91481  -0.75561  -0.70143  -0.68451  -0.68134
 Alpha  occ. eigenvalues --   -0.60464  -0.58914  -0.58792  -0.58053  -0.56261
 Alpha  occ. eigenvalues --   -0.53567  -0.51471  -0.48159  -0.43000  -0.40597
 Alpha  occ. eigenvalues --   -0.37796
 Alpha virt. eigenvalues --    0.02623   0.04042   0.04346   0.05435   0.06047
 Alpha virt. eigenvalues --    0.07134   0.07935   0.08848   0.09900   0.11941
 Alpha virt. eigenvalues --    0.12328   0.12881   0.13528   0.14309   0.14976

 Mulliken charges:
               1
     1  Cl  -0.306558
     2  S    0.382980
     3  C   -0.070908
     4  O   -0.387070
     5  N   -0.351212
     6  C    0.731536
     7  H   -0.224245
     8  H   -0.117191
     9  H   -0.038065
    10  C    0.763621
    11  H   -0.168175
    12  H   -0.074337
    13  H   -0.140376
 Sum of Mulliken charges =  -0.00000

 Dipole moment (field-independent basis, Debye):
    X=             -4.3451    Y=              2.9893    Z=              0.0572  Tot=              5.2744

 Test job not archived.
 1\1\GINC-SE186\SP\RHF\Aug-CC-pVDZ\C3H6Cl1N1O1S1\OHZDE\09-Apr-2025\0\\#
 t hf aug-cc-pvdz iop(5/13=1,5/36=2,99/5=2) pseudo=read geom=check gues
 s=(read,tcheck) scf=(maxcycle=1)\\title\\0,1\Cl,0,2.58623,-0.25289,0.0
 0042\S,0,0.89076,0.904228,0.017032\C,0,-0.386032,-0.455834,-0.024896\O
 ,0,-0.065139,-1.61415,-0.006139\N,0,-1.655351,0.031916,-0.07554\C,0,-2
 .766907,-0.909775,0.038652\H,0,-2.37858,-1.920364,-0.055844\H,0,-3.493
 83,-0.722282,-0.756417\H,0,-3.266878,-0.805996,1.008109\C,0,-1.975101,
 1.448847,0.001399\H,0,-1.188471,2.049355,-0.460603\H,0,-2.121745,1.785

 Normal termination of Gaussian 16 at Wed Apr  9 00:17:08 2025.
