 Gaussian 16, Revision C.01,

 ----------------------------------------------------------------------
 #t hf aug-cc-pvdz symm=none int=(grid=ultrafine) guess=(read,tcheck) s
 table=(opt,rrhf)
 ----------------------------------------------------------------------
 -----
 title
 -----
 Symbolic Z-matrix:
 Charge =  0 Multiplicity = 1

 SCF Done:  E(RHF) =  -671.973590830     A.U. after   12 cycles
 Normal termination of Gaussian 16 at Tue Apr  8 23:58:25 2025.
 Gaussian 16:  ES64L-G16RevC.01  3-Jul-2019

 ----------------------------------------------------------------------
 #t hf aug-cc-pvdz iop(5/13=1,5/36=2,99/5=2) pseudo=read geom=check gue
 ss=(read,tcheck) scf=(maxcycle=1)
 ----------------------------------------------------------------------
 -----
 title
 -----
 Structure from the checkpoint file:  "BDE49_nonexpt_2068_mol1.chk"
 Charge =  0 Multiplicity = 1

                         Standard orientation:
 ---------------------------------------------------------------------
 Center     Atomic      Atomic             Coordinates (Angstroms)
 Number     Number       Type             X           Y           Z
 ---------------------------------------------------------------------
      1         14           0        1.608936   -0.739770   -0.822460
      2          6           0       -0.016752    0.048221   -0.105926
      3          8           0       -0.997975   -0.378669   -1.003488
      4          8           0        0.041474    1.451909   -0.171837
      5          8           0       -0.350667   -0.269917    1.233343
      6          6           0       -2.286330    0.250125   -0.882199
      7          1           0       -2.961054   -0.344009   -1.497098
      8          1           0       -2.251135    1.276649   -1.249351
      9          1           0       -2.627071    0.244329    0.155619
     10          6           0        0.771281    2.128293    0.852151
     11          1           0        0.754882    3.182553    0.577030
     12          1           0        1.812415    1.789515    0.900084
     13          1           0        0.305842    1.991039    1.829108
     14          6           0       -0.436041   -1.656766    1.542800
     15          1           0       -0.856792   -1.720941    2.545931
     16          1           0        0.551494   -2.133916    1.545171
     17          1           0       -1.086713   -2.183612    0.839250
     18          1           0        1.855937   -0.126389   -2.142579
     19          1           0        1.486395   -2.207272   -0.968609
     20          1           0        2.755094   -0.456989    0.074783
 ---------------------------------------------------------------------

 SCF Done:  E(RHF) =  -672.121567648     A.U. after    2 cycles

 The electronic state is 1-A.
 Alpha  occ. eigenvalues --  -69.06297 -20.58183 -20.57967 -20.57847 -11.38891
 Alpha  occ. eigenvalues --  -11.29021 -11.28364 -11.27782  -6.81654  -3.92429
 Alpha  occ. eigenvalues --   -3.92417  -3.92399  -1.40634  -1.31075  -1.30871
 Alpha  occ. eigenvalues --   -0.98852  -0.93980  -0.92845  -0.81239  -0.74038
 Alpha  occ. eigenvalues --   -0.71651  -0.71263  -0.65071  -0.64640  -0.62964
 Alpha  occ. eigenvalues --   -0.60983  -0.59745  -0.58844  -0.54561  -0.52957
 Alpha  occ. eigenvalues --   -0.50922  -0.49379  -0.48148  -0.47910  -0.46717
 Alpha  occ. eigenvalues --   -0.46097  -0.40365
 Alpha virt. eigenvalues --    0.03264   0.04507   0.04625   0.04821   0.06051
 Alpha virt. eigenvalues --    0.06294   0.06486   0.06705   0.06908   0.08512
 Alpha virt. eigenvalues --    0.09238   0.09406   0.09972   0.10759   0.11666

 Mulliken charges:
               1
     1  Si  -0.492214
     2  C    0.997726
     3  O   -0.639358
     4  O   -0.736148
     5  O   -0.745359
     6  C    0.825232
     7  H   -0.237187
     8  H   -0.099635
     9  H   -0.064882
    10  C    0.798691
    11  H   -0.246703
    12  H   -0.155346
    13  H   -0.097843
    14  C    0.873168
    15  H   -0.240811
    16  H   -0.113154
    17  H   -0.070595
    18  H    0.117438
    19  H    0.191588
    20  H    0.135392
 Sum of Mulliken charges =  -0.00000

 Dipole moment (field-independent basis, Debye):
    X=             -0.1105    Y=             -0.4631    Z=              1.4137  Tot=              1.4917

 Test job not archived.
 1\1\GINC-SE331\SP\RHF\Aug-CC-pVDZ\C4H12O3Si1\OHZDE\08-Apr-2025\0\\#t h
 f aug-cc-pvdz iop(5/13=1,5/36=2,99/5=2) pseudo=read geom=check guess=(
 read,tcheck) scf=(maxcycle=1)\\title\\0,1\Si,0,1.608936,-0.73977,-0.82
 246\C,0,-0.016752,0.048221,-0.105926\O,0,-0.997975,-0.378669,-1.003488
 \O,0,0.041474,1.451909,-0.171837\O,0,-0.350667,-0.269917,1.233343\C,0,
 -2.28633,0.250126,-0.882199\H,0,-2.961054,-0.344008,-1.497098\H,0,-2.2
 51135,1.27665,-1.249351\H,0,-2.627071,0.24433,0.155619\C,0,0.771282,2.
 128293,0.852151\H,0,0.754883,3.182553,0.57703\H,0,1.812416,1.789515,0.

 Normal termination of Gaussian 16 at Tue Apr  8 23:58:34 2025.
