 Gaussian 16, Revision C.01,

 ----------------------------------------------------------------------
 #t hf aug-cc-pvdz symm=none int=(grid=ultrafine) guess=(read,tcheck) s
 table=(opt,rrhf)
 ----------------------------------------------------------------------
 -----
 title
 -----
 Symbolic Z-matrix:
 Charge =  0 Multiplicity = 1

 SCF Done:  E(RHF) =  -633.859242150     A.U. after   13 cycles
 Normal termination of Gaussian 16 at Tue Apr  8 23:50:18 2025.
 Gaussian 16:  ES64L-G16RevC.01  3-Jul-2019

 ----------------------------------------------------------------------
 #t hf aug-cc-pvdz iop(5/13=1,5/36=2,99/5=2) pseudo=read geom=check gue
 ss=(read,tcheck) scf=(maxcycle=1)
 ----------------------------------------------------------------------
 -----
 title
 -----
 Structure from the checkpoint file:  "BDE49_nonexpt_1870_mol1.chk"
 Charge =  0 Multiplicity = 1

                         Standard orientation:
 ---------------------------------------------------------------------
 Center     Atomic      Atomic             Coordinates (Angstroms)
 Number     Number       Type             X           Y           Z
 ---------------------------------------------------------------------
      1         14           0       -0.326525    1.451028    0.190345
      2          6           0        0.794441    0.434869    1.332933
      3          6           0        2.055309   -0.843631   -0.499668
      4          8           0        1.987764    0.086317   -1.269156
      5          6           0        1.343113   -0.906364    0.821824
      6          1           0        2.020213   -1.369098    1.551002
      7          1           0        0.523878   -1.628304    0.685318
      8          1           0        2.648295   -1.745511   -0.764027
      9          6           0       -1.383767    0.349459   -0.962888
     10          1           0        0.391020    2.440523   -0.636786
     11          1           0       -1.273092    2.199284    1.060803
     12          6           0       -2.237194   -0.600470   -0.187818
     13          1           0       -2.001339    1.016094   -1.572124
     14          1           0       -0.690830   -0.196083   -1.607554
     15          8           0       -1.870645   -1.676809    0.230232
     16          1           0       -3.267426   -0.245487    0.032293
     17          1           0        0.227049    0.245809    2.249357
     18          1           0        1.625215    1.089134    1.621981
 ---------------------------------------------------------------------

 SCF Done:  E(RHF) =  -633.990016399     A.U. after    2 cycles

 The electronic state is 1-A.
 Alpha  occ. eigenvalues --  -69.06905 -20.58097 -20.57204 -11.35221 -11.35185
 Alpha  occ. eigenvalues --  -11.25598 -11.23725 -11.23467  -6.82059  -3.92861
 Alpha  occ. eigenvalues --   -3.92815  -3.92799  -1.36875  -1.35947  -1.05470
 Alpha  occ. eigenvalues --   -1.00761  -0.91212  -0.80280  -0.78264  -0.70057
 Alpha  occ. eigenvalues --   -0.69004  -0.67678  -0.65321  -0.63513  -0.61714
 Alpha  occ. eigenvalues --   -0.56470  -0.56299  -0.55285  -0.54691  -0.51203
 Alpha  occ. eigenvalues --   -0.47914  -0.45730  -0.43813  -0.43446  -0.42815
 Alpha virt. eigenvalues --    0.03108   0.03806   0.04395   0.04959   0.05648
 Alpha virt. eigenvalues --    0.06203   0.06325   0.07468   0.07894   0.08832
 Alpha virt. eigenvalues --    0.09200   0.09749   0.10277   0.11112   0.11947

 Mulliken charges:
               1
     1  Si   0.353585
     2  C    0.141673
     3  C    0.455238
     4  O   -0.444818
     5  C    0.071630
     6  H   -0.047003
     7  H   -0.047125
     8  H   -0.161622
     9  C    0.190080
    10  H    0.168576
    11  H    0.131633
    12  C    0.497363
    13  H   -0.185227
    14  H   -0.152297
    15  O   -0.515490
    16  H   -0.184492
    17  H   -0.035298
    18  H   -0.236406
 Sum of Mulliken charges =   0.00000

 Dipole moment (field-independent basis, Debye):
    X=              0.0658    Y=              0.3242    Z=              1.0262  Tot=              1.0782

 Test job not archived.
 1\1\GINC-SE096\SP\RHF\Aug-CC-pVDZ\C5H10O2Si1\OHZDE\08-Apr-2025\0\\#t h
 f aug-cc-pvdz iop(5/13=1,5/36=2,99/5=2) pseudo=read geom=check guess=(
 read,tcheck) scf=(maxcycle=1)\\title\\0,1\Si,0,-0.326525,1.451028,0.19
 0345\C,0,0.794441,0.434869,1.332933\C,0,2.055309,-0.843631,-0.499668\O
 ,0,1.987764,0.086317,-1.269156\C,0,1.343113,-0.906364,0.821824\H,0,2.0
 20213,-1.369098,1.551002\H,0,0.523878,-1.628304,0.685318\H,0,2.648295,
 -1.745511,-0.764027\C,0,-1.383767,0.349459,-0.962888\H,0,0.39102,2.440
 523,-0.636786\H,0,-1.273092,2.199284,1.060803\C,0,-2.237194,-0.60047,-

 Normal termination of Gaussian 16 at Tue Apr  8 23:50:26 2025.
