 Gaussian 16, Revision C.01,

 ----------------------------------------------------------------------
 #t hf aug-cc-pvdz symm=none int=(grid=ultrafine) guess=(read,tcheck) s
 table=(opt,rrhf)
 ----------------------------------------------------------------------
 -----
 title
 -----
 Symbolic Z-matrix:
 Charge =  0 Multiplicity = 1

 SCF Done:  E(RHF) =  -1607.49033109     A.U. after   14 cycles

 1\1\GINC-SE227\Stability\RHF\Aug-CC-pVDZ\C6H3Cl3\OHZDE\08-Apr-2025\0\\
 #t hf aug-cc-pvdz symm=none int=(grid=ultrafine) guess=(read,tcheck) s
 table=(opt,rrhf)\\title\\0,1\C,0,0.70247,-1.216712,0.\C,0,-0.688368,-1
 .192291,0.\C,0,-1.404934,0.,0.\C,0,-0.688368,1.192291,0.\C,0,0.70247,1
 .216712,0.\C,0,1.376735,0.,0.\H,0,1.242648,-2.152315,0.\Cl,0,-1.56342,
 -2.707908,0.\Cl,0,3.126836,0.,0.\Cl,0,-1.563419,2.707908,0.\H,0,-2.485
 279,0.,0.\H,0,1.242649,2.152315,0.\\Version=ES64L-G16RevC.01\HF=-1607.
 4903311\RMSD=2.631e-09\Dipole=-0.0000191,0.0000005,0.\Quadrupole=0.571

 Normal termination of Gaussian 16 at Tue Apr  8 22:47:52 2025.
 Gaussian 16:  ES64L-G16RevC.01  3-Jul-2019

 ----------------------------------------------------------------------
 #t hf aug-cc-pvdz iop(5/13=1,5/36=2,99/5=2) pseudo=read geom=check gue
 ss=(read,tcheck) scf=(maxcycle=1)
 ----------------------------------------------------------------------
 -----
 title
 -----
 Structure from the checkpoint file:  "BDE49_expt_1682_mol1.chk"
 Charge =  0 Multiplicity = 1

                         Standard orientation:
 ---------------------------------------------------------------------
 Center     Atomic      Atomic             Coordinates (Angstroms)
 Number     Number       Type             X           Y           Z
 ---------------------------------------------------------------------
      1          6           0        1.216712    0.702470    0.000000
      2          6           0        1.192291   -0.688368    0.000000
      3          6           0        0.000000   -1.404934    0.000000
      4          6           0       -1.192291   -0.688368    0.000000
      5          6           0       -1.216712    0.702470    0.000000
      6          6           0        0.000000    1.376735    0.000000
      7          1           0        2.152315    1.242648    0.000000
      8         17           0        2.707908   -1.563420    0.000000
      9         17           0        0.000000    3.126836    0.000000
     10         17           0       -2.707908   -1.563419    0.000000
     11          1           0        0.000000   -2.485279    0.000000
     12          1           0       -2.152315    1.242649    0.000000
 ---------------------------------------------------------------------

 SCF Done:  E(RHF) =  -1607.61228609     A.U. after    2 cycles

 The electronic state is 1-A'.
 Alpha  occ. eigenvalues -- -103.68651-103.68651-103.68650 -11.34444 -11.34444
 Alpha  occ. eigenvalues --  -11.34443 -11.28693 -11.28693 -11.28682 -10.71919
 Alpha  occ. eigenvalues --  -10.71919 -10.71917  -8.37657  -8.37656  -8.37656
 Alpha  occ. eigenvalues --   -8.37342  -8.37342  -8.37341  -8.37326  -8.37326
 Alpha  occ. eigenvalues --   -8.37325  -1.24190  -1.20370  -1.20370  -1.12667
 Alpha  occ. eigenvalues --   -1.03012  -1.03012  -0.85298  -0.85298  -0.73602
 Alpha  occ. eigenvalues --   -0.71016  -0.65404  -0.62579  -0.62579  -0.59821
 Alpha  occ. eigenvalues --   -0.55829  -0.55829  -0.53265  -0.53265  -0.49269
 Alpha  occ. eigenvalues --   -0.49269  -0.47986  -0.46687  -0.36693  -0.36693
 Alpha virt. eigenvalues --    0.03871   0.04659   0.04659   0.07094   0.07094
 Alpha virt. eigenvalues --    0.08127   0.08127   0.08569   0.09855   0.10085
 Alpha virt. eigenvalues --    0.12600   0.12600   0.14190   0.14407   0.14407

 Mulliken charges:
               1
     1  C    0.888814
     2  C   -0.131500
     3  C    0.888799
     4  C   -0.131497
     5  C    0.888809
     6  C   -0.131490
     7  H   -0.390066
     8  Cl  -0.367243
     9  Cl  -0.367248
    10  Cl  -0.367243
    11  H   -0.390070
    12  H   -0.390065
 Sum of Mulliken charges =  -0.00000

 Dipole moment (field-independent basis, Debye):
    X=             -0.0000    Y=             -0.0000    Z=              0.0000  Tot=              0.0000

 Test job not archived.
 1\1\GINC-SE227\SP\RHF\Aug-CC-pVDZ\C6H3Cl3\OHZDE\08-Apr-2025\0\\#t hf a
 ug-cc-pvdz iop(5/13=1,5/36=2,99/5=2) pseudo=read geom=check guess=(rea
 d,tcheck) scf=(maxcycle=1)\\title\\0,1\C,0,0.70247,-1.216712,0.\C,0,-0
 .688368,-1.192291,0.\C,0,-1.404934,0.,0.\C,0,-0.688368,1.192291,0.\C,0
 ,0.70247,1.216712,0.\C,0,1.376735,0.,0.\H,0,1.242648,-2.152315,0.\Cl,0
 ,-1.56342,-2.707908,0.\Cl,0,3.126836,0.,0.\Cl,0,-1.563419,2.707908,0.\
 H,0,-2.485279,0.,0.\H,0,1.242649,2.152315,0.\\Version=ES64L-G16RevC.01
 \State=1-A'\HF=-1607.6122861\RMSD=1.456e-02\Dipole=-0.0000188,0.000000

 Normal termination of Gaussian 16 at Tue Apr  8 22:48:01 2025.
