 Gaussian 16, Revision C.01,

 ----------------------------------------------------------------------
 #t hf aug-cc-pvdz symm=none int=(grid=ultrafine) guess=(read,tcheck) s
 table=(opt,rrhf)
 ----------------------------------------------------------------------
 -----
 title
 -----
 Symbolic Z-matrix:
 Charge =  0 Multiplicity = 1

 SCF Done:  E(RHF) =  -76.8857373650     A.U. after   11 cycles
 Normal termination of Gaussian 16 at Tue Apr  8 23:30:58 2025.
 Gaussian 16:  ES64L-G16RevC.01  3-Jul-2019

 ----------------------------------------------------------------------
 #t hf aug-cc-pvdz iop(5/13=1,5/36=2,99/5=2) pseudo=read geom=check gue
 ss=(read,tcheck) scf=(maxcycle=1)
 ----------------------------------------------------------------------
 -----
 title
 -----
 Structure from the checkpoint file:  "BDE49_nonexpt_142_mol1.chk"
 Charge =  0 Multiplicity = 1

                         Standard orientation:
 ---------------------------------------------------------------------
 Center     Atomic      Atomic             Coordinates (Angstroms)
 Number     Number       Type             X           Y           Z
 ---------------------------------------------------------------------
      1          5           0       -1.476457   -0.214413    0.000009
      2          5           0       -0.000000    0.469061   -0.000033
      3          5           0        1.476458   -0.214410    0.000019
      4          1           0        2.048263   -0.469315    1.018517
      5          1           0        2.048322   -0.469348   -1.018436
      6          1           0        0.000004    1.676122   -0.000107
      7          1           0       -2.048265   -0.469457   -1.018452
      8          1           0       -2.048329   -0.469189    1.018501
 ---------------------------------------------------------------------

 SCF Done:  E(RHF) =  -76.9110147653     A.U. after    2 cycles

 The electronic state is 1-A.
 Alpha  occ. eigenvalues --   -7.60455  -7.60430  -7.58144  -0.75599  -0.67636
 Alpha  occ. eigenvalues --   -0.58995  -0.50097  -0.48637  -0.45455  -0.42279
 Alpha virt. eigenvalues --    0.03312   0.04074   0.04581   0.04830   0.05405
 Alpha virt. eigenvalues --    0.06118   0.06474   0.06605   0.07628   0.09652
 Alpha virt. eigenvalues --    0.09752   0.11171   0.11459   0.11952   0.12074

 Mulliken charges:
               1
     1  B   -0.461363
     2  B   -0.069173
     3  B   -0.461360
     4  H    0.228044
     5  H    0.228037
     6  H    0.079730
     7  H    0.228045
     8  H    0.228039
 Sum of Mulliken charges =  -0.00000

 Dipole moment (field-independent basis, Debye):
    X=              0.0000    Y=              0.0915    Z=             -0.0000  Tot=              0.0915

 Test job not archived.
 1\1\GINC-SE044\SP\RHF\Aug-CC-pVDZ\B3H5\OHZDE\08-Apr-2025\0\\#t hf aug-
 cc-pvdz iop(5/13=1,5/36=2,99/5=2) pseudo=read geom=check guess=(read,t
 check) scf=(maxcycle=1)\\title\\0,1\B,0,-1.476457,-0.214413,0.000009\B
 ,0,0.,0.469061,-0.000033\B,0,1.476458,-0.21441,0.000019\H,0,2.048263,-
 0.469315,1.018517\H,0,2.048322,-0.469348,-1.018436\H,0,0.000004,1.6761
 22,-0.000107\H,0,-2.048265,-0.469457,-1.018452\H,0,-2.048329,-0.469189
 ,1.018501\\Version=ES64L-G16RevC.01\State=1-A\HF=-76.9110148\RMSD=4.46
 6e-03\Dipole=0.0000027,0.0359996,-0.0000052\Quadrupole=-1.3771061,1.23

 Normal termination of Gaussian 16 at Tue Apr  8 23:30:59 2025.
