 Gaussian 16, Revision C.01,

 ----------------------------------------------------------------------
 #t hf aug-cc-pvdz symm=none int=(grid=ultrafine) guess=(read,tcheck) s
 table=opt
 ----------------------------------------------------------------------
 -----
 title
 -----
 Symbolic Z-matrix:
 Charge =  0 Multiplicity = 2

 SCF Done:  E(UHF) =  -672.388505592     A.U. after   21 cycles
 Normal termination of Gaussian 16 at Tue Apr  8 23:49:26 2025.
 Gaussian 16:  ES64L-G16RevC.01  3-Jul-2019

 ----------------------------------------------------------------------
 #t hf aug-cc-pvdz iop(5/13=1,5/36=2,99/5=2) pseudo=read geom=check gue
 ss=(read,tcheck) scf=(maxcycle=1)
 ----------------------------------------------------------------------
 -----
 title
 -----
 Structure from the checkpoint file:  "BDE49_nonexpt_187_mol2.chk"
 Charge =  0 Multiplicity = 2

                         Standard orientation:
 ---------------------------------------------------------------------
 Center     Atomic      Atomic             Coordinates (Angstroms)
 Number     Number       Type             X           Y           Z
 ---------------------------------------------------------------------
      1         17           0       -1.918228   -0.046392   -0.124567
      2          5           0       -0.401736   -0.065065    0.671584
      3          6           0        1.034864    0.095406    0.097215
      4          8           0        1.482511    1.205478   -0.096420
      5          8           0        1.740299   -1.040176   -0.083302
      6          1           0        2.626889   -0.780871   -0.385796
 ---------------------------------------------------------------------

 SCF Done:  E(UHF) =  -672.473357468     A.U. after    2 cycles

 The electronic state is 2-A.
 Alpha  occ. eigenvalues -- -103.70082 -20.64517 -20.59099 -11.40665 -10.73560
 Alpha  occ. eigenvalues --   -8.39279  -8.39050  -8.38967  -7.73069  -1.44168
 Alpha  occ. eigenvalues --   -1.34898  -1.19829  -0.91593  -0.76599  -0.73705
 Alpha  occ. eigenvalues --   -0.66920  -0.66587  -0.61292  -0.55165  -0.53515
 Alpha  occ. eigenvalues --   -0.52832  -0.49414  -0.37379
 Alpha virt. eigenvalues --    0.03337   0.04193   0.04921   0.05534   0.06662
 Alpha virt. eigenvalues --    0.07510   0.11819   0.12256   0.12822   0.14755
 Alpha virt. eigenvalues --    0.15062   0.16559   0.16881   0.19425   0.21031

  Beta  occ. eigenvalues -- -103.70018 -20.64547 -20.58588 -11.40718 -10.73488
  Beta  occ. eigenvalues --   -8.39217  -8.39007  -8.38766  -7.71052  -1.43934
  Beta  occ. eigenvalues --   -1.34100  -1.19098  -0.90490  -0.75093  -0.73299
  Beta  occ. eigenvalues --   -0.66342  -0.64718  -0.60457  -0.53079  -0.52415
  Beta  occ. eigenvalues --   -0.50432  -0.48021
  Beta virt. eigenvalues --    0.02944   0.03863   0.05198   0.05439   0.06407
  Beta virt. eigenvalues --    0.08154   0.08747   0.11929   0.12539   0.14911
  Beta virt. eigenvalues --    0.14985   0.16129   0.16809   0.17158   0.19647

 Mulliken charges and spin densities:
               1          2
     1  Cl  -0.171438   0.007302
     2  B    0.204244   0.974155
     3  C    0.700207  -0.100627
     4  O   -0.468841   0.119917
     5  O   -0.424358   0.002093
     6  H    0.160185  -0.002839
 Sum of Mulliken charges =  -0.00000   1.00000

 Dipole moment (field-independent basis, Debye):
    X=              0.1346    Y=             -1.6630    Z=              0.0051  Tot=              1.6685
                          Isotropic Fermi Contact Couplings
        Atom                 a.u.       MegaHertz       Gauss      10(-4) cm-1
     1  Cl(35)             0.05852      25.65959       9.15598       8.55912
     2  B(11)              0.33146     475.44150     169.64935     158.59021
     3  C(13)              0.01763      19.82318       7.07340       6.61230
     4  O(17)              0.04228     -25.62782      -9.14465      -8.54852
     5  O(17)             -0.00754       4.57268       1.63165       1.52528
     6  H(1)              -0.00011      -0.47219      -0.16849      -0.15751
 --------------------------------------------------------
       Center         ----  Spin Dipole Couplings  ----

 1\1\GINC-SE341\SP\UHF\Aug-CC-pVDZ\C1H1B1Cl1O2(2)\OHZDE\08-Apr-2025\0\\
 #t hf aug-cc-pvdz iop(5/13=1,5/36=2,99/5=2) pseudo=read geom=check gue
 ss=(read,tcheck) scf=(maxcycle=1)\\title\\0,2\Cl,0,-1.918228,-0.046392
 ,-0.124567\B,0,-0.401736,-0.065065,0.671584\C,0,1.034864,0.095406,0.09
 7215\O,0,1.482511,1.205478,-0.09642\O,0,1.740299,-1.040176,-0.083302\H
 ,0,2.626889,-0.780871,-0.385796\\Version=ES64L-G16RevC.01\State=2-A\HF
 =-672.4733575\S2=0.765466\S2-1=0.\S2A=0.750111\RMSD=2.492e-03\Dipole=0
 .0529404,-0.6542903,0.0020091\Quadrupole=2.9610328,-3.0529517,0.091918

 Normal termination of Gaussian 16 at Tue Apr  8 23:49:28 2025.
