 Gaussian 16, Revision C.01,

 ----------------------------------------------------------------------
 #t hf aug-cc-pvdz symm=none int=(grid=ultrafine) guess=(read,tcheck) s
 table=(opt,rrhf)
 ----------------------------------------------------------------------
 -----
 title
 -----
 Symbolic Z-matrix:
 Charge =  0 Multiplicity = 1

 SCF Done:  E(RHF) =  -229.901512555     A.U. after   13 cycles
 Normal termination of Gaussian 16 at Tue Apr  8 23:34:24 2025.
 Gaussian 16:  ES64L-G16RevC.01  3-Jul-2019

 ----------------------------------------------------------------------
 #t hf aug-cc-pvdz iop(5/13=1,5/36=2,99/5=2) pseudo=read geom=check gue
 ss=(read,tcheck) scf=(maxcycle=1)
 ----------------------------------------------------------------------
 -----
 title
 -----
 Structure from the checkpoint file:  "BDE49_nonexpt_148_mol1.chk"
 Charge =  0 Multiplicity = 1

                         Standard orientation:
 ---------------------------------------------------------------------
 Center     Atomic      Atomic             Coordinates (Angstroms)
 Number     Number       Type             X           Y           Z
 ---------------------------------------------------------------------
      1          5           0       -2.273817   -1.246858   -0.333395
      2          5           0       -1.207223   -0.489222    0.618160
      3          5           0        0.036125    0.544819    0.111077
      4          8           0        1.316874    0.171689   -0.141022
      5          6           0       -0.307023    2.075971   -0.091197
      6          1           0       -1.022619    2.463743    0.640529
      7          1           0       -0.774303    2.210572   -1.075771
      8          1           0        0.593962    2.696117   -0.065627
      9          6           0        1.781782   -1.169741   -0.028278
     10          1           0        2.484269   -1.236916    0.805849
     11          1           0        2.302797   -1.437013   -0.949841
     12          1           0        0.960414   -1.876103    0.134356
     13          1           0       -1.334131   -0.585970    1.811194
     14          1           0       -3.266966   -0.713788   -0.736626
     15          1           0       -2.102388   -2.375228   -0.698247
 ---------------------------------------------------------------------

 SCF Done:  E(RHF) =  -229.979953208     A.U. after    2 cycles

 The electronic state is 1-A.
 Alpha  occ. eigenvalues --  -20.57694 -11.29624 -11.19785  -7.61266  -7.59790
 Alpha  occ. eigenvalues --   -7.57739  -1.32830  -0.95843  -0.92071  -0.74782
 Alpha  occ. eigenvalues --   -0.70788  -0.64943  -0.64446  -0.61477  -0.55036
 Alpha  occ. eigenvalues --   -0.54149  -0.51831  -0.51061  -0.48823  -0.48267
 Alpha  occ. eigenvalues --   -0.44363  -0.39007
 Alpha virt. eigenvalues --    0.03154   0.04146   0.04248   0.04430   0.05558
 Alpha virt. eigenvalues --    0.05759   0.06206   0.06429   0.07115   0.07837
 Alpha virt. eigenvalues --    0.08747   0.08861   0.09653   0.10054   0.10150

 Mulliken charges:
               1
     1  B   -0.557842
     2  B   -0.243272
     3  B    0.679406
     4  O   -0.662619
     5  C    0.457558
     6  H   -0.224460
     7  H   -0.122615
     8  H   -0.360133
     9  C    0.953638
    10  H   -0.152798
    11  H   -0.179786
    12  H   -0.253857
    13  H    0.117725
    14  H    0.277702
    15  H    0.271353
 Sum of Mulliken charges =  -0.00000

 Dipole moment (field-independent basis, Debye):
    X=              0.3080    Y=             -1.1208    Z=              0.2581  Tot=              1.1906

 Test job not archived.
 1\1\GINC-SE179\SP\RHF\Aug-CC-pVDZ\C2H9B3O1\OHZDE\08-Apr-2025\0\\#t hf
 aug-cc-pvdz iop(5/13=1,5/36=2,99/5=2) pseudo=read geom=check guess=(re
 ad,tcheck) scf=(maxcycle=1)\\title\\0,1\B,0,-2.273818,-1.246857,-0.333
 395\B,0,-1.207223,-0.489221,0.61816\B,0,0.036125,0.544819,0.111077\O,0
 ,1.316874,0.171688,-0.141022\C,0,-0.307022,2.075971,-0.091197\H,0,-1.0
 22618,2.463743,0.640529\H,0,-0.774302,2.210572,-1.075771\H,0,0.593963,
 2.696117,-0.065627\C,0,1.781781,-1.169742,-0.028278\H,0,2.484268,-1.23
 6917,0.805849\H,0,2.302796,-1.437014,-0.949841\H,0,0.960413,-1.876103,

 Normal termination of Gaussian 16 at Tue Apr  8 23:34:28 2025.
