 Gaussian 16, Revision C.01,

 ----------------------------------------------------------------------
 #t hf aug-cc-pvdz symm=none int=(grid=ultrafine) guess=(read,tcheck) s
 table=(opt,rrhf)
 ----------------------------------------------------------------------
 -----
 title
 -----
 Symbolic Z-matrix:
 Charge =  0 Multiplicity = 1

 SCF Done:  E(RHF) =  -683.797010193     A.U. after   11 cycles
 Normal termination of Gaussian 16 at Tue Apr  8 22:56:33 2025.
 Gaussian 16:  ES64L-G16RevC.01  3-Jul-2019

 ----------------------------------------------------------------------
 #t hf aug-cc-pvdz iop(5/13=1,5/36=2,99/5=2) pseudo=read geom=check gue
 ss=(read,tcheck) scf=(maxcycle=1)
 ----------------------------------------------------------------------
 -----
 title
 -----
 Structure from the checkpoint file:  "BDE49_expt_1947_mol1.chk"
 Charge =  0 Multiplicity = 1

                         Standard orientation:
 ---------------------------------------------------------------------
 Center     Atomic      Atomic             Coordinates (Angstroms)
 Number     Number       Type             X           Y           Z
 ---------------------------------------------------------------------
      1         15           0       -0.000000    1.132036   -0.000000
      2         15           0       -0.000000   -1.132036   -0.000000
      3          1           0       -0.980045    1.224448    1.025115
      4          1           0       -0.980048    1.224448   -1.025113
      5          1           0        0.980045   -1.224448    1.025115
      6          1           0        0.980048   -1.224448   -1.025113
 ---------------------------------------------------------------------

 SCF Done:  E(RHF) =  -683.836799781     A.U. after    2 cycles

 The electronic state is 1-A.
 Alpha  occ. eigenvalues --  -81.26805 -81.26805  -7.77169  -7.77160  -4.91025
 Alpha  occ. eigenvalues --   -4.90992  -4.90989  -4.90952  -4.90756  -4.90691
 Alpha  occ. eigenvalues --   -0.84340  -0.73859  -0.54695  -0.49593  -0.44711
 Alpha  occ. eigenvalues --   -0.43065  -0.32785
 Alpha virt. eigenvalues --    0.03484   0.04772   0.06205   0.07966   0.08013
 Alpha virt. eigenvalues --    0.09970   0.10321   0.12118   0.12175   0.13095
 Alpha virt. eigenvalues --    0.16291   0.17770   0.19183   0.19763   0.20659

 Mulliken charges:
               1
     1  P   -0.298227
     2  P   -0.298227
     3  H    0.149114
     4  H    0.149114
     5  H    0.149114
     6  H    0.149114
 Sum of Mulliken charges =  -0.00000

 Dipole moment (field-independent basis, Debye):
    X=             -0.0000    Y=             -0.0000    Z=              0.0000  Tot=              0.0000

 Test job not archived.
 1\1\GINC-SE069\SP\RHF\Aug-CC-pVDZ\H4P2\OHZDE\08-Apr-2025\0\\#t hf aug-
 cc-pvdz iop(5/13=1,5/36=2,99/5=2) pseudo=read geom=check guess=(read,t
 check) scf=(maxcycle=1)\\title\\0,1\P,0,0.,1.132036,0.\P,0,0.,-1.13203
 6,0.\H,0,-0.980045,1.224448,1.025115\H,0,-0.980048,1.224448,-1.025113\
 H,0,0.980045,-1.224448,1.025115\H,0,0.980048,-1.224448,-1.025113\\Vers
 ion=ES64L-G16RevC.01\State=1-A\HF=-683.8367998\RMSD=1.537e-02\Dipole=0
 .,0.,0.0000009\Quadrupole=-0.475522,-1.2666609,1.7421828,-2.2520578,0.
 ,0.\PG=C02 [X(H4P2)]\\@

 Normal termination of Gaussian 16 at Tue Apr  8 22:56:35 2025.
