 Gaussian 16, Revision C.01,

 ----------------------------------------------------------------------
 #t hf aug-cc-pvdz symm=none int=(grid=ultrafine) guess=(read,tcheck) s
 table=(opt,rrhf)
 ----------------------------------------------------------------------
 -----
 title
 -----
 Symbolic Z-matrix:
 Charge =  0 Multiplicity = 1

 SCF Done:  E(RHF) =  -1045.17259819     A.U. after   15 cycles
 Normal termination of Gaussian 16 at Tue Apr  8 23:16:49 2025.
 Gaussian 16:  ES64L-G16RevC.01  3-Jul-2019

 ----------------------------------------------------------------------
 #t hf aug-cc-pvdz iop(5/13=1,5/36=2,99/5=2) pseudo=read geom=check gue
 ss=(read,tcheck) scf=(maxcycle=1)
 ----------------------------------------------------------------------
 -----
 title
 -----
 Structure from the checkpoint file:  "BDE49_nonexpt_1057_mol1.chk"
 Charge =  0 Multiplicity = 1

                         Standard orientation:
 ---------------------------------------------------------------------
 Center     Atomic      Atomic             Coordinates (Angstroms)
 Number     Number       Type             X           Y           Z
 ---------------------------------------------------------------------
      1         17           0       -2.124016   -0.172721    0.000000
      2          8           0       -0.458714   -0.666830   -0.000006
      3          6           0        0.438807    0.366321   -0.000012
      4          8           0        0.204939    1.528912   -0.000004
      5         16           0        2.051218   -0.431866    0.000008
      6          1           0        2.686136    0.751545    0.000024
 ---------------------------------------------------------------------

 SCF Done:  E(RHF) =  -1045.27260498     A.U. after    2 cycles

 The electronic state is 1-A.
 Alpha  occ. eigenvalues -- -103.74703 -93.58977 -20.70405 -20.60748 -11.46000
 Alpha  occ. eigenvalues --  -10.77315  -8.88777  -8.43085  -8.42616  -8.42603
 Alpha  occ. eigenvalues --   -6.22916  -6.22710  -6.22326  -1.46731  -1.38468
 Alpha  occ. eigenvalues --   -1.15803  -1.02654  -0.83458  -0.73037  -0.72023
 Alpha  occ. eigenvalues --   -0.71045  -0.60475  -0.57729  -0.56935  -0.50911
 Alpha  occ. eigenvalues --   -0.49203  -0.48090  -0.41662
 Alpha virt. eigenvalues --    0.02296   0.04241   0.07485   0.08696   0.10017
 Alpha virt. eigenvalues --    0.10467   0.11390   0.11629   0.13959   0.15007
 Alpha virt. eigenvalues --    0.15066   0.16498   0.16525   0.17755   0.21308

 Mulliken charges:
               1
     1  Cl   0.366573
     2  O   -0.564473
     3  C    0.133426
     4  O   -0.352610
     5  S    0.275225
     6  H    0.141859
 Sum of Mulliken charges =  -0.00000

 Dipole moment (field-independent basis, Debye):
    X=              0.9530    Y=             -0.7791    Z=              0.0000  Tot=              1.2309

 Test job not archived.
 1\1\GINC-SE102\SP\RHF\Aug-CC-pVDZ\C1H1Cl1O2S1\OHZDE\08-Apr-2025\0\\#t
 hf aug-cc-pvdz iop(5/13=1,5/36=2,99/5=2) pseudo=read geom=check guess=
 (read,tcheck) scf=(maxcycle=1)\\title\\0,1\Cl,0,-2.124016,-0.172721,0.
 \O,0,-0.458714,-0.66683,-0.000006\C,0,0.438807,0.366321,-0.000012\O,0,
 0.204939,1.528912,-0.000004\S,0,2.051218,-0.431866,0.000008\H,0,2.6861
 36,0.751545,0.000024\\Version=ES64L-G16RevC.01\State=1-A\HF=-1045.2726
 05\RMSD=4.799e-03\Dipole=0.3749395,-0.3065159,0.0000016\Quadrupole=5.8
 878515,-4.3443712,-1.5434803,0.9049065,0.000056,0.0000189\PG=C01 [X(C1

 Normal termination of Gaussian 16 at Tue Apr  8 23:16:51 2025.
