 Gaussian 16, Revision C.01,

 ----------------------------------------------------------------------
 #t hf aug-cc-pvdz symm=none int=(grid=ultrafine) guess=(read,tcheck) s
 table=(opt,rrhf)
 ----------------------------------------------------------------------
 -----
 title
 -----
 Symbolic Z-matrix:
 Charge =  0 Multiplicity = 1

 SCF Done:  E(RHF) =  -678.081934779     A.U. after   15 cycles
 Normal termination of Gaussian 16 at Tue Apr  8 23:37:19 2025.
 Gaussian 16:  ES64L-G16RevC.01  3-Jul-2019

 ----------------------------------------------------------------------
 #t hf aug-cc-pvdz iop(5/13=1,5/36=2,99/5=2) pseudo=read geom=check gue
 ss=(read,tcheck) scf=(maxcycle=1)
 ----------------------------------------------------------------------
 -----
 title
 -----
 Structure from the checkpoint file:  "BDE49_nonexpt_1572_mol1.chk"
 Charge =  0 Multiplicity = 1

                         Standard orientation:
 ---------------------------------------------------------------------
 Center     Atomic      Atomic             Coordinates (Angstroms)
 Number     Number       Type             X           Y           Z
 ---------------------------------------------------------------------
      1          6           0        2.221795   -0.005612   -0.001906
      2          7           0        0.849496   -0.231200   -0.051484
      3          6           0       -0.115976    0.761822    0.016145
      4          7           0       -1.737873   -1.500182    0.172429
      5          8           0        3.032431   -0.896226   -0.039818
      6          1           0        2.466442    1.063019    0.074488
      7          8           0        0.122457    1.941803    0.143905
      8          1           0        0.525440   -1.191401   -0.122698
      9         15           0       -1.884799    0.166590   -0.231833
     10          1           0       -2.317612    0.737156    0.989660
     11          1           0       -2.324922   -2.113975   -0.374705
     12          1           0       -1.732742   -1.775851    1.146005
 ---------------------------------------------------------------------

 SCF Done:  E(RHF) =  -678.213738348     A.U. after    2 cycles

 The electronic state is 1-A.
 Alpha  occ. eigenvalues --  -81.31463 -20.57505 -20.57345 -15.68531 -15.65726
 Alpha  occ. eigenvalues --  -11.39460 -11.38672  -7.81494  -4.95570  -4.95394
 Alpha  occ. eigenvalues --   -4.95105  -1.38867  -1.37191  -1.22253  -1.15667
 Alpha  occ. eigenvalues --   -0.92823  -0.83712  -0.81060  -0.71648  -0.70641
 Alpha  occ. eigenvalues --   -0.69771  -0.65088  -0.63364  -0.62293  -0.59323
 Alpha  occ. eigenvalues --   -0.56267  -0.50103  -0.46316  -0.44075  -0.43382
 Alpha  occ. eigenvalues --   -0.38071
 Alpha virt. eigenvalues --    0.02169   0.04065   0.04673   0.05114   0.06688
 Alpha virt. eigenvalues --    0.07999   0.08724   0.08917   0.09828   0.10854
 Alpha virt. eigenvalues --    0.11960   0.13717   0.14437   0.15314   0.16033

 Mulliken charges:
               1
     1  C    0.802606
     2  N   -0.306718
     3  C    0.222570
     4  N   -0.513286
     5  O   -0.440027
     6  H   -0.148828
     7  O   -0.473530
     8  H   -0.002699
     9  P    0.744314
    10  H    0.079908
    11  H    0.036277
    12  H   -0.000586
 Sum of Mulliken charges =  -0.00000

 Dipole moment (field-independent basis, Debye):
    X=             -4.4929    Y=             -2.5235    Z=              0.8789  Tot=              5.2274

 Test job not archived.
 1\1\GINC-SE128\SP\RHF\Aug-CC-pVDZ\C2H5N2O2P1\OHZDE\08-Apr-2025\0\\#t h
 f aug-cc-pvdz iop(5/13=1,5/36=2,99/5=2) pseudo=read geom=check guess=(
 read,tcheck) scf=(maxcycle=1)\\title\\0,1\C,0,2.221795,-0.005612,-0.00
 1906\N,0,0.849496,-0.2312,-0.051484\C,0,-0.115976,0.761822,0.016145\N,
 0,-1.737873,-1.500182,0.172429\O,0,3.032431,-0.896226,-0.039818\H,0,2.
 466442,1.063019,0.074488\O,0,0.122457,1.941803,0.143905\H,0,0.52544,-1
 .191401,-0.122698\P,0,-1.884799,0.16659,-0.231833\H,0,-2.317612,0.7371
 56,0.98966\H,0,-2.324922,-2.113975,-0.374705\H,0,-1.732742,-1.775851,1

 Normal termination of Gaussian 16 at Tue Apr  8 23:37:24 2025.
