 Gaussian 16, Revision C.01,

 ----------------------------------------------------------------------
 #t hf aug-cc-pvdz symm=none int=(grid=ultrafine) guess=(read,tcheck) s
 table=opt
 ----------------------------------------------------------------------
 -----
 title
 -----
 Symbolic Z-matrix:
 Charge =  0 Multiplicity = 2

 SCF Done:  E(UHF) =  -230.399491747     A.U. after   19 cycles
 Normal termination of Gaussian 16 at Tue Apr  8 22:38:38 2025.
 Gaussian 16:  ES64L-G16RevC.01  3-Jul-2019

 ----------------------------------------------------------------------
 #t hf aug-cc-pvdz iop(5/13=1,5/36=2,99/5=2) pseudo=read geom=check gue
 ss=(read,tcheck) scf=(maxcycle=1)
 ----------------------------------------------------------------------
 -----
 title
 -----
 Structure from the checkpoint file:  "BDE49_expt_1296_mol2.chk"
 Charge =  0 Multiplicity = 2

                         Standard orientation:
 ---------------------------------------------------------------------
 Center     Atomic      Atomic             Coordinates (Angstroms)
 Number     Number       Type             X           Y           Z
 ---------------------------------------------------------------------
      1          6           0       -2.270673   -0.100075    0.000023
      2          6           0       -0.784497   -0.465309   -0.000002
      3          1           0       -2.536926    0.488162    0.883548
      4          1           0       -2.894174   -0.997969    0.000007
      5          1           0       -2.536945    0.488208   -0.883465
      6          6           0        0.122713    0.773421    0.000020
      7          1           0       -0.546768   -1.078074   -0.874547
      8          1           0       -0.546749   -1.078119    0.874505
      9          6           0        1.611465    0.469004   -0.000005
     10          1           0       -0.061409    1.412924    0.871343
     11          1           0       -0.061428    1.412969   -0.871266
     12          8           0        2.138793   -0.588793   -0.000042
 ---------------------------------------------------------------------

 SCF Done:  E(UHF) =  -230.473147804     A.U. after    2 cycles

 The electronic state is 2-A.
 Alpha  occ. eigenvalues --  -20.60933 -11.34944 -11.27301 -11.24864 -11.23799
 Alpha  occ. eigenvalues --   -1.40453  -1.08384  -0.98047  -0.84556  -0.76977
 Alpha  occ. eigenvalues --   -0.69036  -0.66191  -0.64905  -0.59037  -0.57484
 Alpha  occ. eigenvalues --   -0.54050  -0.53497  -0.50445  -0.49239  -0.36602
 Alpha virt. eigenvalues --    0.03237   0.04452   0.04625   0.05314   0.07096
 Alpha virt. eigenvalues --    0.07264   0.07768   0.09128   0.11498   0.11724
 Alpha virt. eigenvalues --    0.12811   0.13609   0.15241   0.15922   0.16080

  Beta  occ. eigenvalues --  -20.59833 -11.32991 -11.26756 -11.24760 -11.23780
  Beta  occ. eigenvalues --   -1.37620  -1.07204  -0.96362  -0.83411  -0.73848
  Beta  occ. eigenvalues --   -0.65854  -0.64149  -0.59279  -0.58801  -0.54208
  Beta  occ. eigenvalues --   -0.52770  -0.51545  -0.49251  -0.49205
  Beta virt. eigenvalues --    0.03079   0.04369   0.04639   0.05071   0.07055
  Beta virt. eigenvalues --    0.07122   0.07801   0.08755   0.11096   0.11543
  Beta virt. eigenvalues --    0.12770   0.12854   0.14074   0.15322   0.16097

 Mulliken charges and spin densities:
               1          2
     1  C    0.444247  -0.003053
     2  C    0.161089   0.002187
     3  H   -0.065821  -0.000014
     4  H   -0.054782   0.002614
     5  H   -0.065822  -0.000014
     6  C    0.083188   0.112486
     7  H   -0.116108   0.002540
     8  H   -0.116112   0.002540
     9  C    0.100781   0.769417
    10  H   -0.005093  -0.020315
    11  H   -0.005092  -0.020315
    12  O   -0.360478   0.151928
 Sum of Mulliken charges =  -0.00000   1.00000

 Dipole moment (field-independent basis, Debye):
    X=             -2.7917    Y=              1.5643    Z=              0.0001  Tot=              3.2001
                          Isotropic Fermi Contact Couplings
        Atom                 a.u.       MegaHertz       Gauss      10(-4) cm-1
     1  C(13)              0.00451       5.06561       1.80754       1.68971
     2  C(13)              0.01652      18.57594       6.62836       6.19627
     3  H(1)               0.00003       0.14140       0.05045       0.04716
     4  H(1)               0.00165       7.38198       2.63407       2.46236
     5  H(1)               0.00003       0.14140       0.05045       0.04716
     6  C(13)              0.10924     122.81202      43.82238      40.96568
     7  H(1)              -0.00080      -3.57532      -1.27576      -1.19260
     8  H(1)              -0.00080      -3.57530      -1.27576      -1.19259

 Normal termination of Gaussian 16 at Tue Apr  8 22:38:42 2025.
