 Gaussian 16, Revision C.01,

 ----------------------------------------------------------------------
 #t hf aug-cc-pvdz symm=none int=(grid=ultrafine) guess=(read,tcheck) s
 table=(opt,rrhf)
 ----------------------------------------------------------------------
 -----
 title
 -----
 Symbolic Z-matrix:
 Charge =  0 Multiplicity = 1

 SCF Done:  E(RHF) =  -516.073858683     A.U. after   14 cycles
 Normal termination of Gaussian 16 at Tue Apr  8 23:18:48 2025.
 Gaussian 16:  ES64L-G16RevC.01  3-Jul-2019

 ----------------------------------------------------------------------
 #t hf aug-cc-pvdz iop(5/13=1,5/36=2,99/5=2) pseudo=read geom=check gue
 ss=(read,tcheck) scf=(maxcycle=1)
 ----------------------------------------------------------------------
 -----
 title
 -----
 Structure from the checkpoint file:  "BDE49_nonexpt_1114_mol1.chk"
 Charge =  0 Multiplicity = 1

                         Standard orientation:
 ---------------------------------------------------------------------
 Center     Atomic      Atomic             Coordinates (Angstroms)
 Number     Number       Type             X           Y           Z
 ---------------------------------------------------------------------
      1          9           0        1.544903   -0.313411   -0.000015
      2          8           0        0.462805    0.675188    0.000147
      3         15           0       -0.961471   -0.237953   -0.000153
      4          1           0       -1.592530    0.495093   -1.037758
      5          1           0       -1.591971    0.493394    1.039010
 ---------------------------------------------------------------------

 SCF Done:  E(RHF) =  -516.161460643     A.U. after    2 cycles

 The electronic state is 1-A.
 Alpha  occ. eigenvalues --  -81.33184 -26.16770 -20.70528  -7.83062  -4.97165
 Alpha  occ. eigenvalues --   -4.96791  -4.96611  -1.66374  -1.30141  -0.84693
 Alpha  occ. eigenvalues --   -0.77013  -0.76014  -0.70136  -0.62077  -0.61096
 Alpha  occ. eigenvalues --   -0.51437  -0.40554
 Alpha virt. eigenvalues --    0.03258   0.05762   0.06433   0.08467   0.09367
 Alpha virt. eigenvalues --    0.09616   0.15591   0.16337   0.19244   0.20881
 Alpha virt. eigenvalues --    0.21575   0.23128   0.23440   0.30238   0.31563

 Mulliken charges:
               1
     1  F   -0.287531
     2  O   -0.363525
     3  P    0.573581
     4  H    0.038731
     5  H    0.038745
 Sum of Mulliken charges =   0.00000

 Dipole moment (field-independent basis, Debye):
    X=             -2.9674    Y=              0.2554    Z=              0.0003  Tot=              2.9784

 Test job not archived.
 1\1\GINC-SE195\SP\RHF\Aug-CC-pVDZ\F1H2O1P1\OHZDE\08-Apr-2025\0\\#t hf
 aug-cc-pvdz iop(5/13=1,5/36=2,99/5=2) pseudo=read geom=check guess=(re
 ad,tcheck) scf=(maxcycle=1)\\title\\0,1\F,0,1.544903,-0.313411,-0.0000
 15\O,0,0.462805,0.675188,0.000147\P,0,-0.961471,-0.237953,-0.000153\H,
 0,-1.59253,0.495093,-1.037758\H,0,-1.591971,0.493394,1.03901\\Version=
 ES64L-G16RevC.01\State=1-A\HF=-516.1614606\RMSD=9.631e-03\Dipole=-1.16
 74712,0.1004991,0.000104\Quadrupole=0.326788,-1.1739607,0.8471727,-0.3
 996745,-0.0001527,-0.0016282\PG=C01 [X(F1H2O1P1)]\\@

 Normal termination of Gaussian 16 at Tue Apr  8 23:18:51 2025.
