 Gaussian 16, Revision C.01,

 ----------------------------------------------------------------------
 #t hf aug-cc-pvdz symm=none int=(grid=ultrafine) guess=(read,tcheck) s
 table=(opt,rrhf)
 ----------------------------------------------------------------------
 -----
 title
 -----
 Symbolic Z-matrix:
 Charge =  0 Multiplicity = 1

 SCF Done:  E(RHF) =  -474.719545845     A.U. after   12 cycles
 Normal termination of Gaussian 16 at Tue Apr  8 22:43:29 2025.
 Gaussian 16:  ES64L-G16RevC.01  3-Jul-2019

 ----------------------------------------------------------------------
 #t hf aug-cc-pvdz iop(5/13=1,5/36=2,99/5=2) pseudo=read geom=check gue
 ss=(read,tcheck) scf=(maxcycle=1)
 ----------------------------------------------------------------------
 -----
 title
 -----
 Structure from the checkpoint file:  "BDE49_expt_1511_mol1.chk"
 Charge =  0 Multiplicity = 1

                         Standard orientation:
 ---------------------------------------------------------------------
 Center     Atomic      Atomic             Coordinates (Angstroms)
 Number     Number       Type             X           Y           Z
 ---------------------------------------------------------------------
      1          6           0        1.156135    0.243060    0.000000
      2          6           0       -0.360768    0.190551    0.000000
      3          1           0        1.488898    0.768019    0.897575
      4          1           0        1.488898    0.768019   -0.897575
      5          9           0        1.664387   -1.038421    0.000000
      6          9           0       -0.841833   -0.437299   -1.085551
      7          9           0       -0.841833    1.453273    0.000000
      8          9           0       -0.841833   -0.437299    1.085551
 ---------------------------------------------------------------------

 SCF Done:  E(RHF) =  -474.890649113     A.U. after    2 cycles

 The electronic state is 1-A'.
 Alpha  occ. eigenvalues --  -26.18045 -26.17642 -26.17632 -26.14531 -11.54005
 Alpha  occ. eigenvalues --  -11.37239  -1.77312  -1.70386  -1.70168  -1.67862
 Alpha  occ. eigenvalues --   -1.10315  -0.98549  -0.89390  -0.89389  -0.86201
 Alpha  occ. eigenvalues --   -0.79642  -0.79096  -0.76989  -0.76677  -0.73871
 Alpha  occ. eigenvalues --   -0.73795  -0.73152  -0.72844  -0.59717  -0.59245
 Alpha virt. eigenvalues --    0.03344   0.04984   0.07677   0.08611   0.11325
 Alpha virt. eigenvalues --    0.11345   0.11847   0.15415   0.15960   0.19441
 Alpha virt. eigenvalues --    0.21631   0.22857   0.23934   0.27865   0.28085

 Mulliken charges:
               1
     1  C    0.518917
     2  C    0.867494
     3  H   -0.045247
     4  H   -0.045247
     5  F   -0.384958
     6  F   -0.296596
     7  F   -0.317766
     8  F   -0.296596
 Sum of Mulliken charges =  -0.00000

 Dipole moment (field-independent basis, Debye):
    X=              1.6623    Y=              1.9853    Z=             -0.0000  Tot=              2.5893

 Test job not archived.
 1\1\GINC-SE227\SP\RHF\Aug-CC-pVDZ\C2H2F4\OHZDE\08-Apr-2025\0\\#t hf au
 g-cc-pvdz iop(5/13=1,5/36=2,99/5=2) pseudo=read geom=check guess=(read
 ,tcheck) scf=(maxcycle=1)\\title\\0,1\C,0,1.156135,0.24306,0.\C,0,-0.3
 60768,0.190551,0.\H,0,1.488898,0.768019,0.897575\H,0,1.488898,0.768019
 ,-0.897575\F,0,1.664387,-1.038421,0.\F,0,-0.841833,-0.437299,-1.085551
 \F,0,-0.841833,1.453273,0.\F,0,-0.841833,-0.437299,1.085551\\Version=E
 S64L-G16RevC.01\State=1-A'\HF=-474.8906491\RMSD=6.798e-03\Dipole=0.653
 9861,0.7810871,0.\Quadrupole=0.2535383,-0.9610997,0.7075614,2.9488526,

 Normal termination of Gaussian 16 at Tue Apr  8 22:43:32 2025.
