 Gaussian 16, Revision C.01,

 ----------------------------------------------------------------------
 #t hf aug-cc-pvdz symm=none int=(grid=ultrafine) guess=(read,tcheck) s
 table=(opt,rrhf)
 ----------------------------------------------------------------------
 -----
 title
 -----
 Symbolic Z-matrix:
 Charge =  0 Multiplicity = 1

 SCF Done:  E(RHF) =  -1772.56874527     A.U. after   15 cycles
 Normal termination of Gaussian 16 at Tue Apr  8 23:38:32 2025.
 Gaussian 16:  ES64L-G16RevC.01  3-Jul-2019

 ----------------------------------------------------------------------
 #t hf aug-cc-pvdz iop(5/13=1,5/36=2,99/5=2) pseudo=read geom=check gue
 ss=(read,tcheck) scf=(maxcycle=1)
 ----------------------------------------------------------------------
 -----
 title
 -----
 Structure from the checkpoint file:  "BDE49_nonexpt_1590_mol1.chk"
 Charge =  0 Multiplicity = 1

                         Standard orientation:
 ---------------------------------------------------------------------
 Center     Atomic      Atomic             Coordinates (Angstroms)
 Number     Number       Type             X           Y           Z
 ---------------------------------------------------------------------
      1          8           0       -0.694971    0.736548   -0.459997
      2         15           0       -2.121100    0.052946    0.015528
      3          8           0       -3.029636    1.170359    0.233203
      4          8           0       -1.749382   -0.939188    1.186023
      5          8           0        0.331359   -0.297032   -0.707817
      6          6           0        1.401127   -0.020077    0.107809
      7          9           0        1.037085   -0.044544    1.416158
      8         17           0        2.150548    1.569373   -0.207350
      9         17           0        2.530791   -1.351161   -0.212770
     10          1           0       -1.249399   -0.525221    1.900720
     11          8           0       -2.504686   -1.021044   -1.079087
     12          1           0       -3.078859   -0.654348   -1.762467
 ---------------------------------------------------------------------

 SCF Done:  E(RHF) =  -1772.84992182     A.U. after    2 cycles

 The electronic state is 1-A.
 Alpha  occ. eigenvalues -- -103.71353-103.70567 -81.47904 -26.19943 -20.73032
 Alpha  occ. eigenvalues --  -20.70693 -20.64782 -20.64728 -20.55528 -11.55443
 Alpha  occ. eigenvalues --  -10.74689 -10.73897  -8.40414  -8.40059  -8.40053
 Alpha  occ. eigenvalues --   -8.39621  -8.39271  -8.39270  -7.95844  -5.10543
 Alpha  occ. eigenvalues --   -5.10418  -5.10394  -1.74713  -1.50849  -1.41906
 Alpha  occ. eigenvalues --   -1.38302  -1.32312  -1.28724  -1.21838  -1.18400
 Alpha  occ. eigenvalues --   -0.96461  -0.89664  -0.85148  -0.83442  -0.82243
 Alpha  occ. eigenvalues --   -0.79196  -0.76949  -0.71848  -0.70355  -0.69650
 Alpha  occ. eigenvalues --   -0.67398  -0.65281  -0.62188  -0.61836  -0.59165
 Alpha  occ. eigenvalues --   -0.58434  -0.56162  -0.53716  -0.53091  -0.51807
 Alpha  occ. eigenvalues --   -0.51575  -0.50842  -0.49124
 Alpha virt. eigenvalues --    0.03229   0.04538   0.06148   0.07249   0.08849
 Alpha virt. eigenvalues --    0.09164   0.10079   0.10424   0.11136   0.11250
 Alpha virt. eigenvalues --    0.12911   0.13887   0.14686   0.15087   0.15574

 Mulliken charges:
               1
     1  O   -0.636005
     2  P    2.386990
     3  O   -0.764511
     4  O   -0.638961
     5  O   -0.306963
     6  C    0.493415
     7  F   -0.294929
     8  Cl   0.040860
     9  Cl   0.010422
    10  H    0.173783
    11  O   -0.631050
    12  H    0.166949
 Sum of Mulliken charges =  -0.00000

 Dipole moment (field-independent basis, Debye):
    X=              1.3366    Y=             -1.4684    Z=             -0.7056  Tot=              2.1073

 Test job not archived.
 1\1\GINC-SE099\SP\RHF\Aug-CC-pVDZ\C1H2Cl2F1O5P1\OHZDE\08-Apr-2025\0\\#
 t hf aug-cc-pvdz iop(5/13=1,5/36=2,99/5=2) pseudo=read geom=check gues
 s=(read,tcheck) scf=(maxcycle=1)\\title\\0,1\O,0,-0.694971,0.736548,-0
 .459997\P,0,-2.1211,0.052946,0.015528\O,0,-3.029636,1.170359,0.233203\
 O,0,-1.749382,-0.939188,1.186023\O,0,0.331359,-0.297032,-0.707817\C,0,
 1.401127,-0.020077,0.107809\F,0,1.037085,-0.044544,1.416158\Cl,0,2.150
 548,1.569373,-0.20735\Cl,0,2.530791,-1.351161,-0.21277\H,0,-1.249399,-
 0.525221,1.90072\O,0,-2.504686,-1.021044,-1.079087\H,0,-3.078859,-0.65

 Normal termination of Gaussian 16 at Tue Apr  8 23:38:41 2025.
