 Gaussian 16, Revision C.01,

 ----------------------------------------------------------------------
 #t hf aug-cc-pvdz symm=none int=(grid=ultrafine) guess=(read,tcheck) s
 table=(opt,rrhf)
 ----------------------------------------------------------------------
 -----
 title
 -----
 Symbolic Z-matrix:
 Charge =  0 Multiplicity = 1

 SCF Done:  E(RHF) =  -611.378022907     A.U. after   15 cycles
 Normal termination of Gaussian 16 at Tue Apr  8 23:26:46 2025.
 Gaussian 16:  ES64L-G16RevC.01  3-Jul-2019

 ----------------------------------------------------------------------
 #t hf aug-cc-pvdz iop(5/13=1,5/36=2,99/5=2) pseudo=read geom=check gue
 ss=(read,tcheck) scf=(maxcycle=1)
 ----------------------------------------------------------------------
 -----
 title
 -----
 Structure from the checkpoint file:  "BDE49_nonexpt_1319_mol1.chk"
 Charge =  0 Multiplicity = 1

                         Standard orientation:
 ---------------------------------------------------------------------
 Center     Atomic      Atomic             Coordinates (Angstroms)
 Number     Number       Type             X           Y           Z
 ---------------------------------------------------------------------
      1          6           0       -0.549722   -0.368337   -0.061001
      2         15           0        1.174595    0.150300   -0.609664
      3          6           0        2.150475   -1.133484    0.294867
      4          1           0        2.011548   -1.076801    1.377026
      5          1           0        3.209660   -1.019828    0.055363
      6          1           0        1.816322   -2.113861   -0.046258
      7          8           0       -0.777331   -1.530990    0.194364
      8          6           0       -1.648845    0.688827   -0.070432
      9          6           0        1.461671    1.658778    0.441852
     10          1           0        0.847200    2.486628    0.083172
     11          1           0        2.507096    1.956895    0.332073
     12          1           0        1.256596    1.488569    1.501889
     13          6           0       -3.053218    0.109249    0.088366
     14          1           0       -1.556395    1.267163   -0.997659
     15          1           0       -1.427835    1.397723    0.737822
     16          1           0       -3.291235   -0.568937   -0.733579
     17          1           0       -3.799138    0.907357    0.103838
     18          1           0       -3.136267   -0.461684    1.014454
 ---------------------------------------------------------------------

 SCF Done:  E(RHF) =  -611.487769709     A.U. after    2 cycles

 The electronic state is 1-A.
 Alpha  occ. eigenvalues --  -81.25927 -20.56719 -11.34046 -11.25203 -11.24814
 Alpha  occ. eigenvalues --  -11.23553 -11.22985  -7.76283  -4.90309  -4.90257
 Alpha  occ. eigenvalues --   -4.89921  -1.35490  -1.04791  -0.99060  -0.94061
 Alpha  occ. eigenvalues --   -0.89819  -0.78180  -0.70601  -0.64837  -0.63585
 Alpha  occ. eigenvalues --   -0.61490  -0.59525  -0.56932  -0.56453  -0.55908
 Alpha  occ. eigenvalues --   -0.53925  -0.53351  -0.51249  -0.49673  -0.46674
 Alpha  occ. eigenvalues --   -0.40347  -0.33182
 Alpha virt. eigenvalues --    0.03171   0.03906   0.04627   0.04950   0.06172
 Alpha virt. eigenvalues --    0.06217   0.06857   0.07338   0.07612   0.08426
 Alpha virt. eigenvalues --    0.09288   0.09515   0.10874   0.12387   0.13166

 Mulliken charges:
               1
     1  C    0.043225
     2  P    0.455254
     3  C    0.320435
     4  H   -0.140727
     5  H   -0.162383
     6  H   -0.099000
     7  O   -0.535201
     8  C   -0.174826
     9  C    0.380298
    10  H   -0.168286
    11  H   -0.202183
    12  H   -0.135615
    13  C    0.553306
    14  H   -0.018559
    15  H   -0.000209
    16  H   -0.045690
    17  H   -0.030969
    18  H   -0.038870
 Sum of Mulliken charges =  -0.00000

 Dipole moment (field-independent basis, Debye):
    X=              0.7548    Y=              2.9874    Z=              0.6913  Tot=              3.1578

 Test job not archived.
 1\1\GINC-SE363\SP\RHF\Aug-CC-pVDZ\C5H11O1P1\OHZDE\08-Apr-2025\0\\#t hf
  aug-cc-pvdz iop(5/13=1,5/36=2,99/5=2) pseudo=read geom=check guess=(r
 ead,tcheck) scf=(maxcycle=1)\\title\\0,1\C,0,-0.549722,-0.368337,-0.06
 1001\P,0,1.174595,0.1503,-0.609664\C,0,2.150475,-1.133484,0.294867\H,0
 ,2.011548,-1.076801,1.377026\H,0,3.20966,-1.019828,0.055363\H,0,1.8163
 22,-2.113861,-0.046258\O,0,-0.777331,-1.53099,0.194364\C,0,-1.648845,0
 .688827,-0.070432\C,0,1.461671,1.658778,0.441852\H,0,0.8472,2.486628,0
 .083172\H,0,2.507096,1.956895,0.332073\H,0,1.256596,1.488569,1.501889\

 Normal termination of Gaussian 16 at Tue Apr  8 23:26:54 2025.
