 Gaussian 16, Revision C.01,

 ----------------------------------------------------------------------
 #t hf aug-cc-pvdz symm=none int=(grid=ultrafine) guess=(read,tcheck) s
 table=(opt,rrhf)
 ----------------------------------------------------------------------
 -----
 title
 -----
 Symbolic Z-matrix:
 Charge =  0 Multiplicity = 1

 SCF Done:  E(RHF) =  -454.677083833     A.U. after   15 cycles
 Normal termination of Gaussian 16 at Wed Apr  9 00:38:04 2025.
 Gaussian 16:  ES64L-G16RevC.01  3-Jul-2019

 ----------------------------------------------------------------------
 #t hf aug-cc-pvdz iop(5/13=1,5/36=2,99/5=2) pseudo=read geom=check gue
 ss=(read,tcheck) scf=(maxcycle=1)
 ----------------------------------------------------------------------
 -----
 title
 -----
 Structure from the checkpoint file:  "BDE49_nonexpt_636_mol1.chk"
 Charge =  0 Multiplicity = 1

                         Standard orientation:
 ---------------------------------------------------------------------
 Center     Atomic      Atomic             Coordinates (Angstroms)
 Number     Number       Type             X           Y           Z
 ---------------------------------------------------------------------
      1          7           0       -1.304104   -0.070845    0.000001
      2          8           0       -0.071524   -0.745498   -0.000044
      3          5           0        1.183722   -0.057651   -0.000061
      4          8           0       -1.300110    1.146930    0.000059
      5          8           0       -2.242308   -0.805626    0.000020
      6          8           0        1.355992    1.277744   -0.000009
      7          8           0        2.211687   -0.934346    0.000008
      8          1           0        3.063590   -0.486907    0.000053
      9          1           0        0.516634    1.757438   -0.000019
 ---------------------------------------------------------------------

 SCF Done:  E(RHF) =  -454.829401883     A.U. after    2 cycles

 The electronic state is 1-A.
 Alpha  occ. eigenvalues --  -20.69012 -20.67368 -20.66495 -20.61169 -20.61141
 Alpha  occ. eigenvalues --  -16.01724  -7.74085  -1.63612  -1.43984  -1.41009
 Alpha  occ. eigenvalues --   -1.36765  -1.34655  -0.97709  -0.86627  -0.81001
 Alpha  occ. eigenvalues --   -0.80897  -0.79789  -0.76752  -0.71861  -0.65028
 Alpha  occ. eigenvalues --   -0.62230  -0.60676  -0.58382  -0.57940  -0.55946
 Alpha  occ. eigenvalues --   -0.55532  -0.52823
 Alpha virt. eigenvalues --    0.03278   0.04743   0.05306   0.05820   0.06425
 Alpha virt. eigenvalues --    0.07806   0.08748   0.13362   0.15247   0.16374
 Alpha virt. eigenvalues --    0.17780   0.18525   0.18926   0.20554   0.20898

 Mulliken charges:
               1
     1  N    0.872581
     2  O   -0.479091
     3  B    0.735045
     4  O   -0.459740
     5  O   -0.384286
     6  O   -0.369846
     7  O   -0.391773
     8  H    0.182347
     9  H    0.294762
 Sum of Mulliken charges =  -0.00000

 Dipole moment (field-independent basis, Debye):
    X=              2.0790    Y=              1.2090    Z=             -0.0002  Tot=              2.4049

 Test job not archived.
 1\1\GINC-SE174\SP\RHF\Aug-CC-pVDZ\B1H2N1O5\OHZDE\09-Apr-2025\0\\#t hf
 aug-cc-pvdz iop(5/13=1,5/36=2,99/5=2) pseudo=read geom=check guess=(re
 ad,tcheck) scf=(maxcycle=1)\\title\\0,1\N,0,-1.304104,-0.070845,0.0000
 01\O,0,-0.071524,-0.745498,-0.000044\B,0,1.183722,-0.057651,-0.000061\
 O,0,-1.30011,1.14693,0.000059\O,0,-2.242308,-0.805626,0.00002\O,0,1.35
 5992,1.277744,-0.000009\O,0,2.211687,-0.934346,0.000008\H,0,3.06359,-0
 .486907,0.000053\H,0,0.516634,1.757438,-0.000019\\Version=ES64L-G16Rev
 C.01\State=1-A\HF=-454.8294019\RMSD=3.232e-03\Dipole=0.8179259,0.47563

 Normal termination of Gaussian 16 at Wed Apr  9 00:38:07 2025.
