 Gaussian 16, Revision C.01,

 ----------------------------------------------------------------------
 #t hf aug-cc-pvdz symm=none int=(grid=ultrafine) guess=(read,tcheck) s
 table=(opt,rrhf)
 ----------------------------------------------------------------------
 -----
 title
 -----
 Symbolic Z-matrix:
 Charge =  0 Multiplicity = 1

 SCF Done:  E(RHF) =  -1115.33109257     A.U. after   13 cycles
 Normal termination of Gaussian 16 at Wed Apr  9 00:01:49 2025.
 Gaussian 16:  ES64L-G16RevC.01  3-Jul-2019

 ----------------------------------------------------------------------
 #t hf aug-cc-pvdz iop(5/13=1,5/36=2,99/5=2) pseudo=read geom=check gue
 ss=(read,tcheck) scf=(maxcycle=1)
 ----------------------------------------------------------------------
 -----
 title
 -----
 Structure from the checkpoint file:  "BDE49_nonexpt_217_mol1.chk"
 Charge =  0 Multiplicity = 1

                         Standard orientation:
 ---------------------------------------------------------------------
 Center     Atomic      Atomic             Coordinates (Angstroms)
 Number     Number       Type             X           Y           Z
 ---------------------------------------------------------------------
      1         17           0       -1.237390    1.732729    0.158001
      2         17           0       -1.909188   -1.183340   -0.222437
      3          5           0       -0.686394    0.074019    0.026159
      4          6           0        0.839465   -0.309407    0.098903
      5          7           0        1.632020    0.660429   -0.174627
      6          6           0        3.067780    0.475987   -0.247997
      7          1           0        3.528546    1.112417    0.515223
      8          1           0        3.408084    0.864402   -1.212707
      9          1           0        3.433296   -0.549416   -0.127904
     10          6           0        1.261633   -1.738466    0.409187
     11          1           0        0.433933   -2.314338    0.820914
     12          1           0        2.084024   -1.761033    1.127657
     13          1           0        1.598507   -2.253428   -0.496731
 ---------------------------------------------------------------------

 SCF Done:  E(RHF) =  -1115.42497025     A.U. after    2 cycles

 The electronic state is 1-A.
 Alpha  occ. eigenvalues -- -103.66980-103.66155 -15.64765 -11.29021 -11.26894
 Alpha  occ. eigenvalues --  -11.24998 -10.70467 -10.69645  -8.36156  -8.35943
 Alpha  occ. eigenvalues --   -8.35911  -8.35342  -8.35120  -8.35077  -7.73056
 Alpha  occ. eigenvalues --   -1.21287  -1.17630  -1.14113  -1.00783  -0.94702
 Alpha  occ. eigenvalues --   -0.77477  -0.68523  -0.64619  -0.63471  -0.61542
 Alpha  occ. eigenvalues --   -0.57675  -0.57227  -0.55851  -0.54443  -0.52336
 Alpha  occ. eigenvalues --   -0.47902  -0.47638  -0.46079  -0.41427  -0.40143
 Alpha virt. eigenvalues --    0.02963   0.04250   0.04456   0.05189   0.05318
 Alpha virt. eigenvalues --    0.06757   0.06874   0.07115   0.07572   0.08141
 Alpha virt. eigenvalues --    0.09458   0.12546   0.13308   0.13727   0.15004

 Mulliken charges:
               1
     1  Cl  -0.283423
     2  Cl  -0.339696
     3  B    0.571057
     4  C    0.129920
     5  N   -0.529393
     6  C    0.752611
     7  H   -0.112655
     8  H   -0.138489
     9  H   -0.145648
    10  C    0.262357
    11  H   -0.222892
    12  H    0.004311
    13  H    0.051941
 Sum of Mulliken charges =  -0.00000

 Dipole moment (field-independent basis, Debye):
    X=              2.5656    Y=             -1.8764    Z=              0.3783  Tot=              3.2010

 Test job not archived.
 1\1\GINC-SE454\SP\RHF\Aug-CC-pVDZ\C3H6B1Cl2N1\OHZDE\09-Apr-2025\0\\#t
 hf aug-cc-pvdz iop(5/13=1,5/36=2,99/5=2) pseudo=read geom=check guess=
 (read,tcheck) scf=(maxcycle=1)\\title\\0,1\Cl,0,-1.23739,1.732729,0.15
 8001\Cl,0,-1.909188,-1.18334,-0.222437\B,0,-0.686394,0.074019,0.026159
 \C,0,0.839465,-0.309407,0.098903\N,0,1.63202,0.660429,-0.174627\C,0,3.
 06778,0.475987,-0.247997\H,0,3.528546,1.112417,0.515223\H,0,3.408084,0
 .864402,-1.212707\H,0,3.433296,-0.549416,-0.127904\C,0,1.261633,-1.738
 466,0.409187\H,0,0.433933,-2.314338,0.820914\H,0,2.084024,-1.761033,1.

 Normal termination of Gaussian 16 at Wed Apr  9 00:01:54 2025.
