 Gaussian 16, Revision C.01,

 ----------------------------------------------------------------------
 #t hf aug-cc-pvdz symm=none int=(grid=ultrafine) guess=(read,tcheck) s
 table=(opt,rrhf)
 ----------------------------------------------------------------------
 -----
 title
 -----
 Symbolic Z-matrix:
 Charge =  0 Multiplicity = 1

 SCF Done:  E(RHF) =  -958.039434565     A.U. after   11 cycles

 1\1\GINC-SE328\Stability\RHF\Aug-CC-pVDZ\C1H2Cl2\OHZDE\08-Apr-2025\0\\
 #t hf aug-cc-pvdz symm=none int=(grid=ultrafine) guess=(read,tcheck) s
 table=(opt,rrhf)\\title\\0,1\C,0,-0.000007,0.77033,0.000014\Cl,0,-1.49
 1164,-0.216831,-0.000002\H,0,-0.000001,1.375107,0.900019\H,0,0.,1.3751
 2,-0.899982\Cl,0,1.491166,-0.216829,-0.000005\\Version=ES64L-G16RevC.0
 1\HF=-958.0394346\RMSD=7.088e-09\Dipole=-0.0000209,0.7484138,0.0000109
 \Quadrupole=-1.8927893,1.624151,0.2686384,0.0000095,-0.0000008,0.00003
 45\PG=Unknown\\@

 Normal termination of Gaussian 16 at Tue Apr  8 22:36:21 2025.
 Gaussian 16:  ES64L-G16RevC.01  3-Jul-2019

 ----------------------------------------------------------------------
 #t hf aug-cc-pvdz iop(5/13=1,5/36=2,99/5=2) pseudo=read geom=check gue
 ss=(read,tcheck) scf=(maxcycle=1)
 ----------------------------------------------------------------------
 -----
 title
 -----
 Structure from the checkpoint file:  "BDE49_expt_117_mol1.chk"
 Charge =  0 Multiplicity = 1

                         Standard orientation:
 ---------------------------------------------------------------------
 Center     Atomic      Atomic             Coordinates (Angstroms)
 Number     Number       Type             X           Y           Z
 ---------------------------------------------------------------------
      1          6           0       -0.000007    0.770330    0.000014
      2         17           0       -1.491164   -0.216830   -0.000002
      3          1           0       -0.000001    1.375107    0.900019
      4          1           0        0.000000    1.375120   -0.899982
      5         17           0        1.491166   -0.216829   -0.000005
 ---------------------------------------------------------------------

 SCF Done:  E(RHF) =  -958.090869841     A.U. after    2 cycles

 The electronic state is 1-A.
 Alpha  occ. eigenvalues -- -103.67644-103.67643 -11.38039 -10.70942 -10.70936
 Alpha  occ. eigenvalues --   -8.36662  -8.36658  -8.36345  -8.36344  -8.36335
 Alpha  occ. eigenvalues --   -8.36333  -1.21742  -1.14348  -0.91595  -0.68336
 Alpha  occ. eigenvalues --   -0.62421  -0.59697  -0.48810  -0.48364  -0.46368
 Alpha  occ. eigenvalues --   -0.46060
 Alpha virt. eigenvalues --    0.03470   0.05235   0.07327   0.07862   0.12474
 Alpha virt. eigenvalues --    0.13636   0.14097   0.15887   0.16100   0.16133
 Alpha virt. eigenvalues --    0.17875   0.18015   0.20762   0.21801   0.27246

 Mulliken charges:
               1
     1  C   -0.135225
     2  Cl  -0.068746
     3  H    0.136359
     4  H    0.136365
     5  Cl  -0.068753
 Sum of Mulliken charges =  -0.00000

 Dipole moment (field-independent basis, Debye):
    X=             -0.0001    Y=              1.9523    Z=              0.0000  Tot=              1.9523

 Test job not archived.
 1\1\GINC-SE328\SP\RHF\Aug-CC-pVDZ\C1H2Cl2\OHZDE\08-Apr-2025\0\\#t hf a
 ug-cc-pvdz iop(5/13=1,5/36=2,99/5=2) pseudo=read geom=check guess=(rea
 d,tcheck) scf=(maxcycle=1)\\title\\0,1\C,0,-0.000007,0.77033,0.000014\
 Cl,0,-1.491164,-0.216831,-0.000002\H,0,-0.000001,1.375107,0.900019\H,0
 ,0.,1.37512,-0.899982\Cl,0,1.491166,-0.216829,-0.000005\\Version=ES64L
 -G16RevC.01\State=1-A\HF=-958.0908698\RMSD=2.847e-03\Dipole=-0.0000212
 ,0.7681078,0.0000112\Quadrupole=-1.9070695,1.6513589,0.2557107,0.00001
 ,-0.0000009,0.0000351\PG=C01 [X(C1H2Cl2)]\\@

 Normal termination of Gaussian 16 at Tue Apr  8 22:36:22 2025.
