 Gaussian 16, Revision C.01,

 ----------------------------------------------------------------------
 #t hf aug-cc-pvdz symm=none int=(grid=ultrafine) guess=(read,tcheck) s
 table=(opt,rrhf)
 ----------------------------------------------------------------------
 -----
 title
 -----
 Symbolic Z-matrix:
 Charge =  0 Multiplicity = 1

 SCF Done:  E(RHF) =  -653.998895485     A.U. after   14 cycles
 Normal termination of Gaussian 16 at Wed Apr  9 00:02:41 2025.
 Gaussian 16:  ES64L-G16RevC.01  3-Jul-2019

 ----------------------------------------------------------------------
 #t hf aug-cc-pvdz iop(5/13=1,5/36=2,99/5=2) pseudo=read geom=check gue
 ss=(read,tcheck) scf=(maxcycle=1)
 ----------------------------------------------------------------------
 -----
 title
 -----
 Structure from the checkpoint file:  "BDE49_nonexpt_2160_mol1.chk"
 Charge =  0 Multiplicity = 1

                         Standard orientation:
 ---------------------------------------------------------------------
 Center     Atomic      Atomic             Coordinates (Angstroms)
 Number     Number       Type             X           Y           Z
 ---------------------------------------------------------------------
      1          6           0       -0.416460    0.014697   -0.033391
      2          6           0       -1.141854   -1.188726   -0.059112
      3          6           0       -2.534420   -1.196151   -0.021612
      4          6           0       -3.237202    0.005406    0.046725
      5          6           0       -2.540325    1.211349    0.073424
      6          6           0       -1.147168    1.212028    0.032705
      7          7           0        1.931762   -1.386466   -0.989549
      8          1           0       -3.071914   -2.138234   -0.045669
      9          1           0       -4.321435    0.002093    0.076306
     10          1           0       -3.081364    2.150308    0.122941
     11          1           0       -0.626221    2.164127    0.047828
     12          1           0       -0.603835   -2.128874   -0.122062
     13         14           0        1.468483   -0.015789   -0.033878
     14          1           0        1.607632   -1.467845   -1.943457
     15          1           0        2.865488   -1.762407   -0.901633
     16          6           0        2.148434   -0.316012    1.692259
     17          1           0        1.739593   -1.235854    2.118444
     18          1           0        1.888309    0.508992    2.361957
     19          1           0        3.240432   -0.400867    1.684102
     20          6           0        2.117747    1.638019   -0.665060
     21          1           0        1.832071    2.469358   -0.012440
     22          1           0        1.746147    1.859691   -1.670095
     23          1           0        3.211491    1.622159   -0.710710
 ---------------------------------------------------------------------

 SCF Done:  E(RHF) =  -654.139266067     A.U. after    2 cycles

 The electronic state is 1-A.
 Alpha  occ. eigenvalues --  -69.05939 -15.58977 -11.24358 -11.24277 -11.24002
 Alpha  occ. eigenvalues --  -11.23974 -11.23881 -11.22157 -11.20566 -11.20438
 Alpha  occ. eigenvalues --   -6.80947  -3.91806  -3.91715  -3.91671  -1.13392
 Alpha  occ. eigenvalues --   -1.09064  -1.00335  -1.00050  -0.94003  -0.91508
 Alpha  occ. eigenvalues --   -0.81965  -0.81464  -0.70839  -0.65750  -0.64440
 Alpha  occ. eigenvalues --   -0.62424  -0.61826  -0.58577  -0.56996  -0.56269
 Alpha  occ. eigenvalues --   -0.54253  -0.54093  -0.53539  -0.50477  -0.49730
 Alpha  occ. eigenvalues --   -0.48790  -0.44645  -0.42985  -0.38502  -0.33500
 Alpha  occ. eigenvalues --   -0.33285
 Alpha virt. eigenvalues --    0.02795   0.03785   0.04132   0.04810   0.05363
 Alpha virt. eigenvalues --    0.05471   0.06557   0.06974   0.07333   0.07669
 Alpha virt. eigenvalues --    0.08126   0.09355   0.09596   0.10070   0.10193

 Mulliken charges:
               1
     1  C   -0.638347
     2  C    0.473567
     3  C    0.483296
     4  C    0.857426
     5  C    0.505540
     6  C    0.624221
     7  N   -0.439530
     8  H   -0.458801
     9  H   -0.448570
    10  H   -0.480062
    11  H   -0.679289
    12  H   -0.747413
    13  Si   1.719106
    14  H   -0.112605
    15  H   -0.074101
    16  C    0.534601
    17  H   -0.308446
    18  H   -0.243142
    19  H   -0.231914
    20  C    0.601990
    21  H   -0.268224
    22  H   -0.322306
    23  H   -0.346997
 Sum of Mulliken charges =  -0.00000

 Dipole moment (field-independent basis, Debye):
    X=              0.6435    Y=              0.0454    Z=             -0.6134  Tot=              0.8901

 Test job not archived.
 1\1\GINC-SE082\SP\RHF\Aug-CC-pVDZ\C8H13N1Si1\OHZDE\09-Apr-2025\0\\#t h
 f aug-cc-pvdz iop(5/13=1,5/36=2,99/5=2) pseudo=read geom=check guess=(
 read,tcheck) scf=(maxcycle=1)\\title\\0,1\C,0,-0.41646,0.014697,-0.033
 391\C,0,-1.141854,-1.188726,-0.059112\C,0,-2.53442,-1.196151,-0.021612
 \C,0,-3.237202,0.005406,0.046725\C,0,-2.540325,1.211349,0.073424\C,0,-
 1.147168,1.212028,0.032705\N,0,1.931762,-1.386466,-0.989549\H,0,-3.071
 914,-2.138234,-0.045669\H,0,-4.321435,0.002093,0.076306\H,0,-3.081364,
 2.150308,0.122941\H,0,-0.626221,2.164127,0.047828\H,0,-0.603835,-2.128

 Normal termination of Gaussian 16 at Wed Apr  9 00:02:57 2025.
