 Gaussian 16, Revision C.01,

 ----------------------------------------------------------------------
 #t hf aug-cc-pvdz symm=none int=(grid=ultrafine) guess=(read,tcheck) s
 table=(opt,rrhf)
 ----------------------------------------------------------------------
 -----
 title
 -----
 Symbolic Z-matrix:
 Charge =  0 Multiplicity = 1

 SCF Done:  E(RHF) =  -443.482336626     A.U. after   15 cycles
 Normal termination of Gaussian 16 at Tue Apr  8 22:41:18 2025.
 Gaussian 16:  ES64L-G16RevC.01  3-Jul-2019

 ----------------------------------------------------------------------
 #t hf aug-cc-pvdz iop(5/13=1,5/36=2,99/5=2) pseudo=read geom=check gue
 ss=(read,tcheck) scf=(maxcycle=1)
 ----------------------------------------------------------------------
 -----
 title
 -----
 Structure from the checkpoint file:  "BDE49_expt_1399_mol1.chk"
 Charge =  0 Multiplicity = 1

                         Standard orientation:
 ---------------------------------------------------------------------
 Center     Atomic      Atomic             Coordinates (Angstroms)
 Number     Number       Type             X           Y           Z
 ---------------------------------------------------------------------
      1          6           0       -0.872711   -2.194993    0.000000
      2          6           0        0.494039   -1.905039    0.000000
      3          6           0        0.911281   -0.590049    0.000000
      4          6           0       -1.791825   -1.154539    0.000000
      5          6           0       -1.362747    0.175548    0.000000
      6          6           0        0.000000    0.477940    0.000000
      7          1           0       -1.205085   -3.225708    0.000000
      8          1           0        1.244523   -2.686127    0.000000
      9          9           0        2.229760   -0.306595    0.000000
     10          1           0       -2.854684   -1.365825    0.000000
     11          1           0       -2.094802    0.971785    0.000000
     12          8           0        0.539135    1.724041    0.000000
     13          6           0       -0.345399    2.835337    0.000000
     14          1           0        0.290564    3.718713    0.000000
     15          1           0       -0.978631    2.844481    0.894288
     16          1           0       -0.978631    2.844481   -0.894288
 ---------------------------------------------------------------------

 SCF Done:  E(RHF) =  -443.624174448     A.U. after    2 cycles

 The electronic state is 1-A'.
 Alpha  occ. eigenvalues --  -26.12890 -20.60794 -11.33384 -11.32325 -11.30332
 Alpha  occ. eigenvalues --  -11.25655 -11.25513 -11.25394 -11.25004  -1.66724
 Alpha  occ. eigenvalues --   -1.37902  -1.15349  -1.03192  -1.02684  -0.95366
 Alpha  occ. eigenvalues --   -0.86743  -0.84269  -0.77387  -0.74490  -0.74349
 Alpha  occ. eigenvalues --   -0.72241  -0.67184  -0.66012  -0.65121  -0.62655
 Alpha  occ. eigenvalues --   -0.59485  -0.55399  -0.53855  -0.52853  -0.50954
 Alpha  occ. eigenvalues --   -0.48640  -0.35289  -0.32705
 Alpha virt. eigenvalues --    0.03134   0.03798   0.04368   0.05602   0.05629
 Alpha virt. eigenvalues --    0.06374   0.08664   0.08747   0.10401   0.11042
 Alpha virt. eigenvalues --    0.11521   0.12685   0.13244   0.13569   0.14067

 Mulliken charges:
               1
     1  C    0.540318
     2  C    0.658025
     3  C    0.069438
     4  C    0.390453
     5  C    0.409102
     6  C    0.630472
     7  H   -0.430210
     8  H   -0.433278
     9  F   -0.296650
    10  H   -0.435670
    11  H   -0.730406
    12  O   -0.718924
    13  C    0.820928
    14  H   -0.299492
    15  H   -0.087053
    16  H   -0.087053
 Sum of Mulliken charges =  -0.00000

 Dipole moment (field-independent basis, Debye):
    X=             -3.1637    Y=              0.4657    Z=             -0.0000  Tot=              3.1978

 Test job not archived.
 1\1\GINC-SE328\SP\RHF\Aug-CC-pVDZ\C7H7F1O1\OHZDE\08-Apr-2025\0\\#t hf
 aug-cc-pvdz iop(5/13=1,5/36=2,99/5=2) pseudo=read geom=check guess=(re
 ad,tcheck) scf=(maxcycle=1)\\title\\0,1\C,0,0.872711,-2.194993,0.\C,0,
 -0.494039,-1.905039,0.\C,0,-0.911281,-0.590049,0.\C,0,1.791825,-1.1545
 39,0.\C,0,1.362747,0.175548,0.\C,0,0.,0.47794,0.\H,0,1.205085,-3.22570
 8,0.\H,0,-1.244523,-2.686127,0.\F,0,-2.22976,-0.306595,0.\H,0,2.854684
 ,-1.365825,0.\H,0,2.094802,0.971785,0.\O,0,-0.539135,1.724041,0.\C,0,0
 .345399,2.835337,0.\H,0,-0.290564,3.718713,0.\H,0,0.978631,2.844481,-0

 Normal termination of Gaussian 16 at Tue Apr  8 22:41:25 2025.
