 Gaussian 16, Revision C.01,

 ----------------------------------------------------------------------
 #t hf aug-cc-pvdz symm=none int=(grid=ultrafine) guess=(read,tcheck) s
 table=(opt,rrhf)
 ----------------------------------------------------------------------
 -----
 title
 -----
 Symbolic Z-matrix:
 Charge =  0 Multiplicity = 1

 SCF Done:  E(RHF) =  -330.923682725     A.U. after   13 cycles
 Normal termination of Gaussian 16 at Tue Apr  8 23:19:11 2025.
 Gaussian 16:  ES64L-G16RevC.01  3-Jul-2019

 ----------------------------------------------------------------------
 #t hf aug-cc-pvdz iop(5/13=1,5/36=2,99/5=2) pseudo=read geom=check gue
 ss=(read,tcheck) scf=(maxcycle=1)
 ----------------------------------------------------------------------
 -----
 title
 -----
 Structure from the checkpoint file:  "BDE49_nonexpt_1122_mol1.chk"
 Charge =  0 Multiplicity = 1

                         Standard orientation:
 ---------------------------------------------------------------------
 Center     Atomic      Atomic             Coordinates (Angstroms)
 Number     Number       Type             X           Y           Z
 ---------------------------------------------------------------------
      1          9           0       -0.673166   -1.837464    0.000000
      2          8           0        0.532879   -1.023927    0.000000
      3          6           0        0.117182    0.362207   -0.000000
      4          6           0        1.488095    1.053023   -0.000000
      5          1           0        2.061560    0.780965    0.887986
      6          1           0        1.338071    2.134933   -0.000000
      7          1           0        2.061560    0.780965   -0.887986
      8          6           0       -0.673166    0.670970   -1.271981
      9          1           0       -0.919961    1.734724   -1.316987
     10          1           0       -1.601935    0.100070   -1.291241
     11          1           0       -0.087802    0.409559   -2.156017
     12          6           0       -0.673166    0.670970    1.271981
     13          1           0       -0.087802    0.409559    2.156017
     14          1           0       -1.601935    0.100070    1.291241
     15          1           0       -0.919961    1.734724    1.316987
 ---------------------------------------------------------------------

 SCF Done:  E(RHF) =  -331.032726166     A.U. after    2 cycles

 The electronic state is 1-A'.
 Alpha  occ. eigenvalues --  -26.14132 -20.68656 -11.32133 -11.24522 -11.23584
 Alpha  occ. eigenvalues --  -11.23576  -1.64438  -1.31167  -1.06881  -0.95442
 Alpha  occ. eigenvalues --   -0.95126  -0.80857  -0.74964  -0.73479  -0.70245
 Alpha  occ. eigenvalues --   -0.64314  -0.62421  -0.60592  -0.56996  -0.55847
 Alpha  occ. eigenvalues --   -0.54587  -0.53761  -0.53230  -0.49280  -0.47593
 Alpha virt. eigenvalues --    0.03295   0.04567   0.04601   0.05361   0.06767
 Alpha virt. eigenvalues --    0.06874   0.07333   0.07507   0.09528   0.10834
 Alpha virt. eigenvalues --    0.12366   0.14207   0.14667   0.15170   0.15613

 Mulliken charges:
               1
     1  F   -0.389578
     2  O   -0.198605
     3  C   -2.111262
     4  C    0.770792
     5  H   -0.004875
     6  H    0.078196
     7  H   -0.004875
     8  C    0.852591
     9  H    0.064230
    10  H    0.002740
    11  H    0.010542
    12  C    0.852591
    13  H    0.010542
    14  H    0.002740
    15  H    0.064230
 Sum of Mulliken charges =  -0.00000

 Dipole moment (field-independent basis, Debye):
    X=              0.4043    Y=              3.2524    Z=              0.0000  Tot=              3.2774

 Test job not archived.
 1\1\GINC-SE247\SP\RHF\Aug-CC-pVDZ\C4H9F1O1\OHZDE\08-Apr-2025\0\\#t hf
 aug-cc-pvdz iop(5/13=1,5/36=2,99/5=2) pseudo=read geom=check guess=(re
 ad,tcheck) scf=(maxcycle=1)\\title\\0,1\F,0,-0.673166,-1.837464,0.\O,0
 ,0.532879,-1.023927,0.\C,0,0.117182,0.362207,0.\C,0,1.488095,1.053023,
 0.\H,0,2.06156,0.780965,0.887986\H,0,1.338071,2.134933,0.\H,0,2.06156,
 0.780965,-0.887986\C,0,-0.673166,0.67097,-1.271981\H,0,-0.919961,1.734
 724,-1.316987\H,0,-1.601935,0.10007,-1.291241\H,0,-0.087802,0.409559,-
 2.156017\C,0,-0.673166,0.67097,1.271981\H,0,-0.087802,0.409559,2.15601

 Normal termination of Gaussian 16 at Tue Apr  8 23:19:14 2025.
