 Gaussian 16, Revision C.01,

 ----------------------------------------------------------------------
 #t hf aug-cc-pvdz symm=none int=(grid=ultrafine) guess=(read,tcheck) s
 table=(opt,rrhf)
 ----------------------------------------------------------------------
 -----
 title
 -----
 Symbolic Z-matrix:
 Charge =  0 Multiplicity = 1

 SCF Done:  E(RHF) =  -582.315318434     A.U. after   14 cycles
 Normal termination of Gaussian 16 at Wed Apr  9 00:45:27 2025.
 Gaussian 16:  ES64L-G16RevC.01  3-Jul-2019

 ----------------------------------------------------------------------
 #t hf aug-cc-pvdz iop(5/13=1,5/36=2,99/5=2) pseudo=read geom=check gue
 ss=(read,tcheck) scf=(maxcycle=1)
 ----------------------------------------------------------------------
 -----
 title
 -----
 Structure from the checkpoint file:  "BDE49_nonexpt_817_mol1.chk"
 Charge =  0 Multiplicity = 1

                         Standard orientation:
 ---------------------------------------------------------------------
 Center     Atomic      Atomic             Coordinates (Angstroms)
 Number     Number       Type             X           Y           Z
 ---------------------------------------------------------------------
      1          6           0        1.236933   -0.306055    0.478151
      2          5           0       -1.852325    0.293758   -0.016837
      3          8           0       -3.159576   -0.082298   -0.013813
      4          8           0       -1.562253    1.632938   -0.039063
      5          6           0        2.265142   -0.075139   -0.348595
      6          6           0        3.558540    0.592882    0.018670
      7          1           0        2.190223   -0.401934   -1.386257
      8          1           0        3.572855    0.897079    1.067664
      9          1           0        3.733846    1.479295   -0.601539
     10          1           0        4.405587   -0.080031   -0.156309
     11          1           0       -3.757055    0.676869   -0.035158
     12          1           0       -0.616237    1.808749   -0.037489
     13         14           0       -0.379086   -1.116334   -0.019076
     14          1           0       -0.204064   -1.679660   -1.384578
     15          1           0       -0.692057   -2.237302    0.903788
     16          1           0        1.346682    0.021576    1.514773
 ---------------------------------------------------------------------

 SCF Done:  E(RHF) =  -582.436128891     A.U. after    2 cycles

 The electronic state is 1-A.
 Alpha  occ. eigenvalues --  -69.04502 -20.58709 -20.58074 -11.26157 -11.24188
 Alpha  occ. eigenvalues --  -11.22579  -7.65779  -6.79963  -3.90761  -3.90731
 Alpha  occ. eigenvalues --   -3.90664  -1.34639  -1.30888  -1.06470  -0.93654
 Alpha  occ. eigenvalues --   -0.78594  -0.76909  -0.75031  -0.69348  -0.62773
 Alpha  occ. eigenvalues --   -0.59867  -0.58960  -0.58868  -0.58339  -0.57763
 Alpha  occ. eigenvalues --   -0.52266  -0.52162  -0.46854  -0.45168  -0.42256
 Alpha  occ. eigenvalues --   -0.36262
 Alpha virt. eigenvalues --    0.03089   0.04058   0.04607   0.04816   0.05668
 Alpha virt. eigenvalues --    0.06343   0.06742   0.07279   0.07425   0.08133
 Alpha virt. eigenvalues --    0.08790   0.09706   0.10059   0.10219   0.11221

 Mulliken charges:
               1
     1  C    0.461508
     2  B    0.992182
     3  O   -0.466244
     4  O   -0.506853
     5  C    0.119144
     6  C    0.152110
     7  H   -0.489018
     8  H   -0.116394
     9  H    0.050408
    10  H    0.041878
    11  H    0.179746
    12  H    0.220520
    13  Si  -0.407282
    14  H    0.059963
    15  H    0.126195
    16  H   -0.417864
 Sum of Mulliken charges =   0.00000

 Dipole moment (field-independent basis, Debye):
    X=              1.8999    Y=              1.5342    Z=             -0.0330  Tot=              2.4422

 Test job not archived.
 1\1\GINC-SE090\SP\RHF\Aug-CC-pVDZ\C3H9B1O2Si1\OHZDE\09-Apr-2025\0\\#t
 hf aug-cc-pvdz iop(5/13=1,5/36=2,99/5=2) pseudo=read geom=check guess=
 (read,tcheck) scf=(maxcycle=1)\\title\\0,1\C,0,1.236933,-0.306055,0.47
 8151\B,0,-1.852325,0.293758,-0.016837\O,0,-3.159576,-0.082298,-0.01381
 3\O,0,-1.562253,1.632938,-0.039063\C,0,2.265142,-0.075139,-0.348595\C,
 0,3.55854,0.592882,0.01867\H,0,2.190223,-0.401934,-1.386257\H,0,3.5728
 55,0.897079,1.067664\H,0,3.733846,1.479295,-0.601539\H,0,4.405587,-0.0
 80031,-0.156309\H,0,-3.757055,0.676869,-0.035158\H,0,-0.616237,1.80874

 Normal termination of Gaussian 16 at Wed Apr  9 00:45:33 2025.
