 Gaussian 16, Revision C.01,

 ----------------------------------------------------------------------
 #t hf aug-cc-pvdz symm=none int=(grid=ultrafine) guess=(read,tcheck) s
 table=(opt,rrhf)
 ----------------------------------------------------------------------
 -----
 title
 -----
 Symbolic Z-matrix:
 Charge =  0 Multiplicity = 1

 SCF Done:  E(RHF) =  -1423.40178940     A.U. after   12 cycles
 Normal termination of Gaussian 16 at Wed Apr  9 00:44:08 2025.
 Gaussian 16:  ES64L-G16RevC.01  3-Jul-2019

 ----------------------------------------------------------------------
 #t hf aug-cc-pvdz iop(5/13=1,5/36=2,99/5=2) pseudo=read geom=check gue
 ss=(read,tcheck) scf=(maxcycle=1)
 ----------------------------------------------------------------------
 -----
 title
 -----
 Structure from the checkpoint file:  "BDE49_nonexpt_791_mol1.chk"
 Charge =  0 Multiplicity = 1

                         Standard orientation:
 ---------------------------------------------------------------------
 Center     Atomic      Atomic             Coordinates (Angstroms)
 Number     Number       Type             X           Y           Z
 ---------------------------------------------------------------------
      1         14           0       -0.317301   -0.125083    0.302789
      2          5           0        1.681297    0.008763   -0.032913
      3          8           0        2.250207    1.067433   -0.669932
      4          8           0        2.456247   -1.013353    0.410204
      5          6           0       -0.883758   -0.666904    1.989084
      6          1           0       -0.490893   -1.664964    2.201531
      7          1           0       -1.973974   -0.698892    2.046035
      8          1           0       -0.511917    0.022505    2.751984
      9         17           0       -1.088831    1.800498   -0.073398
     10         17           0       -1.167144   -1.403277   -1.115690
     11          1           0        3.392345   -0.888803    0.205296
     12          1           0        1.622658    1.753520   -0.921503
 ---------------------------------------------------------------------

 SCF Done:  E(RHF) =  -1423.53644334     A.U. after    2 cycles

 The electronic state is 1-A.
 Alpha  occ. eigenvalues -- -103.65847-103.65517 -69.14409 -20.60440 -20.60187
 Alpha  occ. eigenvalues --  -11.24029 -10.69257 -10.68932  -8.34941  -8.34737
 Alpha  occ. eigenvalues --   -8.34728  -8.34623  -8.34402  -8.34399  -7.68398
 Alpha  occ. eigenvalues --   -6.88972  -3.99793  -3.99697  -3.99529  -1.36569
 Alpha  occ. eigenvalues --   -1.33004  -1.15022  -1.12842  -0.96354  -0.80699
 Alpha  occ. eigenvalues --   -0.77493  -0.69445  -0.63984  -0.61160  -0.60633
 Alpha  occ. eigenvalues --   -0.59166  -0.58671  -0.54201  -0.53914  -0.53259
 Alpha  occ. eigenvalues --   -0.51447  -0.48242  -0.47106  -0.46519  -0.42250
 Alpha virt. eigenvalues --    0.02960   0.04338   0.05364   0.05409   0.06577
 Alpha virt. eigenvalues --    0.06938   0.07029   0.07749   0.09178   0.09503
 Alpha virt. eigenvalues --    0.09749   0.09960   0.11577   0.12090   0.15148

 Mulliken charges:
               1
     1  Si   0.962118
     2  B    0.979320
     3  O   -0.454467
     4  O   -0.463008
     5  C    0.275667
     6  H   -0.128882
     7  H   -0.210010
     8  H   -0.165769
     9  Cl  -0.622584
    10  Cl  -0.579906
    11  H    0.191862
    12  H    0.215659
 Sum of Mulliken charges =  -0.00000

 Dipole moment (field-independent basis, Debye):
    X=              1.5122    Y=              0.3038    Z=              1.5475  Tot=              2.1849

 Test job not archived.
 1\1\GINC-SE048\SP\RHF\Aug-CC-pVDZ\C1H5B1Cl2O2Si1\OHZDE\09-Apr-2025\0\\
 #t hf aug-cc-pvdz iop(5/13=1,5/36=2,99/5=2) pseudo=read geom=check gue
 ss=(read,tcheck) scf=(maxcycle=1)\\title\\0,1\Si,0,-0.317301,-0.125083
 ,0.302789\B,0,1.681297,0.008763,-0.032913\O,0,2.250207,1.067433,-0.669
 932\O,0,2.456247,-1.013353,0.410204\C,0,-0.883758,-0.666904,1.989084\H
 ,0,-0.490892,-1.664964,2.201531\H,0,-1.973974,-0.698893,2.046035\H,0,-
 0.511917,0.022505,2.751984\Cl,0,-1.088831,1.800498,-0.073398\Cl,0,-1.1
 67143,-1.403277,-1.11569\H,0,3.392345,-0.888802,0.205296\H,0,1.622658,

 Normal termination of Gaussian 16 at Wed Apr  9 00:44:14 2025.
