 Gaussian 16, Revision C.01,

 ----------------------------------------------------------------------
 #t hf aug-cc-pvdz symm=none int=(grid=ultrafine) guess=(read,tcheck) s
 table=(opt,rrhf)
 ----------------------------------------------------------------------
 -----
 title
 -----
 Symbolic Z-matrix:
 Charge =  0 Multiplicity = 1

 SCF Done:  E(RHF) =  -749.064906517     A.U. after   13 cycles
 Normal termination of Gaussian 16 at Wed Apr  9 00:10:52 2025.
 Gaussian 16:  ES64L-G16RevC.01  3-Jul-2019

 ----------------------------------------------------------------------
 #t hf aug-cc-pvdz iop(5/13=1,5/36=2,99/5=2) pseudo=read geom=check gue
 ss=(read,tcheck) scf=(maxcycle=1)
 ----------------------------------------------------------------------
 -----
 title
 -----
 Structure from the checkpoint file:  "BDE49_nonexpt_2408_mol1.chk"
 Charge =  0 Multiplicity = 1

                         Standard orientation:
 ---------------------------------------------------------------------
 Center     Atomic      Atomic             Coordinates (Angstroms)
 Number     Number       Type             X           Y           Z
 ---------------------------------------------------------------------
      1         14           0       -1.859622   -0.570937   -0.192807
      2         14           0       -0.284316    1.112683    0.312987
      3          1           0       -1.589031   -1.137307   -1.535855
      4          1           0       -3.226168    0.009465   -0.202277
      5          1           0       -1.817883   -1.656110    0.812848
      6          6           0        1.402325    0.748937   -0.474713
      7          1           0       -0.125482    1.254904    1.779958
      8          1           0       -0.716337    2.421668   -0.235594
      9          7           0        2.052506   -0.342121   -0.358007
     10          1           0        1.908022    1.477692   -1.106164
     11          8           0        1.359322   -1.252723    0.462391
     12          1           0        1.925937   -2.031754    0.459766
 ---------------------------------------------------------------------

 SCF Done:  E(RHF) =  -749.157076010     A.U. after    2 cycles

 The electronic state is 1-A.
 Alpha  occ. eigenvalues --  -69.07200 -69.06130 -20.62403 -15.70986 -11.27826
 Alpha  occ. eigenvalues --   -6.82563  -6.81514  -3.93357  -3.93313  -3.93277
 Alpha  occ. eigenvalues --   -3.92270  -3.92265  -3.92245  -1.39039  -1.14127
 Alpha  occ. eigenvalues --   -0.82462  -0.75773  -0.70554  -0.67462  -0.62291
 Alpha  occ. eigenvalues --   -0.61571  -0.55128  -0.49771  -0.48255  -0.47163
 Alpha  occ. eigenvalues --   -0.43697  -0.41987  -0.38880
 Alpha virt. eigenvalues --    0.03426   0.03980   0.04796   0.05211   0.06727
 Alpha virt. eigenvalues --    0.07222   0.07455   0.08147   0.08578   0.09364
 Alpha virt. eigenvalues --    0.09878   0.10393   0.10613   0.11638   0.12317

 Mulliken charges:
               1
     1  Si  -0.248450
     2  Si   0.202607
     3  H    0.099866
     4  H    0.015405
     5  H    0.078094
     6  C    0.344260
     7  H    0.096593
     8  H    0.040393
     9  N   -0.136085
    10  H   -0.312985
    11  O   -0.374256
    12  H    0.194558
 Sum of Mulliken charges =  -0.00000

 Dipole moment (field-independent basis, Debye):
    X=              0.1698    Y=              0.1344    Z=             -0.1499  Tot=              0.2634

 Test job not archived.
 1\1\GINC-SE069\SP\RHF\Aug-CC-pVDZ\C1H7N1O1Si2\OHZDE\09-Apr-2025\0\\#t
 hf aug-cc-pvdz iop(5/13=1,5/36=2,99/5=2) pseudo=read geom=check guess=
 (read,tcheck) scf=(maxcycle=1)\\title\\0,1\Si,0,-1.859622,-0.570937,-0
 .192807\Si,0,-0.284316,1.112683,0.312987\H,0,-1.589031,-1.137307,-1.53
 5855\H,0,-3.226168,0.009464,-0.202277\H,0,-1.817883,-1.65611,0.812848\
 C,0,1.402325,0.748937,-0.474713\H,0,-0.125482,1.254904,1.779958\H,0,-0
 .716338,2.421668,-0.235594\N,0,2.052506,-0.342121,-0.358007\H,0,1.9080
 22,1.477692,-1.106164\O,0,1.359322,-1.252723,0.462391\H,0,1.925937,-2.

 Normal termination of Gaussian 16 at Wed Apr  9 00:10:56 2025.
