 Gaussian 16, Revision C.01,

 ----------------------------------------------------------------------
 #t hf aug-cc-pvdz symm=none int=(grid=ultrafine) guess=(read,tcheck) s
 table=(opt,rrhf)
 ----------------------------------------------------------------------
 -----
 title
 -----
 Symbolic Z-matrix:
 Charge =  0 Multiplicity = 1

 SCF Done:  E(RHF) =  -1222.31554196     A.U. after   12 cycles
 Normal termination of Gaussian 16 at Wed Apr  9 00:13:04 2025.
 Gaussian 16:  ES64L-G16RevC.01  3-Jul-2019

 ----------------------------------------------------------------------
 #t hf aug-cc-pvdz iop(5/13=1,5/36=2,99/5=2) pseudo=read geom=check gue
 ss=(read,tcheck) scf=(maxcycle=1)
 ----------------------------------------------------------------------
 -----
 title
 -----
 Structure from the checkpoint file:  "BDE49_nonexpt_2450_mol1.chk"
 Charge =  0 Multiplicity = 1

                         Standard orientation:
 ---------------------------------------------------------------------
 Center     Atomic      Atomic             Coordinates (Angstroms)
 Number     Number       Type             X           Y           Z
 ---------------------------------------------------------------------
      1         14           0        2.549320   -0.814904    0.021284
      2         14           0        1.365722    1.225458   -0.042765
      3         15           0       -1.269309   -0.200306   -0.004658
      4          8           0       -1.906564    0.205051    1.398491
      5          8           0       -2.480993    0.051182   -1.016100
      6          1           0       -2.399906   -0.497538   -1.804948
      7          8           0       -0.667169   -1.534863   -0.099081
      8          8           0       -0.297704    1.008817   -0.249218
      9          1           0        1.782165    2.060993   -1.189507
     10          1           0        1.551544    2.001395    1.203862
     11          1           0        2.217252   -1.606738    1.223735
     12          1           0        3.984165   -0.429062    0.094064
     13          1           0        2.338839   -1.602236   -1.211813
     14          1           0       -2.425582   -0.511486    1.782472
 ---------------------------------------------------------------------

 SCF Done:  E(RHF) =  -1222.54009638     A.U. after    2 cycles

 The electronic state is 1-A.
 Alpha  occ. eigenvalues --  -81.45739 -69.11131 -69.06195 -20.62488 -20.62357
 Alpha  occ. eigenvalues --  -20.60487 -20.53650  -7.93595  -6.85916  -6.81579
 Alpha  occ. eigenvalues --   -5.08305  -5.08216  -5.08182  -3.96828  -3.96633
 Alpha  occ. eigenvalues --   -3.96601  -3.92340  -3.92331  -3.92326  -1.40179
 Alpha  occ. eigenvalues --   -1.35881  -1.34226  -1.27096  -0.87974  -0.78208
 Alpha  occ. eigenvalues --   -0.77618  -0.71932  -0.69655  -0.66243  -0.64842
 Alpha  occ. eigenvalues --   -0.62007  -0.61367  -0.60151  -0.57731  -0.56433
 Alpha  occ. eigenvalues --   -0.50363  -0.50192  -0.49369  -0.47589  -0.47165
 Alpha  occ. eigenvalues --   -0.40341
 Alpha virt. eigenvalues --    0.03098   0.04417   0.04568   0.04645   0.06755
 Alpha virt. eigenvalues --    0.07087   0.07326   0.08241   0.08577   0.09930
 Alpha virt. eigenvalues --    0.10159   0.10389   0.10454   0.11044   0.11481

 Mulliken charges:
               1
     1  Si  -0.271323
     2  Si   0.476701
     3  P    2.439522
     4  O   -0.609954
     5  O   -0.644904
     6  H    0.166259
     7  O   -0.866433
     8  O   -1.159303
     9  H    0.065395
    10  H    0.076755
    11  H    0.089728
    12  H    0.005015
    13  H    0.087806
    14  H    0.144734
 Sum of Mulliken charges =  -0.00000

 Dipole moment (field-independent basis, Debye):
    X=             -0.6974    Y=              0.3458    Z=             -0.3174  Tot=              0.8406

 Test job not archived.
 1\1\GINC-SE097\SP\RHF\Aug-CC-pVDZ\H7O4P1Si2\OHZDE\09-Apr-2025\0\\#t hf
  aug-cc-pvdz iop(5/13=1,5/36=2,99/5=2) pseudo=read geom=check guess=(r
 ead,tcheck) scf=(maxcycle=1)\\title\\0,1\Si,0,2.54932,-0.814904,0.0212
 84\Si,0,1.365722,1.225458,-0.042765\P,0,-1.269309,-0.200306,-0.004658\
 O,0,-1.906564,0.205051,1.398491\O,0,-2.480993,0.051182,-1.0161\H,0,-2.
 399906,-0.497538,-1.804948\O,0,-0.667169,-1.534863,-0.099081\O,0,-0.29
 7704,1.008817,-0.249218\H,0,1.782165,2.060993,-1.189507\H,0,1.551544,2
 .001395,1.203862\H,0,2.217252,-1.606738,1.223735\H,0,3.984165,-0.42906

 Normal termination of Gaussian 16 at Wed Apr  9 00:13:10 2025.
