 Gaussian 16, Revision C.01,

 ----------------------------------------------------------------------
 #t hf aug-cc-pvdz symm=none int=(grid=ultrafine) guess=(read,tcheck) s
 table=(opt,rrhf)
 ----------------------------------------------------------------------
 -----
 title
 -----
 Symbolic Z-matrix:
 Charge =  0 Multiplicity = 1

 SCF Done:  E(RHF) =  -1749.25574901     A.U. after   17 cycles
 Normal termination of Gaussian 16 at Wed Apr  9 00:26:37 2025.
 Gaussian 16:  ES64L-G16RevC.01  3-Jul-2019

 ----------------------------------------------------------------------
 #t hf aug-cc-pvdz iop(5/13=1,5/36=2,99/5=2) pseudo=read geom=check gue
 ss=(read,tcheck) scf=(maxcycle=1)
 ----------------------------------------------------------------------
 -----
 title
 -----
 Structure from the checkpoint file:  "BDE49_nonexpt_2721_mol1.chk"
 Charge =  0 Multiplicity = 1

                         Standard orientation:
 ---------------------------------------------------------------------
 Center     Atomic      Atomic             Coordinates (Angstroms)
 Number     Number       Type             X           Y           Z
 ---------------------------------------------------------------------
      1          6           0        3.690911   -0.711502    0.581384
      2          8           0        3.033803   -0.867294    1.564241
      3         16           0        3.285507    0.531303   -0.723104
      4         16           0        1.546651    1.365932    0.004588
      5          6           0        0.317838    0.069937   -0.459135
      6          8           0        0.653533   -0.981117   -0.928337
      7          6           0        4.916423   -1.512504    0.205911
      8          1           0        5.601624   -0.950589   -0.430925
      9          1           0        4.586609   -2.399926   -0.342083
     10          1           0        5.422677   -1.833167    1.116938
     11          6           0       -1.100206    0.430840   -0.154420
     12          6           0       -1.509459    1.726225    0.177476
     13          6           0       -2.851430    1.982151    0.440519
     14          6           0       -3.792421    0.958345    0.375910
     15          6           0       -3.373347   -0.327211    0.039254
     16          6           0       -2.041733   -0.603183   -0.229510
     17          1           0       -3.171085    2.985569    0.694737
     18          1           0       -0.793737    2.537599    0.218407
     19          1           0       -4.837819    1.149736    0.580590
     20          1           0       -1.717478   -1.600195   -0.494599
     21         17           0       -4.555497   -1.619770   -0.046964
 ---------------------------------------------------------------------

 SCF Done:  E(RHF) =  -1749.46144247     A.U. after    2 cycles

 The electronic state is 1-A.
 Alpha  occ. eigenvalues -- -103.67683 -93.58385 -93.58176 -20.59201 -20.59029
 Alpha  occ. eigenvalues --  -11.39700 -11.39197 -11.32964 -11.28864 -11.28475
 Alpha  occ. eigenvalues --  -11.28366 -11.28186 -11.27713 -11.26870 -10.70949
 Alpha  occ. eigenvalues --   -8.88041  -8.87829  -8.36686  -8.36378  -8.36359
 Alpha  occ. eigenvalues --   -6.22198  -6.21971  -6.21893  -6.21662  -6.21573
 Alpha  occ. eigenvalues --   -6.21361  -1.39235  -1.38966  -1.21440  -1.15653
 Alpha  occ. eigenvalues --   -1.07713  -1.05962  -1.03322  -1.02034  -0.93544
 Alpha  occ. eigenvalues --   -0.87868  -0.85504  -0.78134  -0.74704  -0.73172
 Alpha  occ. eigenvalues --   -0.69315  -0.68225  -0.66581  -0.66022  -0.64469
 Alpha  occ. eigenvalues --   -0.63370  -0.61916  -0.61411  -0.60255  -0.57594
 Alpha  occ. eigenvalues --   -0.56002  -0.55789  -0.54367  -0.53594  -0.49221
 Alpha  occ. eigenvalues --   -0.48709  -0.47784  -0.44602  -0.44192  -0.39596
 Alpha  occ. eigenvalues --   -0.38336  -0.37266  -0.35982
 Alpha virt. eigenvalues --    0.03028   0.03496   0.04112   0.04567   0.05218
 Alpha virt. eigenvalues --    0.05825   0.05977   0.06851   0.07983   0.08498
 Alpha virt. eigenvalues --    0.08730   0.09123   0.10012   0.10296   0.10689

 Mulliken charges:
               1
     1  C   -0.031203
     2  O   -0.431208
     3  S    0.096868
     4  S    0.045860
     5  C   -0.749763
     6  O   -0.422352
     7  C    0.340944
     8  H   -0.017404
     9  H    0.097558
    10  H   -0.004363
    11  C    1.538879
    12  C    0.216399
    13  C    0.562465
    14  C    0.872438
    15  C   -0.375802
    16  C    0.565560
    17  H   -0.474737
    18  H   -0.510945
    19  H   -0.432095
    20  H   -0.516115
    21  Cl  -0.370983
 Sum of Mulliken charges =  -0.00000

 Dipole moment (field-independent basis, Debye):
    X=              0.8166    Y=              2.3867    Z=             -0.4594  Tot=              2.5640

 Test job not archived.
 1\1\GINC-SE459\SP\RHF\Aug-CC-pVDZ\C9H7Cl1O2S2\OHZDE\09-Apr-2025\0\\#t
 hf aug-cc-pvdz iop(5/13=1,5/36=2,99/5=2) pseudo=read geom=check guess=
 (read,tcheck) scf=(maxcycle=1)\\title\\0,1\C,0,3.690911,-0.711502,0.58
 1384\O,0,3.033803,-0.867294,1.564241\S,0,3.285507,0.531303,-0.723104\S
 ,0,1.546651,1.365932,0.004588\C,0,0.317838,0.069937,-0.459135\O,0,0.65
 3533,-0.981117,-0.928337\C,0,4.916423,-1.512504,0.205911\H,0,5.601624,
 -0.950589,-0.430925\H,0,4.586609,-2.399926,-0.342083\H,0,5.422677,-1.8
 33167,1.116938\C,0,-1.100206,0.43084,-0.15442\C,0,-1.509459,1.726225,0

 Normal termination of Gaussian 16 at Wed Apr  9 00:26:54 2025.
