 Gaussian 16, Revision C.01,

 ----------------------------------------------------------------------
 #t hf aug-cc-pvdz symm=none int=(grid=ultrafine) guess=(read,tcheck) s
 table=(opt,rrhf)
 ----------------------------------------------------------------------
 -----
 title
 -----
 Symbolic Z-matrix:
 Charge =  0 Multiplicity = 1

 SCF Done:  E(RHF) =  -427.797148709     A.U. after   12 cycles
 Normal termination of Gaussian 16 at Wed Apr  9 00:28:41 2025.
 Gaussian 16:  ES64L-G16RevC.01  3-Jul-2019

 ----------------------------------------------------------------------
 #t hf aug-cc-pvdz iop(5/13=1,5/36=2,99/5=2) pseudo=read geom=check gue
 ss=(read,tcheck) scf=(maxcycle=1)
 ----------------------------------------------------------------------
 -----
 title
 -----
 Structure from the checkpoint file:  "BDE49_nonexpt_354_mol1.chk"
 Charge =  0 Multiplicity = 1

                         Standard orientation:
 ---------------------------------------------------------------------
 Center     Atomic      Atomic             Coordinates (Angstroms)
 Number     Number       Type             X           Y           Z
 ---------------------------------------------------------------------
      1          9           0        1.331692    1.145444    0.000067
      2          9           0        1.331802   -1.145384   -0.000242
      3          7           0       -0.813692   -0.000074    0.000036
      4          5           0        0.709092   -0.000001    0.000033
      5          8           0       -1.363755   -0.000152    1.094994
      6          8           0       -1.363878    0.000151   -1.094850
 ---------------------------------------------------------------------

 SCF Done:  E(RHF) =  -427.953800664     A.U. after    2 cycles

 The electronic state is 1-A.
 Alpha  occ. eigenvalues --  -26.21035 -26.21031 -20.65879 -20.65870 -15.92921
 Alpha  occ. eigenvalues --   -7.85107  -1.76494  -1.74641  -1.57636  -1.40039
 Alpha  occ. eigenvalues --   -1.02795  -0.93575  -0.90134  -0.85142  -0.83944
 Alpha  occ. eigenvalues --   -0.79431  -0.79157  -0.78974  -0.76784  -0.73850
 Alpha  occ. eigenvalues --   -0.56048  -0.53324  -0.50441
 Alpha virt. eigenvalues --    0.03923   0.04065   0.04605   0.05011   0.06069
 Alpha virt. eigenvalues --    0.10711   0.14108   0.15486   0.17270   0.18960
 Alpha virt. eigenvalues --    0.20360   0.21026   0.21713   0.23352   0.23786

 Mulliken charges:
               1
     1  F   -0.288627
     2  F   -0.288632
     3  N    0.532246
     4  B    1.012339
     5  O   -0.483678
     6  O   -0.483648
 Sum of Mulliken charges =  -0.00000

 Dipole moment (field-independent basis, Debye):
    X=              2.2855    Y=             -0.0002    Z=              0.0002  Tot=              2.2855

 Test job not archived.
 1\1\GINC-SE404\SP\RHF\Aug-CC-pVDZ\B1F2N1O2\OHZDE\09-Apr-2025\0\\#t hf
 aug-cc-pvdz iop(5/13=1,5/36=2,99/5=2) pseudo=read geom=check guess=(re
 ad,tcheck) scf=(maxcycle=1)\\title\\0,1\F,0,-1.331692,-1.145443,0.0000
 67\F,0,-1.331802,1.145385,-0.000242\N,0,0.813692,0.000074,0.000036\B,0
 ,-0.709092,0.000001,0.000033\O,0,1.363755,0.000152,1.094994\O,0,1.3638
 78,-0.000151,-1.09485\\Version=ES64L-G16RevC.01\State=1-A\HF=-427.9538
 007\RMSD=5.550e-03\Dipole=-0.8991882,0.000076,0.0000932\Quadrupole=-1.
 945978,1.3284361,0.6175419,0.000187,-0.000538,-0.0001094\PG=C01 [X(B1F

 Normal termination of Gaussian 16 at Wed Apr  9 00:28:42 2025.
