 Gaussian 16, Revision C.01,

 ----------------------------------------------------------------------
 #t hf aug-cc-pvdz symm=none int=(grid=ultrafine) guess=(read,tcheck) s
 table=opt
 ----------------------------------------------------------------------
 -----
 title
 -----
 Symbolic Z-matrix:
 Charge =  0 Multiplicity = 2

 SCF Done:  E(UHF) =  -518.430603190     A.U. after   15 cycles
 Normal termination of Gaussian 16 at Tue Apr  8 23:57:36 2025.
 Gaussian 16:  ES64L-G16RevC.01  3-Jul-2019

 ----------------------------------------------------------------------
 #t hf aug-cc-pvdz iop(5/13=1,5/36=2,99/5=2) pseudo=read geom=check gue
 ss=(read,tcheck) scf=(maxcycle=1)
 ----------------------------------------------------------------------
 -----
 title
 -----
 Structure from the checkpoint file:  "BDE49_nonexpt_2072_mol2.chk"
 Charge =  0 Multiplicity = 2

                         Standard orientation:
 ---------------------------------------------------------------------
 Center     Atomic      Atomic             Coordinates (Angstroms)
 Number     Number       Type             X           Y           Z
 ---------------------------------------------------------------------
      1         14           0        1.803244   -0.357833    0.047446
      2          6           0        0.005933    0.243757    0.374576
      3          8           0       -0.847188   -0.627480   -0.330545
      4          8           0       -0.167555    1.602957   -0.004532
      5          6           0       -2.228317   -0.494107    0.014344
      6          1           0       -2.393124   -0.758638    1.066818
      7          1           0       -2.778990   -1.186594   -0.621353
      8          1           0       -2.579587    0.526622   -0.160097
      9          1           0        0.058954    1.674952   -0.939752
     10          1           0       -0.234995    0.232779    1.445359
     11          1           0        2.173574    0.042307   -1.337489
     12          1           0        1.961004   -1.823479    0.229374
 ---------------------------------------------------------------------

 SCF Done:  E(UHF) =  -518.524842142     A.U. after    2 cycles

 The electronic state is 2-A.
 Alpha  occ. eigenvalues --  -69.07518 -20.58666 -20.58538 -11.33999 -11.28731
 Alpha  occ. eigenvalues --   -6.82921  -3.94271  -3.93368  -3.93356  -1.37278
 Alpha  occ. eigenvalues --   -1.30520  -0.96826  -0.87489  -0.74223  -0.70476
 Alpha  occ. eigenvalues --   -0.68501  -0.63250  -0.61301  -0.59060  -0.55475
 Alpha  occ. eigenvalues --   -0.50307  -0.48746  -0.46625  -0.43201  -0.33058
 Alpha virt. eigenvalues --    0.03443   0.04540   0.04776   0.05465   0.06392
 Alpha virt. eigenvalues --    0.07086   0.07243   0.08112   0.09089   0.09686
 Alpha virt. eigenvalues --    0.12243   0.13904   0.14585   0.15373   0.15906

  Beta  occ. eigenvalues --  -69.06947 -20.58677 -20.58439 -11.33942 -11.28700
  Beta  occ. eigenvalues --   -6.82067  -3.92969  -3.92967  -3.92071  -1.37117
  Beta  occ. eigenvalues --   -1.30419  -0.96499  -0.87289  -0.72768  -0.69445
  Beta  occ. eigenvalues --   -0.68357  -0.61679  -0.60770  -0.58831  -0.55373
  Beta  occ. eigenvalues --   -0.50168  -0.47941  -0.46461  -0.42418
  Beta virt. eigenvalues --    0.02950   0.03743   0.04686   0.05162   0.05710
  Beta virt. eigenvalues --    0.06581   0.07190   0.07979   0.09115   0.09460
  Beta virt. eigenvalues --    0.09982   0.12404   0.14147   0.14707   0.16037

 Mulliken charges and spin densities:
               1          2
     1  Si   0.343409   0.994486
     2  C    0.696597  -0.020945
     3  O   -0.646679  -0.015198
     4  O   -0.547576   0.000951
     5  C    0.671912   0.005811
     6  H   -0.088400  -0.001042
     7  H   -0.253513  -0.000749
     8  H   -0.033827  -0.000622
     9  H    0.138939  -0.001873
    10  H   -0.211701   0.007216
    11  H   -0.062882   0.003482
    12  H   -0.006280   0.028482
 Sum of Mulliken charges =  -0.00000   1.00000

 Dipole moment (field-independent basis, Debye):
    X=             -0.6179    Y=             -0.3620    Z=              0.0790  Tot=              0.7205
                          Isotropic Fermi Contact Couplings
        Atom                 a.u.       MegaHertz       Gauss      10(-4) cm-1
     1  Si(29)             0.53130    -472.17809    -168.48488    -157.50166
     2  C(13)              0.02187      24.58261       8.77169       8.19988
     3  O(17)              0.05135     -31.12697     -11.10688     -10.38284
     4  O(17)             -0.00231       1.40147       0.50008       0.46748
     5  C(13)              0.00479       5.38775       1.92248       1.79716
     6  H(1)              -0.00023      -1.02659      -0.36631      -0.34243
     7  H(1)              -0.00001      -0.06586      -0.02350      -0.02197
     8  H(1)              -0.00019      -0.84237      -0.30058      -0.28098

 Normal termination of Gaussian 16 at Tue Apr  8 23:57:40 2025.
