 Gaussian 16, Revision C.01,

 ----------------------------------------------------------------------
 #t hf aug-cc-pvdz symm=none int=(grid=ultrafine) guess=(read,tcheck) s
 table=(opt,rrhf)
 ----------------------------------------------------------------------
 -----
 title
 -----
 Symbolic Z-matrix:
 Charge =  0 Multiplicity = 1

 SCF Done:  E(RHF) =  -588.307248662     A.U. after   15 cycles
 Normal termination of Gaussian 16 at Tue Apr  8 23:36:30 2025.
 Gaussian 16:  ES64L-G16RevC.01  3-Jul-2019

 ----------------------------------------------------------------------
 #t hf aug-cc-pvdz iop(5/13=1,5/36=2,99/5=2) pseudo=read geom=check gue
 ss=(read,tcheck) scf=(maxcycle=1)
 ----------------------------------------------------------------------
 -----
 title
 -----
 Structure from the checkpoint file:  "BDE49_nonexpt_1549_mol1.chk"
 Charge =  0 Multiplicity = 1

                         Standard orientation:
 ---------------------------------------------------------------------
 Center     Atomic      Atomic             Coordinates (Angstroms)
 Number     Number       Type             X           Y           Z
 ---------------------------------------------------------------------
      1          6           0        1.827884    0.055648    0.075500
      2          7           0       -0.999763   -0.113823   -0.203623
      3          6           0       -1.856379   -0.215750    0.977554
      4          1           0       -1.776497   -1.214524    1.409758
      5          1           0       -2.900654   -0.050212    0.690576
      6          1           0       -1.591854    0.517600    1.751300
      7          6           0       -1.077216    1.175803   -0.889508
      8          1           0       -2.127944    1.428979   -1.064485
      9          1           0       -0.580756    1.110545   -1.859655
     10          1           0       -0.610342    1.983599   -0.313876
     11          8           0        1.751335    1.072811    0.720507
     12         15           0        0.384346   -1.082534   -0.263964
     13          1           0        2.811447   -0.314528   -0.311286
     14          1           0        0.633335   -1.103385   -1.662847
 ---------------------------------------------------------------------

 SCF Done:  E(RHF) =  -588.414234737     A.U. after    2 cycles

 The electronic state is 1-A.
 Alpha  occ. eigenvalues --  -81.28988 -20.58299 -15.62971 -11.34690 -11.26876
 Alpha  occ. eigenvalues --  -11.26644  -7.79084  -4.93247  -4.92976  -4.92802
 Alpha  occ. eigenvalues --   -1.36504  -1.18394  -0.96131  -0.90686  -0.84749
 Alpha  occ. eigenvalues --   -0.74273  -0.67696  -0.65314  -0.63563  -0.61916
 Alpha  occ. eigenvalues --   -0.58259  -0.56321  -0.54623  -0.52720  -0.51635
 Alpha  occ. eigenvalues --   -0.44397  -0.37425  -0.34792
 Alpha virt. eigenvalues --    0.03393   0.04067   0.04735   0.05490   0.06555
 Alpha virt. eigenvalues --    0.07345   0.07519   0.08340   0.08770   0.09862
 Alpha virt. eigenvalues --    0.10283   0.11330   0.13192   0.14102   0.14676

 Mulliken charges:
               1
     1  C    0.248793
     2  N   -0.721876
     3  C    0.734458
     4  H   -0.246429
     5  H   -0.164218
     6  H   -0.036384
     7  C    0.727148
     8  H   -0.180292
     9  H   -0.244630
    10  H   -0.023727
    11  O   -0.461729
    12  P    0.500894
    13  H   -0.200904
    14  H    0.068894
 Sum of Mulliken charges =  -0.00000

 Dipole moment (field-independent basis, Debye):
    X=             -1.0679    Y=             -1.0736    Z=             -1.5194  Tot=              2.1451

 Test job not archived.
 1\1\GINC-SE393\SP\RHF\Aug-CC-pVDZ\C3H8N1O1P1\OHZDE\08-Apr-2025\0\\#t h
 f aug-cc-pvdz iop(5/13=1,5/36=2,99/5=2) pseudo=read geom=check guess=(
 read,tcheck) scf=(maxcycle=1)\\title\\0,1\C,0,1.827884,0.055648,0.0755
 \N,0,-0.999763,-0.113823,-0.203623\C,0,-1.856379,-0.21575,0.977554\H,0
 ,-1.776497,-1.214524,1.409758\H,0,-2.900654,-0.050212,0.690576\H,0,-1.
 591854,0.5176,1.7513\C,0,-1.077216,1.175803,-0.889508\H,0,-2.127944,1.
 428979,-1.064485\H,0,-0.580756,1.110545,-1.859655\H,0,-0.610342,1.9835
 99,-0.313876\O,0,1.751335,1.072811,0.720507\P,0,0.384346,-1.082534,-0.

 Normal termination of Gaussian 16 at Tue Apr  8 23:36:34 2025.
