 Gaussian 16, Revision C.01,

 ----------------------------------------------------------------------
 #t hf aug-cc-pvdz symm=none int=(grid=ultrafine) guess=(read,tcheck) s
 table=(opt,rrhf)
 ----------------------------------------------------------------------
 -----
 title
 -----
 Symbolic Z-matrix:
 Charge =  0 Multiplicity = 1

 SCF Done:  E(RHF) =  -558.536281350     A.U. after   17 cycles
 Normal termination of Gaussian 16 at Wed Apr  9 00:25:28 2025.
 Gaussian 16:  ES64L-G16RevC.01  3-Jul-2019

 ----------------------------------------------------------------------
 #t hf aug-cc-pvdz iop(5/13=1,5/36=2,99/5=2) pseudo=read geom=check gue
 ss=(read,tcheck) scf=(maxcycle=1)
 ----------------------------------------------------------------------
 -----
 title
 -----
 Structure from the checkpoint file:  "BDE49_nonexpt_266_mol1.chk"
 Charge =  0 Multiplicity = 1

                         Standard orientation:
 ---------------------------------------------------------------------
 Center     Atomic      Atomic             Coordinates (Angstroms)
 Number     Number       Type             X           Y           Z
 ---------------------------------------------------------------------
      1          6           0        1.166028    2.146184    0.000300
      2          6           0       -0.128048    2.599840    0.000216
      3          6           0        1.446187    0.756274    0.000117
      4          6           0        0.362193   -0.185521   -0.000039
      5          6           0       -0.992891    0.304365   -0.000080
      6          6           0       -1.193715    1.677699   -0.000025
      7          1           0       -0.337531    3.663801    0.000338
      8          5           0       -2.289906   -0.579557   -0.000002
      9          8           0       -2.228655   -1.953048    0.001075
     10          8           0       -3.493825    0.086082   -0.000837
     11          1           0        1.997059    2.844596    0.000489
     12          6           0        2.786706    0.288929    0.000052
     13          6           0        3.067190   -1.053909   -0.000196
     14          6           0        2.007857   -1.987160   -0.000367
     15          6           0        0.698096   -1.568381   -0.000283
     16          1           0        2.230434   -3.048779   -0.000576
     17          1           0       -0.098310   -2.297124   -0.000361
     18          1           0        3.589392    1.019446    0.000178
     19          1           0        4.094841   -1.399907   -0.000270
     20          1           0       -2.209648    2.053669   -0.000163
     21          1           0       -4.273215   -0.475076   -0.001649
     22          1           0       -3.081265   -2.397033    0.001937
 ---------------------------------------------------------------------

 SCF Done:  E(RHF) =  -558.704844978     A.U. after    2 cycles

 The electronic state is 1-A.
 Alpha  occ. eigenvalues --  -20.59123 -20.58739 -11.25136 -11.24804 -11.24585
 Alpha  occ. eigenvalues --  -11.24341 -11.24058 -11.23853 -11.23834 -11.23755
 Alpha  occ. eigenvalues --  -11.23091 -11.22250  -7.66600  -1.35381  -1.31340
 Alpha  occ. eigenvalues --   -1.15724  -1.09541  -1.03586  -0.99688  -0.97199
 Alpha  occ. eigenvalues --   -0.85131  -0.83414  -0.82222  -0.77164  -0.76018
 Alpha  occ. eigenvalues --   -0.70120  -0.69002  -0.67684  -0.66339  -0.61165
 Alpha  occ. eigenvalues --   -0.60203  -0.59907  -0.58167  -0.57187  -0.55925
 Alpha  occ. eigenvalues --   -0.54797  -0.53268  -0.52713  -0.51509  -0.48326
 Alpha  occ. eigenvalues --   -0.45985  -0.44500  -0.38181  -0.31606  -0.28763
 Alpha virt. eigenvalues --    0.02346   0.03795   0.04004   0.05043   0.05263
 Alpha virt. eigenvalues --    0.05627   0.06689   0.06783   0.06871   0.07584
 Alpha virt. eigenvalues --    0.09000   0.09261   0.09730   0.10326   0.10805

 Mulliken charges:
               1
     1  C    0.556098
     2  C    0.044333
     3  C    0.743028
     4  C    0.604437
     5  C   -0.321592
     6  C    0.154582
     7  H   -0.435084
     8  B    0.674295
     9  O   -0.471598
    10  O   -0.536575
    11  H   -0.590632
    12  C    1.137715
    13  C    0.246635
    14  C    0.051666
    15  C    0.716776
    16  H   -0.487684
    17  H   -0.672197
    18  H   -0.572553
    19  H   -0.438303
    20  H   -0.689854
    21  H    0.127510
    22  H    0.158998
 Sum of Mulliken charges =   0.00000

 Dipole moment (field-independent basis, Debye):
    X=             -2.1042    Y=             -1.0292    Z=             -0.0001  Tot=              2.3424

 Test job not archived.
 1\1\GINC-SE150\SP\RHF\Aug-CC-pVDZ\C10H9B1O2\OHZDE\09-Apr-2025\0\\#t hf
  aug-cc-pvdz iop(5/13=1,5/36=2,99/5=2) pseudo=read geom=check guess=(r
 ead,tcheck) scf=(maxcycle=1)\\title\\0,1\C,0,-1.166028,2.146184,-0.000
 3\C,0,0.128048,2.59984,-0.000216\C,0,-1.446187,0.756274,-0.000117\C,0,
 -0.362193,-0.185521,0.000039\C,0,0.992891,0.304365,0.00008\C,0,1.19371
 5,1.677699,0.000025\H,0,0.337531,3.663801,-0.000338\B,0,2.289906,-0.57
 9557,0.000002\O,0,2.228655,-1.953048,-0.001075\O,0,3.493825,0.086083,0
 .000837\H,0,-1.997059,2.844596,-0.000489\C,0,-2.786706,0.288929,-0.000

 Normal termination of Gaussian 16 at Wed Apr  9 00:25:47 2025.
