 Gaussian 16, Revision C.01,

 ----------------------------------------------------------------------
 #t hf aug-cc-pvdz symm=none int=(grid=ultrafine) guess=(read,tcheck) s
 table=(opt,rrhf)
 ----------------------------------------------------------------------
 -----
 title
 -----
 Symbolic Z-matrix:
 Charge =  0 Multiplicity = 1

 SCF Done:  E(RHF) =  -487.961157441     A.U. after   13 cycles
 Normal termination of Gaussian 16 at Wed Apr  9 00:32:19 2025.
 Gaussian 16:  ES64L-G16RevC.01  3-Jul-2019

 ----------------------------------------------------------------------
 #t hf aug-cc-pvdz iop(5/13=1,5/36=2,99/5=2) pseudo=read geom=check gue
 ss=(read,tcheck) scf=(maxcycle=1)
 ----------------------------------------------------------------------
 -----
 title
 -----
 Structure from the checkpoint file:  "BDE49_nonexpt_414_mol1.chk"
 Charge =  0 Multiplicity = 1

                         Standard orientation:
 ---------------------------------------------------------------------
 Center     Atomic      Atomic             Coordinates (Angstroms)
 Number     Number       Type             X           Y           Z
 ---------------------------------------------------------------------
      1          9           0        0.399951    1.590428    1.133061
      2          5           0        0.237056    0.930100    0.000000
      3          9           0        0.399951    1.590428   -1.133061
      4          6           0       -0.135040   -0.623834   -0.000000
      5          8           0        0.399951   -1.310296   -1.097401
      6          1           0        0.097070   -0.858274   -1.892552
      7          8           0       -1.545880   -0.657671   -0.000000
      8          1           0       -1.800468   -1.592549   -0.000000
      9          8           0        0.399951   -1.310296    1.097401
     10          1           0        0.097070   -0.858274    1.892552
 ---------------------------------------------------------------------

 SCF Done:  E(RHF) =  -488.135927431     A.U. after    2 cycles

 The electronic state is 1-A'.
 Alpha  occ. eigenvalues --  -26.16244 -26.16238 -20.61007 -20.60621 -20.60618
 Alpha  occ. eigenvalues --  -11.41685  -7.76246  -1.71570  -1.69398  -1.43362
 Alpha  occ. eigenvalues --   -1.32993  -1.32854  -0.93872  -0.89281  -0.84571
 Alpha  occ. eigenvalues --   -0.84142  -0.79565  -0.77958  -0.74440  -0.74171
 Alpha  occ. eigenvalues --   -0.70522  -0.70050  -0.66498  -0.64509  -0.57159
 Alpha  occ. eigenvalues --   -0.55533  -0.52076  -0.49069
 Alpha virt. eigenvalues --    0.03206   0.04578   0.04896   0.05582   0.06649
 Alpha virt. eigenvalues --    0.07481   0.09556   0.11700   0.12393   0.14599
 Alpha virt. eigenvalues --    0.15704   0.18509   0.19061   0.20258   0.21628

 Mulliken charges:
               1
     1  F   -0.388795
     2  B    0.786759
     3  F   -0.388795
     4  C    1.244568
     5  O   -0.535333
     6  H    0.140136
     7  O   -0.554790
     8  H    0.091446
     9  O   -0.535333
    10  H    0.140136
 Sum of Mulliken charges =  -0.00000

 Dipole moment (field-independent basis, Debye):
    X=             -1.4118    Y=             -0.0922    Z=              0.0000  Tot=              1.4148

 Test job not archived.
 1\1\GINC-SE284\SP\RHF\Aug-CC-pVDZ\C1H3B1F2O3\OHZDE\09-Apr-2025\0\\#t h
 f aug-cc-pvdz iop(5/13=1,5/36=2,99/5=2) pseudo=read geom=check guess=(
 read,tcheck) scf=(maxcycle=1)\\title\\0,1\F,0,-0.399951,1.590428,-1.13
 3061\B,0,-0.237056,0.9301,0.\F,0,-0.399951,1.590428,1.133061\C,0,0.135
 04,-0.623834,0.\O,0,-0.399951,-1.310296,1.097401\H,0,-0.09707,-0.85827
 4,1.892552\O,0,1.54588,-0.657671,0.\H,0,1.800468,-1.592549,0.\O,0,-0.3
 99951,-1.310296,-1.097401\H,0,-0.09707,-0.858274,-1.892552\\Version=ES
 64L-G16RevC.01\State=1-A'\HF=-488.1359274\RMSD=4.464e-03\Dipole=0.5554

 Normal termination of Gaussian 16 at Wed Apr  9 00:32:23 2025.
