 Gaussian 16, Revision C.01,

 ----------------------------------------------------------------------
 #t hf aug-cc-pvdz symm=none int=(grid=ultrafine) guess=(read,tcheck) s
 table=(opt,rrhf)
 ----------------------------------------------------------------------
 -----
 title
 -----
 Symbolic Z-matrix:
 Charge =  0 Multiplicity = 1

 SCF Done:  E(RHF) =  -1138.69296004     A.U. after   18 cycles
 Normal termination of Gaussian 16 at Tue Apr  8 23:23:04 2025.
 Gaussian 16:  ES64L-G16RevC.01  3-Jul-2019

 ----------------------------------------------------------------------
 #t hf aug-cc-pvdz iop(5/13=1,5/36=2,99/5=2) pseudo=read geom=check gue
 ss=(read,tcheck) scf=(maxcycle=1)
 ----------------------------------------------------------------------
 -----
 title
 -----
 Structure from the checkpoint file:  "BDE49_nonexpt_1248_mol1.chk"
 Charge =  0 Multiplicity = 1

                         Standard orientation:
 ---------------------------------------------------------------------
 Center     Atomic      Atomic             Coordinates (Angstroms)
 Number     Number       Type             X           Y           Z
 ---------------------------------------------------------------------
      1         17           0       -2.497456   -0.812924   -0.733005
      2         15           0       -1.368207   -0.012136    0.845085
      3          7           0       -1.186742    1.707416    0.216044
      4          7           0       -0.018007    1.972290   -0.125614
      5          6           0        0.339844   -0.346707    0.338544
      6          6           0        0.896026    0.872609   -0.077112
      7          6           0        2.235061    0.989673   -0.424325
      8          1           0        2.630473    1.949687   -0.732560
      9          6           0        3.030976   -0.153681   -0.361664
     10          1           0        4.078151   -0.095765   -0.634083
     11          6           0        2.491085   -1.373531    0.052320
     12          1           0        3.123998   -2.252529    0.091977
     13          6           0        1.146345   -1.476587    0.418896
     14          1           0        0.744453   -2.428241    0.746516
 ---------------------------------------------------------------------

 SCF Done:  E(RHF) =  -1138.82859156     A.U. after    2 cycles

 The electronic state is 1-A.
 Alpha  occ. eigenvalues -- -103.66970 -81.34914 -15.72304 -15.70885 -11.30622
 Alpha  occ. eigenvalues --  -11.28597 -11.28053 -11.28004 -11.27923 -11.27804
 Alpha  occ. eigenvalues --  -10.70274  -8.35978  -8.35690  -8.35675  -7.84635
 Alpha  occ. eigenvalues --   -4.98507  -4.98453  -4.98127  -1.34351  -1.17619
 Alpha  occ. eigenvalues --   -1.14928  -1.05690  -1.04801  -0.93796  -0.88033
 Alpha  occ. eigenvalues --   -0.81954  -0.78812  -0.68822  -0.68532  -0.66867
 Alpha  occ. eigenvalues --   -0.63672  -0.60521  -0.59160  -0.56256  -0.54184
 Alpha  occ. eigenvalues --   -0.52588  -0.51467  -0.49769  -0.48646  -0.40949
 Alpha  occ. eigenvalues --   -0.38388  -0.36166  -0.35800
 Alpha virt. eigenvalues --    0.02224   0.02634   0.03650   0.04662   0.05836
 Alpha virt. eigenvalues --    0.06547   0.07302   0.07562   0.09172   0.10186
 Alpha virt. eigenvalues --    0.11163   0.12119   0.12476   0.12595   0.13241

 Mulliken charges:
               1
     1  Cl  -0.422786
     2  P    0.837609
     3  N   -0.472828
     4  N   -0.714505
     5  C   -0.322957
     6  C    0.305131
     7  C    1.021552
     8  H   -0.479062
     9  C    0.341405
    10  H   -0.408631
    11  C    0.654987
    12  H   -0.434208
    13  C    0.557524
    14  H   -0.463231
 Sum of Mulliken charges =   0.00000

 Dipole moment (field-independent basis, Debye):
    X=              3.8826    Y=             -2.3001    Z=              0.7862  Tot=              4.5807

 Test job not archived.
 1\1\GINC-SE460\SP\RHF\Aug-CC-pVDZ\C6H4Cl1N2P1\OHZDE\08-Apr-2025\0\\#t
 hf aug-cc-pvdz iop(5/13=1,5/36=2,99/5=2) pseudo=read geom=check guess=
 (read,tcheck) scf=(maxcycle=1)\\title\\0,1\Cl,0,-2.497456,-0.812924,-0
 .733005\P,0,-1.368207,-0.012136,0.845085\N,0,-1.186742,1.707416,0.2160
 44\N,0,-0.018007,1.97229,-0.125614\C,0,0.339844,-0.346707,0.338544\C,0
 ,0.896026,0.872609,-0.077112\C,0,2.235061,0.989673,-0.424325\H,0,2.630
 473,1.949687,-0.73256\C,0,3.030976,-0.153681,-0.361664\H,0,4.078151,-0
 .095765,-0.634083\C,0,2.491085,-1.373531,0.05232\H,0,3.123998,-2.25252

 Normal termination of Gaussian 16 at Tue Apr  8 23:23:12 2025.
