 Gaussian 16, Revision C.01,

 ----------------------------------------------------------------------
 #t hf aug-cc-pvdz symm=none int=(grid=ultrafine) guess=(read,tcheck) s
 table=(opt,rrhf)
 ----------------------------------------------------------------------
 -----
 title
 -----
 Symbolic Z-matrix:
 Charge =  0 Multiplicity = 1

 SCF Done:  E(RHF) =  -784.890273340     A.U. after   13 cycles
 Normal termination of Gaussian 16 at Wed Apr  9 00:10:50 2025.
 Gaussian 16:  ES64L-G16RevC.01  3-Jul-2019

 ----------------------------------------------------------------------
 #t hf aug-cc-pvdz iop(5/13=1,5/36=2,99/5=2) pseudo=read geom=check gue
 ss=(read,tcheck) scf=(maxcycle=1)
 ----------------------------------------------------------------------
 -----
 title
 -----
 Structure from the checkpoint file:  "BDE49_nonexpt_2403_mol1.chk"
 Charge =  0 Multiplicity = 1

                         Standard orientation:
 ---------------------------------------------------------------------
 Center     Atomic      Atomic             Coordinates (Angstroms)
 Number     Number       Type             X           Y           Z
 ---------------------------------------------------------------------
      1         14           0       -1.846970   -0.818189    0.000001
      2         14           0       -0.515804    1.131127   -0.000001
      3          1           0       -3.264424   -0.378860   -0.000000
      4          1           0       -1.599770   -1.634641    1.210281
      5          8           0        1.146916    0.765426   -0.000006
      6          1           0       -0.767700    1.953101    1.204651
      7          1           0       -0.767704    1.953102   -1.204652
      8          7           0        1.512665   -0.644462   -0.000001
      9          8           0        2.664277   -0.781420    0.000007
     10          1           0       -1.599769   -1.634645   -1.210276
 ---------------------------------------------------------------------

 SCF Done:  E(RHF) =  -785.002861360     A.U. after    2 cycles

 The electronic state is 1-A.
 Alpha  occ. eigenvalues --  -69.10957 -69.07321 -20.69014 -20.62150 -15.87083
 Alpha  occ. eigenvalues --   -6.85834  -6.82751  -3.96715  -3.96555  -3.96551
 Alpha  occ. eigenvalues --   -3.93511  -3.93506  -3.93489  -1.56638  -1.32749
 Alpha  occ. eigenvalues --   -0.93765  -0.79761  -0.74955  -0.72556  -0.69823
 Alpha  occ. eigenvalues --   -0.65635  -0.57507  -0.56566  -0.49924  -0.49581
 Alpha  occ. eigenvalues --   -0.47357  -0.47003  -0.41242
 Alpha virt. eigenvalues --    0.03588   0.04162   0.05988   0.05999   0.06824
 Alpha virt. eigenvalues --    0.07045   0.07108   0.07602   0.08840   0.08978
 Alpha virt. eigenvalues --    0.09919   0.10051   0.11885   0.13869   0.14438

 Mulliken charges:
               1
     1  Si  -0.163422
     2  Si   0.716541
     3  H   -0.001160
     4  H    0.033910
     5  O   -0.888768
     6  H    0.024677
     7  H    0.024677
     8  N    0.517551
     9  O   -0.297916
    10  H    0.033911
 Sum of Mulliken charges =  -0.00000

 Dipole moment (field-independent basis, Debye):
    X=             -2.0908    Y=             -0.0851    Z=              0.0000  Tot=              2.0925

 Test job not archived.
 1\1\GINC-SE080\SP\RHF\Aug-CC-pVDZ\H5N1O2Si2\OHZDE\09-Apr-2025\0\\#t hf
  aug-cc-pvdz iop(5/13=1,5/36=2,99/5=2) pseudo=read geom=check guess=(r
 ead,tcheck) scf=(maxcycle=1)\\title\\0,1\Si,0,-1.84697,-0.81819,0.0000
 01\Si,0,-0.515804,1.131127,-0.000001\H,0,-3.264424,-0.378861,0.\H,0,-1
 .59977,-1.634641,1.210281\O,0,1.146916,0.765426,-0.000006\H,0,-0.7677,
 1.953101,1.204651\H,0,-0.767704,1.953102,-1.204652\N,0,1.512665,-0.644
 462,-0.000001\O,0,2.664277,-0.78142,0.000007\H,0,-1.599769,-1.634645,-
 1.210276\\Version=ES64L-G16RevC.01\State=1-A\HF=-785.0028614\RMSD=4.78

 Normal termination of Gaussian 16 at Wed Apr  9 00:10:53 2025.
