 Gaussian 16, Revision C.01,

 ----------------------------------------------------------------------
 #t hf aug-cc-pvdz symm=none int=(grid=ultrafine) guess=(read,tcheck) s
 table=(opt,rrhf)
 ----------------------------------------------------------------------
 -----
 title
 -----
 Symbolic Z-matrix:
 Charge =  0 Multiplicity = 1

 SCF Done:  E(RHF) =  -312.664035537     A.U. after   14 cycles
 Normal termination of Gaussian 16 at Tue Apr  8 23:17:48 2025.
 Gaussian 16:  ES64L-G16RevC.01  3-Jul-2019

 ----------------------------------------------------------------------
 #t hf aug-cc-pvdz iop(5/13=1,5/36=2,99/5=2) pseudo=read geom=check gue
 ss=(read,tcheck) scf=(maxcycle=1)
 ----------------------------------------------------------------------
 -----
 title
 -----
 Structure from the checkpoint file:  "BDE49_nonexpt_1108_mol1.chk"
 Charge =  0 Multiplicity = 1

                         Standard orientation:
 ---------------------------------------------------------------------
 Center     Atomic      Atomic             Coordinates (Angstroms)
 Number     Number       Type             X           Y           Z
 ---------------------------------------------------------------------
      1          9           0        1.436698   -0.479145    0.120618
      2          8           0        0.587529    0.585004   -0.372471
      3          6           0       -0.604757    0.471902    0.313381
      4          9           0       -1.386733   -0.549077   -0.162706
      5          1           0       -1.090513    1.430856    0.099361
      6          1           0       -0.430862    0.311693    1.378911
 ---------------------------------------------------------------------

 SCF Done:  E(RHF) =  -312.775009912     A.U. after    2 cycles

 The electronic state is 1-A.
 Alpha  occ. eigenvalues --  -26.18068 -26.14155 -20.73020 -11.41785  -1.69051
 Alpha  occ. eigenvalues --   -1.67483  -1.36483  -0.98445  -0.81681  -0.81465
 Alpha  occ. eigenvalues --   -0.81246  -0.75766  -0.74630  -0.70179  -0.63809
 Alpha  occ. eigenvalues --   -0.59785  -0.57401
 Alpha virt. eigenvalues --    0.03260   0.04956   0.08106   0.09032   0.09448
 Alpha virt. eigenvalues --    0.14792   0.16409   0.20366   0.20735   0.22964
 Alpha virt. eigenvalues --    0.23491   0.25328   0.28426   0.29351   0.30901

 Mulliken charges:
               1
     1  F   -0.322314
     2  O   -0.145312
     3  C    1.040736
     4  F   -0.356693
     5  H   -0.128866
     6  H   -0.087552
 Sum of Mulliken charges =   0.00000

 Dipole moment (field-independent basis, Debye):
    X=             -1.2540    Y=              2.2986    Z=              1.4522  Tot=              2.9942

 Test job not archived.
 1\1\GINC-SE435\SP\RHF\Aug-CC-pVDZ\C1H2F2O1\OHZDE\08-Apr-2025\0\\#t hf
 aug-cc-pvdz iop(5/13=1,5/36=2,99/5=2) pseudo=read geom=check guess=(re
 ad,tcheck) scf=(maxcycle=1)\\title\\0,1\F,0,1.436698,-0.479145,0.12061
 8\O,0,0.587529,0.585004,-0.372471\C,0,-0.604757,0.471902,0.313381\F,0,
 -1.386733,-0.549076,-0.162706\H,0,-1.090513,1.430856,0.099361\H,0,-0.4
 30862,0.311693,1.378911\\Version=ES64L-G16RevC.01\State=1-A\HF=-312.77
 50099\RMSD=4.737e-03\Dipole=-0.4933773,0.9043395,0.571341\Quadrupole=-
 2.0369382,0.9172486,1.1196896,-1.8009302,-0.5574008,0.1843595\PG=C01 [

 Normal termination of Gaussian 16 at Tue Apr  8 23:17:50 2025.
