 Gaussian 16, Revision C.01,

 ----------------------------------------------------------------------
 #t hf aug-cc-pvdz symm=none int=(grid=ultrafine) guess=(read,tcheck) s
 table=(opt,rrhf)
 ----------------------------------------------------------------------
 -----
 title
 -----
 Symbolic Z-matrix:
 Charge =  0 Multiplicity = 1

 SCF Done:  E(RHF) =  -834.513591245     A.U. after   12 cycles
 Normal termination of Gaussian 16 at Wed Apr  9 00:13:15 2025.
 Gaussian 16:  ES64L-G16RevC.01  3-Jul-2019

 ----------------------------------------------------------------------
 #t hf aug-cc-pvdz iop(5/13=1,5/36=2,99/5=2) pseudo=read geom=check gue
 ss=(read,tcheck) scf=(maxcycle=1)
 ----------------------------------------------------------------------
 -----
 title
 -----
 Structure from the checkpoint file:  "BDE49_nonexpt_2454_mol1.chk"
 Charge =  0 Multiplicity = 1

                         Standard orientation:
 ---------------------------------------------------------------------
 Center     Atomic      Atomic             Coordinates (Angstroms)
 Number     Number       Type             X           Y           Z
 ---------------------------------------------------------------------
      1         14           0        2.816503    0.239961   -0.000015
      2         14           0        0.881141   -1.102543    0.000031
      3          5           0       -0.795310    0.070096   -0.000023
      4          1           0        0.913531   -2.001668    1.187913
      5          1           0        0.913556   -2.001770   -1.187775
      6          1           0        2.848282    1.106019   -1.203790
      7          1           0        4.046951   -0.591359    0.000023
      8          8           0       -2.091186   -0.347288   -0.000058
      9          8           0       -0.548456    1.408239    0.000004
     10          6           0       -2.505421   -1.708305    0.000027
     11          1           0       -3.113806   -1.892398   -0.888133
     12          1           0       -3.112331   -1.892819    0.889114
     13          1           0       -1.656102   -2.397119   -0.000847
     14          6           0       -1.614852    2.366190   -0.000001
     15          1           0       -1.157671    3.355033    0.000056
     16          1           0       -2.241228    2.250317    0.887665
     17          1           0       -2.241152    2.250386   -0.887730
     18          1           0        2.848272    1.106117    1.203689
 ---------------------------------------------------------------------

 SCF Done:  E(RHF) =  -834.643539297     A.U. after    2 cycles

 The electronic state is 1-A.
 Alpha  occ. eigenvalues --  -69.04978 -69.04147 -20.58338 -20.57603 -11.30121
 Alpha  occ. eigenvalues --  -11.28873  -7.65917  -6.80358  -6.79731  -3.91117
 Alpha  occ. eigenvalues --   -3.91115  -3.91091  -3.90474  -3.90454  -3.90406
 Alpha  occ. eigenvalues --   -1.35044  -1.31473  -0.95511  -0.93997  -0.75117
 Alpha  occ. eigenvalues --   -0.72236  -0.69753  -0.66950  -0.66155  -0.63001
 Alpha  occ. eigenvalues --   -0.62923  -0.60979  -0.52757  -0.51049  -0.50777
 Alpha  occ. eigenvalues --   -0.48327  -0.47213  -0.46836  -0.45859  -0.41714
 Alpha  occ. eigenvalues --   -0.37919
 Alpha virt. eigenvalues --    0.03238   0.04278   0.04624   0.05021   0.05553
 Alpha virt. eigenvalues --    0.05951   0.06901   0.07128   0.07198   0.08404
 Alpha virt. eigenvalues --    0.08857   0.08920   0.09792   0.09849   0.10351

 Mulliken charges:
               1
     1  Si  -0.346528
     2  Si  -1.013804
     3  B    0.922994
     4  H    0.222067
     5  H    0.222075
     6  H    0.079057
     7  H    0.037108
     8  O   -0.549157
     9  O   -0.424604
    10  C    0.905145
    11  H   -0.148342
    12  H   -0.148305
    13  H   -0.176466
    14  C    0.911054
    15  H   -0.290573
    16  H   -0.140415
    17  H   -0.140403
    18  H    0.079098
 Sum of Mulliken charges =  -0.00000

 Dipole moment (field-independent basis, Debye):
    X=             -2.3647    Y=             -0.5355    Z=              0.0001  Tot=              2.4245

 Test job not archived.
 1\1\GINC-SE393\SP\RHF\Aug-CC-pVDZ\C2H11B1O2Si2\OHZDE\09-Apr-2025\0\\#t
  hf aug-cc-pvdz iop(5/13=1,5/36=2,99/5=2) pseudo=read geom=check guess
 =(read,tcheck) scf=(maxcycle=1)\\title\\0,1\Si,0,2.816503,0.239961,-0.
 000015\Si,0,0.881141,-1.102543,0.000031\B,0,-0.79531,0.070096,-0.00002
 3\H,0,0.913531,-2.001668,1.187913\H,0,0.913556,-2.00177,-1.187775\H,0,
 2.848282,1.106019,-1.20379\H,0,4.046951,-0.591359,0.000023\O,0,-2.0911
 86,-0.347288,-0.000058\O,0,-0.548456,1.408239,0.000004\C,0,-2.505421,-
 1.708305,0.000027\H,0,-3.113806,-1.892398,-0.888133\H,0,-3.112331,-1.8

 Normal termination of Gaussian 16 at Wed Apr  9 00:13:22 2025.
