 Gaussian 16, Revision C.01,

 ----------------------------------------------------------------------
 #t hf aug-cc-pvdz symm=none int=(grid=ultrafine) guess=(read,tcheck) s
 table=(opt,rrhf)
 ----------------------------------------------------------------------
 -----
 title
 -----
 Symbolic Z-matrix:
 Charge =  0 Multiplicity = 1

 SCF Done:  E(RHF) =  -584.887886460     A.U. after   14 cycles
 Normal termination of Gaussian 16 at Wed Apr  9 00:41:35 2025.
 Gaussian 16:  ES64L-G16RevC.01  3-Jul-2019

 ----------------------------------------------------------------------
 #t hf aug-cc-pvdz iop(5/13=1,5/36=2,99/5=2) pseudo=read geom=check gue
 ss=(read,tcheck) scf=(maxcycle=1)
 ----------------------------------------------------------------------
 -----
 title
 -----
 Structure from the checkpoint file:  "BDE49_nonexpt_681_mol1.chk"
 Charge =  0 Multiplicity = 1

                         Standard orientation:
 ---------------------------------------------------------------------
 Center     Atomic      Atomic             Coordinates (Angstroms)
 Number     Number       Type             X           Y           Z
 ---------------------------------------------------------------------
      1          8           0       -1.399928    0.000001   -0.680472
      2          7           0       -0.288210    0.000002    0.260477
      3          5           0       -2.630600    0.000008   -0.105513
      4          9           0       -3.671424   -0.000011   -0.926198
      5          9           0       -2.846060    0.000006    1.198119
      6          6           0        0.448376    1.196897    0.129155
      7          6           0        1.777806    1.232422    0.215552
      8          6           0        2.636660    0.000000    0.365492
      9          6           0        1.777804   -1.232421    0.215561
     10          6           0        0.448374   -1.196895    0.129164
     11          6           0        3.812701   -0.000004   -0.633602
     12          1           0       -0.164597   -2.082054    0.024102
     13          1           0       -0.164594    2.082056    0.024087
     14          1           0        2.269462    2.198967    0.200128
     15          1           0        3.444275   -0.000008   -1.662462
     16          1           0        4.441544   -0.883799   -0.493897
     17          1           0        2.269459   -2.198968    0.200143
     18          1           0        4.441545    0.883791   -0.493903
     19          1           0        3.079836    0.000003    1.374596
 ---------------------------------------------------------------------

 SCF Done:  E(RHF) =  -585.091046077     A.U. after    2 cycles

 The electronic state is 1-A.
 Alpha  occ. eigenvalues --  -26.14264 -26.13856 -20.63889 -15.71874 -11.28871
 Alpha  occ. eigenvalues --  -11.28865 -11.26286 -11.24966 -11.24963 -11.23661
 Alpha  occ. eigenvalues --   -7.76846  -1.69466  -1.67316  -1.40022  -1.20296
 Alpha  occ. eigenvalues --   -1.08304  -1.04345  -0.96413  -0.87823  -0.85626
 Alpha  occ. eigenvalues --   -0.85413  -0.83000  -0.79848  -0.77659  -0.73171
 Alpha  occ. eigenvalues --   -0.72655  -0.71539  -0.69832  -0.68228  -0.67570
 Alpha  occ. eigenvalues --   -0.62405  -0.61556  -0.60203  -0.57794  -0.54886
 Alpha  occ. eigenvalues --   -0.54831  -0.50602  -0.50023  -0.48443  -0.38638
 Alpha  occ. eigenvalues --   -0.32266
 Alpha virt. eigenvalues --    0.03153   0.03701   0.03953   0.04707   0.05518
 Alpha virt. eigenvalues --    0.05577   0.06628   0.06797   0.07646   0.07781
 Alpha virt. eigenvalues --    0.09582   0.10799   0.11311   0.11893   0.12672

 Mulliken charges:
               1
     1  O   -0.610026
     2  N   -0.528575
     3  B    1.060230
     4  F   -0.474915
     5  F   -0.380747
     6  C    0.883667
     7  C    0.817233
     8  C   -1.026444
     9  C    0.817227
    10  C    0.883667
    11  C    0.574388
    12  H   -0.467679
    13  H   -0.467680
    14  H   -0.439057
    15  H   -0.031138
    16  H   -0.079921
    17  H   -0.439054
    18  H   -0.079921
    19  H   -0.011253
 Sum of Mulliken charges =  -0.00000

 Dipole moment (field-independent basis, Debye):
    X=              2.8833    Y=              0.0000    Z=              0.3216  Tot=              2.9012

 Test job not archived.
 1\1\GINC-SE143\SP\RHF\Aug-CC-pVDZ\C6H8B1F2N1O1\OHZDE\09-Apr-2025\0\\#t
  hf aug-cc-pvdz iop(5/13=1,5/36=2,99/5=2) pseudo=read geom=check guess
 =(read,tcheck) scf=(maxcycle=1)\\title\\0,1\O,0,-1.399928,0.000001,-0.
 680472\N,0,-0.28821,0.000002,0.260477\B,0,-2.6306,0.000008,-0.105513\F
 ,0,-3.671424,-0.000011,-0.926198\F,0,-2.84606,0.000006,1.198119\C,0,0.
 448376,1.196897,0.129155\C,0,1.777806,1.232422,0.215552\C,0,2.63666,0.
 ,0.365492\C,0,1.777804,-1.232421,0.215561\C,0,0.448374,-1.196895,0.129
 164\C,0,3.812701,-0.000004,-0.633602\H,0,-0.164597,-2.082054,0.024102\

 Normal termination of Gaussian 16 at Wed Apr  9 00:41:47 2025.
