 Gaussian 16, Revision C.01,

 ----------------------------------------------------------------------
 #t hf aug-cc-pvdz symm=none int=(grid=ultrafine) guess=(read,tcheck) s
 table=(opt,rrhf)
 ----------------------------------------------------------------------
 -----
 title
 -----
 Symbolic Z-matrix:
 Charge =  0 Multiplicity = 1

 SCF Done:  E(RHF) =  -344.965041305     A.U. after   13 cycles

 1\1\GINC-SE398\Stability\RHF\Aug-CC-pVDZ\C5H10O2\OHZDE\08-Apr-2025\0\\
 #t hf aug-cc-pvdz symm=none int=(grid=ultrafine) guess=(read,tcheck) s
 table=(opt,rrhf)\\title\\0,1\C,0,-0.857681,-0.490735,0.08166\O,0,-1.92
 538,-0.545592,-0.754552\O,0,-0.7417,-1.235269,1.022314\H,0,-2.501802,-
 1.247874,-0.417487\C,0,0.096102,0.6276,-0.302362\C,0,1.509801,0.371941
 ,0.237478\C,0,2.213376,-0.83093,-0.397452\H,0,1.4488,0.232546,1.320846
 \H,0,2.103704,1.276081,0.065714\H,0,1.675238,-1.758234,-0.188458\H,0,3
 .226547,-0.941738,-0.002545\H,0,2.29203,-0.717873,-1.483572\C,0,-0.486

 Normal termination of Gaussian 16 at Tue Apr  8 22:42:01 2025.
 Gaussian 16:  ES64L-G16RevC.01  3-Jul-2019

 ----------------------------------------------------------------------
 #t hf aug-cc-pvdz iop(5/13=1,5/36=2,99/5=2) pseudo=read geom=check gue
 ss=(read,tcheck) scf=(maxcycle=1)
 ----------------------------------------------------------------------
 -----
 title
 -----
 Structure from the checkpoint file:  "BDE49_expt_1446_mol1.chk"
 Charge =  0 Multiplicity = 1

                         Standard orientation:
 ---------------------------------------------------------------------
 Center     Atomic      Atomic             Coordinates (Angstroms)
 Number     Number       Type             X           Y           Z
 ---------------------------------------------------------------------
      1          6           0       -0.857681   -0.490735    0.081660
      2          8           0       -1.925380   -0.545592   -0.754552
      3          8           0       -0.741700   -1.235269    1.022314
      4          1           0       -2.501802   -1.247874   -0.417487
      5          6           0        0.096102    0.627600   -0.302362
      6          6           0        1.509801    0.371941    0.237478
      7          6           0        2.213376   -0.830930   -0.397452
      8          1           0        1.448800    0.232546    1.320846
      9          1           0        2.103704    1.276081    0.065714
     10          1           0        1.675238   -1.758234   -0.188458
     11          1           0        3.226547   -0.941738   -0.002545
     12          1           0        2.292030   -0.717873   -1.483572
     13          6           0       -0.486568    1.962890    0.206817
     14          1           0        0.119512    0.663785   -1.396922
     15          1           0       -0.541862    1.968664    1.298908
     16          1           0       -1.488622    2.134848   -0.190604
     17          1           0        0.152913    2.792069   -0.104826
 ---------------------------------------------------------------------

 SCF Done:  E(RHF) =  -345.075201192     A.U. after    2 cycles

 The electronic state is 1-A.
 Alpha  occ. eigenvalues --  -20.62485 -20.56485 -11.39649 -11.25986 -11.24125
 Alpha  occ. eigenvalues --  -11.23595 -11.22432  -1.42463  -1.32631  -1.09221
 Alpha  occ. eigenvalues --   -0.99466  -0.90676  -0.85775  -0.77843  -0.71970
 Alpha  occ. eigenvalues --   -0.70382  -0.65319  -0.62683  -0.59791  -0.58665
 Alpha  occ. eigenvalues --   -0.58149  -0.54902  -0.52678  -0.50562  -0.49257
 Alpha  occ. eigenvalues --   -0.48307  -0.47495  -0.45755
 Alpha virt. eigenvalues --    0.03413   0.04116   0.04524   0.04992   0.06262
 Alpha virt. eigenvalues --    0.06705   0.07087   0.07237   0.09039   0.09549
 Alpha virt. eigenvalues --    0.10817   0.12322   0.12908   0.14306   0.14850

 Mulliken charges:
               1
     1  C    0.649409
     2  O   -0.529029
     3  O   -0.504149
     4  H    0.176566
     5  C   -0.900811
     6  C    0.572691
     7  C    0.412667
     8  H   -0.099135
     9  H   -0.123735
    10  H   -0.081024
    11  H   -0.048903
    12  H   -0.072260
    13  C    0.737884
    14  H   -0.074802
    15  H    0.002236
    16  H   -0.046512
    17  H   -0.071093
 Sum of Mulliken charges =  -0.00000

 Dipole moment (field-independent basis, Debye):
    X=             -0.0269    Y=              1.3945    Z=             -1.3021  Tot=              1.9081

 Test job not archived.
 1\1\GINC-SE398\SP\RHF\Aug-CC-pVDZ\C5H10O2\OHZDE\08-Apr-2025\0\\#t hf a
 ug-cc-pvdz iop(5/13=1,5/36=2,99/5=2) pseudo=read geom=check guess=(rea
 d,tcheck) scf=(maxcycle=1)\\title\\0,1\C,0,-0.857681,-0.490735,0.08166
 \O,0,-1.92538,-0.545592,-0.754552\O,0,-0.7417,-1.235269,1.022314\H,0,-
 2.501802,-1.247874,-0.417487\C,0,0.096102,0.6276,-0.302362\C,0,1.50980
 1,0.371941,0.237478\C,0,2.213376,-0.83093,-0.397452\H,0,1.4488,0.23254
 6,1.320846\H,0,2.103704,1.276081,0.065714\H,0,1.675238,-1.758234,-0.18
 8458\H,0,3.226547,-0.941738,-0.002545\H,0,2.29203,-0.717873,-1.483572\

 Normal termination of Gaussian 16 at Tue Apr  8 22:42:07 2025.
