 Gaussian 16, Revision C.01,

 ----------------------------------------------------------------------
 #t hf aug-cc-pvdz symm=none int=(grid=ultrafine) guess=(read,tcheck) s
 table=(opt,rrhf)
 ----------------------------------------------------------------------
 -----
 title
 -----
 Symbolic Z-matrix:
 Charge =  0 Multiplicity = 1

 SCF Done:  E(RHF) =  -205.450535599     A.U. after   12 cycles
 Normal termination of Gaussian 16 at Wed Apr  9 00:31:29 2025.
 Gaussian 16:  ES64L-G16RevC.01  3-Jul-2019

 ----------------------------------------------------------------------
 #t hf aug-cc-pvdz iop(5/13=1,5/36=2,99/5=2) pseudo=read geom=check gue
 ss=(read,tcheck) scf=(maxcycle=1)
 ----------------------------------------------------------------------
 -----
 title
 -----
 Structure from the checkpoint file:  "BDE49_nonexpt_3_mol1.chk"
 Charge =  0 Multiplicity = 1

                         Standard orientation:
 ---------------------------------------------------------------------
 Center     Atomic      Atomic             Coordinates (Angstroms)
 Number     Number       Type             X           Y           Z
 ---------------------------------------------------------------------
      1          5           0       -0.796531    0.574480    0.229974
      2          5           0        0.796535    0.574516   -0.229860
      3          6           0        1.945161   -0.285276    0.356631
      4          6           0       -1.945203   -0.285041   -0.356825
      5          6           0       -3.202831   -0.198870    0.107246
      6          6           0        3.202850   -0.198805   -0.107219
      7          1           0       -1.762173   -0.999693   -1.159238
      8          1           0       -3.457285    0.492625    0.905422
      9          1           0       -4.017063   -0.805844   -0.282314
     10          1           0        1.762049   -1.000374    1.158629
     11          1           0        3.457387    0.493136   -0.904983
     12          1           0        4.017050   -0.805965    0.282117
     13          1           0        1.124546    1.344911   -1.096371
     14          1           0       -1.124395    1.344170    1.097168
 ---------------------------------------------------------------------

 SCF Done:  E(RHF) =  -205.513992966     A.U. after    2 cycles

 The electronic state is 1-A.
 Alpha  occ. eigenvalues --  -11.26093 -11.26093 -11.22096 -11.22096  -7.58241
 Alpha  occ. eigenvalues --   -7.58156  -1.03195  -1.02858  -0.80615  -0.78978
 Alpha  occ. eigenvalues --   -0.69676  -0.66429  -0.62925  -0.58454  -0.56049
 Alpha  occ. eigenvalues --   -0.54426  -0.46540  -0.46293  -0.40971  -0.38548
 Alpha  occ. eigenvalues --   -0.38547
 Alpha virt. eigenvalues --    0.03484   0.04132   0.04596   0.04845   0.05546
 Alpha virt. eigenvalues --    0.05986   0.06337   0.06999   0.07002   0.07282
 Alpha virt. eigenvalues --    0.08153   0.08871   0.09009   0.11474   0.12148

 Mulliken charges:
               1
     1  B    0.029134
     2  B    0.029098
     3  C    0.525780
     4  C    0.525753
     5  C    0.314957
     6  C    0.314910
     7  H   -0.413392
     8  H   -0.318424
     9  H   -0.244610
    10  H   -0.413406
    11  H   -0.318422
    12  H   -0.244610
    13  H    0.106633
    14  H    0.106600
 Sum of Mulliken charges =  -0.00000

 Dipole moment (field-independent basis, Debye):
    X=             -0.0001    Y=             -0.7344    Z=             -0.0003  Tot=              0.7344

 Test job not archived.
 1\1\GINC-SE054\SP\RHF\Aug-CC-pVDZ\C4H8B2\OHZDE\09-Apr-2025\0\\#t hf au
 g-cc-pvdz iop(5/13=1,5/36=2,99/5=2) pseudo=read geom=check guess=(read
 ,tcheck) scf=(maxcycle=1)\\title\\0,1\B,0,-0.796531,0.57448,0.229974\B
 ,0,0.796535,0.574516,-0.22986\C,0,1.945161,-0.285276,0.356631\C,0,-1.9
 45203,-0.285041,-0.356825\C,0,-3.202831,-0.19887,0.107246\C,0,3.20285,
 -0.198805,-0.107219\H,0,-1.762173,-0.999693,-1.159238\H,0,-3.457285,0.
 492625,0.905422\H,0,-4.017063,-0.805844,-0.282314\H,0,1.762049,-1.0003
 74,1.158629\H,0,3.457387,0.493136,-0.904983\H,0,4.01705,-0.805965,0.28

 Normal termination of Gaussian 16 at Wed Apr  9 00:31:33 2025.
