 Gaussian 16, Revision C.01,

 ----------------------------------------------------------------------
 #t hf aug-cc-pvdz symm=none int=(grid=ultrafine) guess=(read,tcheck) s
 table=(opt,rrhf)
 ----------------------------------------------------------------------
 -----
 title
 -----
 Symbolic Z-matrix:
 Charge =  0 Multiplicity = 1

 SCF Done:  E(RHF) =  -403.036913967     A.U. after   13 cycles
 Normal termination of Gaussian 16 at Wed Apr  9 00:38:58 2025.
 Gaussian 16:  ES64L-G16RevC.01  3-Jul-2019

 ----------------------------------------------------------------------
 #t hf aug-cc-pvdz iop(5/13=1,5/36=2,99/5=2) pseudo=read geom=check gue
 ss=(read,tcheck) scf=(maxcycle=1)
 ----------------------------------------------------------------------
 -----
 title
 -----
 Structure from the checkpoint file:  "BDE49_nonexpt_662_mol1.chk"
 Charge =  0 Multiplicity = 1

                         Standard orientation:
 ---------------------------------------------------------------------
 Center     Atomic      Atomic             Coordinates (Angstroms)
 Number     Number       Type             X           Y           Z
 ---------------------------------------------------------------------
      1          6           0        2.422764   -0.761673    0.000004
      2          6           0        1.184957    0.089985    0.000010
      3          1           0        3.307549   -0.129301   -0.000018
      4          1           0        2.419640   -1.410375   -0.878923
      5          1           0        2.419664   -1.410348    0.878951
      6          8           0        0.062186   -0.660350    0.000009
      7          8           0        1.186840    1.301576   -0.000018
      8          5           0       -1.243335   -0.114147    0.000001
      9          8           0       -1.496829    1.213330    0.000004
     10          1           0       -0.663535    1.714541    0.000017
     11          8           0       -2.228996   -1.045715   -0.000007
     12          1           0       -3.098569   -0.634384   -0.000012
 ---------------------------------------------------------------------

 SCF Done:  E(RHF) =  -403.175545852     A.U. after    2 cycles

 The electronic state is 1-A.
 Alpha  occ. eigenvalues --  -20.62115 -20.58877 -20.58519 -20.58216 -11.42297
 Alpha  occ. eigenvalues --  -11.26448  -7.70739  -1.43631  -1.35703  -1.33307
 Alpha  occ. eigenvalues --   -1.31842  -1.03346  -0.87443  -0.78330  -0.74226
 Alpha  occ. eigenvalues --   -0.72859  -0.70683  -0.68455  -0.62953  -0.60591
 Alpha  occ. eigenvalues --   -0.59650  -0.59127  -0.56460  -0.55841  -0.53104
 Alpha  occ. eigenvalues --   -0.51661  -0.48976
 Alpha virt. eigenvalues --    0.03133   0.04639   0.05258   0.05488   0.06295
 Alpha virt. eigenvalues --    0.06887   0.07250   0.08509   0.10179   0.12419
 Alpha virt. eigenvalues --    0.12705   0.14199   0.14987   0.15708   0.15963

 Mulliken charges:
               1
     1  C    0.312076
     2  C    0.392636
     3  H   -0.028689
     4  H    0.047514
     5  H    0.047514
     6  O   -0.619428
     7  O   -0.470287
     8  B    0.696712
     9  O   -0.484094
    10  H    0.328577
    11  O   -0.430561
    12  H    0.208031
 Sum of Mulliken charges =   0.00000

 Dipole moment (field-independent basis, Debye):
    X=              1.1924    Y=             -1.2093    Z=              0.0001  Tot=              1.6983

 Test job not archived.
 1\1\GINC-SE362\SP\RHF\Aug-CC-pVDZ\C2H5B1O4\OHZDE\09-Apr-2025\0\\#t hf
 aug-cc-pvdz iop(5/13=1,5/36=2,99/5=2) pseudo=read geom=check guess=(re
 ad,tcheck) scf=(maxcycle=1)\\title\\0,1\C,0,2.422764,-0.761673,0.00000
 4\C,0,1.184957,0.089985,0.00001\H,0,3.307549,-0.129301,-0.000018\H,0,2
 .41964,-1.410375,-0.878923\H,0,2.419664,-1.410348,0.878951\O,0,0.06218
 6,-0.66035,0.000009\O,0,1.18684,1.301576,-0.000018\B,0,-1.243335,-0.11
 4147,0.000001\O,0,-1.496829,1.21333,0.000004\H,0,-0.663535,1.714541,0.
 000017\O,0,-2.228996,-1.045715,-0.000007\H,0,-3.098569,-0.634384,-0.00

 Normal termination of Gaussian 16 at Wed Apr  9 00:39:02 2025.
