 Gaussian 16, Revision C.01,

 ----------------------------------------------------------------------
 #t hf aug-cc-pvdz symm=none int=(grid=ultrafine) guess=(read,tcheck) s
 table=opt
 ----------------------------------------------------------------------
 -----
 title
 -----
 Symbolic Z-matrix:
 Charge =  0 Multiplicity = 2

 SCF Done:  E(UHF) =  -462.373541872     A.U. after   17 cycles
 Normal termination of Gaussian 16 at Tue Apr  8 23:13:47 2025.
 Gaussian 16:  ES64L-G16RevC.01  3-Jul-2019

 ----------------------------------------------------------------------
 #t hf aug-cc-pvdz iop(5/13=1,5/36=2,99/5=2) pseudo=read geom=check gue
 ss=(read,tcheck) scf=(maxcycle=1)
 ----------------------------------------------------------------------
 -----
 title
 -----
 Structure from the checkpoint file:  "BDE49_nonexpt_100_mol2.chk"
 Charge =  0 Multiplicity = 2

                         Standard orientation:
 ---------------------------------------------------------------------
 Center     Atomic      Atomic             Coordinates (Angstroms)
 Number     Number       Type             X           Y           Z
 ---------------------------------------------------------------------
      1          5           0       -1.536857    0.596677   -0.000003
      2         16           0       -0.246431   -0.546849    0.000002
      3          6           0        1.368561    0.387347   -0.000001
      4          1           0        1.925000    0.103183    0.892593
      5          1           0        1.173804    1.457355   -0.000006
      6          1           0        1.925001    0.103175   -0.892593
      7          1           0       -1.607994    1.778407   -0.000008
 ---------------------------------------------------------------------

 SCF Done:  E(UHF) =  -462.414707162     A.U. after    2 cycles

 The electronic state is 2-A.
 Alpha  occ. eigenvalues --  -93.54265 -11.28089  -8.84251  -7.65299  -6.18298
 Alpha  occ. eigenvalues --   -6.18063  -6.17875  -1.03601  -0.89117  -0.65882
 Alpha  occ. eigenvalues --   -0.60237  -0.59531  -0.54820  -0.44403  -0.38643
 Alpha  occ. eigenvalues --   -0.33032
 Alpha virt. eigenvalues --    0.03425   0.04719   0.05240   0.05838   0.06328
 Alpha virt. eigenvalues --    0.07232   0.08267   0.11065   0.11182   0.13319
 Alpha virt. eigenvalues --    0.14254   0.14480   0.16420   0.17253   0.17403

  Beta  occ. eigenvalues --  -93.54365 -11.27712  -8.84331  -7.63385  -6.18556
  Beta  occ. eigenvalues --   -6.18206  -6.18106  -1.02780  -0.88021  -0.63163
  Beta  occ. eigenvalues --   -0.60099  -0.57822  -0.52880  -0.43490  -0.38881
  Beta virt. eigenvalues --    0.03375   0.04631   0.04977   0.05319   0.06774
  Beta virt. eigenvalues --    0.07280   0.08331   0.09426   0.12328   0.12670
  Beta virt. eigenvalues --    0.13467   0.14918   0.15039   0.16700   0.17414

 Mulliken charges and spin densities:
               1          2
     1  B   -0.251139   1.077809
     2  S    0.161046  -0.172361
     3  C    0.052246   0.143352
     4  H   -0.028327  -0.005220
     5  H   -0.220838  -0.008277
     6  H   -0.028324  -0.005220
     7  H    0.315336  -0.030083
 Sum of Mulliken charges =  -0.00000   1.00000

 Dipole moment (field-independent basis, Debye):
    X=              1.9553    Y=              1.1261    Z=             -0.0000  Tot=              2.2564
                          Isotropic Fermi Contact Couplings
        Atom                 a.u.       MegaHertz       Gauss      10(-4) cm-1
     1  B(11)              0.27545     395.09411     140.97940     131.78921
     2  S(33)              0.11281      38.74569      13.82542      12.92417
     3  C(13)              0.07219      81.15188      28.95701      27.06935
     4  H(1)              -0.00135      -6.02131      -2.14855      -2.00849
     5  H(1)              -0.00213      -9.51800      -3.39626      -3.17486
     6  H(1)              -0.00135      -6.02131      -2.14855      -2.00849
     7  H(1)              -0.00100      -4.48890      -1.60175      -1.49733
 --------------------------------------------------------

 Normal termination of Gaussian 16 at Tue Apr  8 23:13:49 2025.
