 Gaussian 16, Revision C.01,

 ----------------------------------------------------------------------
 #t hf aug-cc-pvdz symm=none int=(grid=ultrafine) guess=(read,tcheck) s
 table=(opt,rrhf)
 ----------------------------------------------------------------------
 -----
 title
 -----
 Symbolic Z-matrix:
 Charge =  0 Multiplicity = 1

 SCF Done:  E(RHF) =  -780.046836201     A.U. after   17 cycles
 Normal termination of Gaussian 16 at Tue Apr  8 23:11:29 2025.
 Gaussian 16:  ES64L-G16RevC.01  3-Jul-2019

 ----------------------------------------------------------------------
 #t hf aug-cc-pvdz iop(5/13=1,5/36=2,99/5=2) pseudo=read geom=check gue
 ss=(read,tcheck) scf=(maxcycle=1)
 ----------------------------------------------------------------------
 -----
 title
 -----
 Structure from the checkpoint file:  "BDE49_expt_795_mol1.chk"
 Charge =  0 Multiplicity = 1

                         Standard orientation:
 ---------------------------------------------------------------------
 Center     Atomic      Atomic             Coordinates (Angstroms)
 Number     Number       Type             X           Y           Z
 ---------------------------------------------------------------------
      1          6           0       -1.212550    1.095760   -0.036465
      2          6           0       -2.206746    0.113737    0.015978
      3          6           0       -1.856092   -1.237726    0.038091
      4          6           0       -0.516614   -1.614673    0.015948
      5          6           0        0.470885   -0.634159   -0.035420
      6          6           0        0.126212    0.721150   -0.064612
      7          6           0        1.318464    1.642028   -0.190237
      8          6           0        2.530769    0.862155    0.341709
      9          1           0        1.184296    2.580493    0.354842
     10          1           0        1.470985    1.892998   -1.247590
     11         16           0        2.231260   -0.906817   -0.092087
     12          1           0        2.602065    0.940537    1.428470
     13          1           0        3.473070    1.179244   -0.103713
     14          1           0       -1.487137    2.147448   -0.055541
     15          1           0       -2.644122   -1.979158    0.085086
     16          1           0       -0.252697   -2.665172    0.046594
     17          8           0       -3.540589    0.418543    0.053299
     18          1           0       -3.647879    1.374693    0.028888
 ---------------------------------------------------------------------

 SCF Done:  E(RHF) =  -780.179717247     A.U. after    2 cycles

 The electronic state is 1-A.
 Alpha  occ. eigenvalues --  -93.53361 -20.60744 -11.31649 -11.27723 -11.26680
 Alpha  occ. eigenvalues --  -11.26153 -11.25817 -11.25542 -11.24992 -11.24228
 Alpha  occ. eigenvalues --   -8.83108  -6.17274  -6.17114  -6.16701  -1.36930
 Alpha  occ. eigenvalues --   -1.16643  -1.08882  -1.03014  -0.98704  -0.94311
 Alpha  occ. eigenvalues --   -0.86584  -0.80552  -0.79910  -0.73993  -0.69059
 Alpha  occ. eigenvalues --   -0.65216  -0.63998  -0.60841  -0.60540  -0.60400
 Alpha  occ. eigenvalues --   -0.58218  -0.54396  -0.53364  -0.50582  -0.49843
 Alpha  occ. eigenvalues --   -0.48618  -0.44342  -0.38652  -0.34761  -0.28690
 Alpha virt. eigenvalues --    0.02941   0.03791   0.04402   0.05020   0.05553
 Alpha virt. eigenvalues --    0.06076   0.06802   0.07823   0.09494   0.09840
 Alpha virt. eigenvalues --    0.10587   0.11253   0.12217   0.12653   0.12981

 Mulliken charges:
               1
     1  C    0.930673
     2  C    0.152379
     3  C    0.925219
     4  C    0.346668
     5  C   -0.320912
     6  C   -0.543374
     7  C    0.020275
     8  C    0.216823
     9  H    0.038276
    10  H    0.097588
    11  S    0.328320
    12  H   -0.079513
    13  H   -0.070736
    14  H   -0.625635
    15  H   -0.494851
    16  H   -0.467918
    17  O   -0.582046
    18  H    0.128765
 Sum of Mulliken charges =   0.00000

 Dipole moment (field-independent basis, Debye):
    X=              0.1839    Y=              3.0269    Z=              0.2365  Tot=              3.0417

 Test job not archived.
 1\1\GINC-SE174\SP\RHF\Aug-CC-pVDZ\C8H8O1S1\OHZDE\08-Apr-2025\0\\#t hf
 aug-cc-pvdz iop(5/13=1,5/36=2,99/5=2) pseudo=read geom=check guess=(re
 ad,tcheck) scf=(maxcycle=1)\\title\\0,1\C,0,-1.21255,1.09576,-0.036465
 \C,0,-2.206746,0.113737,0.015978\C,0,-1.856092,-1.237726,0.038091\C,0,
 -0.516614,-1.614673,0.015948\C,0,0.470885,-0.634159,-0.03542\C,0,0.126
 212,0.72115,-0.064612\C,0,1.318464,1.642028,-0.190237\C,0,2.530769,0.8
 62155,0.341709\H,0,1.184296,2.580493,0.354842\H,0,1.470985,1.892998,-1
 .24759\S,0,2.23126,-0.906817,-0.092087\H,0,2.602065,0.940537,1.42847\H

 Normal termination of Gaussian 16 at Tue Apr  8 23:11:40 2025.
