 Gaussian 16, Revision C.01,

 ----------------------------------------------------------------------
 #t hf aug-cc-pvdz symm=none int=(grid=ultrafine) guess=(read,tcheck) s
 table=opt
 ----------------------------------------------------------------------
 -----
 title
 -----
 Symbolic Z-matrix:
 Charge =  0 Multiplicity = 2

 SCF Done:  E(UHF) =  -173.734136627     A.U. after   20 cycles
 Normal termination of Gaussian 16 at Wed Apr  9 00:34:49 2025.
 Gaussian 16:  ES64L-G16RevC.01  3-Jul-2019

 ----------------------------------------------------------------------
 #t hf aug-cc-pvdz iop(5/13=1,5/36=2,99/5=2) pseudo=read geom=check gue
 ss=(read,tcheck) scf=(maxcycle=1)
 ----------------------------------------------------------------------
 -----
 title
 -----
 Structure from the checkpoint file:  "BDE49_nonexpt_523_mol2.chk"
 Charge =  0 Multiplicity = 2

                         Standard orientation:
 ---------------------------------------------------------------------
 Center     Atomic      Atomic             Coordinates (Angstroms)
 Number     Number       Type             X           Y           Z
 ---------------------------------------------------------------------
      1          1           0       -3.020545    0.602526    0.000737
      2          5           0       -1.913935    0.241636   -0.000212
      3          7           0       -0.718933   -0.143642    0.000001
      4          7           0        0.454962   -0.666234    0.000044
      5          6           0        1.514218    0.343019    0.000001
      6          1           0        2.475690   -0.168708   -0.000211
      7          1           0        1.438658    0.984382    0.887302
      8          1           0        1.438361    0.984644   -0.887085
 ---------------------------------------------------------------------

 SCF Done:  E(UHF) =  -173.788443170     A.U. after    2 cycles

 The electronic state is 2-A.
 Alpha  occ. eigenvalues --  -15.69007 -15.65030 -11.26418  -7.64153  -1.28979
 Alpha  occ. eigenvalues --   -1.02740  -0.89902  -0.69118  -0.65460  -0.62475
 Alpha  occ. eigenvalues --   -0.61646  -0.52109  -0.51730  -0.36579  -0.34399
 Alpha virt. eigenvalues --    0.03612   0.04194   0.04602   0.04938   0.07036
 Alpha virt. eigenvalues --    0.07548   0.08293   0.10533   0.12877   0.15001
 Alpha virt. eigenvalues --    0.15657   0.16385   0.17313   0.17419   0.18121

  Beta  occ. eigenvalues --  -15.66203 -15.65939 -11.26732  -7.63420  -1.25332
  Beta  occ. eigenvalues --   -1.01655  -0.87363  -0.66408  -0.61966  -0.61414
  Beta  occ. eigenvalues --   -0.58907  -0.51189  -0.48549  -0.35601
  Beta virt. eigenvalues --    0.03642   0.04186   0.04220   0.04910   0.07069
  Beta virt. eigenvalues --    0.07514   0.08379   0.09507   0.10618   0.12929
  Beta virt. eigenvalues --    0.15085   0.15641   0.16430   0.17537   0.18238

 Mulliken charges and spin densities:
               1          2
     1  H    0.339655  -0.022038
     2  B   -0.698731   0.432000
     3  N    0.202825  -0.368266
     4  N   -0.316471   1.045218
     5  C    0.737289  -0.168038
     6  H   -0.178585   0.008726
     7  H   -0.042994   0.036212
     8  H   -0.042988   0.036185
 Sum of Mulliken charges =  -0.00000   1.00000

 Dipole moment (field-independent basis, Debye):
    X=             -0.3762    Y=              1.7302    Z=             -0.0003  Tot=              1.7706
                          Isotropic Fermi Contact Couplings
        Atom                 a.u.       MegaHertz       Gauss      10(-4) cm-1
     1  H(1)              -0.01238     -55.33755     -19.74581     -18.45862
     2  B(11)              0.05336      76.53611      27.30999      25.52970
     3  N(14)             -0.18163     -58.68690     -20.94095     -19.57584
     4  N(14)              0.28510      92.11616      32.86934      30.72664
     5  C(13)             -0.05528     -62.14103     -22.17347     -20.72802
     6  H(1)               0.00108       4.83900       1.72667       1.61412
     7  H(1)               0.01598      71.42473      25.48612      23.82472
     8  H(1)               0.01597      71.38010      25.47019      23.80984

 Normal termination of Gaussian 16 at Wed Apr  9 00:34:51 2025.
