 Gaussian 16, Revision C.01,

 ----------------------------------------------------------------------
 #t hf aug-cc-pvdz symm=none int=(grid=ultrafine) guess=(read,tcheck) s
 table=(opt,rrhf)
 ----------------------------------------------------------------------
 -----
 title
 -----
 Symbolic Z-matrix:
 Charge =  0 Multiplicity = 1

 SCF Done:  E(RHF) =  -1646.52985207     A.U. after   17 cycles

 1\1\GINC-SE364\Stability\RHF\Aug-CC-pVDZ\C7H5Cl3\OHZDE\08-Apr-2025\0\\
 #t hf aug-cc-pvdz symm=none int=(grid=ultrafine) guess=(read,tcheck) s
 table=(opt,rrhf)\\title\\0,1\C,0,-0.839186,-1.51766,0.394062\C,0,0.502
 222,-1.758714,0.13321\C,0,1.394636,-0.695915,0.001361\C,0,0.929794,0.6
 16093,0.132697\C,0,-0.417424,0.850645,0.393253\C,0,-1.313191,-0.209561
 ,0.527865\H,0,-1.522253,-2.353857,0.48973\H,0,0.873442,-2.770052,0.030
 926\C,0,-2.758941,0.057019,0.812376\H,0,-0.759387,1.873923,0.486832\H,
 0,-3.214314,-0.744974,1.388817\Cl,0,-3.751537,0.172313,-0.724649\H,0,-

 Normal termination of Gaussian 16 at Tue Apr  8 22:48:48 2025.
 Gaussian 16:  ES64L-G16RevC.01  3-Jul-2019

 ----------------------------------------------------------------------
 #t hf aug-cc-pvdz iop(5/13=1,5/36=2,99/5=2) pseudo=read geom=check gue
 ss=(read,tcheck) scf=(maxcycle=1)
 ----------------------------------------------------------------------
 -----
 title
 -----
 Structure from the checkpoint file:  "BDE49_expt_1696_mol1.chk"
 Charge =  0 Multiplicity = 1

                         Standard orientation:
 ---------------------------------------------------------------------
 Center     Atomic      Atomic             Coordinates (Angstroms)
 Number     Number       Type             X           Y           Z
 ---------------------------------------------------------------------
      1          6           0       -0.839186   -1.517660    0.394062
      2          6           0        0.502222   -1.758714    0.133210
      3          6           0        1.394636   -0.695915    0.001361
      4          6           0        0.929794    0.616093    0.132697
      5          6           0       -0.417424    0.850645    0.393253
      6          6           0       -1.313191   -0.209561    0.527865
      7          1           0       -1.522253   -2.353857    0.489730
      8          1           0        0.873442   -2.770052    0.030926
      9          6           0       -2.758941    0.057019    0.812376
     10          1           0       -0.759387    1.873923    0.486832
     11          1           0       -3.214314   -0.744974    1.388817
     12         17           0       -3.751537    0.172312   -0.724649
     13          1           0       -2.907245    1.005014    1.323915
     14         17           0        2.005049    1.980789   -0.018599
     15         17           0        3.072505   -1.039072   -0.320820
 ---------------------------------------------------------------------

 SCF Done:  E(RHF) =  -1646.66259739     A.U. after    2 cycles

 The electronic state is 1-A.
 Alpha  occ. eigenvalues -- -103.68108-103.68096-103.65858 -11.33810 -11.33698
 Alpha  occ. eigenvalues --  -11.32832 -11.28765 -11.28233 -11.28131 -11.27800
 Alpha  occ. eigenvalues --  -10.71386 -10.71369 -10.69095  -8.37126  -8.37108
 Alpha  occ. eigenvalues --   -8.36805  -8.36791  -8.36788  -8.36774  -8.34809
 Alpha  occ. eigenvalues --   -8.34520  -8.34514  -1.23704  -1.18226  -1.17843
 Alpha  occ. eigenvalues --   -1.14117  -1.04693  -1.02738  -0.93607  -0.86944
 Alpha  occ. eigenvalues --   -0.82283  -0.71407  -0.70897  -0.66552  -0.62670
 Alpha  occ. eigenvalues --   -0.61846  -0.61494  -0.59567  -0.57066  -0.54927
 Alpha  occ. eigenvalues --   -0.54311  -0.50926  -0.49295  -0.48388  -0.47159
 Alpha  occ. eigenvalues --   -0.45781  -0.45691  -0.36855  -0.35486
 Alpha virt. eigenvalues --    0.03040   0.03742   0.04699   0.05875   0.06465
 Alpha virt. eigenvalues --    0.06824   0.07599   0.08121   0.08928   0.09698
 Alpha virt. eigenvalues --    0.10405   0.12139   0.12601   0.12960   0.13168

 Mulliken charges:
               1
     1  C    0.415764
     2  C    0.675567
     3  C   -0.606788
     4  C    0.116577
     5  C    0.785461
     6  C    1.072072
     7  H   -0.569615
     8  H   -0.459593
     9  C    0.178124
    10  H   -0.501196
    11  H   -0.143308
    12  Cl  -0.145719
    13  H   -0.125563
    14  Cl  -0.365682
    15  Cl  -0.326101
 Sum of Mulliken charges =   0.00000

 Dipole moment (field-independent basis, Debye):
    X=             -1.2413    Y=             -1.2433    Z=              2.1898  Tot=              2.8075

 Test job not archived.
 1\1\GINC-SE364\SP\RHF\Aug-CC-pVDZ\C7H5Cl3\OHZDE\08-Apr-2025\0\\#t hf a
 ug-cc-pvdz iop(5/13=1,5/36=2,99/5=2) pseudo=read geom=check guess=(rea
 d,tcheck) scf=(maxcycle=1)\\title\\0,1\C,0,-0.839186,-1.51766,0.394062
 \C,0,0.502222,-1.758714,0.13321\C,0,1.394636,-0.695915,0.001361\C,0,0.
 929794,0.616093,0.132697\C,0,-0.417424,0.850645,0.393253\C,0,-1.313191
 ,-0.209561,0.527865\H,0,-1.522253,-2.353857,0.48973\H,0,0.873442,-2.77
 0052,0.030926\C,0,-2.758941,0.057019,0.812376\H,0,-0.759387,1.873923,0
 .486832\H,0,-3.214314,-0.744974,1.388817\Cl,0,-3.751537,0.172313,-0.72

 Normal termination of Gaussian 16 at Tue Apr  8 22:48:56 2025.
