 Gaussian 16, Revision C.01,

 ----------------------------------------------------------------------
 #t hf aug-cc-pvdz symm=none int=(grid=ultrafine) guess=(read,tcheck) s
 table=(opt,rrhf)
 ----------------------------------------------------------------------
 -----
 title
 -----
 Symbolic Z-matrix:
 Charge =  0 Multiplicity = 1

 SCF Done:  E(RHF) =  -1297.20220657     A.U. after   13 cycles
 Normal termination of Gaussian 16 at Wed Apr  9 00:47:19 2025.
 Gaussian 16:  ES64L-G16RevC.01  3-Jul-2019

 ----------------------------------------------------------------------
 #t hf aug-cc-pvdz iop(5/13=1,5/36=2,99/5=2) pseudo=read geom=check gue
 ss=(read,tcheck) scf=(maxcycle=1)
 ----------------------------------------------------------------------
 -----
 title
 -----
 Structure from the checkpoint file:  "BDE49_nonexpt_877_mol1.chk"
 Charge =  0 Multiplicity = 1

                         Standard orientation:
 ---------------------------------------------------------------------
 Center     Atomic      Atomic             Coordinates (Angstroms)
 Number     Number       Type             X           Y           Z
 ---------------------------------------------------------------------
      1          6           0       -2.148442   -0.251392   -0.506622
      2         16           0       -0.592069   -1.216961   -0.260525
      3          5           0        0.729030   -0.003647   -0.057492
      4         16           0        0.417674    1.790526   -0.163494
      5         16           0        2.429858   -0.586083    0.246964
      6          6           0       -2.828699    0.158842    0.795871
      7          1           0       -2.785918   -0.921581   -1.086293
      8          1           0       -1.922994    0.608393   -1.138890
      9          1           0       -3.057642   -0.713931    1.411014
     10          1           0       -3.767450    0.677884    0.577344
     11          1           0       -2.198916    0.830976    1.381358
     12          1           0        1.687250    2.199317    0.005224
     13          1           0        2.175942   -1.907249    0.235092
 ---------------------------------------------------------------------

 SCF Done:  E(RHF) =  -1297.28980867     A.U. after    2 cycles

 The electronic state is 1-A.
 Alpha  occ. eigenvalues --  -93.54643 -93.54306 -93.53513 -11.28348 -11.24125
 Alpha  occ. eigenvalues --   -8.84607  -8.84257  -8.83483  -7.69620  -6.18800
 Alpha  occ. eigenvalues --   -6.18553  -6.18446  -6.18287  -6.18197  -6.17942
 Alpha  occ. eigenvalues --   -6.17645  -6.17403  -6.17188  -1.06862  -1.00394
 Alpha  occ. eigenvalues --   -0.95183  -0.93574  -0.82937  -0.66053  -0.62888
 Alpha  occ. eigenvalues --   -0.60082  -0.57955  -0.55647  -0.52827  -0.51831
 Alpha  occ. eigenvalues --   -0.47247  -0.44635  -0.44572  -0.42605  -0.37349
 Alpha  occ. eigenvalues --   -0.35839
 Alpha virt. eigenvalues --    0.03508   0.04552   0.05024   0.05138   0.06132
 Alpha virt. eigenvalues --    0.07104   0.07551   0.07791   0.07996   0.09402
 Alpha virt. eigenvalues --    0.10257   0.11118   0.12130   0.12273   0.13094

 Mulliken charges:
               1
     1  C   -0.120683
     2  S    0.081797
     3  B    0.683232
     4  S   -0.170319
     5  S   -0.289507
     6  C    0.274697
     7  H   -0.067049
     8  H   -0.140724
     9  H   -0.055553
    10  H   -0.065657
    11  H   -0.096658
    12  H   -0.035819
    13  H    0.002242
 Sum of Mulliken charges =  -0.00000

 Dipole moment (field-independent basis, Debye):
    X=             -1.3492    Y=              0.2605    Z=             -0.0627  Tot=              1.3755

 Test job not archived.
 1\1\GINC-SE345\SP\RHF\Aug-CC-pVDZ\C2H7B1S3\OHZDE\09-Apr-2025\0\\#t hf
 aug-cc-pvdz iop(5/13=1,5/36=2,99/5=2) pseudo=read geom=check guess=(re
 ad,tcheck) scf=(maxcycle=1)\\title\\0,1\C,0,-2.148442,-0.251392,-0.506
 622\S,0,-0.592069,-1.216961,-0.260525\B,0,0.72903,-0.003647,-0.057492\
 S,0,0.417674,1.790526,-0.163494\S,0,2.429858,-0.586083,0.246964\C,0,-2
 .828699,0.158842,0.795871\H,0,-2.785918,-0.921581,-1.086293\H,0,-1.922
 994,0.608393,-1.13889\H,0,-3.057642,-0.713931,1.411014\H,0,-3.76745,0.
 677884,0.577344\H,0,-2.198916,0.830976,1.381358\H,0,1.68725,2.199317,0

 Normal termination of Gaussian 16 at Wed Apr  9 00:47:23 2025.
