 Gaussian 16, Revision C.01,

 ----------------------------------------------------------------------
 #t hf aug-cc-pvdz symm=none int=(grid=ultrafine) guess=(read,tcheck) s
 table=opt
 ----------------------------------------------------------------------
 -----
 title
 -----
 Symbolic Z-matrix:
 Charge =  0 Multiplicity = 2

 SCF Done:  E(UHF) =  -947.475434516     A.U. after   14 cycles
 Normal termination of Gaussian 16 at Tue Apr  8 23:46:13 2025.
 Gaussian 16:  ES64L-G16RevC.01  3-Jul-2019

 ----------------------------------------------------------------------
 #t hf aug-cc-pvdz iop(5/13=1,5/36=2,99/5=2) pseudo=read geom=check gue
 ss=(read,tcheck) scf=(maxcycle=1)
 ----------------------------------------------------------------------
 -----
 title
 -----
 Structure from the checkpoint file:  "BDE49_nonexpt_1807_mol2.chk"
 Charge =  0 Multiplicity = 2

                         Standard orientation:
 ---------------------------------------------------------------------
 Center     Atomic      Atomic             Coordinates (Angstroms)
 Number     Number       Type             X           Y           Z
 ---------------------------------------------------------------------
      1         14           0        0.603669   -0.035638   -0.000000
      2          9           0        0.603669   -0.987843    1.281418
      3          9           0        0.603669   -0.987843   -1.281418
      4         17           0       -1.136317    1.075300    0.000000
 ---------------------------------------------------------------------

 SCF Done:  E(UHF) =  -947.607158099     A.U. after    2 cycles

 The electronic state is 2-A'.
 Alpha  occ. eigenvalues -- -103.68696 -69.23578 -26.15108 -26.15106 -10.72165
 Alpha  occ. eigenvalues --   -8.38057  -8.37582  -8.37554  -6.97354  -4.08347
 Alpha  occ. eigenvalues --   -4.07863  -4.07789  -1.68846  -1.67640  -1.17608
 Alpha  occ. eigenvalues --   -0.86920  -0.81169  -0.77845  -0.77265  -0.75200
 Alpha  occ. eigenvalues --   -0.73480  -0.62719  -0.52300  -0.51423  -0.41745
 Alpha virt. eigenvalues --    0.05243   0.05561   0.05750   0.06540   0.12729
 Alpha virt. eigenvalues --    0.13991   0.14958   0.15422   0.15682   0.20490
 Alpha virt. eigenvalues --    0.20501   0.22791   0.25028   0.27878   0.28638

  Beta  occ. eigenvalues -- -103.68527 -69.22919 -26.14729 -26.14729 -10.71980
  Beta  occ. eigenvalues --   -8.37558  -8.37460  -8.37327  -6.96186  -4.07421
  Beta  occ. eigenvalues --   -4.07374  -4.06478  -1.67660  -1.66452  -1.16198
  Beta  occ. eigenvalues --   -0.85004  -0.79347  -0.77030  -0.75826  -0.74012
  Beta  occ. eigenvalues --   -0.73136  -0.59504  -0.51129  -0.51112
  Beta virt. eigenvalues --   -0.00462   0.05570   0.05951   0.06283   0.08929
  Beta virt. eigenvalues --    0.12857   0.15315   0.15539   0.17551   0.19083
  Beta virt. eigenvalues --    0.20916   0.21051   0.23465   0.25512   0.28720

 Mulliken charges and spin densities:
               1          2
     1  Si   1.802862   1.002306
     2  F   -0.700704  -0.037905
     3  F   -0.700704  -0.037905
     4  Cl  -0.401455   0.073504
 Sum of Mulliken charges =  -0.00000   1.00000

 Dipole moment (field-independent basis, Debye):
    X=              1.0121    Y=              1.2921    Z=              0.0000  Tot=              1.6413
                          Isotropic Fermi Contact Couplings
        Atom                 a.u.       MegaHertz       Gauss      10(-4) cm-1
     1  Si(29)             1.24948   -1110.45167    -396.23677    -370.40681
     2  F(19)              0.07804     328.35414     117.16492     109.52715
     3  F(19)              0.07804     328.35414     117.16492     109.52715
     4  Cl(35)             0.10117      44.35752      15.82787      14.79608
 --------------------------------------------------------
       Center         ----  Spin Dipole Couplings  ----
                      3XX-RR        3YY-RR        3ZZ-RR
 --------------------------------------------------------

 Normal termination of Gaussian 16 at Tue Apr  8 23:46:15 2025.
