 Gaussian 16, Revision C.01,

 ----------------------------------------------------------------------
 #t hf aug-cc-pvdz symm=none int=(grid=ultrafine) guess=(read,tcheck) s
 table=(opt,rrhf)
 ----------------------------------------------------------------------
 -----
 title
 -----
 Symbolic Z-matrix:
 Charge =  0 Multiplicity = 1

 SCF Done:  E(RHF) =  -218.322133405     A.U. after   13 cycles
 Normal termination of Gaussian 16 at Wed Apr  9 00:45:55 2025.
 Gaussian 16:  ES64L-G16RevC.01  3-Jul-2019

 ----------------------------------------------------------------------
 #t hf aug-cc-pvdz iop(5/13=1,5/36=2,99/5=2) pseudo=read geom=check gue
 ss=(read,tcheck) scf=(maxcycle=1)
 ----------------------------------------------------------------------
 -----
 title
 -----
 Structure from the checkpoint file:  "BDE49_nonexpt_84_mol1.chk"
 Charge =  0 Multiplicity = 1

                         Standard orientation:
 ---------------------------------------------------------------------
 Center     Atomic      Atomic             Coordinates (Angstroms)
 Number     Number       Type             X           Y           Z
 ---------------------------------------------------------------------
      1          5           0        2.396053   -0.635817    0.000093
      2          5           0        1.325414    0.637449   -0.001668
      3          7           0       -0.083649    0.482788    0.002104
      4          6           0       -1.186091    0.014824    0.000462
      5          8           0       -2.286206   -0.379010   -0.000773
      6          1           0        2.818118   -1.107335   -1.013939
      7          1           0        2.822371   -1.099884    1.015815
      8          1           0        1.743912    1.762676   -0.005317
 ---------------------------------------------------------------------

 SCF Done:  E(RHF) =  -218.393839212     A.U. after    2 cycles

 The electronic state is 1-A.
 Alpha  occ. eigenvalues --  -20.63324 -15.65968 -11.43380  -7.65128  -7.61916
 Alpha  occ. eigenvalues --   -1.43677  -1.23575  -0.86124  -0.74810  -0.70567
 Alpha  occ. eigenvalues --   -0.67347  -0.66613  -0.58002  -0.51736  -0.50933
 Alpha  occ. eigenvalues --   -0.47165  -0.40454
 Alpha virt. eigenvalues --    0.03209   0.03951   0.04137   0.04299   0.05966
 Alpha virt. eigenvalues --    0.06077   0.06904   0.08544   0.09041   0.09834
 Alpha virt. eigenvalues --    0.11678   0.12178   0.13109   0.13360   0.13780

 Mulliken charges:
               1
     1  B   -0.340849
     2  B    0.130198
     3  N   -0.022508
     4  C   -0.063973
     5  O   -0.197593
     6  H    0.190428
     7  H    0.190436
     8  H    0.113862
 Sum of Mulliken charges =  -0.00000

 Dipole moment (field-independent basis, Debye):
    X=              2.1737    Y=              0.3564    Z=             -0.0018  Tot=              2.2027

 Test job not archived.
 1\1\GINC-SE273\SP\RHF\Aug-CC-pVDZ\C1H3B2N1O1\OHZDE\09-Apr-2025\0\\#t h
 f aug-cc-pvdz iop(5/13=1,5/36=2,99/5=2) pseudo=read geom=check guess=(
 read,tcheck) scf=(maxcycle=1)\\title\\0,1\B,0,2.396053,-0.635817,0.000
 093\B,0,1.325414,0.637449,-0.001668\N,0,-0.083649,0.482788,0.002104\C,
 0,-1.186091,0.014824,0.000462\O,0,-2.286206,-0.37901,-0.000773\H,0,2.8
 18118,-1.107335,-1.013939\H,0,2.822371,-1.099884,1.015815\H,0,1.743912
 ,1.762676,-0.005317\\Version=ES64L-G16RevC.01\State=1-A\HF=-218.393839
 2\RMSD=4.345e-03\Dipole=0.8551951,0.1402289,-0.0007065\Quadrupole=-2.9

 Normal termination of Gaussian 16 at Wed Apr  9 00:45:58 2025.
