 Gaussian 16, Revision C.01,

 ----------------------------------------------------------------------
 #t hf aug-cc-pvdz symm=none int=(grid=ultrafine) guess=(read,tcheck) s
 table=(opt,rrhf)
 ----------------------------------------------------------------------
 -----
 title
 -----
 Symbolic Z-matrix:
 Charge =  0 Multiplicity = 1

 SCF Done:  E(RHF) =  -718.827643494     A.U. after   16 cycles
 Normal termination of Gaussian 16 at Tue Apr  8 23:34:15 2025.
 Gaussian 16:  ES64L-G16RevC.01  3-Jul-2019

 ----------------------------------------------------------------------
 #t hf aug-cc-pvdz iop(5/13=1,5/36=2,99/5=2) pseudo=read geom=check gue
 ss=(read,tcheck) scf=(maxcycle=1)
 ----------------------------------------------------------------------
 -----
 title
 -----
 Structure from the checkpoint file:  "BDE49_nonexpt_1483_mol1.chk"
 Charge =  0 Multiplicity = 1

                         Standard orientation:
 ---------------------------------------------------------------------
 Center     Atomic      Atomic             Coordinates (Angstroms)
 Number     Number       Type             X           Y           Z
 ---------------------------------------------------------------------
      1          6           0        2.007626   -0.049249   -0.000001
      2          6           0        1.486449    1.253443   -0.000000
      3          6           0        0.119092    1.462175   -0.000000
      4          6           0        1.114497   -1.131108   -0.000001
      5          6           0       -0.254678   -0.924756   -0.000001
      6          6           0       -0.780061    0.379439   -0.000000
      7          1           0        2.161807    2.100136    0.000001
      8          1           0       -0.266883    2.476408    0.000001
      9          1           0        1.503182   -2.142095   -0.000002
     10          1           0       -0.922124   -1.776697   -0.000002
     11          7           0       -2.147956    0.640357   -0.000000
     12         15           0       -3.413059   -0.533028    0.000002
     13          1           0       -2.382359    1.622232    0.000001
     14          6           0        3.417455   -0.268369   -0.000001
     15          7           0        4.560216   -0.445188   -0.000002
     16          1           0       -4.222923    0.009907   -1.032908
     17          1           0       -4.222917    0.009903    1.032919
 ---------------------------------------------------------------------

 SCF Done:  E(RHF) =  -718.962763661     A.U. after    2 cycles

 The electronic state is 1-A.
 Alpha  occ. eigenvalues --  -81.30681 -15.66284 -15.62964 -11.32876 -11.28213
 Alpha  occ. eigenvalues --  -11.28173 -11.28106 -11.28012 -11.26119 -11.25752
 Alpha  occ. eigenvalues --   -7.80669  -4.94834  -4.94500  -4.94360  -1.22722
 Alpha  occ. eigenvalues --   -1.18802  -1.14603  -1.03986  -1.02830  -0.88415
 Alpha  occ. eigenvalues --   -0.87022  -0.80354  -0.76376  -0.72914  -0.67515
 Alpha  occ. eigenvalues --   -0.63965  -0.61883  -0.60891  -0.59233  -0.57164
 Alpha  occ. eigenvalues --   -0.54733  -0.53428  -0.52569  -0.49883  -0.45676
 Alpha  occ. eigenvalues --   -0.43889  -0.38683  -0.37071  -0.31555
 Alpha virt. eigenvalues --    0.02146   0.03367   0.04155   0.05186   0.05710
 Alpha virt. eigenvalues --    0.06680   0.07167   0.07502   0.08282   0.08663
 Alpha virt. eigenvalues --    0.10038   0.10492   0.10929   0.10946   0.12369

 Mulliken charges:
               1
     1  C    2.274113
     2  C   -0.057831
     3  C    0.917984
     4  C   -0.036568
     5  C    1.278977
     6  C   -0.274135
     7  H   -0.564723
     8  H   -0.612084
     9  H   -0.586843
    10  H   -0.589355
    11  N   -0.698412
    12  P    0.319370
    13  H   -0.117378
    14  C   -1.231175
    15  N   -0.122647
    16  H    0.050353
    17  H    0.050354
 Sum of Mulliken charges =  -0.00000

 Dipole moment (field-independent basis, Debye):
    X=             -6.6017    Y=              1.9388    Z=              0.0000  Tot=              6.8805

 Test job not archived.
 1\1\GINC-SE457\SP\RHF\Aug-CC-pVDZ\C7H7N2P1\OHZDE\08-Apr-2025\0\\#t hf
 aug-cc-pvdz iop(5/13=1,5/36=2,99/5=2) pseudo=read geom=check guess=(re
 ad,tcheck) scf=(maxcycle=1)\\title\\0,1\C,0,2.007626,-0.049249,-0.0000
 01\C,0,1.486449,1.253443,0.\C,0,0.119092,1.462175,0.\C,0,1.114497,-1.1
 31108,-0.000001\C,0,-0.254678,-0.924756,-0.000001\C,0,-0.780061,0.3794
 39,0.\H,0,2.161807,2.100136,0.000001\H,0,-0.266883,2.476408,0.000001\H
 ,0,1.503182,-2.142095,-0.000002\H,0,-0.922124,-1.776697,-0.000002\N,0,
 -2.147956,0.640357,0.\P,0,-3.413059,-0.533028,0.000002\H,0,-2.382359,1

 Normal termination of Gaussian 16 at Tue Apr  8 23:34:25 2025.
