 Gaussian 16, Revision C.01,

 ----------------------------------------------------------------------
 #t hf aug-cc-pvdz symm=none int=(grid=ultrafine) guess=(read,tcheck) s
 table=(opt,rrhf)
 ----------------------------------------------------------------------
 -----
 title
 -----
 Symbolic Z-matrix:
 Charge =  0 Multiplicity = 1

 SCF Done:  E(RHF) =  -154.105737640     A.U. after   12 cycles
 Normal termination of Gaussian 16 at Tue Apr  8 22:44:27 2025.
 Gaussian 16:  ES64L-G16RevC.01  3-Jul-2019

 ----------------------------------------------------------------------
 #t hf aug-cc-pvdz iop(5/13=1,5/36=2,99/5=2) pseudo=read geom=check gue
 ss=(read,tcheck) scf=(maxcycle=1)
 ----------------------------------------------------------------------
 -----
 title
 -----
 Structure from the checkpoint file:  "BDE49_expt_154_mol1.chk"
 Charge =  0 Multiplicity = 1

                         Standard orientation:
 ---------------------------------------------------------------------
 Center     Atomic      Atomic             Coordinates (Angstroms)
 Number     Number       Type             X           Y           Z
 ---------------------------------------------------------------------
      1          6           0        0.085187    0.549907    0.000000
      2          8           0        1.150841   -0.398060   -0.000001
      3          1           0        1.981698    0.085425    0.000003
      4          6           0       -1.221060   -0.222554    0.000000
      5          1           0        0.136459    1.197836   -0.887438
      6          1           0        0.136460    1.197834    0.887440
      7          1           0       -1.285255   -0.860210   -0.884873
      8          1           0       -2.075604    0.459688    0.000001
      9          1           0       -1.285255   -0.860211    0.884873
 ---------------------------------------------------------------------

 SCF Done:  E(RHF) =  -154.157548609     A.U. after    2 cycles

 The electronic state is 1-A.
 Alpha  occ. eigenvalues --  -20.57005 -11.28711 -11.22364  -1.31795  -1.00670
 Alpha  occ. eigenvalues --   -0.83539  -0.71149  -0.65018  -0.58323  -0.53702
 Alpha  occ. eigenvalues --   -0.53179  -0.49565  -0.45348
 Alpha virt. eigenvalues --    0.03453   0.04796   0.05239   0.05422   0.07496
 Alpha virt. eigenvalues --    0.08106   0.12026   0.13594   0.14154   0.14619
 Alpha virt. eigenvalues --    0.16706   0.17591   0.17716   0.20230   0.22898

 Mulliken charges:
               1
     1  C    0.626163
     2  O   -0.532451
     3  H    0.121882
     4  C    0.157391
     5  H   -0.129514
     6  H   -0.129514
     7  H   -0.040643
     8  H   -0.032672
     9  H   -0.040642
 Sum of Mulliken charges =  -0.00000

 Dipole moment (field-independent basis, Debye):
    X=              0.0791    Y=              1.8032    Z=              0.0000  Tot=              1.8049

 Test job not archived.
 1\1\GINC-SE340\SP\RHF\Aug-CC-pVDZ\C2H6O1\OHZDE\08-Apr-2025\0\\#t hf au
 g-cc-pvdz iop(5/13=1,5/36=2,99/5=2) pseudo=read geom=check guess=(read
 ,tcheck) scf=(maxcycle=1)\\title\\0,1\C,0,0.085187,0.549907,0.\O,0,1.1
 50841,-0.39806,-0.000001\H,0,1.981698,0.085425,0.000003\C,0,-1.22106,-
 0.222554,0.\H,0,0.136459,1.197836,-0.887438\H,0,0.13646,1.197834,0.887
 44\H,0,-1.285255,-0.86021,-0.884873\H,0,-2.075604,0.459688,0.000001\H,
 0,-1.285255,-0.860211,0.884873\\Version=ES64L-G16RevC.01\State=1-A\HF=
 -154.1575486\RMSD=3.476e-03\Dipole=0.0311358,0.7094314,0.0000029\Quadr

 Normal termination of Gaussian 16 at Tue Apr  8 22:44:29 2025.
