 Gaussian 16, Revision C.01,

 ----------------------------------------------------------------------
 #t hf aug-cc-pvdz symm=none int=(grid=ultrafine) guess=(read,tcheck) s
 table=(opt,rrhf)
 ----------------------------------------------------------------------
 -----
 title
 -----
 Symbolic Z-matrix:
 Charge =  0 Multiplicity = 1

 SCF Done:  E(RHF) =  -1646.53437710     A.U. after   15 cycles

 1\1\GINC-SE082\Stability\RHF\Aug-CC-pVDZ\C7H5Cl3\OHZDE\08-Apr-2025\0\\
 #t hf aug-cc-pvdz symm=none int=(grid=ultrafine) guess=(read,tcheck) s
 table=(opt,rrhf)\\title\\0,1\C,0,-0.301904,-1.208867,0.360729\C,0,1.05
 0681,-1.192097,0.042712\C,0,1.748497,0.000001,-0.120966\C,0,1.050679,1
 .192098,0.042712\C,0,-0.301905,1.208867,0.360729\C,0,-0.982906,-0.0000
 01,0.521354\H,0,-0.81809,-2.153124,0.477125\Cl,0,1.90636,-2.708616,-0.
 153265\C,0,-2.442023,-0.000002,0.867351\H,0,-0.818092,2.153123,0.47712
 5\H,0,-2.727125,-0.889032,1.424882\Cl,0,-3.497262,-0.000001,-0.627924\

 Normal termination of Gaussian 16 at Tue Apr  8 22:48:43 2025.
 Gaussian 16:  ES64L-G16RevC.01  3-Jul-2019

 ----------------------------------------------------------------------
 #t hf aug-cc-pvdz iop(5/13=1,5/36=2,99/5=2) pseudo=read geom=check gue
 ss=(read,tcheck) scf=(maxcycle=1)
 ----------------------------------------------------------------------
 -----
 title
 -----
 Structure from the checkpoint file:  "BDE49_expt_1697_mol1.chk"
 Charge =  0 Multiplicity = 1

                         Standard orientation:
 ---------------------------------------------------------------------
 Center     Atomic      Atomic             Coordinates (Angstroms)
 Number     Number       Type             X           Y           Z
 ---------------------------------------------------------------------
      1          6           0       -0.301904   -1.208867    0.360729
      2          6           0        1.050681   -1.192097    0.042712
      3          6           0        1.748497    0.000001   -0.120966
      4          6           0        1.050679    1.192098    0.042712
      5          6           0       -0.301905    1.208867    0.360729
      6          6           0       -0.982906   -0.000001    0.521354
      7          1           0       -0.818091   -2.153124    0.477125
      8         17           0        1.906359   -2.708616   -0.153265
      9          6           0       -2.442023   -0.000002    0.867351
     10          1           0       -0.818092    2.153123    0.477125
     11          1           0       -2.727125   -0.889031    1.424882
     12         17           0       -3.497262   -0.000000   -0.627924
     13          1           0       -2.727126    0.889028    1.424883
     14         17           0        1.906357    2.708618   -0.153265
     15          1           0        2.800994    0.000000   -0.366031
 ---------------------------------------------------------------------

 SCF Done:  E(RHF) =  -1646.66672241     A.U. after    2 cycles

 The electronic state is 1-A.
 Alpha  occ. eigenvalues -- -103.68220-103.68220-103.66057 -11.33741 -11.33740
 Alpha  occ. eigenvalues --  -11.33005 -11.29386 -11.28421 -11.28036 -11.28028
 Alpha  occ. eigenvalues --  -10.71486 -10.71485 -10.69292  -8.37224  -8.37222
 Alpha  occ. eigenvalues --   -8.36912  -8.36911  -8.36895  -8.36894  -8.35008
 Alpha  occ. eigenvalues --   -8.34717  -8.34710  -1.23039  -1.19850  -1.17783
 Alpha  occ. eigenvalues --   -1.13495  -1.05421  -1.02162  -0.95201  -0.84651
 Alpha  occ. eigenvalues --   -0.83331  -0.72960  -0.71099  -0.65826  -0.62413
 Alpha  occ. eigenvalues --   -0.62313  -0.61586  -0.59727  -0.56796  -0.55245
 Alpha  occ. eigenvalues --   -0.54180  -0.52815  -0.48982  -0.48003  -0.47531
 Alpha  occ. eigenvalues --   -0.45902  -0.45850  -0.36739  -0.36066
 Alpha virt. eigenvalues --    0.03202   0.04328   0.04367   0.05657   0.06126
 Alpha virt. eigenvalues --    0.06946   0.07864   0.08116   0.09025   0.09408
 Alpha virt. eigenvalues --    0.09824   0.11007   0.12563   0.12710   0.13858

 Mulliken charges:
               1
     1  C    0.639187
     2  C   -0.501831
     3  C    0.982809
     4  C   -0.501828
     5  C    0.639191
     6  C    1.101556
     7  H   -0.517424
     8  Cl  -0.367974
     9  C    0.231694
    10  H   -0.517425
    11  H   -0.146910
    12  Cl  -0.140034
    13  H   -0.146909
    14  Cl  -0.367974
    15  H   -0.386127
 Sum of Mulliken charges =  -0.00000

 Dipole moment (field-independent basis, Debye):
    X=             -0.3450    Y=             -0.0000    Z=              2.0598  Tot=              2.0885

 Test job not archived.
 1\1\GINC-SE082\SP\RHF\Aug-CC-pVDZ\C7H5Cl3\OHZDE\08-Apr-2025\0\\#t hf a
 ug-cc-pvdz iop(5/13=1,5/36=2,99/5=2) pseudo=read geom=check guess=(rea
 d,tcheck) scf=(maxcycle=1)\\title\\0,1\C,0,-0.301904,-1.208867,0.36072
 9\C,0,1.050681,-1.192097,0.042712\C,0,1.748497,0.000001,-0.120966\C,0,
 1.050679,1.192098,0.042712\C,0,-0.301905,1.208867,0.360729\C,0,-0.9829
 06,-0.000001,0.521354\H,0,-0.81809,-2.153124,0.477125\Cl,0,1.90636,-2.
 708616,-0.153265\C,0,-2.442023,-0.000002,0.867351\H,0,-0.818092,2.1531
 23,0.477125\H,0,-2.727125,-0.889032,1.424882\Cl,0,-3.497262,-0.000001,

 Normal termination of Gaussian 16 at Tue Apr  8 22:48:52 2025.
