 Gaussian 16, Revision C.01,

 ----------------------------------------------------------------------
 #t hf aug-cc-pvdz symm=none int=(grid=ultrafine) guess=(read,tcheck) s
 table=(opt,rrhf)
 ----------------------------------------------------------------------
 -----
 title
 -----
 Symbolic Z-matrix:
 Charge =  0 Multiplicity = 1

 SCF Done:  E(RHF) =  -874.315836001     A.U. after   15 cycles
 Normal termination of Gaussian 16 at Tue Apr  8 23:17:02 2025.
 Gaussian 16:  ES64L-G16RevC.01  3-Jul-2019

 ----------------------------------------------------------------------
 #t hf aug-cc-pvdz iop(5/13=1,5/36=2,99/5=2) pseudo=read geom=check gue
 ss=(read,tcheck) scf=(maxcycle=1)
 ----------------------------------------------------------------------
 -----
 title
 -----
 Structure from the checkpoint file:  "BDE49_nonexpt_1070_mol1.chk"
 Charge =  0 Multiplicity = 1

                         Standard orientation:
 ---------------------------------------------------------------------
 Center     Atomic      Atomic             Coordinates (Angstroms)
 Number     Number       Type             X           Y           Z
 ---------------------------------------------------------------------
      1         17           0        2.879045   -0.128749   -0.133852
      2          8           0        1.259470   -0.724341   -0.247858
      3          6           0        0.323085    0.133800    0.264055
      4          8           0        0.489687    1.213348    0.716034
      5          8           0       -0.838174   -0.577214    0.181419
      6          6           0       -2.035471    0.092151   -0.168288
      7          8           0       -2.045309    1.157212   -0.689736
      8          6           0       -3.196358   -0.784568    0.192677
      9          1           0       -3.227087   -0.919109    1.276495
     10          1           0       -3.072288   -1.771450   -0.257158
     11          1           0       -4.117319   -0.321054   -0.153394
 ---------------------------------------------------------------------

 SCF Done:  E(RHF) =  -874.469757839     A.U. after    2 cycles

 The electronic state is 1-A.
 Alpha  occ. eigenvalues -- -103.74623 -20.70333 -20.66734 -20.60394 -20.60277
 Alpha  occ. eigenvalues --  -11.48853 -11.43759 -11.27973 -10.77230  -8.43004
 Alpha  occ. eigenvalues --   -8.42535  -8.42520  -1.50560  -1.43582  -1.38677
 Alpha  occ. eigenvalues --   -1.37117  -1.15140  -1.05502  -0.92177  -0.80896
 Alpha  occ. eigenvalues --   -0.77211  -0.74694  -0.74101  -0.69225  -0.67703
 Alpha  occ. eigenvalues --   -0.65651  -0.63143  -0.60807  -0.59301  -0.56374
 Alpha  occ. eigenvalues --   -0.53314  -0.53066  -0.50823  -0.50231  -0.48822
 Alpha virt. eigenvalues --    0.02764   0.03340   0.05156   0.05424   0.07090
 Alpha virt. eigenvalues --    0.08861   0.10205   0.11041   0.11756   0.12829
 Alpha virt. eigenvalues --    0.13301   0.13698   0.14140   0.14684   0.15014

 Mulliken charges:
               1
     1  Cl   0.346061
     2  O   -0.643624
     3  C    0.676962
     4  O   -0.269523
     5  O   -0.511403
     6  C    0.360125
     7  O   -0.353146
     8  C    0.303578
     9  H    0.042993
    10  H    0.046074
    11  H    0.001903
 Sum of Mulliken charges =  -0.00000

 Dipole moment (field-independent basis, Debye):
    X=             -1.6229    Y=             -3.1875    Z=              0.5469  Tot=              3.6184

 Test job not archived.
 1\1\GINC-SE435\SP\RHF\Aug-CC-pVDZ\C3H3Cl1O4\OHZDE\08-Apr-2025\0\\#t hf
  aug-cc-pvdz iop(5/13=1,5/36=2,99/5=2) pseudo=read geom=check guess=(r
 ead,tcheck) scf=(maxcycle=1)\\title\\0,1\Cl,0,2.879045,-0.128749,-0.13
 3852\O,0,1.25947,-0.724341,-0.247858\C,0,0.323085,0.1338,0.264055\O,0,
 0.489687,1.213348,0.716034\O,0,-0.838174,-0.577214,0.181419\C,0,-2.035
 471,0.092151,-0.168288\O,0,-2.045309,1.157212,-0.689736\C,0,-3.196358,
 -0.784568,0.192677\H,0,-3.227087,-0.919109,1.276495\H,0,-3.072288,-1.7
 7145,-0.257158\H,0,-4.117319,-0.321054,-0.153394\\Version=ES64L-G16Rev

 Normal termination of Gaussian 16 at Tue Apr  8 23:17:06 2025.
