 Gaussian 16, Revision C.01,

 ----------------------------------------------------------------------
 #t hf aug-cc-pvdz symm=none int=(grid=ultrafine) guess=(read,tcheck) s
 table=(opt,rrhf)
 ----------------------------------------------------------------------
 -----
 title
 -----
 Symbolic Z-matrix:
 Charge =  0 Multiplicity = 1

 SCF Done:  E(RHF) =  -696.429737232     A.U. after   12 cycles
 Normal termination of Gaussian 16 at Tue Apr  8 23:27:31 2025.
 Gaussian 16:  ES64L-G16RevC.01  3-Jul-2019

 ----------------------------------------------------------------------
 #t hf aug-cc-pvdz iop(5/13=1,5/36=2,99/5=2) pseudo=read geom=check gue
 ss=(read,tcheck) scf=(maxcycle=1)
 ----------------------------------------------------------------------
 -----
 title
 -----
 Structure from the checkpoint file:  "BDE49_nonexpt_1345_mol1.chk"
 Charge =  0 Multiplicity = 1

                         Standard orientation:
 ---------------------------------------------------------------------
 Center     Atomic      Atomic             Coordinates (Angstroms)
 Number     Number       Type             X           Y           Z
 ---------------------------------------------------------------------
      1          6           0        0.826876    0.000000    0.040937
      2         15           0       -0.905181   -0.000000   -0.648953
      3          9           0       -1.507903   -1.227869    0.231323
      4          9           0       -1.507903    1.227869    0.231323
      5          6           0        1.512513    1.265055   -0.511559
      6          1           0        1.486519    1.298525   -1.605723
      7          1           0        2.563595    1.280075   -0.206919
      8          1           0        1.039232    2.174177   -0.132798
      9          6           0        1.512513   -1.265055   -0.511559
     10          1           0        1.486519   -1.298525   -1.605724
     11          1           0        1.039232   -2.174177   -0.132798
     12          1           0        2.563596   -1.280075   -0.206919
     13          6           0        0.823521    0.000000    1.576934
     14          1           0        0.317977    0.883694    1.970957
     15          1           0        1.852788    0.000000    1.950930
     16          1           0        0.317977   -0.883694    1.970957
 ---------------------------------------------------------------------

 SCF Done:  E(RHF) =  -696.584912090     A.U. after    2 cycles

 The electronic state is 1-A.
 Alpha  occ. eigenvalues --  -81.38244 -26.12807 -26.12804 -11.26617 -11.24480
 Alpha  occ. eigenvalues --  -11.24474 -11.23515  -7.87021  -5.01148  -5.00924
 Alpha  occ. eigenvalues --   -5.00440  -1.65910  -1.64581  -1.10018  -0.94929
 Alpha  occ. eigenvalues --   -0.94477  -0.88685  -0.78726  -0.78096  -0.75653
 Alpha  occ. eigenvalues --   -0.74057  -0.72949  -0.70095  -0.65007  -0.61550
 Alpha  occ. eigenvalues --   -0.60995  -0.56030  -0.55504  -0.53323  -0.50669
 Alpha  occ. eigenvalues --   -0.48976  -0.48660  -0.37870
 Alpha virt. eigenvalues --    0.03305   0.04566   0.04702   0.05660   0.06907
 Alpha virt. eigenvalues --    0.07027   0.07246   0.07512   0.07737   0.09319
 Alpha virt. eigenvalues --    0.10468   0.11547   0.12328   0.13889   0.13938

 Mulliken charges:
               1
     1  C   -2.517943
     2  P    1.333231
     3  F   -0.652813
     4  F   -0.652813
     5  C    0.897508
     6  H   -0.059358
     7  H   -0.020602
     8  H   -0.034630
     9  C    0.897502
    10  H   -0.059356
    11  H   -0.034630
    12  H   -0.020600
    13  C    1.025879
    14  H   -0.055223
    15  H    0.009071
    16  H   -0.055223
 Sum of Mulliken charges =  -0.00000

 Dipole moment (field-independent basis, Debye):
    X=              2.8029    Y=              0.0000    Z=             -0.7069  Tot=              2.8906

 Test job not archived.
 1\1\GINC-SE069\SP\RHF\Aug-CC-pVDZ\C4H9F2P1\OHZDE\08-Apr-2025\0\\#t hf
 aug-cc-pvdz iop(5/13=1,5/36=2,99/5=2) pseudo=read geom=check guess=(re
 ad,tcheck) scf=(maxcycle=1)\\title\\0,1\C,0,0.826876,0.,0.040937\P,0,-
 0.905181,0.,-0.648953\F,0,-1.507903,-1.227869,0.231323\F,0,-1.507903,1
 .227869,0.231323\C,0,1.512513,1.265055,-0.511559\H,0,1.486519,1.298525
 ,-1.605723\H,0,2.563595,1.280075,-0.206919\H,0,1.039232,2.174177,-0.13
 2798\C,0,1.512513,-1.265055,-0.511559\H,0,1.486519,-1.298525,-1.605724
 \H,0,1.039232,-2.174177,-0.132798\H,0,2.563596,-1.280075,-0.206919\C,0

 Normal termination of Gaussian 16 at Tue Apr  8 23:27:37 2025.
