 Gaussian 16, Revision C.01,

 ----------------------------------------------------------------------
 #t hf aug-cc-pvdz symm=none int=(grid=ultrafine) guess=(read,tcheck) s
 table=(opt,rrhf)
 ----------------------------------------------------------------------
 -----
 title
 -----
 Symbolic Z-matrix:
 Charge =  0 Multiplicity = 1

 SCF Done:  E(RHF) =  -395.259512012     A.U. after   12 cycles
 Normal termination of Gaussian 16 at Wed Apr  9 00:32:31 2025.
 Gaussian 16:  ES64L-G16RevC.01  3-Jul-2019

 ----------------------------------------------------------------------
 #t hf aug-cc-pvdz iop(5/13=1,5/36=2,99/5=2) pseudo=read geom=check gue
 ss=(read,tcheck) scf=(maxcycle=1)
 ----------------------------------------------------------------------
 -----
 title
 -----
 Structure from the checkpoint file:  "BDE49_nonexpt_408_mol1.chk"
 Charge =  0 Multiplicity = 1

                         Standard orientation:
 ---------------------------------------------------------------------
 Center     Atomic      Atomic             Coordinates (Angstroms)
 Number     Number       Type             X           Y           Z
 ---------------------------------------------------------------------
      1          9           0       -1.618813   -1.448692    0.000502
      2          9           0       -2.164195    0.739371    0.000770
      3          5           0       -1.213643   -0.193745   -0.000935
      4          6           0        0.302274    0.216363   -0.000454
      5          7           0        1.121396   -0.768240   -0.000390
      6          6           0        2.555738   -0.554317   -0.000031
      7          1           0        2.973553   -1.062715    0.874864
      8          1           0        2.889795    0.488956    0.000174
      9          1           0        2.973964   -1.062503   -0.874853
     10          6           0        0.666450    1.694315   -0.000170
     11          1           0       -0.233021    2.309199   -0.000330
     12          1           0        1.257461    1.959707   -0.881866
     13          1           0        1.256997    1.959483    0.881905
 ---------------------------------------------------------------------

 SCF Done:  E(RHF) =  -395.402832019     A.U. after    2 cycles

 The electronic state is 1-A.
 Alpha  occ. eigenvalues --  -26.13795 -26.13081 -15.64775 -11.28619 -11.26836
 Alpha  occ. eigenvalues --  -11.24952  -7.73625  -1.68832  -1.66473  -1.20886
 Alpha  occ. eigenvalues --   -1.00935  -0.94737  -0.87576  -0.81727  -0.80079
 Alpha  occ. eigenvalues --   -0.76507  -0.72458  -0.71686  -0.71175  -0.65279
 Alpha  occ. eigenvalues --   -0.62252  -0.61305  -0.57556  -0.55752  -0.52414
 Alpha  occ. eigenvalues --   -0.41725  -0.40392
 Alpha virt. eigenvalues --    0.02936   0.04227   0.04348   0.05310   0.06707
 Alpha virt. eigenvalues --    0.06871   0.06987   0.07385   0.07919   0.08774
 Alpha virt. eigenvalues --    0.09423   0.12921   0.13660   0.14964   0.15077

 Mulliken charges:
               1
     1  F   -0.425778
     2  F   -0.427837
     3  B    1.028909
     4  C    0.062561
     5  N   -0.591747
     6  C    0.710814
     7  H   -0.122116
     8  H   -0.141781
     9  H   -0.122142
    10  C    0.203149
    11  H   -0.292877
    12  H    0.059510
    13  H    0.059334
 Sum of Mulliken charges =   0.00000

 Dipole moment (field-independent basis, Debye):
    X=              2.6504    Y=              2.1689    Z=             -0.0054  Tot=              3.4247

 Test job not archived.
 1\1\GINC-SE102\SP\RHF\Aug-CC-pVDZ\C3H6B1F2N1\OHZDE\09-Apr-2025\0\\#t h
 f aug-cc-pvdz iop(5/13=1,5/36=2,99/5=2) pseudo=read geom=check guess=(
 read,tcheck) scf=(maxcycle=1)\\title\\0,1\F,0,-1.618813,-1.448692,0.00
 0502\F,0,-2.164195,0.73937,0.00077\B,0,-1.213643,-0.193745,-0.000935\C
 ,0,0.302274,0.216363,-0.000454\N,0,1.121396,-0.76824,-0.00039\C,0,2.55
 5738,-0.554316,-0.000031\H,0,2.973553,-1.062714,0.874864\H,0,2.889795,
 0.488957,0.000174\H,0,2.973964,-1.062502,-0.874853\C,0,0.666449,1.6943
 15,-0.00017\H,0,-0.233022,2.309199,-0.00033\H,0,1.25746,1.959707,-0.88

 Normal termination of Gaussian 16 at Wed Apr  9 00:32:35 2025.
