 Gaussian 16, Revision C.01,

 ----------------------------------------------------------------------
 #t hf aug-cc-pvdz symm=none int=(grid=ultrafine) guess=(read,tcheck) s
 table=opt
 ----------------------------------------------------------------------
 -----
 title
 -----
 Symbolic Z-matrix:
 Charge =  0 Multiplicity = 2

 SCF Done:  E(UHF) =  -576.581448013     A.U. after   16 cycles

 1\1\GINC-SE338\Stability\UHF\Aug-CC-pVDZ\C3H6Cl1\OHZDE\08-Apr-2025\0\\
 #t hf aug-cc-pvdz symm=none int=(grid=ultrafine) guess=(read,tcheck) s
 table=opt\\title\\0,2\C,0,-0.18295,0.397856,0.\C,0,0.021566,1.07472,1.
 31036\H,0,-0.492651,0.548296,2.117746\H,0,-0.358534,2.099444,1.265304\
 C,0,0.021566,1.07472,-1.31036\Cl,0,0.021566,-1.343461,0.\H,0,-0.358534
 ,2.099444,-1.265304\H,0,-0.492651,0.548296,-2.117746\H,0,1.087327,1.12
 9789,-1.583952\H,0,1.087327,1.129789,1.583952\\Version=ES64L-G16RevC.0
 1\HF=-576.581448\S2=0.766423\S2-1=0.\S2A=0.75022\RMSD=6.121e-09\Dipole

 Normal termination of Gaussian 16 at Tue Apr  8 22:37:28 2025.
 Gaussian 16:  ES64L-G16RevC.01  3-Jul-2019

 ----------------------------------------------------------------------
 #t hf aug-cc-pvdz iop(5/13=1,5/36=2,99/5=2) pseudo=read geom=check gue
 ss=(read,tcheck) scf=(maxcycle=1)
 ----------------------------------------------------------------------
 -----
 title
 -----
 Structure from the checkpoint file:  "BDE49_expt_1233_mol2.chk"
 Charge =  0 Multiplicity = 2

                         Standard orientation:
 ---------------------------------------------------------------------
 Center     Atomic      Atomic             Coordinates (Angstroms)
 Number     Number       Type             X           Y           Z
 ---------------------------------------------------------------------
      1          6           0       -0.182950    0.397856   -0.000000
      2          6           0        0.021566    1.074720    1.310360
      3          1           0       -0.492651    0.548296    2.117746
      4          1           0       -0.358534    2.099444    1.265304
      5          6           0        0.021566    1.074720   -1.310360
      6         17           0        0.021566   -1.343461    0.000000
      7          1           0       -0.358534    2.099444   -1.265304
      8          1           0       -0.492651    0.548296   -2.117746
      9          1           0        1.087327    1.129789   -1.583952
     10          1           0        1.087327    1.129789    1.583952
 ---------------------------------------------------------------------

 SCF Done:  E(UHF) =  -576.638172122     A.U. after    2 cycles

 The electronic state is 2-A'.
 Alpha  occ. eigenvalues -- -103.65530 -11.30698 -11.24556 -11.24549 -10.68831
 Alpha  occ. eigenvalues --   -8.34462  -8.34353  -8.34261  -1.18476  -1.03838
 Alpha  occ. eigenvalues --   -0.95955  -0.77894  -0.63849  -0.63131  -0.60972
 Alpha  occ. eigenvalues --   -0.56218  -0.53229  -0.51884  -0.49357  -0.45195
 Alpha  occ. eigenvalues --   -0.34208
 Alpha virt. eigenvalues --    0.03375   0.04742   0.05467   0.06021   0.07283
 Alpha virt. eigenvalues --    0.07686   0.09256   0.10691   0.13775   0.14507
 Alpha virt. eigenvalues --    0.15714   0.16465   0.16763   0.17127   0.18057

  Beta  occ. eigenvalues -- -103.65520 -11.27909 -11.24857 -11.24849 -10.68818
  Beta  occ. eigenvalues --   -8.34676  -8.34254  -8.34103  -1.16468  -1.01867
  Beta  occ. eigenvalues --   -0.95884  -0.73030  -0.62355  -0.60079  -0.58709
  Beta  occ. eigenvalues --   -0.55192  -0.52692  -0.51333  -0.46788  -0.45084
  Beta virt. eigenvalues --    0.03351   0.04760   0.05348   0.06021   0.07297
  Beta virt. eigenvalues --    0.07688   0.09196   0.10481   0.12016   0.13839
  Beta virt. eigenvalues --    0.14557   0.16120   0.16519   0.16832   0.17764

 Mulliken charges and spin densities:
               1          2
     1  C   -0.612596   1.321519
     2  C    0.467956  -0.219681
     3  H   -0.054465   0.013213
     4  H   -0.035008   0.004028
     5  C    0.467956  -0.219681
     6  Cl  -0.293882  -0.019955
     7  H   -0.035008   0.004028
     8  H   -0.054465   0.013213
     9  H    0.074756   0.051658
    10  H    0.074756   0.051658
 Sum of Mulliken charges =  -0.00000   1.00000

 Dipole moment (field-independent basis, Debye):
    X=              0.0918    Y=              2.1804    Z=             -0.0000  Tot=              2.1824
                          Isotropic Fermi Contact Couplings
        Atom                 a.u.       MegaHertz       Gauss      10(-4) cm-1
     1  C(13)              0.31543     354.59801     126.52939     118.28117
     2  C(13)             -0.05327     -59.88024     -21.36676     -19.97390
     3  H(1)               0.00861      38.50053      13.73794      12.84239
     4  H(1)               0.00443      19.78391       7.05939       6.59920
     5  C(13)             -0.05327     -59.88024     -21.36676     -19.97390
     6  Cl(35)             0.02373      10.40338       3.71218       3.47019
     7  H(1)               0.00443      19.78391       7.05939       6.59920
     8  H(1)               0.00861      38.50053      13.73794      12.84239

 Normal termination of Gaussian 16 at Tue Apr  8 22:37:30 2025.
