 Gaussian 16, Revision C.01,

 ----------------------------------------------------------------------
 #t hf aug-cc-pvdz symm=none int=(grid=ultrafine) guess=(read,tcheck) s
 table=(opt,rrhf)
 ----------------------------------------------------------------------
 -----
 title
 -----
 Symbolic Z-matrix:
 Charge =  0 Multiplicity = 1

 SCF Done:  E(RHF) =  -611.406772752     A.U. after   14 cycles
 Normal termination of Gaussian 16 at Wed Apr  9 00:22:08 2025.
 Gaussian 16:  ES64L-G16RevC.01  3-Jul-2019

 ----------------------------------------------------------------------
 #t hf aug-cc-pvdz iop(5/13=1,5/36=2,99/5=2) pseudo=read geom=check gue
 ss=(read,tcheck) scf=(maxcycle=1)
 ----------------------------------------------------------------------
 -----
 title
 -----
 Structure from the checkpoint file:  "BDE49_nonexpt_2702_mol1.chk"
 Charge =  0 Multiplicity = 1

                         Standard orientation:
 ---------------------------------------------------------------------
 Center     Atomic      Atomic             Coordinates (Angstroms)
 Number     Number       Type             X           Y           Z
 ---------------------------------------------------------------------
      1         16           0        0.643801   -0.585889    0.168766
      2          9           0        1.422071    0.876952   -0.088528
      3          8           0       -0.793831   -0.342651   -0.540563
      4          6           0       -1.779141    0.409513    0.213490
      5          1           0       -2.702980    0.336753   -0.358732
      6          1           0       -1.464444    1.451044    0.290691
      7          1           0       -1.906533   -0.022019    1.208100
 ---------------------------------------------------------------------

 SCF Done:  E(RHF) =  -611.510438500     A.U. after    2 cycles

 The electronic state is 1-A.
 Alpha  occ. eigenvalues --  -93.67032 -26.12881 -20.64047 -11.31447  -8.95246
 Alpha  occ. eigenvalues --   -6.29436  -6.29123  -6.28542  -1.64023  -1.38069
 Alpha  occ. eigenvalues --   -1.00718  -0.90286  -0.74534  -0.73531  -0.73241
 Alpha  occ. eigenvalues --   -0.66795  -0.66217  -0.60135  -0.53749  -0.51473
 Alpha  occ. eigenvalues --   -0.38336
 Alpha virt. eigenvalues --    0.03404   0.05361   0.05707   0.07681   0.07956
 Alpha virt. eigenvalues --    0.09082   0.12267   0.14181   0.15158   0.16426
 Alpha virt. eigenvalues --    0.16589   0.19509   0.20853   0.22308   0.25939

 Mulliken charges:
               1
     1  S    1.007493
     2  F   -0.602116
     3  O   -0.827236
     4  C    0.738691
     5  H   -0.179215
     6  H   -0.072080
     7  H   -0.065537
 Sum of Mulliken charges =   0.00000

 Dipole moment (field-independent basis, Debye):
    X=             -2.4011    Y=             -0.5866    Z=              1.3597  Tot=              2.8211

 Test job not archived.
 1\1\GINC-SE126\SP\RHF\Aug-CC-pVDZ\C1H3F1O1S1\OHZDE\09-Apr-2025\0\\#t h
 f aug-cc-pvdz iop(5/13=1,5/36=2,99/5=2) pseudo=read geom=check guess=(
 read,tcheck) scf=(maxcycle=1)\\title\\0,1\S,0,0.643801,-0.585889,0.168
 766\F,0,1.422071,0.876952,-0.088528\O,0,-0.793831,-0.342651,-0.540563\
 C,0,-1.779141,0.409513,0.21349\H,0,-2.70298,0.336753,-0.358732\H,0,-1.
 464444,1.451044,0.290691\H,0,-1.906533,-0.022019,1.2081\\Version=ES64L
 -G16RevC.01\State=1-A\HF=-611.5104385\RMSD=3.647e-03\Dipole=-0.9446658
 ,-0.2307945,0.5349668\Quadrupole=1.5166076,-0.2543753,-1.2622323,-2.37

 Normal termination of Gaussian 16 at Wed Apr  9 00:22:11 2025.
