 Gaussian 16, Revision C.01,

 ----------------------------------------------------------------------
 #t hf aug-cc-pvdz symm=none int=(grid=ultrafine) guess=(read,tcheck) s
 table=(opt,rrhf)
 ----------------------------------------------------------------------
 -----
 title
 -----
 Symbolic Z-matrix:
 Charge =  0 Multiplicity = 1

 SCF Done:  E(RHF) =  -446.872849395     A.U. after   15 cycles
 Normal termination of Gaussian 16 at Tue Apr  8 23:22:48 2025.
 Gaussian 16:  ES64L-G16RevC.01  3-Jul-2019

 ----------------------------------------------------------------------
 #t hf aug-cc-pvdz iop(5/13=1,5/36=2,99/5=2) pseudo=read geom=check gue
 ss=(read,tcheck) scf=(maxcycle=1)
 ----------------------------------------------------------------------
 -----
 title
 -----
 Structure from the checkpoint file:  "BDE49_nonexpt_1183_mol1.chk"
 Charge =  0 Multiplicity = 1

                         Standard orientation:
 ---------------------------------------------------------------------
 Center     Atomic      Atomic             Coordinates (Angstroms)
 Number     Number       Type             X           Y           Z
 ---------------------------------------------------------------------
      1          6           0       -0.278486   -1.062195   -0.488063
      2          6           0       -1.622807   -1.450593    0.143175
      3          6           0       -2.673851   -0.347020   -0.042195
      4          6           0       -2.168508    1.002706    0.486933
      5          6           0       -0.821197    1.389425   -0.140901
      6          6           0        1.554017    0.698213   -0.589649
      7          6           0        0.232330    0.283631    0.051409
      8          8           0        2.600610   -0.256238   -0.460183
      9          9           0        2.929593   -0.282174    0.955255
     10          1           0       -0.398804   -0.986866   -1.578136
     11          1           0        0.469201   -1.838892   -0.308710
     12          1           0       -1.477254   -1.635647    1.215129
     13          1           0       -1.980036   -2.391079   -0.287944
     14          1           0       -3.606815   -0.622593    0.459713
     15          1           0       -2.910939   -0.250062   -1.109752
     16          1           0       -2.051484    0.942920    1.576411
     17          1           0       -2.907778    1.787039    0.295910
     18          1           0       -0.462559    2.331181    0.289423
     19          1           0       -0.962932    1.570098   -1.215624
     20          1           0        1.903915    1.668318   -0.219911
     21          1           0        1.467177    0.754914   -1.683527
     22          1           0        0.418112    0.175135    1.126931
 ---------------------------------------------------------------------

 SCF Done:  E(RHF) =  -447.013492555     A.U. after    2 cycles

 The electronic state is 1-A.
 Alpha  occ. eigenvalues --  -26.14704 -20.69392 -11.30929 -11.24338 -11.23833
 Alpha  occ. eigenvalues --  -11.23359 -11.23062 -11.23038 -11.22983  -1.65042
 Alpha  occ. eigenvalues --   -1.31667  -1.11710  -1.02889  -1.00283  -0.92320
 Alpha  occ. eigenvalues --   -0.84054  -0.82184  -0.77103  -0.75668  -0.74906
 Alpha  occ. eigenvalues --   -0.71486  -0.65588  -0.64148  -0.62326  -0.61062
 Alpha  occ. eigenvalues --   -0.60339  -0.57136  -0.56056  -0.53527  -0.51904
 Alpha  occ. eigenvalues --   -0.50055  -0.49234  -0.48566  -0.46064  -0.44006
 Alpha  occ. eigenvalues --   -0.43711
 Alpha virt. eigenvalues --    0.03282   0.03966   0.04095   0.04669   0.05890
 Alpha virt. eigenvalues --    0.06120   0.06527   0.06596   0.07169   0.08797
 Alpha virt. eigenvalues --    0.08869   0.08978   0.09089   0.11691   0.12752

 Mulliken charges:
               1
     1  C    0.444761
     2  C    0.350998
     3  C    0.222628
     4  C    0.274714
     5  C    0.576140
     6  C    1.297498
     7  C   -1.114571
     8  O   -0.241373
     9  F   -0.369215
    10  H   -0.083709
    11  H   -0.129940
    12  H   -0.086649
    13  H   -0.105250
    14  H   -0.116389
    15  H   -0.097380
    16  H   -0.092937
    17  H   -0.099304
    18  H   -0.175093
    19  H   -0.074094
    20  H   -0.093180
    21  H   -0.092636
    22  H   -0.195018
 Sum of Mulliken charges =  -0.00000

 Dipole moment (field-independent basis, Debye):
    X=             -2.5399    Y=              1.3743    Z=             -1.2658  Tot=              3.1531

 Test job not archived.
 1\1\GINC-SE229\SP\RHF\Aug-CC-pVDZ\C7H13F1O1\OHZDE\08-Apr-2025\0\\#t hf
  aug-cc-pvdz iop(5/13=1,5/36=2,99/5=2) pseudo=read geom=check guess=(r
 ead,tcheck) scf=(maxcycle=1)\\title\\0,1\C,0,-0.278486,-1.062195,-0.48
 8063\C,0,-1.622807,-1.450593,0.143175\C,0,-2.673851,-0.34702,-0.042195
 \C,0,-2.168508,1.002706,0.486933\C,0,-0.821197,1.389425,-0.140901\C,0,
 1.554017,0.698213,-0.589649\C,0,0.23233,0.283631,0.051409\O,0,2.60061,
 -0.256238,-0.460183\F,0,2.929593,-0.282174,0.955255\H,0,-0.398804,-0.9
 86866,-1.578136\H,0,0.469201,-1.838892,-0.30871\H,0,-1.477254,-1.63564

 Normal termination of Gaussian 16 at Tue Apr  8 23:23:01 2025.
