 Gaussian 16, Revision C.01,

 ----------------------------------------------------------------------
 #t hf aug-cc-pvdz symm=none int=(grid=ultrafine) guess=(read,tcheck) s
 table=opt
 ----------------------------------------------------------------------
 -----
 title
 -----
 Symbolic Z-matrix:
 Charge =  0 Multiplicity = 2

 SCF Done:  E(UHF) =  -1544.75457352     A.U. after   16 cycles
 Normal termination of Gaussian 16 at Tue Apr  8 23:46:15 2025.
 Gaussian 16:  ES64L-G16RevC.01  3-Jul-2019

 ----------------------------------------------------------------------
 #t hf aug-cc-pvdz iop(5/13=1,5/36=2,99/5=2) pseudo=read geom=check gue
 ss=(read,tcheck) scf=(maxcycle=1)
 ----------------------------------------------------------------------
 -----
 title
 -----
 Structure from the checkpoint file:  "BDE49_nonexpt_1801_mol2.chk"
 Charge =  0 Multiplicity = 2

                         Standard orientation:
 ---------------------------------------------------------------------
 Center     Atomic      Atomic             Coordinates (Angstroms)
 Number     Number       Type             X           Y           Z
 ---------------------------------------------------------------------
      1         14           0        0.019398   -0.053358    0.556229
      2         16           0        0.148693    1.989588   -0.130620
      3         17           0        1.649757   -1.169888   -0.171981
      4          1           0        1.492485    2.019098   -0.068214
      5         16           0       -1.890511   -0.713737   -0.205991
      6          1           0       -1.940849   -1.797611    0.590460
 ---------------------------------------------------------------------

 SCF Done:  E(UHF) =  -1544.83099740     A.U. after    2 cycles

 The electronic state is 2-A.
 Alpha  occ. eigenvalues -- -103.66832 -93.55918 -93.55904 -69.17837 -10.70226
 Alpha  occ. eigenvalues --   -8.85812  -8.85806  -8.36065  -8.35668  -8.35637
 Alpha  occ. eigenvalues --   -6.92216  -6.19975  -6.19960  -6.19816  -6.19783
 Alpha  occ. eigenvalues --   -6.19446  -6.19410  -4.03175  -4.02577  -4.02538
 Alpha  occ. eigenvalues --   -1.15266  -0.99362  -0.96496  -0.68372  -0.59553
 Alpha  occ. eigenvalues --   -0.55011  -0.51898  -0.51386  -0.50852  -0.45978
 Alpha  occ. eigenvalues --   -0.42244  -0.39882  -0.33975
 Alpha virt. eigenvalues --    0.03681   0.04669   0.05700   0.06112   0.08586
 Alpha virt. eigenvalues --    0.09118   0.10251   0.10757   0.12091   0.12374
 Alpha virt. eigenvalues --    0.13582   0.13889   0.14349   0.15460   0.16510

  Beta  occ. eigenvalues -- -103.66691 -93.55806 -93.55782 -69.17269 -10.70071
  Beta  occ. eigenvalues --   -8.85686  -8.85671  -8.35683  -8.35560  -8.35423
  Beta  occ. eigenvalues --   -6.91260  -6.19821  -6.19801  -6.19552  -6.19496
  Beta  occ. eigenvalues --   -6.19257  -6.19181  -4.02241  -4.02186  -4.01333
  Beta  occ. eigenvalues --   -1.14087  -0.98292  -0.95584  -0.65424  -0.58340
  Beta  occ. eigenvalues --   -0.54424  -0.51331  -0.49523  -0.48450  -0.44413
  Beta  occ. eigenvalues --   -0.40876  -0.39070
  Beta virt. eigenvalues --    0.00725   0.04530   0.04837   0.05862   0.06318
  Beta virt. eigenvalues --    0.09033   0.09585   0.10618   0.11476   0.12340
  Beta virt. eigenvalues --    0.13007   0.14007   0.15225   0.15678   0.15905

 Mulliken charges and spin densities:
               1          2
     1  Si   1.102178   0.776359
     2  S   -0.373246   0.094974
     3  Cl  -0.497898   0.055302
     4  H    0.070936  -0.010890
     5  S   -0.383116   0.092979
     6  H    0.081146  -0.008724
 Sum of Mulliken charges =  -0.00000   1.00000

 Dipole moment (field-independent basis, Debye):
    X=             -0.0516    Y=             -0.0954    Z=              1.2372  Tot=              1.2419
                          Isotropic Fermi Contact Couplings
        Atom                 a.u.       MegaHertz       Gauss      10(-4) cm-1
     1  Si(29)             0.89530    -795.67824    -283.91778    -265.40969
     2  S(33)              0.04208      14.45359       5.15740       4.82120
     3  Cl(35)             0.08873      38.90658      13.88284      12.97784
     4  H(1)              -0.00144      -6.42355      -2.29208      -2.14267
     5  S(33)              0.01984       6.81379       2.43133       2.27284
     6  H(1)               0.00205       9.18331       3.27683       3.06322
 --------------------------------------------------------
       Center         ----  Spin Dipole Couplings  ----

 Normal termination of Gaussian 16 at Tue Apr  8 23:46:17 2025.
