 Gaussian 16, Revision C.01,

 ----------------------------------------------------------------------
 #t hf aug-cc-pvdz symm=none int=(grid=ultrafine) guess=(read,tcheck) s
 table=(opt,rrhf)
 ----------------------------------------------------------------------
 -----
 title
 -----
 Symbolic Z-matrix:
 Charge =  0 Multiplicity = 1

 SCF Done:  E(RHF) =  -701.411060429     A.U. after   16 cycles
 Normal termination of Gaussian 16 at Tue Apr  8 23:16:49 2025.
 Gaussian 16:  ES64L-G16RevC.01  3-Jul-2019

 ----------------------------------------------------------------------
 #t hf aug-cc-pvdz iop(5/13=1,5/36=2,99/5=2) pseudo=read geom=check gue
 ss=(read,tcheck) scf=(maxcycle=1)
 ----------------------------------------------------------------------
 -----
 title
 -----
 Structure from the checkpoint file:  "BDE49_nonexpt_1068_mol1.chk"
 Charge =  0 Multiplicity = 1

                         Standard orientation:
 ---------------------------------------------------------------------
 Center     Atomic      Atomic             Coordinates (Angstroms)
 Number     Number       Type             X           Y           Z
 ---------------------------------------------------------------------
      1         17           0        1.723008   -0.442052    0.036440
      2          8           0        0.547658    0.892594   -0.319442
      3          6           0       -1.540784    0.002408    0.021125
      4          8           0       -2.510763   -0.613773   -0.109073
      5          7           0       -0.620228    0.752839    0.383126
 ---------------------------------------------------------------------

 SCF Done:  E(RHF) =  -701.504225008     A.U. after    2 cycles

 The electronic state is 1-A.
 Alpha  occ. eigenvalues -- -103.73833 -20.73475 -20.68775 -15.73423 -11.46835
 Alpha  occ. eigenvalues --  -10.76498  -8.42230  -8.41816  -8.41792  -1.49078
 Alpha  occ. eigenvalues --   -1.44632  -1.21634  -1.11726  -0.81659  -0.77616
 Alpha  occ. eigenvalues --   -0.72760  -0.72196  -0.65780  -0.64648  -0.52544
 Alpha  occ. eigenvalues --   -0.51024  -0.47410  -0.45237
 Alpha virt. eigenvalues --   -0.00413   0.05569   0.07762   0.08102   0.08581
 Alpha virt. eigenvalues --    0.11521   0.12706   0.13944   0.14536   0.16958
 Alpha virt. eigenvalues --    0.18515   0.19478   0.21083   0.24726   0.25225

 Mulliken charges:
               1
     1  Cl   0.292147
     2  O   -0.603371
     3  C    0.353012
     4  O   -0.138670
     5  N    0.096882
 Sum of Mulliken charges =   0.00000

 Dipole moment (field-independent basis, Debye):
    X=              0.3812    Y=             -0.6387    Z=             -0.2310  Tot=              0.7789

 Test job not archived.
 1\1\GINC-SE455\SP\RHF\Aug-CC-pVDZ\C1Cl1N1O2\OHZDE\08-Apr-2025\0\\#t hf
  aug-cc-pvdz iop(5/13=1,5/36=2,99/5=2) pseudo=read geom=check guess=(r
 ead,tcheck) scf=(maxcycle=1)\\title\\0,1\Cl,0,1.723008,-0.442052,0.036
 44\O,0,0.547658,0.892594,-0.319442\C,0,-1.540784,0.002408,0.021125\O,0
 ,-2.510763,-0.613773,-0.109073\N,0,-0.620228,0.752839,0.383126\\Versio
 n=ES64L-G16RevC.01\State=1-A\HF=-701.504225\RMSD=2.899e-03\Dipole=0.14
 99946,-0.2512951,-0.0908806\Quadrupole=-0.5758818,0.0686495,0.5072323,
 -2.4127403,0.2755526,-0.5602838\PG=C01 [X(C1Cl1N1O2)]\\@

 Normal termination of Gaussian 16 at Tue Apr  8 23:16:50 2025.
