 Gaussian 16, Revision C.01,

 ----------------------------------------------------------------------
 #t hf aug-cc-pvdz symm=none int=(grid=ultrafine) guess=(read,tcheck) s
 table=(opt,rrhf)
 ----------------------------------------------------------------------
 -----
 title
 -----
 Symbolic Z-matrix:
 Charge =  0 Multiplicity = 1

 SCF Done:  E(RHF) =  -207.815709860     A.U. after   12 cycles

 1\1\GINC-SE366\Stability\RHF\Aug-CC-pVDZ\C4H12B2\OHZDE\09-Apr-2025\0\\
 #t hf aug-cc-pvdz symm=none int=(grid=ultrafine) guess=(read,tcheck) s
 table=(opt,rrhf)\\title\\0,1\B,0,0.616406,1.004976,-0.550974\B,0,-0.61
 6409,1.005016,0.550894\C,0,-1.940079,0.158217,0.553848\C,0,1.940034,0.
 158112,-0.55391\C,0,2.19,-0.831789,0.593438\H,0,1.958801,-0.366963,-1.
 523483\H,0,2.780558,0.863605,-0.643719\H,0,1.391123,-1.577032,0.656201
 \H,0,2.231613,-0.316927,1.557962\H,0,3.132787,-1.373374,0.47109\C,0,-2
 .189923,-0.831961,-0.593287\H,0,-2.780588,0.863766,0.643359\H,0,-1.959

 Normal termination of Gaussian 16 at Wed Apr  9 00:25:36 2025.
 Gaussian 16:  ES64L-G16RevC.01  3-Jul-2019

 ----------------------------------------------------------------------
 #t hf aug-cc-pvdz iop(5/13=1,5/36=2,99/5=2) pseudo=read geom=check gue
 ss=(read,tcheck) scf=(maxcycle=1)
 ----------------------------------------------------------------------
 -----
 title
 -----
 Structure from the checkpoint file:  "BDE49_nonexpt_2_mol1.chk"
 Charge =  0 Multiplicity = 1

                         Standard orientation:
 ---------------------------------------------------------------------
 Center     Atomic      Atomic             Coordinates (Angstroms)
 Number     Number       Type             X           Y           Z
 ---------------------------------------------------------------------
      1          5           0       -0.616406    1.004976    0.550974
      2          5           0        0.616409    1.005016   -0.550894
      3          6           0        1.940079    0.158217   -0.553848
      4          6           0       -1.940034    0.158112    0.553910
      5          6           0       -2.190000   -0.831789   -0.593438
      6          1           0       -1.958801   -0.366963    1.523483
      7          1           0       -2.780558    0.863605    0.643719
      8          1           0       -1.391123   -1.577032   -0.656201
      9          1           0       -2.231613   -0.316927   -1.557962
     10          1           0       -3.132787   -1.373374   -0.471090
     11          6           0        2.189923   -0.831961    0.593287
     12          1           0        2.780588    0.863766   -0.643359
     13          1           0        1.959007   -0.366612   -1.523551
     14          1           0        2.231375   -0.317341    1.557947
     15          1           0        3.132750   -1.373476    0.470939
     16          1           0        1.391068   -1.577255    0.655746
     17          1           0        0.507611    1.788346   -1.462175
     18          1           0       -0.507342    1.787830    1.462635
 ---------------------------------------------------------------------

 SCF Done:  E(RHF) =  -207.883261897     A.U. after    2 cycles

 The electronic state is 1-A.
 Alpha  occ. eigenvalues --  -11.22424 -11.22424 -11.21192 -11.21192  -7.58313
 Alpha  occ. eigenvalues --   -7.58226  -1.01282  -1.00703  -0.85035  -0.84575
 Alpha  occ. eigenvalues --   -0.69066  -0.60047  -0.59741  -0.59564  -0.57274
 Alpha  occ. eigenvalues --   -0.56984  -0.52282  -0.49465  -0.48909  -0.48810
 Alpha  occ. eigenvalues --   -0.44667  -0.44624  -0.39313
 Alpha virt. eigenvalues --    0.02943   0.04125   0.04620   0.04667   0.06049
 Alpha virt. eigenvalues --    0.06068   0.06258   0.06326   0.06870   0.08368
 Alpha virt. eigenvalues --    0.08414   0.08995   0.09050   0.09850   0.10099

 Mulliken charges:
               1
     1  B   -0.071507
     2  B   -0.071568
     3  C    0.327284
     4  C    0.327310
     5  C    0.251519
     6  H   -0.166986
     7  H   -0.169793
     8  H   -0.140968
     9  H   -0.120462
    10  H   -0.103186
    11  C    0.251544
    12  H   -0.169826
    13  H   -0.166897
    14  H   -0.120461
    15  H   -0.103208
    16  H   -0.140954
    17  H    0.194052
    18  H    0.194109
 Sum of Mulliken charges =   0.00000

 Dipole moment (field-independent basis, Debye):
    X=             -0.0002    Y=             -0.4332    Z=             -0.0002  Tot=              0.4332

 Test job not archived.
 1\1\GINC-SE366\SP\RHF\Aug-CC-pVDZ\C4H12B2\OHZDE\09-Apr-2025\0\\#t hf a
 ug-cc-pvdz iop(5/13=1,5/36=2,99/5=2) pseudo=read geom=check guess=(rea
 d,tcheck) scf=(maxcycle=1)\\title\\0,1\B,0,0.616406,1.004976,-0.550974
 \B,0,-0.616409,1.005016,0.550894\C,0,-1.940079,0.158217,0.553848\C,0,1
 .940034,0.158112,-0.55391\C,0,2.19,-0.831789,0.593438\H,0,1.958801,-0.
 366963,-1.523483\H,0,2.780558,0.863605,-0.643719\H,0,1.391123,-1.57703
 2,0.656201\H,0,2.231613,-0.316927,1.557962\H,0,3.132787,-1.373374,0.47
 109\C,0,-2.189923,-0.831961,-0.593287\H,0,-2.780588,0.863766,0.643359\

 Normal termination of Gaussian 16 at Wed Apr  9 00:25:41 2025.
