 Gaussian 16, Revision C.01,

 ----------------------------------------------------------------------
 #t hf aug-cc-pvdz symm=none int=(grid=ultrafine) guess=(read,tcheck) s
 table=(opt,rrhf)
 ----------------------------------------------------------------------
 -----
 title
 -----
 Symbolic Z-matrix:
 Charge =  0 Multiplicity = 1

 SCF Done:  E(RHF) =  -562.053470443     A.U. after   14 cycles
 Normal termination of Gaussian 16 at Wed Apr  9 00:44:11 2025.
 Gaussian 16:  ES64L-G16RevC.01  3-Jul-2019

 ----------------------------------------------------------------------
 #t hf aug-cc-pvdz iop(5/13=1,5/36=2,99/5=2) pseudo=read geom=check gue
 ss=(read,tcheck) scf=(maxcycle=1)
 ----------------------------------------------------------------------
 -----
 title
 -----
 Structure from the checkpoint file:  "BDE49_nonexpt_790_mol1.chk"
 Charge =  0 Multiplicity = 1

                         Standard orientation:
 ---------------------------------------------------------------------
 Center     Atomic      Atomic             Coordinates (Angstroms)
 Number     Number       Type             X           Y           Z
 ---------------------------------------------------------------------
      1          6           0        0.109402   -0.167062    0.136546
      2          6           0       -0.465284    1.104386    0.270958
      3          6           0       -1.841325    1.257101    0.125590
      4          7           0       -2.675199    0.247873   -0.146107
      5          6           0       -2.132669   -0.964939   -0.278509
      6          6           0       -0.768295   -1.220416   -0.148336
      7          1           0        0.143626    1.976676    0.485939
      8          1           0       -2.297740    2.237947    0.230203
      9          1           0       -2.822453   -1.775287   -0.499994
     10          1           0       -0.402893   -2.234684   -0.269050
     11          5           0        3.117964    0.802162   -0.752867
     12         14           0        1.967044   -0.450836    0.324377
     13          1           0        2.742001    1.889701   -1.063330
     14          1           0        4.229293    0.496372   -1.055685
     15          1           0        2.358983   -0.197124    1.742062
     16          1           0        2.236164   -1.882238    0.038164
 ---------------------------------------------------------------------

 SCF Done:  E(RHF) =  -562.153117371     A.U. after    2 cycles

 The electronic state is 1-A.
 Alpha  occ. eigenvalues --  -69.06190 -15.63369 -11.28642 -11.28619 -11.25819
 Alpha  occ. eigenvalues --  -11.25518 -11.25487  -7.63539  -6.81704  -3.92460
 Alpha  occ. eigenvalues --   -3.92450  -3.92390  -1.23154  -1.07325  -1.02834
 Alpha  occ. eigenvalues --   -0.85672  -0.85320  -0.74962  -0.69831  -0.66734
 Alpha  occ. eigenvalues --   -0.65425  -0.63629  -0.60097  -0.54521  -0.52139
 Alpha  occ. eigenvalues --   -0.51835  -0.49045  -0.47998  -0.43330  -0.40730
 Alpha  occ. eigenvalues --   -0.37555  -0.35066
 Alpha virt. eigenvalues --    0.02396   0.03037   0.03772   0.04265   0.04767
 Alpha virt. eigenvalues --    0.05778   0.06043   0.06920   0.07024   0.07940
 Alpha virt. eigenvalues --    0.08371   0.08835   0.09723   0.09881   0.10655

 Mulliken charges:
               1
     1  C   -0.961413
     2  C    1.176873
     3  C    0.410252
     4  N   -0.389560
     5  C    0.407774
     6  C    1.062473
     7  H   -0.589553
     8  H   -0.332275
     9  H   -0.331194
    10  H   -0.574324
    11  B   -0.574910
    12  Si  -0.105185
    13  H    0.344314
    14  H    0.342712
    15  H    0.113953
    16  H    0.000065
 Sum of Mulliken charges =   0.00000

 Dipole moment (field-independent basis, Debye):
    X=              2.0197    Y=             -0.0409    Z=             -0.1867  Tot=              2.0287

 Test job not archived.
 1\1\GINC-SE253\SP\RHF\Aug-CC-pVDZ\C5H8B1N1Si1\OHZDE\09-Apr-2025\0\\#t
 hf aug-cc-pvdz iop(5/13=1,5/36=2,99/5=2) pseudo=read geom=check guess=
 (read,tcheck) scf=(maxcycle=1)\\title\\0,1\C,0,0.109402,-0.167062,0.13
 6546\C,0,-0.465284,1.104386,0.270958\C,0,-1.841325,1.257101,0.12559\N,
 0,-2.675199,0.247873,-0.146107\C,0,-2.132669,-0.964939,-0.278509\C,0,-
 0.768295,-1.220416,-0.148336\H,0,0.143626,1.976676,0.485939\H,0,-2.297
 74,2.237947,0.230203\H,0,-2.822453,-1.775287,-0.499994\H,0,-0.402893,-
 2.234684,-0.26905\B,0,3.117964,0.802162,-0.752867\Si,0,1.967044,-0.450

 Normal termination of Gaussian 16 at Wed Apr  9 00:44:17 2025.
