 Gaussian 16, Revision C.01,

 ----------------------------------------------------------------------
 #t hf aug-cc-pvdz symm=none int=(grid=ultrafine) guess=(read,tcheck) s
 table=(opt,rrhf)
 ----------------------------------------------------------------------
 -----
 title
 -----
 Symbolic Z-matrix:
 Charge =  0 Multiplicity = 1

 SCF Done:  E(RHF) =  -1187.60846223     A.U. after   15 cycles

 1\1\GINC-SE080\Stability\RHF\Aug-CC-pVDZ\C7H6Cl2\OHZDE\08-Apr-2025\0\\
 #t hf aug-cc-pvdz symm=none int=(grid=ultrafine) guess=(read,tcheck) s
 table=(opt,rrhf)\\title\\0,1\C,0,-0.839425,0.000008,-1.087263\C,0,-2.2
 06482,0.00001,-1.331266\C,0,-3.11072,0.000002,-0.267525\C,0,-2.641094,
 -0.000008,1.041814\C,0,-1.269397,-0.000009,1.289322\C,0,-0.363737,-0.0
 00001,0.22754\H,0,-0.137046,0.000015,-1.912311\H,0,-2.570193,0.000017,
 -2.352243\C,0,1.103677,-0.000003,0.534127\H,0,-0.905015,-0.000016,2.31
 1123\Cl,0,1.93528,1.480166,-0.1029\Cl,0,1.935279,-1.480166,-0.102916\H

 Normal termination of Gaussian 16 at Tue Apr  8 22:48:27 2025.
 Gaussian 16:  ES64L-G16RevC.01  3-Jul-2019

 ----------------------------------------------------------------------
 #t hf aug-cc-pvdz iop(5/13=1,5/36=2,99/5=2) pseudo=read geom=check gue
 ss=(read,tcheck) scf=(maxcycle=1)
 ----------------------------------------------------------------------
 -----
 title
 -----
 Structure from the checkpoint file:  "BDE49_expt_1698_mol1.chk"
 Charge =  0 Multiplicity = 1

                         Standard orientation:
 ---------------------------------------------------------------------
 Center     Atomic      Atomic             Coordinates (Angstroms)
 Number     Number       Type             X           Y           Z
 ---------------------------------------------------------------------
      1          6           0       -0.839425    0.000008   -1.087263
      2          6           0       -2.206482    0.000010   -1.331266
      3          6           0       -3.110720    0.000002   -0.267525
      4          6           0       -2.641094   -0.000008    1.041814
      5          6           0       -1.269397   -0.000009    1.289322
      6          6           0       -0.363737   -0.000001    0.227540
      7          1           0       -0.137046    0.000015   -1.912311
      8          1           0       -2.570193    0.000017   -2.352243
      9          6           0        1.103677   -0.000003    0.534127
     10          1           0       -0.905015   -0.000016    2.311123
     11         17           0        1.935280    1.480166   -0.102900
     12         17           0        1.935279   -1.480166   -0.102916
     13          1           0        1.290697   -0.000009    1.602039
     14          1           0       -3.337832   -0.000014    1.871979
     15          1           0       -4.177050    0.000003   -0.462214
 ---------------------------------------------------------------------

 SCF Done:  E(RHF) =  -1187.72245387     A.U. after    2 cycles

 The electronic state is 1-A.
 Alpha  occ. eigenvalues -- -103.66876-103.66875 -11.38614 -11.27622 -11.26681
 Alpha  occ. eigenvalues --  -11.26224 -11.26197 -11.26041 -11.25957 -10.70139
 Alpha  occ. eigenvalues --  -10.70135  -8.35854  -8.35851  -8.35545  -8.35545
 Alpha  occ. eigenvalues --   -8.35544  -8.35541  -1.21883  -1.15768  -1.13285
 Alpha  occ. eigenvalues --   -1.04436  -1.02866  -0.91750  -0.85059  -0.81477
 Alpha  occ. eigenvalues --   -0.72454  -0.67958  -0.65751  -0.62019  -0.61030
 Alpha  occ. eigenvalues --   -0.60199  -0.59930  -0.53284  -0.51909  -0.51627
 Alpha  occ. eigenvalues --   -0.47949  -0.47621  -0.45795  -0.45300  -0.35781
 Alpha  occ. eigenvalues --   -0.35264
 Alpha virt. eigenvalues --    0.03080   0.03720   0.04517   0.05541   0.06332
 Alpha virt. eigenvalues --    0.07614   0.07765   0.08505   0.09278   0.09595
 Alpha virt. eigenvalues --    0.11373   0.11894   0.12498   0.13355   0.13752

 Mulliken charges:
               1
     1  C   -0.196594
     2  C    0.621171
     3  C    0.354192
     4  C    0.588194
     5  C    0.178976
     6  C    1.451278
     7  H   -0.522555
     8  H   -0.421322
     9  C   -0.240377
    10  H   -0.552108
    11  Cl  -0.085707
    12  Cl  -0.085707
    13  H   -0.219901
    14  H   -0.437242
    15  H   -0.432298
 Sum of Mulliken charges =  -0.00000

 Dipole moment (field-independent basis, Debye):
    X=             -2.5854    Y=             -0.0000    Z=              0.9423  Tot=              2.7518

 Test job not archived.
 1\1\GINC-SE080\SP\RHF\Aug-CC-pVDZ\C7H6Cl2\OHZDE\08-Apr-2025\0\\#t hf a
 ug-cc-pvdz iop(5/13=1,5/36=2,99/5=2) pseudo=read geom=check guess=(rea
 d,tcheck) scf=(maxcycle=1)\\title\\0,1\C,0,-0.839425,0.000008,-1.08726
 3\C,0,-2.206482,0.00001,-1.331266\C,0,-3.11072,0.000002,-0.267525\C,0,
 -2.641094,-0.000008,1.041814\C,0,-1.269397,-0.000009,1.289322\C,0,-0.3
 63737,-0.000001,0.22754\H,0,-0.137046,0.000015,-1.912311\H,0,-2.570193
 ,0.000017,-2.352243\C,0,1.103677,-0.000003,0.534127\H,0,-0.905015,-0.0
 00016,2.311123\Cl,0,1.93528,1.480166,-0.1029\Cl,0,1.935279,-1.480166,-

 Normal termination of Gaussian 16 at Tue Apr  8 22:48:34 2025.
