 Gaussian 16, Revision C.01,

 ----------------------------------------------------------------------
 #t hf aug-cc-pvdz symm=none int=(grid=ultrafine) guess=(read,tcheck) s
 table=(opt,rrhf)
 ----------------------------------------------------------------------
 -----
 title
 -----
 Symbolic Z-matrix:
 Charge =  0 Multiplicity = 1

 SCF Done:  E(RHF) =  -311.653896496     A.U. after   12 cycles
 Normal termination of Gaussian 16 at Tue Apr  8 22:43:25 2025.
 Gaussian 16:  ES64L-G16RevC.01  3-Jul-2019

 ----------------------------------------------------------------------
 #t hf aug-cc-pvdz iop(5/13=1,5/36=2,99/5=2) pseudo=read geom=check gue
 ss=(read,tcheck) scf=(maxcycle=1)
 ----------------------------------------------------------------------
 -----
 title
 -----
 Structure from the checkpoint file:  "BDE49_expt_1528_mol1.chk"
 Charge =  0 Multiplicity = 1

                         Standard orientation:
 ---------------------------------------------------------------------
 Center     Atomic      Atomic             Coordinates (Angstroms)
 Number     Number       Type             X           Y           Z
 ---------------------------------------------------------------------
      1          6           0        0.000000   -0.000000    0.145731
      2          8           0        0.000000   -0.000000    1.316449
      3          9           0        0.000000    1.066228   -0.633665
      4          9           0       -0.000000   -1.066228   -0.633665
 ---------------------------------------------------------------------

 SCF Done:  E(RHF) =  -311.768425529     A.U. after    2 cycles

 The electronic state is 1-A1.
 Alpha  occ. eigenvalues --  -26.21671 -26.21656 -20.64091 -11.55695  -1.79491
 Alpha  occ. eigenvalues --   -1.73993  -1.45509  -1.01211  -0.91806  -0.86627
 Alpha  occ. eigenvalues --   -0.85268  -0.79021  -0.77002  -0.73853  -0.60556
 Alpha  occ. eigenvalues --   -0.58873
 Alpha virt. eigenvalues --    0.06448   0.08254   0.09084   0.09189   0.13904
 Alpha virt. eigenvalues --    0.21197   0.21781   0.23697   0.24889   0.25901
 Alpha virt. eigenvalues --    0.27184   0.30650   0.31545   0.32153   0.33893

 Mulliken charges:
               1
     1  C    0.677836
     2  O   -0.233203
     3  F   -0.222317
     4  F   -0.222317
 Sum of Mulliken charges =  -0.00000

 Dipole moment (field-independent basis, Debye):
    X=              0.0000    Y=              0.0000    Z=             -0.9984  Tot=              0.9984

 Test job not archived.
 1\1\GINC-SE403\SP\RHF\Aug-CC-pVDZ\C1F2O1\OHZDE\08-Apr-2025\0\\#t hf au
 g-cc-pvdz iop(5/13=1,5/36=2,99/5=2) pseudo=read geom=check guess=(read
 ,tcheck) scf=(maxcycle=1)\\title\\0,1\C,0,0.,0.,0.145731\O,0,0.,0.,1.3
 16449\F,0,0.,1.066228,-0.633665\F,0,0.,-1.066228,-0.633665\\Version=ES
 64L-G16RevC.01\State=1-A1\HF=-311.7684255\RMSD=6.315e-03\Dipole=0.,0.,
 -0.3928071\Quadrupole=2.0029227,-0.2466217,-1.756301,0.,0.,0.\PG=C02V
 [C2(C1O1),SGV(F2)]\\@

 Normal termination of Gaussian 16 at Tue Apr  8 22:43:27 2025.
