 Gaussian 16, Revision C.01,

 ----------------------------------------------------------------------
 #t hf aug-cc-pvdz symm=none int=(grid=ultrafine) guess=(read,tcheck) s
 table=(opt,rrhf)
 ----------------------------------------------------------------------
 -----
 title
 -----
 Symbolic Z-matrix:
 Charge =  0 Multiplicity = 1

 SCF Done:  E(RHF) =  -537.058666180     A.U. after   13 cycles
 Normal termination of Gaussian 16 at Tue Apr  8 23:51:41 2025.
 Gaussian 16:  ES64L-G16RevC.01  3-Jul-2019

 ----------------------------------------------------------------------
 #t hf aug-cc-pvdz iop(5/13=1,5/36=2,99/5=2) pseudo=read geom=check gue
 ss=(read,tcheck) scf=(maxcycle=1)
 ----------------------------------------------------------------------
 -----
 title
 -----
 Structure from the checkpoint file:  "BDE49_nonexpt_1924_mol1.chk"
 Charge =  0 Multiplicity = 1

                         Standard orientation:
 ---------------------------------------------------------------------
 Center     Atomic      Atomic             Coordinates (Angstroms)
 Number     Number       Type             X           Y           Z
 ---------------------------------------------------------------------
      1         14           0       -1.957630   -0.065401   -0.247669
      2          6           0       -0.452167    0.191695    0.882941
      3          1           0       -2.164525    1.137987   -1.089443
      4          1           0       -3.163356   -0.259147    0.593173
      5          1           0       -1.777603   -1.239176   -1.126349
      6          6           0        0.823583    0.420109    0.124715
      7          7           0        1.592296   -0.510676   -0.299725
      8          8           0        1.100491   -1.791944    0.039379
      9          1           0        1.773917   -2.368869   -0.332940
     10          6           0        1.252274    1.827756   -0.183977
     11          1           0        1.437016    2.384126    0.741139
     12          1           0        0.468816    2.361511   -0.731810
     13          1           0        2.163045    1.822031   -0.782109
     14          1           0       -0.359377   -0.699359    1.508169
     15          1           0       -0.663248    1.049426    1.528504
 ---------------------------------------------------------------------

 SCF Done:  E(RHF) =  -537.157011151     A.U. after    2 cycles

 The electronic state is 1-A.
 Alpha  occ. eigenvalues --  -69.06691 -20.60320 -15.67523 -11.29674 -11.24385
 Alpha  occ. eigenvalues --  -11.23778  -6.81961  -3.92739  -3.92732  -3.92717
 Alpha  occ. eigenvalues --   -1.36786  -1.15156  -0.98711  -0.95537  -0.74382
 Alpha  occ. eigenvalues --   -0.70941  -0.69031  -0.65674  -0.61050  -0.58535
 Alpha  occ. eigenvalues --   -0.57161  -0.55582  -0.53349  -0.48504  -0.47579
 Alpha  occ. eigenvalues --   -0.47292  -0.42884  -0.37437
 Alpha virt. eigenvalues --    0.03259   0.04312   0.04594   0.04706   0.06310
 Alpha virt. eigenvalues --    0.06834   0.07379   0.07403   0.08579   0.09790
 Alpha virt. eigenvalues --    0.10257   0.10750   0.12196   0.14165   0.14721

 Mulliken charges:
               1
     1  Si   0.116993
     2  C    0.402718
     3  H    0.037849
     4  H    0.029231
     5  H    0.089104
     6  C    0.036089
     7  N   -0.311829
     8  O   -0.506680
     9  H    0.175651
    10  C    0.206220
    11  H    0.071157
    12  H    0.020937
    13  H   -0.088812
    14  H   -0.066727
    15  H   -0.211902
 Sum of Mulliken charges =  -0.00000

 Dipole moment (field-independent basis, Debye):
    X=             -0.1647    Y=              1.0052    Z=              0.5736  Tot=              1.1690

 Test job not archived.
 1\1\GINC-SE424\SP\RHF\Aug-CC-pVDZ\C3H9N1O1Si1\OHZDE\08-Apr-2025\0\\#t
 hf aug-cc-pvdz iop(5/13=1,5/36=2,99/5=2) pseudo=read geom=check guess=
 (read,tcheck) scf=(maxcycle=1)\\title\\0,1\Si,0,-1.95763,-0.065401,-0.
 247669\C,0,-0.452167,0.191695,0.882941\H,0,-2.164525,1.137987,-1.08944
 3\H,0,-3.163356,-0.259147,0.593173\H,0,-1.777603,-1.239176,-1.126349\C
 ,0,0.823583,0.420109,0.124715\N,0,1.592296,-0.510676,-0.299725\O,0,1.1
 00491,-1.791944,0.039379\H,0,1.773917,-2.368869,-0.33294\C,0,1.252274,
 1.827756,-0.183977\H,0,1.437016,2.384126,0.741139\H,0,0.468816,2.36151

 Normal termination of Gaussian 16 at Tue Apr  8 23:51:45 2025.
