 Gaussian 16, Revision C.01,

 ----------------------------------------------------------------------
 #t hf aug-cc-pvdz symm=none int=(grid=ultrafine) guess=(read,tcheck) s
 table=(opt,rrhf)
 ----------------------------------------------------------------------
 -----
 title
 -----
 Symbolic Z-matrix:
 Charge =  0 Multiplicity = 1

 SCF Done:  E(RHF) =  -896.416209175     A.U. after   17 cycles
 Normal termination of Gaussian 16 at Tue Apr  8 23:10:43 2025.
 Gaussian 16:  ES64L-G16RevC.01  3-Jul-2019

 ----------------------------------------------------------------------
 #t hf aug-cc-pvdz iop(5/13=1,5/36=2,99/5=2) pseudo=read geom=check gue
 ss=(read,tcheck) scf=(maxcycle=1)
 ----------------------------------------------------------------------
 -----
 title
 -----
 Structure from the checkpoint file:  "BDE49_expt_681_mol1.chk"
 Charge =  0 Multiplicity = 1

                         Standard orientation:
 ---------------------------------------------------------------------
 Center     Atomic      Atomic             Coordinates (Angstroms)
 Number     Number       Type             X           Y           Z
 ---------------------------------------------------------------------
      1          6           0       -1.379422   -1.217500    0.000005
      2          6           0        0.004340   -1.137385    0.000006
      3          6           0       -2.132314   -0.044351    0.000000
      4          6           0       -1.513897    1.197887   -0.000005
      5          6           0       -0.122411    1.264473   -0.000004
      6          6           0        0.662767    0.104517    0.000001
      7          1           0        0.596490   -2.042604    0.000010
      8          1           0       -1.876627   -2.178969    0.000009
      9          1           0       -2.109111    2.101752   -0.000010
     10          1           0        0.343388    2.241340   -0.000008
     11          6           0        2.146691    0.186409    0.000001
     12          7           0        2.771567   -0.935303   -0.000006
     13          8           0        4.162851   -0.797681   -0.000006
     14          1           0        4.456762   -1.713878   -0.000011
     15          6           0        2.826673    1.530118    0.000009
     16          1           0        2.535733    2.107416    0.882185
     17          1           0        2.535750    2.107418   -0.882171
     18          1           0        3.906185    1.411903    0.000019
     19         17           0       -3.885112   -0.141813   -0.000001
 ---------------------------------------------------------------------

 SCF Done:  E(RHF) =  -896.562615399     A.U. after    2 cycles

 The electronic state is 1-A.
 Alpha  occ. eigenvalues -- -103.66967 -20.61648 -15.68889 -11.31955 -11.30520
 Alpha  occ. eigenvalues --  -11.27022 -11.26690 -11.26423 -11.26322 -11.26095
 Alpha  occ. eigenvalues --  -11.24779 -10.70231  -8.35968  -8.35663  -8.35646
 Alpha  occ. eigenvalues --   -1.38483  -1.20400  -1.17210  -1.12495  -1.03477
 Alpha  occ. eigenvalues --   -1.01189  -0.98272  -0.85402  -0.85224  -0.77548
 Alpha  occ. eigenvalues --   -0.71661  -0.69907  -0.67529  -0.65232  -0.62748
 Alpha  occ. eigenvalues --   -0.62653  -0.61224  -0.59656  -0.57764  -0.55340
 Alpha  occ. eigenvalues --   -0.55266  -0.52420  -0.52192  -0.48899  -0.47089
 Alpha  occ. eigenvalues --   -0.44112  -0.41683  -0.36041  -0.32741
 Alpha virt. eigenvalues --    0.03206   0.03720   0.04067   0.05263   0.05300
 Alpha virt. eigenvalues --    0.06219   0.07280   0.07521   0.08555   0.09321
 Alpha virt. eigenvalues --    0.09556   0.10440   0.11623   0.11862   0.12738

 Mulliken charges:
               1
     1  C    0.888220
     2  C    0.346921
     3  C   -0.283619
     4  C    0.709517
     5  C    0.487525
     6  C    0.426417
     7  H   -0.662715
     8  H   -0.445648
     9  H   -0.442679
    10  H   -0.727877
    11  C   -0.065485
    12  N   -0.259204
    13  O   -0.517237
    14  H    0.186978
    15  C    0.552062
    16  H    0.152614
    17  H    0.152614
    18  H   -0.134244
    19  Cl  -0.364160
 Sum of Mulliken charges =  -0.00000

 Dipole moment (field-independent basis, Debye):
    X=              1.5763    Y=              0.6545    Z=              0.0000  Tot=              1.7067

 Test job not archived.
 1\1\GINC-SE009\SP\RHF\Aug-CC-pVDZ\C8H8Cl1N1O1\OHZDE\08-Apr-2025\0\\#t
 hf aug-cc-pvdz iop(5/13=1,5/36=2,99/5=2) pseudo=read geom=check guess=
 (read,tcheck) scf=(maxcycle=1)\\title\\0,1\C,0,-1.379422,-1.2175,0.000
 005\C,0,0.00434,-1.137385,0.000006\C,0,-2.132314,-0.044351,0.\C,0,-1.5
 13897,1.197887,-0.000005\C,0,-0.122411,1.264473,-0.000004\C,0,0.662767
 ,0.104517,0.000001\H,0,0.59649,-2.042604,0.00001\H,0,-1.876627,-2.1789
 69,0.000009\H,0,-2.109111,2.101752,-0.00001\H,0,0.343388,2.24134,-0.00
 0008\C,0,2.146691,0.186409,0.000001\N,0,2.771567,-0.935303,-0.000006\O

 Normal termination of Gaussian 16 at Tue Apr  8 23:10:55 2025.
