 Gaussian 16, Revision C.01,

 ----------------------------------------------------------------------
 #t hf aug-cc-pvdz symm=none int=(grid=ultrafine) guess=(read,tcheck) s
 table=(opt,rrhf)
 ----------------------------------------------------------------------
 -----
 title
 -----
 Symbolic Z-matrix:
 Charge =  0 Multiplicity = 1

 SCF Done:  E(RHF) =  -1166.52162242     A.U. after   16 cycles
 Normal termination of Gaussian 16 at Wed Apr  9 00:45:04 2025.
 Gaussian 16:  ES64L-G16RevC.01  3-Jul-2019

 ----------------------------------------------------------------------
 #t hf aug-cc-pvdz iop(5/13=1,5/36=2,99/5=2) pseudo=read geom=check gue
 ss=(read,tcheck) scf=(maxcycle=1)
 ----------------------------------------------------------------------
 -----
 title
 -----
 Structure from the checkpoint file:  "BDE49_nonexpt_754_mol1.chk"
 Charge =  0 Multiplicity = 1

                         Standard orientation:
 ---------------------------------------------------------------------
 Center     Atomic      Atomic             Coordinates (Angstroms)
 Number     Number       Type             X           Y           Z
 ---------------------------------------------------------------------
      1          6           0        2.105714   -0.425339    0.101818
      2          6           0        1.102915   -1.358533   -0.135516
      3          6           0       -0.196174   -0.914469   -0.326647
      4          6           0        1.786898    0.926795    0.147080
      5          6           0        0.472710    1.334118   -0.048780
      6          6           0       -0.562082    0.426905   -0.281380
      7          9           0        3.363696   -0.825741    0.288905
      8          9           0        1.393900   -2.660902   -0.177314
      9          9           0       -1.152526   -1.854027   -0.558877
     10          9           0        2.746547    1.826044    0.376915
     11          9           0        0.218687    2.651571   -0.006343
     12          5           0       -3.425985    0.148747    0.672910
     13          8           0       -3.349340   -1.115644    1.117836
     14          1           0       -2.627355   -1.637989    0.748185
     15         15           0       -2.285630    0.972821   -0.671764
     16          1           0       -4.345371    0.814321    1.041019
     17          1           0       -2.210797    2.243394   -0.068990
 ---------------------------------------------------------------------

 SCF Done:  E(RHF) =  -1166.82087977     A.U. after    2 cycles

 The electronic state is 1-A.
 Alpha  occ. eigenvalues --  -81.27713 -26.19431 -26.18647 -26.18563 -26.18232
 Alpha  occ. eigenvalues --  -26.17970 -20.61054 -11.40035 -11.39798 -11.39669
 Alpha  occ. eigenvalues --  -11.39610 -11.39462 -11.31746  -7.78299  -7.67366
 Alpha  occ. eigenvalues --   -4.92481  -4.92280  -4.91979  -1.73450  -1.73015
 Alpha  occ. eigenvalues --   -1.72471  -1.71991  -1.71501  -1.35508  -1.22844
 Alpha  occ. eigenvalues --   -1.10037  -1.09614  -0.96950  -0.96270  -0.88431
 Alpha  occ. eigenvalues --   -0.88089  -0.87411  -0.82957  -0.82469  -0.82054
 Alpha  occ. eigenvalues --   -0.81831  -0.80971  -0.80346  -0.79953  -0.78975
 Alpha  occ. eigenvalues --   -0.78332  -0.78128  -0.76961  -0.76336  -0.70321
 Alpha  occ. eigenvalues --   -0.68262  -0.64677  -0.64166  -0.60461  -0.58281
 Alpha  occ. eigenvalues --   -0.56693  -0.54007  -0.46685  -0.43315  -0.39886
 Alpha  occ. eigenvalues --   -0.34603
 Alpha virt. eigenvalues --    0.03259   0.04248   0.04960   0.05047   0.06506
 Alpha virt. eigenvalues --    0.07036   0.07267   0.07717   0.08417   0.08944
 Alpha virt. eigenvalues --    0.09201   0.09436   0.10203   0.10635   0.11342

 Mulliken charges:
               1
     1  C    0.627448
     2  C    0.242023
     3  C    0.263199
     4  C    0.349290
     5  C    0.177457
     6  C   -0.507056
     7  F   -0.263680
     8  F   -0.223216
     9  F   -0.375980
    10  F   -0.238079
    11  F   -0.294544
    12  B    0.235197
    13  O   -0.469277
    14  H    0.256885
    15  P   -0.207845
    16  H    0.286017
    17  H    0.142161
 Sum of Mulliken charges =  -0.00000

 Dipole moment (field-independent basis, Debye):
    X=             -0.8013    Y=              0.4628    Z=             -0.3217  Tot=              0.9797

 Test job not archived.
 1\1\GINC-SE116\SP\RHF\Aug-CC-pVDZ\C6H3B1F5O1P1\OHZDE\09-Apr-2025\0\\#t
  hf aug-cc-pvdz iop(5/13=1,5/36=2,99/5=2) pseudo=read geom=check guess
 =(read,tcheck) scf=(maxcycle=1)\\title\\0,1\C,0,2.105714,-0.425339,0.1
 01818\C,0,1.102915,-1.358533,-0.135516\C,0,-0.196174,-0.914469,-0.3266
 47\C,0,1.786898,0.926795,0.14708\C,0,0.47271,1.334118,-0.04878\C,0,-0.
 562082,0.426905,-0.28138\F,0,3.363696,-0.825741,0.288905\F,0,1.3939,-2
 .660902,-0.177314\F,0,-1.152526,-1.854027,-0.558877\F,0,2.746547,1.826
 044,0.376915\F,0,0.218687,2.651571,-0.006343\B,0,-3.425985,0.148747,0.

 Normal termination of Gaussian 16 at Wed Apr  9 00:45:18 2025.
