 Gaussian 16, Revision C.01,

 ----------------------------------------------------------------------
 #t hf aug-cc-pvdz symm=none int=(grid=ultrafine) guess=(read,tcheck) s
 table=opt
 ----------------------------------------------------------------------
 -----
 title
 -----
 Symbolic Z-matrix:
 Charge =  0 Multiplicity = 2

 SCF Done:  E(UHF) =  -511.968170517     A.U. after   19 cycles
 Normal termination of Gaussian 16 at Tue Apr  8 23:42:16 2025.
 Gaussian 16:  ES64L-G16RevC.01  3-Jul-2019

 ----------------------------------------------------------------------
 #t hf aug-cc-pvdz iop(5/13=1,5/36=2,99/5=2) pseudo=read geom=check gue
 ss=(read,tcheck) scf=(maxcycle=1)
 ----------------------------------------------------------------------
 -----
 title
 -----
 Structure from the checkpoint file:  "BDE49_nonexpt_1713_mol2.chk"
 Charge =  0 Multiplicity = 2

                         Standard orientation:
 ---------------------------------------------------------------------
 Center     Atomic      Atomic             Coordinates (Angstroms)
 Number     Number       Type             X           Y           Z
 ---------------------------------------------------------------------
      1         16           0        1.100078   -0.125470    0.000003
      2          8           0       -0.369330    0.606272   -0.000005
      3          6           0       -1.530795   -0.250720   -0.000001
      4          1           0       -2.391353    0.417867   -0.000017
      5          1           0       -1.535250   -0.878090    0.893501
      6          1           0       -1.535237   -0.878116   -0.893486
 ---------------------------------------------------------------------

 SCF Done:  E(UHF) =  -512.029766421     A.U. after    2 cycles

 The electronic state is 2-A.
 Alpha  occ. eigenvalues --  -93.59956 -20.63154 -11.30556  -8.89079  -6.24237
 Alpha  occ. eigenvalues --   -6.22886  -6.22223  -1.37069  -0.99406  -0.87821
 Alpha  occ. eigenvalues --   -0.68701  -0.65991  -0.64622  -0.54176  -0.52934
 Alpha  occ. eigenvalues --   -0.41670  -0.37777
 Alpha virt. eigenvalues --    0.03548   0.05760   0.05901   0.07628   0.08466
 Alpha virt. eigenvalues --    0.12907   0.12958   0.14451   0.15383   0.16850
 Alpha virt. eigenvalues --    0.19229   0.21740   0.23042   0.26266   0.28112

  Beta  occ. eigenvalues --  -93.59116 -20.62323 -11.30607  -8.88146  -6.22513
  Beta  occ. eigenvalues --   -6.21714  -6.20443  -1.34853  -0.97332  -0.82488
  Beta  occ. eigenvalues --   -0.65449  -0.64879  -0.62061  -0.52103  -0.49303
  Beta  occ. eigenvalues --   -0.35752
  Beta virt. eigenvalues --    0.01858   0.03569   0.05786   0.06331   0.08020
  Beta virt. eigenvalues --    0.08755   0.13054   0.14420   0.15474   0.15521
  Beta virt. eigenvalues --    0.16942   0.20308   0.22007   0.23625   0.26926

 Mulliken charges and spin densities:
               1          2
     1  S    0.405610   0.938207
     2  O   -0.816984   0.069626
     3  C    0.769800  -0.012127
     4  H   -0.178430   0.001271
     5  H   -0.089999   0.001512
     6  H   -0.089997   0.001511
 Sum of Mulliken charges =  -0.00000   1.00000

 Dipole moment (field-independent basis, Debye):
    X=             -1.4182    Y=             -1.2527    Z=              0.0000  Tot=              1.8922
                          Isotropic Fermi Contact Couplings
        Atom                 a.u.       MegaHertz       Gauss      10(-4) cm-1
     1  S(33)              0.20124      69.12154      24.66428      23.05646
     2  O(17)              0.08798     -53.33149     -19.03000     -17.78947
     3  C(13)             -0.00772      -8.68048      -3.09741      -2.89550
     4  H(1)              -0.00014      -0.62917      -0.22450      -0.20987
     5  H(1)               0.00096       4.28591       1.52932       1.42963
     6  H(1)               0.00096       4.28589       1.52931       1.42962
 --------------------------------------------------------
       Center         ----  Spin Dipole Couplings  ----

 Normal termination of Gaussian 16 at Tue Apr  8 23:42:17 2025.
