 Gaussian 16, Revision C.01,

 ----------------------------------------------------------------------
 #t hf aug-cc-pvdz symm=none int=(grid=ultrafine) guess=(read,tcheck) s
 table=(opt,rrhf)
 ----------------------------------------------------------------------
 -----
 title
 -----
 Symbolic Z-matrix:
 Charge =  0 Multiplicity = 1

 SCF Done:  E(RHF) =  -636.331990222     A.U. after   16 cycles
 Normal termination of Gaussian 16 at Wed Apr  9 00:44:22 2025.
 Gaussian 16:  ES64L-G16RevC.01  3-Jul-2019

 ----------------------------------------------------------------------
 #t hf aug-cc-pvdz iop(5/13=1,5/36=2,99/5=2) pseudo=read geom=check gue
 ss=(read,tcheck) scf=(maxcycle=1)
 ----------------------------------------------------------------------
 -----
 title
 -----
 Structure from the checkpoint file:  "BDE49_nonexpt_770_mol1.chk"
 Charge =  0 Multiplicity = 1

                         Standard orientation:
 ---------------------------------------------------------------------
 Center     Atomic      Atomic             Coordinates (Angstroms)
 Number     Number       Type             X           Y           Z
 ---------------------------------------------------------------------
      1          6           0        0.132799    0.061064   -0.097139
      2          6           0        0.917752    1.219476   -0.210646
      3          6           0        2.300985    1.149029   -0.101226
      4          6           0        2.931122   -0.078694    0.105370
      5          6           0        2.162747   -1.234526    0.202922
      6          6           0        0.773977   -1.168610    0.101685
      7          5           0       -2.504275    1.569432    0.548806
      8          1           0        2.890653    2.055221   -0.184059
      9          1           0        4.010799   -0.131761    0.184597
     10          1           0        2.641418   -2.194672    0.360811
     11          1           0        0.196607   -2.081379    0.185546
     12          1           0        0.441649    2.178147   -0.382543
     13         15           0       -1.669813    0.186822   -0.276318
     14          6           0       -2.422788   -1.471876   -0.037539
     15          1           0       -2.132605   -1.923433    0.913002
     16          1           0       -2.155708   -2.144978   -0.853849
     17          1           0       -3.505430   -1.335794   -0.043548
     18          1           0       -1.916428    2.583765    0.741498
     19          1           0       -3.681950    1.490220    0.698728
 ---------------------------------------------------------------------

 SCF Done:  E(RHF) =  -636.442024548     A.U. after    2 cycles

 The electronic state is 1-A.
 Alpha  occ. eigenvalues --  -81.24530 -11.26462 -11.25296 -11.25272 -11.25119
 Alpha  occ. eigenvalues --  -11.25103 -11.24992 -11.24821  -7.75366  -7.61132
 Alpha  occ. eigenvalues --   -4.89605  -4.89495  -4.89153  -1.14813  -1.02278
 Alpha  occ. eigenvalues --   -1.01630  -0.97113  -0.84250  -0.83314  -0.76688
 Alpha  occ. eigenvalues --   -0.70866  -0.65723  -0.63704  -0.62055  -0.59949
 Alpha  occ. eigenvalues --   -0.58807  -0.58604  -0.54872  -0.51720  -0.50572
 Alpha  occ. eigenvalues --   -0.50370  -0.46687  -0.45498  -0.37619  -0.34700
 Alpha  occ. eigenvalues --   -0.28399
 Alpha virt. eigenvalues --    0.02884   0.03706   0.04165   0.04853   0.05225
 Alpha virt. eigenvalues --    0.05401   0.06525   0.06918   0.07201   0.07465
 Alpha virt. eigenvalues --    0.08998   0.09378   0.10184   0.10449   0.10852

 Mulliken charges:
               1
     1  C   -0.190852
     2  C    0.196416
     3  C    0.701507
     4  C    0.648659
     5  C    0.724190
     6  C    0.276735
     7  B   -0.631620
     8  H   -0.453227
     9  H   -0.433193
    10  H   -0.462197
    11  H   -0.646071
    12  H   -0.637112
    13  P    0.626154
    14  C    0.231189
    15  H   -0.150476
    16  H   -0.135423
    17  H   -0.319392
    18  H    0.309406
    19  H    0.345307
 Sum of Mulliken charges =  -0.00000

 Dipole moment (field-independent basis, Debye):
    X=              0.7471    Y=             -1.6021    Z=              0.3902  Tot=              1.8103

 Test job not archived.
 1\1\GINC-SE273\SP\RHF\Aug-CC-pVDZ\C7H10B1P1\OHZDE\09-Apr-2025\0\\#t hf
  aug-cc-pvdz iop(5/13=1,5/36=2,99/5=2) pseudo=read geom=check guess=(r
 ead,tcheck) scf=(maxcycle=1)\\title\\0,1\C,0,0.132799,0.061064,-0.0971
 39\C,0,0.917752,1.219476,-0.210646\C,0,2.300985,1.149029,-0.101226\C,0
 ,2.931122,-0.078694,0.10537\C,0,2.162747,-1.234526,0.202922\C,0,0.7739
 77,-1.16861,0.101685\B,0,-2.504275,1.569432,0.548806\H,0,2.890653,2.05
 5221,-0.184059\H,0,4.010799,-0.131761,0.184597\H,0,2.641418,-2.194672,
 0.360811\H,0,0.196607,-2.081379,0.185546\H,0,0.441649,2.178147,-0.3825

 Normal termination of Gaussian 16 at Wed Apr  9 00:44:34 2025.
