 Gaussian 16, Revision C.01,

 ----------------------------------------------------------------------
 #t hf aug-cc-pvdz symm=none int=(grid=ultrafine) guess=(read,tcheck) s
 table=(opt,rrhf)
 ----------------------------------------------------------------------
 -----
 title
 -----
 Symbolic Z-matrix:
 Charge =  0 Multiplicity = 1

 SCF Done:  E(RHF) =  -1735.25312335     A.U. after   14 cycles
 Normal termination of Gaussian 16 at Tue Apr  8 23:42:43 2025.
 Gaussian 16:  ES64L-G16RevC.01  3-Jul-2019

 ----------------------------------------------------------------------
 #t hf aug-cc-pvdz iop(5/13=1,5/36=2,99/5=2) pseudo=read geom=check gue
 ss=(read,tcheck) scf=(maxcycle=1)
 ----------------------------------------------------------------------
 -----
 title
 -----
 Structure from the checkpoint file:  "BDE49_nonexpt_1701_mol1.chk"
 Charge =  0 Multiplicity = 1

                         Standard orientation:
 ---------------------------------------------------------------------
 Center     Atomic      Atomic             Coordinates (Angstroms)
 Number     Number       Type             X           Y           Z
 ---------------------------------------------------------------------
      1         16           0       -0.599672    1.335880   -0.345676
      2         15           0       -1.907332   -0.345391   -0.091083
      3          8           0       -1.675589   -1.414015   -1.058181
      4          8           0       -3.295542    0.441784   -0.119108
      5          8           0        0.850422    0.501790   -0.808365
      6          6           0        1.685042    0.144078    0.200506
      7         17           0        3.086823   -0.664107   -0.523979
      8          9           0        1.080970   -0.718303    1.073591
      9          9           0        2.092862    1.190125    0.936343
     10          1           0       -3.678374    0.466529   -1.005416
     11          8           0       -1.905617   -0.706295    1.456993
     12          1           0       -1.057020   -1.066897    1.746972
 ---------------------------------------------------------------------

 SCF Done:  E(RHF) =  -1735.54301387     A.U. after    2 cycles

 The electronic state is 1-A.
 Alpha  occ. eigenvalues -- -103.70244 -93.63785 -81.46592 -26.19526 -26.19056
 Alpha  occ. eigenvalues --  -20.67936 -20.65288 -20.64421 -20.55967 -11.57666
 Alpha  occ. eigenvalues --  -10.73604  -8.92997  -8.39332  -8.38980  -8.38977
 Alpha  occ. eigenvalues --   -7.94768  -6.27176  -6.26782  -6.26445  -5.09414
 Alpha  occ. eigenvalues --   -5.09298  -5.08947  -1.76798  -1.71573  -1.43336
 Alpha  occ. eigenvalues --   -1.41586  -1.38008  -1.29392  -1.21140  -1.03099
 Alpha  occ. eigenvalues --   -0.97957  -0.89311  -0.88658  -0.85642  -0.84130
 Alpha  occ. eigenvalues --   -0.79070  -0.76652  -0.75202  -0.74971  -0.71389
 Alpha  occ. eigenvalues --   -0.68696  -0.67294  -0.65511  -0.63849  -0.61924
 Alpha  occ. eigenvalues --   -0.60632  -0.58572  -0.54283  -0.52193  -0.51331
 Alpha  occ. eigenvalues --   -0.50844  -0.47104  -0.42733
 Alpha virt. eigenvalues --    0.02982   0.04453   0.05184   0.06862   0.07904
 Alpha virt. eigenvalues --    0.09376   0.09628   0.10401   0.11341   0.11755
 Alpha virt. eigenvalues --    0.12989   0.13166   0.14590   0.14928   0.15541

 Mulliken charges:
               1
     1  S    0.198060
     2  P    2.182893
     3  O   -0.891687
     4  O   -0.644500
     5  O   -0.695081
     6  C    0.855620
     7  Cl  -0.121734
     8  F   -0.314874
     9  F   -0.263046
    10  H    0.164438
    11  O   -0.672295
    12  H    0.202205
 Sum of Mulliken charges =  -0.00000

 Dipole moment (field-independent basis, Debye):
    X=             -0.9587    Y=              1.8452    Z=              0.3779  Tot=              2.1134

 Test job not archived.
 1\1\GINC-SE345\SP\RHF\Aug-CC-pVDZ\C1H2Cl1F2O4P1S1\OHZDE\08-Apr-2025\0\
 \#t hf aug-cc-pvdz iop(5/13=1,5/36=2,99/5=2) pseudo=read geom=check gu
 ess=(read,tcheck) scf=(maxcycle=1)\\title\\0,1\S,0,-0.599672,1.33588,-
 0.345676\P,0,-1.907332,-0.345391,-0.091083\O,0,-1.675589,-1.414015,-1.
 058181\O,0,-3.295542,0.441784,-0.119108\O,0,0.850422,0.50179,-0.808365
 \C,0,1.685042,0.144078,0.200506\Cl,0,3.086823,-0.664107,-0.523979\F,0,
 1.08097,-0.718303,1.073591\F,0,2.092862,1.190125,0.936343\H,0,-3.67837
 4,0.466529,-1.005416\O,0,-1.905617,-0.706295,1.456993\H,0,-1.05702,-1.

 Normal termination of Gaussian 16 at Tue Apr  8 23:42:50 2025.
