 Gaussian 16, Revision C.01,

 ----------------------------------------------------------------------
 #t hf aug-cc-pvdz symm=none int=(grid=ultrafine) guess=(read,tcheck) s
 table=(opt,rrhf)
 ----------------------------------------------------------------------
 -----
 title
 -----
 Symbolic Z-matrix:
 Charge =  0 Multiplicity = 1

 SCF Done:  E(RHF) =  -1671.00974009     A.U. after   16 cycles
 Normal termination of Gaussian 16 at Tue Apr  8 23:43:02 2025.
 Gaussian 16:  ES64L-G16RevC.01  3-Jul-2019

 ----------------------------------------------------------------------
 #t hf aug-cc-pvdz iop(5/13=1,5/36=2,99/5=2) pseudo=read geom=check gue
 ss=(read,tcheck) scf=(maxcycle=1)
 ----------------------------------------------------------------------
 -----
 title
 -----
 Structure from the checkpoint file:  "BDE49_nonexpt_1683_mol1.chk"
 Charge =  0 Multiplicity = 1

                         Standard orientation:
 ---------------------------------------------------------------------
 Center     Atomic      Atomic             Coordinates (Angstroms)
 Number     Number       Type             X           Y           Z
 ---------------------------------------------------------------------
      1          7           0       -1.955241   -0.852038   -0.636988
      2         15           0       -1.963521   -0.309823    1.153414
      3         14           0       -0.825512    1.658846    0.848146
      4         15           0        1.963563   -0.309846   -1.153412
      5          7           0        1.955194   -0.852121    0.636967
      6          8           0        2.098617    0.028423    1.481301
      7          8           0        1.868306   -2.042298    0.870480
      8          8           0       -2.098673    0.028534   -1.481288
      9          8           0       -1.868460   -2.042214   -0.870533
     10         14           0        0.825595    1.658851   -0.848115
     11          1           0       -0.866482   -1.130522    1.498439
     12          1           0        0.866516   -1.130504   -1.498513
     13          1           0       -0.246211    1.951221    2.179048
     14          1           0       -1.852618    2.677697    0.534432
     15          1           0        1.852706    2.677689   -0.534386
     16          1           0        0.246302    1.951242   -2.179017
 ---------------------------------------------------------------------

 SCF Done:  E(RHF) =  -1671.21122153     A.U. after    2 cycles

 The electronic state is 1-A.
 Alpha  occ. eigenvalues --  -81.33252 -81.33252 -69.10920 -69.10920 -20.63886
 Alpha  occ. eigenvalues --  -20.63886 -20.63361 -20.63360 -15.91774 -15.91774
 Alpha  occ. eigenvalues --   -7.83440  -7.83440  -6.86200  -6.86185  -4.97478
 Alpha  occ. eigenvalues --   -4.97477  -4.97186  -4.97177  -4.96940  -4.96937
 Alpha  occ. eigenvalues --   -3.96962  -3.96947  -3.96898  -3.96890  -3.96880
 Alpha  occ. eigenvalues --   -3.96822  -1.55838  -1.55799  -1.38046  -1.38033
 Alpha  occ. eigenvalues --   -0.97815  -0.97619  -0.84513  -0.83476  -0.77022
 Alpha  occ. eigenvalues --   -0.75142  -0.75108  -0.73911  -0.73275  -0.73147
 Alpha  occ. eigenvalues --   -0.70054  -0.66218  -0.55753  -0.55174  -0.52259
 Alpha  occ. eigenvalues --   -0.51600  -0.51189  -0.50646  -0.49216  -0.49092
 Alpha  occ. eigenvalues --   -0.48071  -0.46945  -0.46421  -0.40298  -0.38589
 Alpha virt. eigenvalues --    0.02901   0.03261   0.04040   0.04806   0.05394
 Alpha virt. eigenvalues --    0.05595   0.05755   0.06060   0.06878   0.07288
 Alpha virt. eigenvalues --    0.07709   0.08342   0.08905   0.09305   0.09656

 Mulliken charges:
               1
     1  N    0.570633
     2  P    0.133575
     3  Si  -0.042833
     4  P    0.133567
     5  N    0.570643
     6  O   -0.587963
     7  O   -0.585010
     8  O   -0.587960
     9  O   -0.585011
    10  Si  -0.042847
    11  H    0.220624
    12  H    0.220633
    13  H    0.169766
    14  H    0.121211
    15  H    0.121204
    16  H    0.169769
 Sum of Mulliken charges =  -0.00000

 Dipole moment (field-independent basis, Debye):
    X=              0.0003    Y=              3.5440    Z=              0.0000  Tot=              3.5440

 Test job not archived.
 1\1\GINC-SE336\SP\RHF\Aug-CC-pVDZ\H6N2O4P2Si2\OHZDE\08-Apr-2025\0\\#t
 hf aug-cc-pvdz iop(5/13=1,5/36=2,99/5=2) pseudo=read geom=check guess=
 (read,tcheck) scf=(maxcycle=1)\\title\\0,1\N,0,-1.955241,-0.852038,-0.
 636988\P,0,-1.963521,-0.309823,1.153414\Si,0,-0.825512,1.658846,0.8481
 46\P,0,1.963563,-0.309846,-1.153412\N,0,1.955194,-0.852121,0.636967\O,
 0,2.098617,0.028423,1.481301\O,0,1.868306,-2.042298,0.87048\O,0,-2.098
 673,0.028534,-1.481288\O,0,-1.86846,-2.042214,-0.870533\Si,0,0.825595,
 1.658851,-0.848115\H,0,-0.866482,-1.130522,1.498439\H,0,0.866516,-1.13

 Normal termination of Gaussian 16 at Tue Apr  8 23:43:11 2025.
