 Gaussian 16, Revision C.01,

 ----------------------------------------------------------------------
 #t hf aug-cc-pvdz symm=none int=(grid=ultrafine) guess=(read,tcheck) s
 table=(opt,rrhf)
 ----------------------------------------------------------------------
 -----
 title
 -----
 Symbolic Z-matrix:
 Charge =  0 Multiplicity = 1

 SCF Done:  E(RHF) =  -789.701735178     A.U. after   16 cycles
 Normal termination of Gaussian 16 at Tue Apr  8 23:35:38 2025.
 Gaussian 16:  ES64L-G16RevC.01  3-Jul-2019

 ----------------------------------------------------------------------
 #t hf aug-cc-pvdz iop(5/13=1,5/36=2,99/5=2) pseudo=read geom=check gue
 ss=(read,tcheck) scf=(maxcycle=1)
 ----------------------------------------------------------------------
 -----
 title
 -----
 Structure from the checkpoint file:  "BDE49_nonexpt_1516_mol1.chk"
 Charge =  0 Multiplicity = 1

                         Standard orientation:
 ---------------------------------------------------------------------
 Center     Atomic      Atomic             Coordinates (Angstroms)
 Number     Number       Type             X           Y           Z
 ---------------------------------------------------------------------
      1         15           0        0.095198    0.698231   -0.720473
      2          7           0       -1.410950    0.251523   -0.025139
      3          7           0        1.256479   -0.674619   -0.066763
      4          8           0       -2.053810   -0.704491   -0.853936
      5          8           0       -1.464963   -0.159211    1.312894
      6          8           0        2.446207   -0.510615   -0.260070
      7          8           0        0.755716   -1.651647    0.487227
      8          6           0        0.639055    1.921667    0.537071
      9          1           0        1.707727    2.091183    0.397063
     10          1           0        0.434145    1.578803    1.550902
     11          1           0        0.102752    2.853823    0.350117
     12          1           0       -2.964029   -0.383356   -0.898152
     13          1           0       -0.926797   -0.974520    1.339146
 ---------------------------------------------------------------------

 SCF Done:  E(RHF) =  -789.868311272     A.U. after    2 cycles

 The electronic state is 1-A.
 Alpha  occ. eigenvalues --  -81.36402 -20.64566 -20.63831 -20.63331 -20.62752
 Alpha  occ. eigenvalues --  -15.90320 -15.76656 -11.27489  -7.86073  -5.00116
 Alpha  occ. eigenvalues --   -4.99897  -4.99564  -1.54905  -1.44618  -1.37245
 Alpha  occ. eigenvalues --   -1.33870  -1.06907  -0.99652  -0.93764  -0.82986
 Alpha  occ. eigenvalues --   -0.78046  -0.75777  -0.74386  -0.72384  -0.68684
 Alpha  occ. eigenvalues --   -0.67093  -0.64013  -0.60649  -0.59843  -0.54018
 Alpha  occ. eigenvalues --   -0.53547  -0.52858  -0.50106  -0.48630  -0.43448
 Alpha  occ. eigenvalues --   -0.41226
 Alpha virt. eigenvalues --    0.02904   0.03787   0.04907   0.05843   0.06719
 Alpha virt. eigenvalues --    0.07168   0.08207   0.08629   0.10156   0.12284
 Alpha virt. eigenvalues --    0.12994   0.14691   0.15279   0.15678   0.16680

 Mulliken charges:
               1
     1  P    1.389076
     2  N   -0.013460
     3  N    0.497604
     4  O   -0.478168
     5  O   -0.499161
     6  O   -0.602233
     7  O   -0.600695
     8  C    0.101698
     9  H   -0.086938
    10  H   -0.066436
    11  H   -0.123202
    12  H    0.222051
    13  H    0.259866
 Sum of Mulliken charges =   0.00000

 Dipole moment (field-independent basis, Debye):
    X=             -2.2765    Y=              3.5701    Z=             -0.5390  Tot=              4.2683

 Test job not archived.
 1\1\GINC-SE226\SP\RHF\Aug-CC-pVDZ\C1H5N2O4P1\OHZDE\08-Apr-2025\0\\#t h
 f aug-cc-pvdz iop(5/13=1,5/36=2,99/5=2) pseudo=read geom=check guess=(
 read,tcheck) scf=(maxcycle=1)\\title\\0,1\P,0,0.095198,0.698231,-0.720
 473\N,0,-1.41095,0.251523,-0.025139\N,0,1.256479,-0.674619,-0.066763\O
 ,0,-2.05381,-0.704491,-0.853936\O,0,-1.464963,-0.159211,1.312894\O,0,2
 .446207,-0.510615,-0.26007\O,0,0.755716,-1.651647,0.487227\C,0,0.63905
 5,1.921667,0.537071\H,0,1.707727,2.091183,0.397063\H,0,0.434145,1.5788
 03,1.550902\H,0,0.102752,2.853823,0.350117\H,0,-2.964029,-0.383356,-0.

 Normal termination of Gaussian 16 at Tue Apr  8 23:35:43 2025.
