 Gaussian 16, Revision C.01,

 ----------------------------------------------------------------------
 #t hf aug-cc-pvdz symm=none int=(grid=ultrafine) guess=(read,tcheck) s
 table=(opt,rrhf)
 ----------------------------------------------------------------------
 -----
 title
 -----
 Symbolic Z-matrix:
 Charge =  0 Multiplicity = 1

 SCF Done:  E(RHF) =  -862.440104982     A.U. after   15 cycles
 Normal termination of Gaussian 16 at Tue Apr  8 23:40:06 2025.
 Gaussian 16:  ES64L-G16RevC.01  3-Jul-2019

 ----------------------------------------------------------------------
 #t hf aug-cc-pvdz iop(5/13=1,5/36=2,99/5=2) pseudo=read geom=check gue
 ss=(read,tcheck) scf=(maxcycle=1)
 ----------------------------------------------------------------------
 -----
 title
 -----
 Structure from the checkpoint file:  "BDE49_nonexpt_1635_mol1.chk"
 Charge =  0 Multiplicity = 1

                         Standard orientation:
 ---------------------------------------------------------------------
 Center     Atomic      Atomic             Coordinates (Angstroms)
 Number     Number       Type             X           Y           Z
 ---------------------------------------------------------------------
      1          6           0        1.656661   -0.151221   -0.030561
      2         15           0       -1.104219   -0.567181    0.725728
      3          6           0       -1.184545   -1.717011   -0.738870
      4          1           0       -0.442027   -1.495431   -1.505682
      5          1           0       -2.188825   -1.664785   -1.166314
      6          1           0       -1.023265   -2.737969   -0.384361
      7          8           0        1.889696   -0.899467   -0.956555
      8          6           0        2.268646    1.236146    0.042444
      9         14           0       -1.450991    1.428241   -0.319992
     10          1           0        3.064520    1.229326    0.796018
     11          1           0        1.542775    1.991199    0.354517
     12          1           0        2.696944    1.500858   -0.923376
     13          6           0        0.750598   -0.567633    1.110246
     14          1           0        0.889612    0.057872    1.994846
     15          1           0        0.977050   -1.603089    1.378237
     16          1           0       -2.880993    1.446679   -0.707761
     17          1           0       -0.625627    1.654710   -1.532914
     18          1           0       -1.198730    2.527026    0.643646
 ---------------------------------------------------------------------

 SCF Done:  E(RHF) =  -862.554674214     A.U. after    2 cycles

 The electronic state is 1-A.
 Alpha  occ. eigenvalues --  -81.25733 -69.07424 -20.56375 -11.35134 -11.26016
 Alpha  occ. eigenvalues --  -11.25110 -11.23856  -7.76063  -6.82726  -4.90035
 Alpha  occ. eigenvalues --   -4.89961  -4.89703  -3.93474  -3.93463  -3.93453
 Alpha  occ. eigenvalues --   -1.35634  -1.04132  -0.98161  -0.94786  -0.76723
 Alpha  occ. eigenvalues --   -0.74231  -0.67542  -0.66044  -0.64702  -0.61386
 Alpha  occ. eigenvalues --   -0.58699  -0.57505  -0.57014  -0.54977  -0.51615
 Alpha  occ. eigenvalues --   -0.49568  -0.49230  -0.46012  -0.43946  -0.41773
 Alpha  occ. eigenvalues --   -0.32591
 Alpha virt. eigenvalues --    0.03132   0.04174   0.04514   0.05004   0.05928
 Alpha virt. eigenvalues --    0.06264   0.06787   0.06812   0.07833   0.08663
 Alpha virt. eigenvalues --    0.09064   0.09969   0.10287   0.10523   0.11126

 Mulliken charges:
               1
     1  C    0.053510
     2  P    0.338106
     3  C    0.337355
     4  H   -0.149319
     5  H   -0.195308
     6  H   -0.184598
     7  O   -0.588607
     8  C    0.350655
     9  Si  -0.220868
    10  H    0.080766
    11  H   -0.123532
    12  H   -0.066460
    13  C    0.370225
    14  H   -0.257660
    15  H   -0.096014
    16  H    0.025105
    17  H    0.177291
    18  H    0.149353
 Sum of Mulliken charges =  -0.00000

 Dipole moment (field-independent basis, Debye):
    X=              0.0447    Y=              1.4712    Z=              1.6383  Tot=              2.2024

 Test job not archived.
 1\1\GINC-SE402\SP\RHF\Aug-CC-pVDZ\C4H11O1P1Si1\OHZDE\08-Apr-2025\0\\#t
  hf aug-cc-pvdz iop(5/13=1,5/36=2,99/5=2) pseudo=read geom=check guess
 =(read,tcheck) scf=(maxcycle=1)\\title\\0,1\C,0,1.656661,-0.151221,-0.
 030561\P,0,-1.104219,-0.567181,0.725728\C,0,-1.184545,-1.717011,-0.738
 87\H,0,-0.442027,-1.495431,-1.505682\H,0,-2.188825,-1.664785,-1.166314
 \H,0,-1.023265,-2.737969,-0.384361\O,0,1.889696,-0.899467,-0.956555\C,
 0,2.268646,1.236146,0.042444\Si,0,-1.450991,1.428241,-0.319992\H,0,3.0
 6452,1.229326,0.796018\H,0,1.542775,1.991199,0.354517\H,0,2.696944,1.5

 Normal termination of Gaussian 16 at Tue Apr  8 23:40:14 2025.
