 Gaussian 16, Revision C.01,

 ----------------------------------------------------------------------
 #t hf aug-cc-pvdz symm=none int=(grid=ultrafine) guess=(read,tcheck) s
 table=(opt,rrhf)
 ----------------------------------------------------------------------
 -----
 title
 -----
 Symbolic Z-matrix:
 Charge =  0 Multiplicity = 1

 SCF Done:  E(RHF) =  -585.020376594     A.U. after   15 cycles
 Normal termination of Gaussian 16 at Tue Apr  8 23:25:59 2025.
 Gaussian 16:  ES64L-G16RevC.01  3-Jul-2019

 ----------------------------------------------------------------------
 #t hf aug-cc-pvdz iop(5/13=1,5/36=2,99/5=2) pseudo=read geom=check gue
 ss=(read,tcheck) scf=(maxcycle=1)
 ----------------------------------------------------------------------
 -----
 title
 -----
 Structure from the checkpoint file:  "BDE49_nonexpt_1313_mol1.chk"
 Charge =  0 Multiplicity = 1

                         Standard orientation:
 ---------------------------------------------------------------------
 Center     Atomic      Atomic             Coordinates (Angstroms)
 Number     Number       Type             X           Y           Z
 ---------------------------------------------------------------------
      1         15           0        0.715736   -0.763541   -0.262466
      2          6           0        1.866621    0.583052    0.242821
      3          1           0        2.856973    0.132656    0.361658
      4          1           0        1.573238    1.070209    1.171743
      5          1           0        1.919674    1.324371   -0.554433
      6          7           0       -0.912493    0.124948   -0.004947
      7          8           0       -0.941842    1.333390   -0.175501
      8          8           0       -1.871482   -0.586069    0.244796
      9          1           0        0.608403   -1.425639    0.981360
 ---------------------------------------------------------------------

 SCF Done:  E(RHF) =  -585.120372440     A.U. after    2 cycles

 The electronic state is 1-A.
 Alpha  occ. eigenvalues --  -81.33463 -20.62138 -20.62010 -15.90101 -11.27377
 Alpha  occ. eigenvalues --   -7.83488  -4.97513  -4.97279  -4.96980  -1.54322
 Alpha  occ. eigenvalues --   -1.36645  -1.01488  -0.94083  -0.80983  -0.73607
 Alpha  occ. eigenvalues --   -0.72179  -0.70735  -0.61426  -0.60196  -0.54328
 Alpha  occ. eigenvalues --   -0.50982  -0.48096  -0.47601  -0.40345
 Alpha virt. eigenvalues --    0.02509   0.04595   0.04969   0.05673   0.06930
 Alpha virt. eigenvalues --    0.08260   0.08942   0.10263   0.12477   0.13718
 Alpha virt. eigenvalues --    0.14087   0.15340   0.15684   0.17103   0.18189

 Mulliken charges:
               1
     1  P    0.795322
     2  C    0.116841
     3  H   -0.114482
     4  H   -0.121411
     5  H   -0.063157
     6  N    0.341754
     7  O   -0.534806
     8  O   -0.547658
     9  H    0.127597
 Sum of Mulliken charges =  -0.00000

 Dipole moment (field-independent basis, Debye):
    X=              4.8339    Y=             -1.0705    Z=              0.5099  Tot=              4.9772

 Test job not archived.
 1\1\GINC-SE048\SP\RHF\Aug-CC-pVDZ\C1H4N1O2P1\OHZDE\08-Apr-2025\0\\#t h
 f aug-cc-pvdz iop(5/13=1,5/36=2,99/5=2) pseudo=read geom=check guess=(
 read,tcheck) scf=(maxcycle=1)\\title\\0,1\P,0,0.715736,-0.763541,-0.26
 2466\C,0,1.866621,0.583052,0.242821\H,0,2.856973,0.132656,0.361658\H,0
 ,1.573238,1.070209,1.171743\H,0,1.919674,1.324371,-0.554433\N,0,-0.912
 493,0.124948,-0.004947\O,0,-0.941842,1.33339,-0.175501\O,0,-1.871482,-
 0.586069,0.244796\H,0,0.608403,-1.425639,0.98136\\Version=ES64L-G16Rev
 C.01\State=1-A\HF=-585.1203724\RMSD=6.701e-03\Dipole=1.9018186,-0.4211

 Normal termination of Gaussian 16 at Tue Apr  8 23:26:01 2025.
