 Gaussian 16, Revision C.01,

 ----------------------------------------------------------------------
 #t hf aug-cc-pvdz symm=none int=(grid=ultrafine) guess=(read,tcheck) s
 table=(opt,rrhf)
 ----------------------------------------------------------------------
 -----
 title
 -----
 Symbolic Z-matrix:
 Charge =  0 Multiplicity = 1

 SCF Done:  E(RHF) =  -683.911276702     A.U. after   15 cycles
 Normal termination of Gaussian 16 at Tue Apr  8 23:30:37 2025.
 Gaussian 16:  ES64L-G16RevC.01  3-Jul-2019

 ----------------------------------------------------------------------
 #t hf aug-cc-pvdz iop(5/13=1,5/36=2,99/5=2) pseudo=read geom=check gue
 ss=(read,tcheck) scf=(maxcycle=1)
 ----------------------------------------------------------------------
 -----
 title
 -----
 Structure from the checkpoint file:  "BDE49_nonexpt_1404_mol1.chk"
 Charge =  0 Multiplicity = 1

                         Standard orientation:
 ---------------------------------------------------------------------
 Center     Atomic      Atomic             Coordinates (Angstroms)
 Number     Number       Type             X           Y           Z
 ---------------------------------------------------------------------
      1          6           0       -1.431950   -0.259357   -0.135725
      2          6           0       -1.283793    1.259764   -0.167837
      3         15           0        0.000000   -1.215849    0.626088
      4          6           0        1.431950   -0.259357   -0.135724
      5          6           0        1.283793    1.259764   -0.167837
      6          6           0        0.000000    1.804191    0.473323
      7          1           0        1.340093    1.546580   -1.225223
      8          1           0        2.174867    1.679201    0.309431
      9          1           0       -0.000000    2.893773    0.391053
     10          1           0        0.000000    1.584455    1.546903
     11          1           0       -2.174867    1.679200    0.309431
     12          1           0       -1.340094    1.546581   -1.225223
     13          8           0        2.420826   -0.826046   -0.526740
     14          8           0       -2.420826   -0.826046   -0.526740
     15          1           0        0.000000   -2.305352   -0.267054
 ---------------------------------------------------------------------

 SCF Done:  E(RHF) =  -684.034718306     A.U. after    2 cycles

 The electronic state is 1-A.
 Alpha  occ. eigenvalues --  -81.28277 -20.58668 -20.58668 -11.36870 -11.36869
 Alpha  occ. eigenvalues --  -11.27270 -11.27184 -11.27163  -7.78872  -4.92881
 Alpha  occ. eigenvalues --   -4.92849  -4.92522  -1.37855  -1.37670  -1.11346
 Alpha  occ. eigenvalues --   -1.00829  -0.92023  -0.85710  -0.78255  -0.71945
 Alpha  occ. eigenvalues --   -0.68827  -0.67068  -0.66649  -0.64280  -0.61855
 Alpha  occ. eigenvalues --   -0.59899  -0.57005  -0.56014  -0.54427  -0.51168
 Alpha  occ. eigenvalues --   -0.51128  -0.45609  -0.40624  -0.36733
 Alpha virt. eigenvalues --    0.02609   0.04129   0.04373   0.04939   0.06432
 Alpha virt. eigenvalues --    0.06658   0.06967   0.07511   0.07586   0.09037
 Alpha virt. eigenvalues --    0.10503   0.11435   0.12399   0.12471   0.13940

 Mulliken charges:
               1
     1  C   -0.057256
     2  C    0.136242
     3  P    0.218280
     4  C   -0.057255
     5  C    0.136242
     6  C    0.437658
     7  H    0.034567
     8  H    0.010679
     9  H   -0.055658
    10  H    0.020984
    11  H    0.010678
    12  H    0.034568
    13  O   -0.545954
    14  O   -0.545954
    15  H    0.222180
 Sum of Mulliken charges =  -0.00000

 Dipole moment (field-independent basis, Debye):
    X=             -0.0000    Y=              3.9083    Z=              1.2902  Tot=              4.1158

 Test job not archived.
 1\1\GINC-SE338\SP\RHF\Aug-CC-pVDZ\C5H7O2P1\OHZDE\08-Apr-2025\0\\#t hf
 aug-cc-pvdz iop(5/13=1,5/36=2,99/5=2) pseudo=read geom=check guess=(re
 ad,tcheck) scf=(maxcycle=1)\\title\\0,1\C,0,-1.43195,-0.259357,-0.1357
 25\C,0,-1.283793,1.259764,-0.167837\P,0,0.,-1.215849,0.626088\C,0,1.43
 195,-0.259357,-0.135724\C,0,1.283793,1.259764,-0.167837\C,0,0.,1.80419
 1,0.473323\H,0,1.340093,1.54658,-1.225223\H,0,2.174867,1.679201,0.3094
 31\H,0,0.,2.893773,0.391053\H,0,0.,1.584455,1.546903\H,0,-2.174867,1.6
 792,0.309431\H,0,-1.340094,1.546581,-1.225223\O,0,2.420826,-0.826046,-

 Normal termination of Gaussian 16 at Tue Apr  8 23:30:43 2025.
