 Gaussian 16, Revision C.01,

 ----------------------------------------------------------------------
 #t hf aug-cc-pvdz symm=none int=(grid=ultrafine) guess=(read,tcheck) s
 table=(opt,rrhf)
 ----------------------------------------------------------------------
 -----
 title
 -----
 Symbolic Z-matrix:
 Charge =  0 Multiplicity = 1

 SCF Done:  E(RHF) =  -1093.70115228     A.U. after   16 cycles
 Normal termination of Gaussian 16 at Tue Apr  8 23:46:43 2025.
 Gaussian 16:  ES64L-G16RevC.01  3-Jul-2019

 ----------------------------------------------------------------------
 #t hf aug-cc-pvdz iop(5/13=1,5/36=2,99/5=2) pseudo=read geom=check gue
 ss=(read,tcheck) scf=(maxcycle=1)
 ----------------------------------------------------------------------
 -----
 title
 -----
 Structure from the checkpoint file:  "BDE49_nonexpt_1776_mol1.chk"
 Charge =  0 Multiplicity = 1

                         Standard orientation:
 ---------------------------------------------------------------------
 Center     Atomic      Atomic             Coordinates (Angstroms)
 Number     Number       Type             X           Y           Z
 ---------------------------------------------------------------------
      1          6           0        0.085451    1.925470    0.022077
      2          6           0       -1.216147    2.293084   -0.327232
      3          6           0       -2.225313    1.345132   -0.373013
      4          6           0       -1.947727    0.004989   -0.067138
      5          6           0       -0.650087   -0.367700    0.285572
      6          6           0        0.377600    0.592535    0.329785
      7          1           0        0.864706    2.678867    0.053341
      8          1           0       -1.442528    3.326403   -0.565193
      9         14           0        2.108208    0.099627    0.800627
     10          1           0       -0.427710   -1.399923    0.525343
     11         17           0        3.076942   -0.879638   -0.777020
     12          1           0       -3.240888    1.609941   -0.641566
     13          8           0       -3.008009   -0.845725   -0.140254
     14          6           0       -2.796997   -2.223170    0.142828
     15          1           0       -2.076480   -2.669511   -0.551114
     16          1           0       -3.765451   -2.703162    0.014063
     17          1           0       -2.453398   -2.373368    1.172251
     18          1           0        2.110094   -0.861828    1.920929
     19          1           0        2.912131    1.295431    1.117282
 ---------------------------------------------------------------------

 SCF Done:  E(RHF) =  -1093.84792251     A.U. after    2 cycles

 The electronic state is 1-A.
 Alpha  occ. eigenvalues -- -103.64442 -69.11304 -20.60736 -11.32151 -11.30358
 Alpha  occ. eigenvalues --  -11.25816 -11.25625 -11.25366 -11.25194 -11.24995
 Alpha  occ. eigenvalues --  -10.67865  -8.33556  -8.33338  -8.33334  -6.86202
 Alpha  occ. eigenvalues --   -3.97005  -3.96899  -3.96883  -1.37744  -1.14895
 Alpha  occ. eigenvalues --   -1.12637  -1.02890  -1.02151  -0.95029  -0.84621
 Alpha  occ. eigenvalues --   -0.82196  -0.74585  -0.69267  -0.68260  -0.67858
 Alpha  occ. eigenvalues --   -0.67306  -0.62539  -0.59532  -0.56947  -0.54470
 Alpha  occ. eigenvalues --   -0.53668  -0.52696  -0.52687  -0.52215  -0.49053
 Alpha  occ. eigenvalues --   -0.48211  -0.45225  -0.44557  -0.35591  -0.32893
 Alpha virt. eigenvalues --    0.03077   0.03718   0.04170   0.05199   0.05417
 Alpha virt. eigenvalues --    0.05506   0.06504   0.06703   0.07886   0.08371
 Alpha virt. eigenvalues --    0.08824   0.09568   0.10325   0.11052   0.11109

 Mulliken charges:
               1
     1  C    0.531585
     2  C    0.687046
     3  C    0.658786
     4  C    0.641631
     5  C    0.788130
     6  C   -0.699469
     7  H   -0.595005
     8  H   -0.433300
     9  Si   0.658904
    10  H   -0.850438
    11  Cl  -0.587742
    12  H   -0.544582
    13  O   -0.712779
    14  C    0.897769
    15  H   -0.078402
    16  H   -0.316113
    17  H   -0.088150
    18  H    0.026923
    19  H    0.015205
 Sum of Mulliken charges =  -0.00000

 Dipole moment (field-independent basis, Debye):
    X=             -1.5504    Y=             -0.0210    Z=              1.3067  Tot=              2.0277

 Test job not archived.
 1\1\GINC-SE331\SP\RHF\Aug-CC-pVDZ\C7H9Cl1O1Si1\OHZDE\08-Apr-2025\0\\#t
  hf aug-cc-pvdz iop(5/13=1,5/36=2,99/5=2) pseudo=read geom=check guess
 =(read,tcheck) scf=(maxcycle=1)\\title\\0,1\C,0,0.085451,1.92547,0.022
 077\C,0,-1.216147,2.293084,-0.327232\C,0,-2.225313,1.345132,-0.373013\
 C,0,-1.947727,0.004989,-0.067138\C,0,-0.650087,-0.3677,0.285572\C,0,0.
 3776,0.592535,0.329785\H,0,0.864706,2.678867,0.053341\H,0,-1.442528,3.
 326403,-0.565193\Si,0,2.108208,0.099627,0.800627\H,0,-0.42771,-1.39992
 3,0.525343\Cl,0,3.076942,-0.879638,-0.77702\H,0,-3.240888,1.609941,-0.

 Normal termination of Gaussian 16 at Tue Apr  8 23:46:54 2025.
