 Gaussian 16, Revision C.01,

 ----------------------------------------------------------------------
 #t hf aug-cc-pvdz symm=none int=(grid=ultrafine) guess=(read,tcheck) s
 table=(opt,rrhf)
 ----------------------------------------------------------------------
 -----
 title
 -----
 Symbolic Z-matrix:
 Charge =  0 Multiplicity = 1

 SCF Done:  E(RHF) =  -916.960750255     A.U. after   14 cycles
 Normal termination of Gaussian 16 at Wed Apr  9 00:10:12 2025.
 Gaussian 16:  ES64L-G16RevC.01  3-Jul-2019

 ----------------------------------------------------------------------
 #t hf aug-cc-pvdz iop(5/13=1,5/36=2,99/5=2) pseudo=read geom=check gue
 ss=(read,tcheck) scf=(maxcycle=1)
 ----------------------------------------------------------------------
 -----
 title
 -----
 Structure from the checkpoint file:  "BDE49_nonexpt_2370_mol1.chk"
 Charge =  0 Multiplicity = 1

                         Standard orientation:
 ---------------------------------------------------------------------
 Center     Atomic      Atomic             Coordinates (Angstroms)
 Number     Number       Type             X           Y           Z
 ---------------------------------------------------------------------
      1         14           0       -1.078500   -1.150655   -0.389954
      2         14           0        1.090618   -1.128019    0.548439
      3          6           0        1.978631    0.489238   -0.031533
      4          1           0        1.912073   -2.310961    0.173883
      5          1           0        1.047981   -1.044527    2.027512
      6          8           0        1.377938    1.561194    0.042030
      7          7           0        3.247768    0.418046   -0.503965
      8          1           0        3.746592   -0.454011   -0.559553
      9          1           0        3.709839    1.268419   -0.798507
     10          6           0       -2.159450    0.410030   -0.011343
     11          1           0       -1.810264   -2.324464    0.131466
     12          1           0       -0.946860   -1.275064   -1.861997
     13          8           0       -3.371000    0.264055   -0.089057
     14          7           0       -1.551156    1.577322    0.302706
     15          1           0       -2.136648    2.391416    0.435494
     16          1           0       -0.539239    1.685444    0.275201
 ---------------------------------------------------------------------

 SCF Done:  E(RHF) =  -917.106364799     A.U. after    2 cycles

 The electronic state is 1-A.
 Alpha  occ. eigenvalues --  -69.08964 -69.07940 -20.56587 -20.53281 -15.67723
 Alpha  occ. eigenvalues --  -15.63539 -11.37872 -11.34867  -6.84390  -6.83315
 Alpha  occ. eigenvalues --   -3.95167  -3.95122  -3.95077  -3.94062  -3.94052
 Alpha  occ. eigenvalues --   -3.94047  -1.36623  -1.33392  -1.19984  -1.16300
 Alpha  occ. eigenvalues --   -0.85521  -0.81731  -0.78346  -0.73899  -0.71524
 Alpha  occ. eigenvalues --   -0.68205  -0.66732  -0.63950  -0.60367  -0.58325
 Alpha  occ. eigenvalues --   -0.57063  -0.55182  -0.50808  -0.48911  -0.44482
 Alpha  occ. eigenvalues --   -0.44075  -0.42771  -0.40529  -0.38884
 Alpha virt. eigenvalues --    0.02062   0.03927   0.04230   0.04599   0.05593
 Alpha virt. eigenvalues --    0.06619   0.06903   0.07142   0.07229   0.08791
 Alpha virt. eigenvalues --    0.09068   0.09447   0.09958   0.10734   0.11086

 Mulliken charges:
               1
     1  Si   0.055891
     2  Si   0.210719
     3  C    0.449323
     4  H    0.004846
     5  H    0.047873
     6  O   -0.574334
     7  N   -0.116016
     8  H   -0.029895
     9  H   -0.017731
    10  C    0.364542
    11  H    0.103241
    12  H    0.088213
    13  O   -0.587588
    14  N   -0.007589
    15  H   -0.043571
    16  H    0.052076
 Sum of Mulliken charges =  -0.00000

 Dipole moment (field-independent basis, Debye):
    X=              7.1189    Y=             -1.5035    Z=             -0.3758  Tot=              7.2856

 Test job not archived.
 1\1\GINC-SE345\SP\RHF\Aug-CC-pVDZ\C2H8N2O2Si2\OHZDE\09-Apr-2025\0\\#t
 hf aug-cc-pvdz iop(5/13=1,5/36=2,99/5=2) pseudo=read geom=check guess=
 (read,tcheck) scf=(maxcycle=1)\\title\\0,1\Si,0,-1.0785,-1.150655,-0.3
 89954\Si,0,1.090618,-1.128019,0.548439\C,0,1.978631,0.489238,-0.031533
 \H,0,1.912073,-2.310961,0.173883\H,0,1.047981,-1.044527,2.027512\O,0,1
 .377938,1.561194,0.04203\N,0,3.247768,0.418046,-0.503965\H,0,3.746592,
 -0.454011,-0.559553\H,0,3.709839,1.268419,-0.798507\C,0,-2.15945,0.410
 03,-0.011343\H,0,-1.810264,-2.324464,0.131466\H,0,-0.94686,-1.275064,-

 Normal termination of Gaussian 16 at Wed Apr  9 00:10:22 2025.
