 Gaussian 16, Revision C.01,

 ----------------------------------------------------------------------
 #t hf aug-cc-pvdz symm=none int=(grid=ultrafine) guess=(read,tcheck) s
 table=(opt,rrhf)
 ----------------------------------------------------------------------
 -----
 title
 -----
 Symbolic Z-matrix:
 Charge =  0 Multiplicity = 1

 SCF Done:  E(RHF) =  -654.659298303     A.U. after   14 cycles
 Normal termination of Gaussian 16 at Tue Apr  8 23:49:27 2025.
 Gaussian 16:  ES64L-G16RevC.01  3-Jul-2019

 ----------------------------------------------------------------------
 #t hf aug-cc-pvdz iop(5/13=1,5/36=2,99/5=2) pseudo=read geom=check gue
 ss=(read,tcheck) scf=(maxcycle=1)
 ----------------------------------------------------------------------
 -----
 title
 -----
 Structure from the checkpoint file:  "BDE49_nonexpt_1877_mol1.chk"
 Charge =  0 Multiplicity = 1

                         Standard orientation:
 ---------------------------------------------------------------------
 Center     Atomic      Atomic             Coordinates (Angstroms)
 Number     Number       Type             X           Y           Z
 ---------------------------------------------------------------------
      1         14           0        0.086226    1.141950   -0.194252
      2          6           0       -1.544905    0.671915    0.628561
      3          6           0        1.342544   -0.247001    0.217419
      4          8           0        1.293832   -1.016203    1.116142
      5          1           0        0.631073    2.363613    0.439666
      6          1           0       -0.016169    1.334451   -1.650260
      7          9           0        2.418575   -0.257836   -0.640237
      8          6           0       -2.148232   -0.568597    0.013514
      9          8           0       -1.632010   -1.181412   -0.888291
     10          1           0       -3.116772   -0.904754    0.438407
     11          1           0       -2.273274    1.490966    0.573938
     12          1           0       -1.390213    0.491956    1.700135
 ---------------------------------------------------------------------

 SCF Done:  E(RHF) =  -654.803066718     A.U. after    2 cycles

 The electronic state is 1-A.
 Alpha  occ. eigenvalues --  -69.10597 -26.14301 -20.60638 -20.59668 -11.42230
 Alpha  occ. eigenvalues --  -11.37121 -11.26712  -6.85864  -3.96682  -3.96621
 Alpha  occ. eigenvalues --   -3.96601  -1.68132  -1.40336  -1.38500  -1.03178
 Alpha  occ. eigenvalues --   -0.90787  -0.83012  -0.79306  -0.75584  -0.74291
 Alpha  occ. eigenvalues --   -0.71127  -0.69082  -0.65513  -0.64184  -0.60057
 Alpha  occ. eigenvalues --   -0.57204  -0.54025  -0.50742  -0.50412  -0.48041
 Alpha  occ. eigenvalues --   -0.45561
 Alpha virt. eigenvalues --    0.02401   0.03994   0.04608   0.04959   0.06708
 Alpha virt. eigenvalues --    0.06863   0.07428   0.08708   0.09301   0.10305
 Alpha virt. eigenvalues --    0.10953   0.12086   0.12260   0.13467   0.13998

 Mulliken charges:
               1
     1  Si   0.568804
     2  C   -0.133990
     3  C    0.469817
     4  O   -0.417110
     5  H   -0.019584
     6  H    0.088953
     7  F   -0.415653
     8  C    0.511984
     9  O   -0.444353
    10  H   -0.116234
    11  H   -0.121151
    12  H    0.028518
 Sum of Mulliken charges =  -0.00000

 Dipole moment (field-independent basis, Debye):
    X=             -3.8147    Y=              3.9354    Z=              1.5071  Tot=              5.6842

 Test job not archived.
 1\1\GINC-SE402\SP\RHF\Aug-CC-pVDZ\C3H5F1O2Si1\OHZDE\08-Apr-2025\0\\#t
 hf aug-cc-pvdz iop(5/13=1,5/36=2,99/5=2) pseudo=read geom=check guess=
 (read,tcheck) scf=(maxcycle=1)\\title\\0,1\Si,0,0.086226,1.14195,-0.19
 4252\C,0,-1.544905,0.671915,0.628561\C,0,1.342544,-0.247001,0.217419\O
 ,0,1.293832,-1.016203,1.116142\H,0,0.631073,2.363613,0.439666\H,0,-0.0
 16169,1.334451,-1.65026\F,0,2.418575,-0.257836,-0.640237\C,0,-2.148232
 ,-0.568597,0.013514\O,0,-1.63201,-1.181412,-0.888291\H,0,-3.116772,-0.
 904754,0.438407\H,0,-2.273274,1.490966,0.573938\H,0,-1.390213,0.491956

 Normal termination of Gaussian 16 at Tue Apr  8 23:49:32 2025.
