 Gaussian 16, Revision C.01,

 ----------------------------------------------------------------------
 #t hf aug-cc-pvdz symm=none int=(grid=ultrafine) guess=(read,tcheck) s
 table=(opt,rrhf)
 ----------------------------------------------------------------------
 -----
 title
 -----
 Symbolic Z-matrix:
 Charge =  0 Multiplicity = 1

 SCF Done:  E(RHF) =  -867.368460299     A.U. after   12 cycles
 Normal termination of Gaussian 16 at Tue Apr  8 23:43:28 2025.
 Gaussian 16:  ES64L-G16RevC.01  3-Jul-2019

 ----------------------------------------------------------------------
 #t hf aug-cc-pvdz iop(5/13=1,5/36=2,99/5=2) pseudo=read geom=check gue
 ss=(read,tcheck) scf=(maxcycle=1)
 ----------------------------------------------------------------------
 -----
 title
 -----
 Structure from the checkpoint file:  "BDE49_nonexpt_1739_mol1.chk"
 Charge =  0 Multiplicity = 1

                         Standard orientation:
 ---------------------------------------------------------------------
 Center     Atomic      Atomic             Coordinates (Angstroms)
 Number     Number       Type             X           Y           Z
 ---------------------------------------------------------------------
      1          6           0       -1.578938   -1.634185   -0.191585
      2         14           0       -0.284010   -0.418716    0.387834
      3          6           0        1.395210   -0.728229   -0.386946
      4          1           0       -2.550134   -1.412099    0.257004
      5          1           0       -1.297047   -2.652721    0.094543
      6          1           0       -1.690901   -1.602825   -1.278523
      7          6           0        2.515038    0.226772    0.060512
      8          1           0        2.669350    0.183339    1.142375
      9          1           0        2.279565    1.262041   -0.197262
     10          1           0        3.464913   -0.026722   -0.418099
     11         17           0       -0.920372    1.517867   -0.127319
     12          1           0        1.278701   -0.694252   -1.476512
     13          1           0        1.664502   -1.765414   -0.145405
     14          1           0       -0.184340   -0.419219    1.864734
 ---------------------------------------------------------------------

 SCF Done:  E(RHF) =  -867.451448351     A.U. after    2 cycles

 The electronic state is 1-A.
 Alpha  occ. eigenvalues -- -103.63738 -69.09868 -11.23477 -11.23117 -11.22740
 Alpha  occ. eigenvalues --  -10.67162  -8.32851  -8.32645  -8.32640  -6.84743
 Alpha  occ. eigenvalues --   -3.95600  -3.95447  -3.95430  -1.12085  -1.01995
 Alpha  occ. eigenvalues --   -0.95067  -0.85029  -0.67094  -0.61791  -0.58364
 Alpha  occ. eigenvalues --   -0.57520  -0.57130  -0.52676  -0.51271  -0.49437
 Alpha  occ. eigenvalues --   -0.49193  -0.47689  -0.43949  -0.42361
 Alpha virt. eigenvalues --    0.03113   0.04326   0.04885   0.05183   0.06573
 Alpha virt. eigenvalues --    0.06825   0.06928   0.07885   0.08590   0.09370
 Alpha virt. eigenvalues --    0.09516   0.10853   0.13309   0.14087   0.15072

 Mulliken charges:
               1
     1  C    0.287536
     2  Si   1.160972
     3  C    0.136216
     4  H   -0.259574
     5  H   -0.176804
     6  H   -0.156317
     7  C    0.201888
     8  H   -0.114077
     9  H   -0.095594
    10  H   -0.068678
    11  Cl  -0.622280
    12  H   -0.153942
    13  H   -0.178553
    14  H    0.039209
 Sum of Mulliken charges =   0.00000

 Dipole moment (field-independent basis, Debye):
    X=              0.8348    Y=             -2.3685    Z=             -0.1029  Tot=              2.5134

 Test job not archived.
 1\1\GINC-SE424\SP\RHF\Aug-CC-pVDZ\C3H9Cl1Si1\OHZDE\08-Apr-2025\0\\#t h
 f aug-cc-pvdz iop(5/13=1,5/36=2,99/5=2) pseudo=read geom=check guess=(
 read,tcheck) scf=(maxcycle=1)\\title\\0,1\C,0,-1.578937,-1.634185,-0.1
 91585\Si,0,-0.28401,-0.418716,0.387834\C,0,1.39521,-0.728229,-0.386946
 \H,0,-2.550134,-1.4121,0.257004\H,0,-1.297046,-2.652721,0.094543\H,0,-
 1.6909,-1.602825,-1.278523\C,0,2.515038,0.226772,0.060512\H,0,2.66935,
 0.183339,1.142375\H,0,2.279565,1.262041,-0.197262\H,0,3.464913,-0.0267
 22,-0.418099\Cl,0,-0.920372,1.517867,-0.127319\H,0,1.278701,-0.694252,

 Normal termination of Gaussian 16 at Tue Apr  8 23:43:33 2025.
