 Gaussian 16, Revision C.01,

 ----------------------------------------------------------------------
 #t hf aug-cc-pvdz symm=none int=(grid=ultrafine) guess=(read,tcheck) s
 table=(opt,rrhf)
 ----------------------------------------------------------------------
 -----
 title
 -----
 Symbolic Z-matrix:
 Charge =  0 Multiplicity = 1

 SCF Done:  E(RHF) =  -749.695975091     A.U. after   12 cycles
 Normal termination of Gaussian 16 at Tue Apr  8 23:41:33 2025.
 Gaussian 16:  ES64L-G16RevC.01  3-Jul-2019

 ----------------------------------------------------------------------
 #t hf aug-cc-pvdz iop(5/13=1,5/36=2,99/5=2) pseudo=read geom=check gue
 ss=(read,tcheck) scf=(maxcycle=1)
 ----------------------------------------------------------------------
 -----
 title
 -----
 Structure from the checkpoint file:  "BDE49_nonexpt_1668_mol1.chk"
 Charge =  0 Multiplicity = 1

                         Standard orientation:
 ---------------------------------------------------------------------
 Center     Atomic      Atomic             Coordinates (Angstroms)
 Number     Number       Type             X           Y           Z
 ---------------------------------------------------------------------
      1         15           0        1.960193    0.214507   -0.625329
      2         14           0        0.391011   -0.469514    0.894197
      3          6           0       -1.371648   -0.123472    0.277817
      4          6           0       -1.649638    1.381970    0.112908
      5          1           0       -1.040294    1.815941   -0.686652
      6          1           0       -1.442463    1.941340    1.029735
      7          6           0       -1.713807   -0.904834   -1.003467
      8          1           0       -2.698464    1.556004   -0.150512
      9          1           0       -2.017433   -0.497693    1.084780
     10          1           0       -2.757898   -0.738888   -1.290382
     11          1           0       -1.090196   -0.587241   -1.844894
     12          1           0       -1.573191   -1.981695   -0.875620
     13          1           0        3.049396   -0.097921    0.230274
     14          1           0        1.926222    1.578598   -0.232442
     15          1           0        0.589416    0.177642    2.216272
     16          1           0        0.588406   -1.932472    1.057075
 ---------------------------------------------------------------------

 SCF Done:  E(RHF) =  -749.774910838     A.U. after    2 cycles

 The electronic state is 1-A.
 Alpha  occ. eigenvalues --  -81.24462 -69.06621 -11.23404 -11.23333 -11.23115
 Alpha  occ. eigenvalues --   -7.74997  -6.81869  -4.88956  -4.88866  -4.88640
 Alpha  occ. eigenvalues --   -3.92613  -3.92597  -3.92571  -1.05016  -0.93133
 Alpha  occ. eigenvalues --   -0.81494  -0.78891  -0.66469  -0.62135  -0.58575
 Alpha  occ. eigenvalues --   -0.56817  -0.54400  -0.51622  -0.49186  -0.48820
 Alpha  occ. eigenvalues --   -0.47380  -0.43872  -0.40511  -0.34915
 Alpha virt. eigenvalues --    0.03222   0.04627   0.04821   0.05035   0.06488
 Alpha virt. eigenvalues --    0.06549   0.06843   0.07191   0.07934   0.09322
 Alpha virt. eigenvalues --    0.09784   0.09881   0.10305   0.11244   0.11939

 Mulliken charges:
               1
     1  P   -0.544775
     2  Si  -0.061860
     3  C   -0.222201
     4  C    0.446418
     5  H   -0.085434
     6  H   -0.127844
     7  C    0.438151
     8  H   -0.083937
     9  H   -0.126051
    10  H   -0.069161
    11  H   -0.077628
    12  H   -0.135008
    13  H    0.156485
    14  H    0.185501
    15  H    0.171894
    16  H    0.135449
 Sum of Mulliken charges =   0.00000

 Dipole moment (field-independent basis, Debye):
    X=             -0.9587    Y=              0.2504    Z=              0.4925  Tot=              1.1065

 Test job not archived.
 1\1\GINC-SE090\SP\RHF\Aug-CC-pVDZ\C3H11P1Si1\OHZDE\08-Apr-2025\0\\#t h
 f aug-cc-pvdz iop(5/13=1,5/36=2,99/5=2) pseudo=read geom=check guess=(
 read,tcheck) scf=(maxcycle=1)\\title\\0,1\P,0,-1.960193,0.214507,0.625
 329\Si,0,-0.391011,-0.469514,-0.894197\C,0,1.371648,-0.123472,-0.27781
 7\C,0,1.649638,1.38197,-0.112908\H,0,1.040294,1.815941,0.686652\H,0,1.
 442463,1.94134,-1.029735\C,0,1.713807,-0.904834,1.003467\H,0,2.698464,
 1.556004,0.150512\H,0,2.017433,-0.497693,-1.08478\H,0,2.757898,-0.7388
 88,1.290382\H,0,1.090196,-0.587241,1.844894\H,0,1.573191,-1.981695,0.8

 Normal termination of Gaussian 16 at Tue Apr  8 23:41:39 2025.
