 Gaussian 16, Revision C.01,

 ----------------------------------------------------------------------
 #t hf aug-cc-pvdz symm=none int=(grid=ultrafine) guess=(read,tcheck) s
 table=(opt,rrhf)
 ----------------------------------------------------------------------
 -----
 title
 -----
 Symbolic Z-matrix:
 Charge =  0 Multiplicity = 1

 SCF Done:  E(RHF) =  -497.622680880     A.U. after   17 cycles
 Normal termination of Gaussian 16 at Wed Apr  9 00:40:28 2025.
 Gaussian 16:  ES64L-G16RevC.01  3-Jul-2019

 ----------------------------------------------------------------------
 #t hf aug-cc-pvdz iop(5/13=1,5/36=2,99/5=2) pseudo=read geom=check gue
 ss=(read,tcheck) scf=(maxcycle=1)
 ----------------------------------------------------------------------
 -----
 title
 -----
 Structure from the checkpoint file:  "BDE49_nonexpt_649_mol1.chk"
 Charge =  0 Multiplicity = 1

                         Standard orientation:
 ---------------------------------------------------------------------
 Center     Atomic      Atomic             Coordinates (Angstroms)
 Number     Number       Type             X           Y           Z
 ---------------------------------------------------------------------
      1          8           0       -2.478299   -1.830677    0.131963
      2          1           0       -1.705461   -2.377484    0.290754
      3          8           0       -3.291828    0.342809   -0.164733
      4          1           0       -4.129381   -0.132517   -0.147493
      5          7           0        3.758782   -1.521788   -0.062436
      6          6           0        1.642720   -0.035492   -0.007508
      7          6           0        2.815529   -0.855219   -0.038533
      8          6           0       -0.789834    0.146461    0.005857
      9          6           0        0.373245   -0.628745   -0.021593
     10          1           0        0.322972   -1.712080   -0.067007
     11          6           0        1.759123    1.360671    0.036088
     12          1           0        2.741814    1.815770    0.048338
     13          6           0       -0.645874    1.543410    0.042455
     14          1           0       -1.537933    2.158391    0.056985
     15          6           0        0.610432    2.143001    0.060468
     16          1           0        0.697722    3.222805    0.091799
     17          5           0       -2.226446   -0.492787   -0.007515
 ---------------------------------------------------------------------

 SCF Done:  E(RHF) =  -497.775054368     A.U. after    2 cycles

 The electronic state is 1-A.
 Alpha  occ. eigenvalues --  -20.60056 -20.59220 -15.64537 -11.30241 -11.29468
 Alpha  occ. eigenvalues --  -11.29040 -11.28840 -11.27820 -11.27146 -11.25381
 Alpha  occ. eigenvalues --   -7.67720  -1.36109  -1.32301  -1.20534  -1.17144
 Alpha  occ. eigenvalues --   -1.05790  -1.04428  -0.89038  -0.86858  -0.80183
 Alpha  occ. eigenvalues --   -0.78056  -0.75077  -0.70388  -0.67212  -0.64829
 Alpha  occ. eigenvalues --   -0.63547  -0.60937  -0.59688  -0.58436  -0.55831
 Alpha  occ. eigenvalues --   -0.55797  -0.53764  -0.53397  -0.50990  -0.48450
 Alpha  occ. eigenvalues --   -0.46932  -0.37406  -0.36178
 Alpha virt. eigenvalues --    0.02630   0.03308   0.04255   0.05105   0.05220
 Alpha virt. eigenvalues --    0.05581   0.06015   0.06987   0.07412   0.07798
 Alpha virt. eigenvalues --    0.08710   0.09707   0.10352   0.10958   0.12195

 Mulliken charges:
               1
     1  O   -0.500891
     2  H    0.217745
     3  O   -0.532362
     4  H    0.204330
     5  N   -0.091404
     6  C    2.142084
     7  C   -1.320331
     8  C    0.447079
     9  C   -0.168576
    10  H   -0.746144
    11  C    0.340706
    12  H   -0.543940
    13  C    0.141003
    14  H   -0.634892
    15  C    0.730128
    16  H   -0.423428
    17  B    0.738892
 Sum of Mulliken charges =  -0.00000

 Dipole moment (field-independent basis, Debye):
    X=             -3.0320    Y=              1.8201    Z=              0.3768  Tot=              3.5563

 Test job not archived.
 1\1\GINC-SE150\SP\RHF\Aug-CC-pVDZ\C7H6B1N1O2\OHZDE\09-Apr-2025\0\\#t h
 f aug-cc-pvdz iop(5/13=1,5/36=2,99/5=2) pseudo=read geom=check guess=(
 read,tcheck) scf=(maxcycle=1)\\title\\0,1\O,0,-2.478299,-1.830677,0.13
 1963\H,0,-1.705461,-2.377484,0.290754\O,0,-3.291828,0.342809,-0.164733
 \H,0,-4.129381,-0.132517,-0.147493\N,0,3.758782,-1.521788,-0.062436\C,
 0,1.64272,-0.035492,-0.007508\C,0,2.815529,-0.855219,-0.038533\C,0,-0.
 789834,0.146461,0.005857\C,0,0.373245,-0.628745,-0.021593\H,0,0.322972
 ,-1.71208,-0.067007\C,0,1.759123,1.360671,0.036088\H,0,2.741814,1.8157

 Normal termination of Gaussian 16 at Wed Apr  9 00:40:38 2025.
