 Gaussian 16, Revision C.01,

 ----------------------------------------------------------------------
 #t hf aug-cc-pvdz symm=none int=(grid=ultrafine) guess=(read,tcheck) s
 table=opt
 ----------------------------------------------------------------------
 -----
 title
 -----
 Symbolic Z-matrix:
 Charge =  0 Multiplicity = 2

 SCF Done:  E(UHF) =  -1203.27406298     A.U. after   21 cycles
 Normal termination of Gaussian 16 at Tue Apr  8 22:49:31 2025.
 Gaussian 16:  ES64L-G16RevC.01  3-Jul-2019

 ----------------------------------------------------------------------
 #t hf aug-cc-pvdz iop(5/13=1,5/36=2,99/5=2) pseudo=read geom=check gue
 ss=(read,tcheck) scf=(maxcycle=1)
 ----------------------------------------------------------------------
 -----
 title
 -----
 Structure from the checkpoint file:  "BDE49_expt_1724_mol2.chk"
 Charge =  0 Multiplicity = 2

                         Standard orientation:
 ---------------------------------------------------------------------
 Center     Atomic      Atomic             Coordinates (Angstroms)
 Number     Number       Type             X           Y           Z
 ---------------------------------------------------------------------
      1          6           0       -0.808709    0.033786    0.095123
      2          6           0        0.494529   -0.667967   -0.149775
      3         17           0       -1.114192    1.598139   -0.576039
      4         17           0       -2.183737   -0.922686    0.447744
      5          7           0        1.636391    0.032052    0.120749
      6          6           0        2.911103   -0.539642   -0.296027
      7          8           0        0.480389   -1.802404   -0.600107
      8          1           0        2.722583   -1.358569   -0.985250
      9          1           0        3.467187   -0.925472    0.566170
     10          1           0        3.516510    0.227686   -0.787537
     11          6           0        1.710867    1.211528    0.972126
     12          1           0        0.766356    1.377729    1.485120
     13          1           0        1.963664    2.109067    0.398145
     14          1           0        2.483904    1.055498    1.731303
 ---------------------------------------------------------------------

 SCF Done:  E(UHF) =  -1203.40159499     A.U. after    2 cycles

 The electronic state is 2-A.
 Alpha  occ. eigenvalues -- -103.70134-103.69143 -20.55914 -15.66925 -11.39239
 Alpha  occ. eigenvalues --  -11.38933 -11.29213 -11.27829 -10.73394 -10.72425
 Alpha  occ. eigenvalues --   -8.39009  -8.38918  -8.38798  -8.38082  -8.37935
 Alpha  occ. eigenvalues --   -8.37810  -1.37589  -1.25554  -1.22959  -1.16860
 Alpha  occ. eigenvalues --   -0.99889  -0.98014  -0.90134  -0.75244  -0.72059
 Alpha  occ. eigenvalues --   -0.68753  -0.67981  -0.63435  -0.62098  -0.60532
 Alpha  occ. eigenvalues --   -0.58401  -0.57612  -0.55676  -0.54897  -0.52008
 Alpha  occ. eigenvalues --   -0.50480  -0.47853  -0.46714  -0.40126  -0.38028
 Alpha virt. eigenvalues --    0.02912   0.04191   0.04545   0.05788   0.07170
 Alpha virt. eigenvalues --    0.07858   0.08294   0.08995   0.09532   0.11316
 Alpha virt. eigenvalues --    0.12669   0.13111   0.13999   0.14384   0.15017

  Beta  occ. eigenvalues -- -103.70117-103.69106 -20.55337 -15.66956 -11.39597
  Beta  occ. eigenvalues --  -11.36076 -11.29192 -11.27837 -10.73372 -10.72384
  Beta  occ. eigenvalues --   -8.39262  -8.38784  -8.38601  -8.38274  -8.37788
  Beta  occ. eigenvalues --   -8.37590  -1.36505  -1.23505  -1.22557  -1.16516
  Beta  occ. eigenvalues --   -0.98991  -0.97223  -0.86865  -0.74426  -0.70163
  Beta  occ. eigenvalues --   -0.68098  -0.67093  -0.61929  -0.60964  -0.58192
  Beta  occ. eigenvalues --   -0.57647  -0.56017  -0.54603  -0.52673  -0.51459
  Beta  occ. eigenvalues --   -0.48418  -0.47689  -0.45663  -0.38331
  Beta virt. eigenvalues --    0.02900   0.04104   0.04503   0.05040   0.05849
  Beta virt. eigenvalues --    0.07240   0.07947   0.08474   0.09282   0.09727
  Beta virt. eigenvalues --    0.11892   0.13063   0.13265   0.14083   0.14502

 Mulliken charges and spin densities:
               1          2
     1  C   -0.029144   1.160970
     2  C    0.331274  -0.254656
     3  Cl  -0.073375  -0.023174
     4  Cl  -0.133555   0.005918
     5  N   -0.404954  -0.000286
     6  C    0.700485  -0.001849
     7  O   -0.437283   0.122521
     8  H   -0.216313  -0.001164
     9  H   -0.076278   0.000532
    10  H   -0.065536   0.000813
    11  C    0.830351   0.008136
    12  H   -0.209911  -0.015117
    13  H   -0.095432  -0.001742
    14  H   -0.120330  -0.000902
 Sum of Mulliken charges =   0.00000   1.00000

 Dipole moment (field-independent basis, Debye):
    X=              2.5444    Y=              3.1186    Z=              1.5638  Tot=              4.3180
                          Isotropic Fermi Contact Couplings
        Atom                 a.u.       MegaHertz       Gauss      10(-4) cm-1
     1  C(13)              0.32652     367.07525     130.98158     122.44312
     2  C(13)             -0.05857     -65.84906     -23.49658     -21.96488
     3  Cl(35)             0.03505      15.36953       5.48423       5.12672
     4  Cl(35)             0.03926      17.21281       6.14196       5.74157
     5  N(14)             -0.00760      -2.45670      -0.87661      -0.81947
     6  C(13)             -0.00150      -1.68167      -0.60006      -0.56094
     7  O(17)              0.05328     -32.29934     -11.52521     -10.77390
     8  H(1)               0.00009       0.38526       0.13747       0.12851

 1\1\GINC-SE366\SP\UHF\Aug-CC-pVDZ\C4H6Cl2N1O1(2)\OHZDE\08-Apr-2025\0\\
 #t hf aug-cc-pvdz iop(5/13=1,5/36=2,99/5=2) pseudo=read geom=check gue
 ss=(read,tcheck) scf=(maxcycle=1)\\title\\0,2\C,0,-0.808709,0.033786,0
 .095123\C,0,0.494529,-0.667967,-0.149775\Cl,0,-1.114192,1.598139,-0.57
 6039\Cl,0,-2.183737,-0.922686,0.447744\N,0,1.636391,0.032052,0.120749\
 C,0,2.911103,-0.539642,-0.296027\O,0,0.480389,-1.802404,-0.600107\H,0,
 2.722583,-1.358569,-0.98525\H,0,3.467187,-0.925472,0.56617\H,0,3.51651
 ,0.227686,-0.787537\C,0,1.710867,1.211528,0.972126\H,0,0.766356,1.3777

 Normal termination of Gaussian 16 at Tue Apr  8 22:49:37 2025.
