 Gaussian 16, Revision C.01,

 ----------------------------------------------------------------------
 #t hf aug-cc-pvdz symm=none int=(grid=ultrafine) guess=(read,tcheck) s
 table=opt
 ----------------------------------------------------------------------
 -----
 title
 -----
 Symbolic Z-matrix:
 Charge =  0 Multiplicity = 2

 SCF Done:  E(UHF) =  -345.696420434     A.U. after   15 cycles

 1\1\GINC-SE404\Stability\UHF\Aug-CC-pVDZ\H4N1Si1\OHZDE\08-Apr-2025\0\\
 #t hf aug-cc-pvdz symm=none int=(grid=ultrafine) guess=(read,tcheck) s
 table=opt\\title\\0,2\Si,0,-0.621558,0.,-0.111418\N,0,1.099951,0.,0.09
 1601\H,0,-1.134672,-1.221247,0.573471\H,0,-1.134671,1.221249,0.573468\
 H,0,1.635752,-0.831889,-0.11415\H,0,1.635751,0.83189,-0.114147\\Versio
 n=ES64L-G16RevC.01\HF=-345.6964204\S2=0.756463\S2-1=0.\S2A=0.75002\RMS
 D=3.942e-09\Dipole=0.4629762,0.0000005,-0.2526465\Quadrupole=1.231186,
 0.7846796,-2.0158655,0.,-1.0432701,0.000004\PG=Unknown\\@

 Normal termination of Gaussian 16 at Tue Apr  8 23:50:16 2025.
 Gaussian 16:  ES64L-G16RevC.01  3-Jul-2019

 ----------------------------------------------------------------------
 #t hf aug-cc-pvdz iop(5/13=1,5/36=2,99/5=2) pseudo=read geom=check gue
 ss=(read,tcheck) scf=(maxcycle=1)
 ----------------------------------------------------------------------
 -----
 title
 -----
 Structure from the checkpoint file:  "BDE49_nonexpt_1900_mol2.chk"
 Charge =  0 Multiplicity = 2

                         Standard orientation:
 ---------------------------------------------------------------------
 Center     Atomic      Atomic             Coordinates (Angstroms)
 Number     Number       Type             X           Y           Z
 ---------------------------------------------------------------------
      1         14           0       -0.621558   -0.000000   -0.111418
      2          7           0        1.099951   -0.000000    0.091601
      3          1           0       -1.134672   -1.221247    0.573471
      4          1           0       -1.134671    1.221249    0.573468
      5          1           0        1.635752   -0.831889   -0.114150
      6          1           0        1.635751    0.831890   -0.114147
 ---------------------------------------------------------------------

 SCF Done:  E(UHF) =  -345.740946898     A.U. after    2 cycles

 The electronic state is 2-A.
 Alpha  occ. eigenvalues --  -69.07995 -15.61408  -6.83080  -3.94293  -3.93609
 Alpha  occ. eigenvalues --   -3.93535  -1.11172  -0.70684  -0.66230  -0.54386
 Alpha  occ. eigenvalues --   -0.47903  -0.46256  -0.30215
 Alpha virt. eigenvalues --    0.03435   0.05041   0.05097   0.06872   0.07826
 Alpha virt. eigenvalues --    0.08304   0.09598   0.14288   0.16237   0.17777
 Alpha virt. eigenvalues --    0.18586   0.20117   0.20597   0.21204   0.25035

  Beta  occ. eigenvalues --  -69.07502 -15.60850  -6.82314  -3.93330  -3.93232
  Beta  occ. eigenvalues --   -3.92401  -1.09604  -0.67796  -0.65893  -0.52538
  Beta  occ. eigenvalues --   -0.46378  -0.40940
  Beta virt. eigenvalues --    0.03192   0.04657   0.05089   0.05543   0.07797
  Beta virt. eigenvalues --    0.08487   0.09826   0.09923   0.15996   0.17034
  Beta virt. eigenvalues --    0.18206   0.19795   0.20445   0.22539   0.23161

 Mulliken charges and spin densities:
               1          2
     1  Si   0.686592   0.801048
     2  N   -0.505455   0.127989
     3  H   -0.089575   0.049854
     4  H   -0.089575   0.049854
     5  H   -0.000994  -0.014372
     6  H   -0.000994  -0.014372
 Sum of Mulliken charges =  -0.00000   1.00000

 Dipole moment (field-independent basis, Debye):
    X=              1.2267    Y=              0.0000    Z=             -0.6893  Tot=              1.4071
                          Isotropic Fermi Contact Couplings
        Atom                 a.u.       MegaHertz       Gauss      10(-4) cm-1
     1  Si(29)             0.54803    -487.05370    -173.79287    -162.46363
     2  N(14)              0.04874      15.74925       5.61973       5.25339
     3  H(1)               0.01497      66.89506      23.86982      22.31379
     4  H(1)               0.01497      66.89461      23.86966      22.31364
     5  H(1)              -0.00362     -16.18417      -5.77491      -5.39846
     6  H(1)              -0.00362     -16.18421      -5.77493      -5.39847
 --------------------------------------------------------
       Center         ----  Spin Dipole Couplings  ----

 Normal termination of Gaussian 16 at Tue Apr  8 23:50:17 2025.
