 Gaussian 16, Revision C.01,

 ----------------------------------------------------------------------
 #t hf aug-cc-pvdz symm=none int=(grid=ultrafine) guess=(read,tcheck) s
 table=(opt,rrhf)
 ----------------------------------------------------------------------
 -----
 title
 -----
 Symbolic Z-matrix:
 Charge =  0 Multiplicity = 1

 SCF Done:  E(RHF) =  -1007.65419493     A.U. after   16 cycles
 Normal termination of Gaussian 16 at Tue Apr  8 23:19:52 2025.
 Gaussian 16:  ES64L-G16RevC.01  3-Jul-2019

 ----------------------------------------------------------------------
 #t hf aug-cc-pvdz iop(5/13=1,5/36=2,99/5=2) pseudo=read geom=check gue
 ss=(read,tcheck) scf=(maxcycle=1)
 ----------------------------------------------------------------------
 -----
 title
 -----
 Structure from the checkpoint file:  "BDE49_nonexpt_1148_mol1.chk"
 Charge =  0 Multiplicity = 1

                         Standard orientation:
 ---------------------------------------------------------------------
 Center     Atomic      Atomic             Coordinates (Angstroms)
 Number     Number       Type             X           Y           Z
 ---------------------------------------------------------------------
      1          9           0       -1.873089   -1.173591   -0.000012
      2          8           0       -0.302783   -1.238876    0.000008
      3          6           0        0.253129   -0.036578    0.000046
      4         16           0        1.882593   -0.199930   -0.000038
      5         16           0       -0.655413    1.439441    0.000022
      6          1           0       -1.873587    0.860626    0.000035
 ---------------------------------------------------------------------

 SCF Done:  E(RHF) =  -1007.76233819     A.U. after    2 cycles

 The electronic state is 1-A.
 Alpha  occ. eigenvalues --  -93.61570 -93.54425 -26.19311 -20.79261 -11.45916
 Alpha  occ. eigenvalues --   -8.91382  -8.84363  -6.25539  -6.25285  -6.24935
 Alpha  occ. eigenvalues --   -6.18547  -6.18019  -6.17917  -1.67099  -1.44656
 Alpha  occ. eigenvalues --   -1.10648  -1.00670  -0.85622  -0.79054  -0.76199
 Alpha  occ. eigenvalues --   -0.74839  -0.68826  -0.66777  -0.56056  -0.54800
 Alpha  occ. eigenvalues --   -0.48141  -0.38077  -0.38050
 Alpha virt. eigenvalues --   -0.01361   0.03465   0.03908   0.07407   0.07982
 Alpha virt. eigenvalues --    0.09967   0.10837   0.11564   0.13730   0.13838
 Alpha virt. eigenvalues --    0.14839   0.15480   0.15824   0.17187   0.20285

 Mulliken charges:
               1
     1  F   -0.400309
     2  O   -0.021111
     3  C   -0.241780
     4  S    0.107741
     5  S    0.385832
     6  H    0.169627
 Sum of Mulliken charges =  -0.00000

 Dipole moment (field-independent basis, Debye):
    X=             -0.9531    Y=              2.0141    Z=              0.0001  Tot=              2.2282

 Test job not archived.
 1\1\GINC-SE038\SP\RHF\Aug-CC-pVDZ\C1H1F1O1S2\OHZDE\08-Apr-2025\0\\#t h
 f aug-cc-pvdz iop(5/13=1,5/36=2,99/5=2) pseudo=read geom=check guess=(
 read,tcheck) scf=(maxcycle=1)\\title\\0,1\F,0,-1.873089,-1.173591,-0.0
 00012\O,0,-0.302783,-1.238876,0.000008\C,0,0.253129,-0.036578,0.000046
 \S,0,1.882593,-0.19993,-0.000038\S,0,-0.655413,1.439441,0.000022\H,0,-
 1.873587,0.860626,0.000035\\Version=ES64L-G16RevC.01\State=1-A\HF=-100
 7.7623382\RMSD=6.578e-03\Dipole=-0.3749806,0.7923993,0.0000263\Quadrup
 ole=0.5200942,-0.3339066,-0.1861876,-2.9488212,-0.0001466,-0.0000757\P

 Normal termination of Gaussian 16 at Tue Apr  8 23:19:54 2025.
