 Gaussian 16, Revision C.01,

 ----------------------------------------------------------------------
 #t hf aug-cc-pvdz symm=none int=(grid=ultrafine) guess=(read,tcheck) s
 table=(opt,rrhf)
 ----------------------------------------------------------------------
 -----
 title
 -----
 Symbolic Z-matrix:
 Charge =  0 Multiplicity = 1

 SCF Done:  E(RHF) =  -1693.42820455     A.U. after   11 cycles
 Normal termination of Gaussian 16 at Tue Apr  8 23:43:14 2025.
 Gaussian 16:  ES64L-G16RevC.01  3-Jul-2019

 ----------------------------------------------------------------------
 #t hf aug-cc-pvdz iop(5/13=1,5/36=2,99/5=2) pseudo=read geom=check gue
 ss=(read,tcheck) scf=(maxcycle=1)
 ----------------------------------------------------------------------
 -----
 title
 -----
 Structure from the checkpoint file:  "BDE49_nonexpt_171_mol1.chk"
 Charge =  0 Multiplicity = 1

                         Standard orientation:
 ---------------------------------------------------------------------
 Center     Atomic      Atomic             Coordinates (Angstroms)
 Number     Number       Type             X           Y           Z
 ---------------------------------------------------------------------
      1         17           0       -2.328234   -0.882028   -0.000037
      2         17           0       -0.866850    1.773048    0.000054
      3          5           0       -0.816992    0.024163    0.000012
      4         14           0        0.901378   -1.045767    0.000015
      5         17           0        2.579829    0.186118   -0.000037
      6          1           0        0.962514   -1.895671    1.207668
      7          1           0        0.962495   -1.895740   -1.207589
 ---------------------------------------------------------------------

 SCF Done:  E(RHF) =  -1693.51051972     A.U. after    2 cycles

 The electronic state is 1-A.
 Alpha  occ. eigenvalues -- -103.68801-103.68594-103.65871 -69.12176 -10.72271
 Alpha  occ. eigenvalues --  -10.72078 -10.69312  -8.37955  -8.37767  -8.37737
 Alpha  occ. eigenvalues --   -8.37701  -8.37549  -8.37502  -8.35005  -8.34773
 Alpha  occ. eigenvalues --   -8.34772  -7.74718  -6.87168  -3.98017  -3.97867
 Alpha  occ. eigenvalues --   -3.97845  -1.19865  -1.16242  -1.14147  -0.75295
 Alpha  occ. eigenvalues --   -0.68256  -0.60377  -0.57450  -0.55113  -0.53909
 Alpha  occ. eigenvalues --   -0.53046  -0.49558  -0.49442  -0.48181  -0.46494
 Alpha  occ. eigenvalues --   -0.42937
 Alpha virt. eigenvalues --    0.03318   0.03751   0.04600   0.05249   0.06072
 Alpha virt. eigenvalues --    0.07006   0.07484   0.07627   0.09640   0.10477
 Alpha virt. eigenvalues --    0.12657   0.12899   0.13725   0.15593   0.15855

 Mulliken charges:
               1
     1  Cl  -0.331386
     2  Cl  -0.323014
     3  B    0.489620
     4  Si   0.613828
     5  Cl  -0.523142
     6  H    0.037044
     7  H    0.037049
 Sum of Mulliken charges =  -0.00000

 Dipole moment (field-independent basis, Debye):
    X=             -0.6683    Y=             -1.1127    Z=              0.0000  Tot=              1.2980

 Test job not archived.
 1\1\GINC-SE084\SP\RHF\Aug-CC-pVDZ\B1Cl3H2Si1\OHZDE\08-Apr-2025\0\\#t h
 f aug-cc-pvdz iop(5/13=1,5/36=2,99/5=2) pseudo=read geom=check guess=(
 read,tcheck) scf=(maxcycle=1)\\title\\0,1\Cl,0,-2.328234,-0.882028,-0.
 000037\Cl,0,-0.86685,1.773048,0.000054\B,0,-0.816992,0.024163,0.000012
 \Si,0,0.901378,-1.045767,0.000015\Cl,0,2.579829,0.186117,-0.000037\H,0
 ,0.962514,-1.895671,1.207668\H,0,0.962495,-1.89574,-1.207589\\Version=
 ES64L-G16RevC.01\State=1-A\HF=-1693.5105197\RMSD=4.670e-03\Dipole=-0.2
 629218,-0.437788,0.0000144\Quadrupole=-3.3769375,1.2912802,2.0856573,-

 Normal termination of Gaussian 16 at Tue Apr  8 23:43:18 2025.
