 Gaussian 16, Revision C.01,

 ----------------------------------------------------------------------
 #t hf aug-cc-pvdz symm=none int=(grid=ultrafine) guess=(read,tcheck) s
 table=(opt,rrhf)
 ----------------------------------------------------------------------
 -----
 title
 -----
 Symbolic Z-matrix:
 Charge =  0 Multiplicity = 1

 SCF Done:  E(RHF) =  -1732.74257166     A.U. after   15 cycles
 Normal termination of Gaussian 16 at Wed Apr  9 00:51:49 2025.
 Gaussian 16:  ES64L-G16RevC.01  3-Jul-2019

 ----------------------------------------------------------------------
 #t hf aug-cc-pvdz iop(5/13=1,5/36=2,99/5=2) pseudo=read geom=check gue
 ss=(read,tcheck) scf=(maxcycle=1)
 ----------------------------------------------------------------------
 -----
 title
 -----
 Structure from the checkpoint file:  "BDE49_nonexpt_983_mol1.chk"
 Charge =  0 Multiplicity = 1

                         Standard orientation:
 ---------------------------------------------------------------------
 Center     Atomic      Atomic             Coordinates (Angstroms)
 Number     Number       Type             X           Y           Z
 ---------------------------------------------------------------------
      1         16           0        1.022015   -1.185062    0.024358
      2          7           0        2.374541    0.087685    0.036409
      3          8           0        2.204360    1.126094    0.607688
      4          8           0        3.341950   -0.326401   -0.561179
      5          8           0       -0.129081   -0.407877    0.943095
      6          6           0       -1.226499    0.193963    0.326038
      7          9           0       -1.911256    0.747095    1.324800
      8         17           0       -2.270149   -1.034703   -0.474741
      9         17           0       -0.774060    1.465588   -0.845310
 ---------------------------------------------------------------------

 SCF Done:  E(RHF) =  -1732.94064274     A.U. after    2 cycles

 The electronic state is 1-A.
 Alpha  occ. eigenvalues -- -103.71277-103.71162 -93.70306 -26.20087 -20.70413
 Alpha  occ. eigenvalues --  -20.66715 -20.65968 -15.96688 -11.56289 -10.74617
 Alpha  occ. eigenvalues --  -10.74503  -8.98974  -8.40332  -8.40223  -8.39998
 Alpha  occ. eigenvalues --   -8.39987  -8.39883  -8.39870  -6.33107  -6.32812
 Alpha  occ. eigenvalues --   -6.32280  -1.75625  -1.59879  -1.45750  -1.42571
 Alpha  occ. eigenvalues --   -1.24170  -1.18615  -1.08615  -0.97534  -0.89676
 Alpha  occ. eigenvalues --   -0.84496  -0.83420  -0.81721  -0.78621  -0.77928
 Alpha  occ. eigenvalues --   -0.76914  -0.70485  -0.68051  -0.63605  -0.57847
 Alpha  occ. eigenvalues --   -0.56126  -0.54319  -0.53097  -0.52034  -0.51222
 Alpha  occ. eigenvalues --   -0.49761  -0.49173  -0.44982
 Alpha virt. eigenvalues --    0.04387   0.05183   0.05525   0.06337   0.07787
 Alpha virt. eigenvalues --    0.08836   0.09513   0.10302   0.11140   0.11594
 Alpha virt. eigenvalues --    0.11961   0.13713   0.14460   0.15828   0.16109

 Mulliken charges:
               1
     1  S    1.077286
     2  N    0.350532
     3  O   -0.449433
     4  O   -0.504910
     5  O   -0.689838
     6  C    0.425461
     7  F   -0.221448
     8  Cl   0.006148
     9  Cl   0.006204
 Sum of Mulliken charges =   0.00000

 Dipole moment (field-independent basis, Debye):
    X=             -1.5588    Y=             -2.0144    Z=             -0.9704  Tot=              2.7257

 Test job not archived.
 1\1\GINC-SE096\SP\RHF\Aug-CC-pVDZ\C1Cl2F1N1O3S1\OHZDE\09-Apr-2025\0\\#
 t hf aug-cc-pvdz iop(5/13=1,5/36=2,99/5=2) pseudo=read geom=check gues
 s=(read,tcheck) scf=(maxcycle=1)\\title\\0,1\S,0,1.022015,-1.185062,0.
 024358\N,0,2.374541,0.087685,0.036409\O,0,2.20436,1.126094,0.607688\O,
 0,3.34195,-0.326401,-0.561179\O,0,-0.129081,-0.407877,0.943095\C,0,-1.
 226499,0.193963,0.326038\F,0,-1.911256,0.747095,1.3248\Cl,0,-2.270149,
 -1.034703,-0.474741\Cl,0,-0.77406,1.465588,-0.84531\\Version=ES64L-G16
 RevC.01\State=1-A\HF=-1732.9406427\RMSD=3.614e-03\Dipole=-0.6132688,-0

 Normal termination of Gaussian 16 at Wed Apr  9 00:51:55 2025.
