 Gaussian 16, Revision C.01,

 ----------------------------------------------------------------------
 #t hf aug-cc-pvdz symm=none int=(grid=ultrafine) guess=(read,tcheck) s
 table=(opt,rrhf)
 ----------------------------------------------------------------------
 -----
 title
 -----
 Symbolic Z-matrix:
 Charge =  0 Multiplicity = 1

 SCF Done:  E(RHF) =  -711.959973411     A.U. after   15 cycles
 Normal termination of Gaussian 16 at Tue Apr  8 23:52:20 2025.
 Gaussian 16:  ES64L-G16RevC.01  3-Jul-2019

 ----------------------------------------------------------------------
 #t hf aug-cc-pvdz iop(5/13=1,5/36=2,99/5=2) pseudo=read geom=check gue
 ss=(read,tcheck) scf=(maxcycle=1)
 ----------------------------------------------------------------------
 -----
 title
 -----
 Structure from the checkpoint file:  "BDE49_nonexpt_1871_mol1.chk"
 Charge =  0 Multiplicity = 1

                         Standard orientation:
 ---------------------------------------------------------------------
 Center     Atomic      Atomic             Coordinates (Angstroms)
 Number     Number       Type             X           Y           Z
 ---------------------------------------------------------------------
      1         14           0       -1.187411    1.567520    0.367135
      2          6           0        0.520975    2.073595   -0.279021
      3          6           0        1.754707   -0.097507    0.322515
      4          8           0        1.122063   -0.131526    1.359537
      5          6           0        1.503005    0.977985   -0.718480
      6          1           0        1.136856    0.455465   -1.610287
      7          1           0        2.468517    1.412188   -1.006392
      8          6           0       -1.965328    0.088112   -0.564083
      9          1           0       -2.107113    2.700495    0.075202
     10          1           0       -1.240793    1.332620    1.823845
     11          6           0       -1.253384   -1.236055   -0.440505
     12          1           0       -2.991859    0.017986   -0.189505
     13          1           0       -1.999354    0.363590   -1.622009
     14          8           0       -0.418675   -1.583943   -1.255186
     15          6           0        2.772193   -1.161933   -0.019885
     16          1           0        3.039271   -1.721139    0.876131
     17          1           0        3.665269   -0.742237   -0.488997
     18          1           0        2.304589   -1.843876   -0.738155
     19          6           0       -1.595245   -2.098687    0.756966
     20          1           0       -2.673071   -2.274379    0.818525
     21          1           0       -1.290920   -1.582018    1.672324
     22          1           0       -1.065735   -3.047762    0.687571
     23          1           0        0.977338    2.686165    0.507144
     24          1           0        0.352118    2.748322   -1.125133
 ---------------------------------------------------------------------

 SCF Done:  E(RHF) =  -712.114079048     A.U. after    2 cycles

 The electronic state is 1-A.
 Alpha  occ. eigenvalues --  -69.06286 -20.56126 -20.55390 -11.34511 -11.34393
 Alpha  occ. eigenvalues --  -11.24891 -11.23833 -11.23675 -11.23221 -11.22850
 Alpha  occ. eigenvalues --   -6.81418  -3.92216  -3.92181  -3.92154  -1.35455
 Alpha  occ. eigenvalues --   -1.34617  -1.05282  -1.02675  -0.99294  -0.95399
 Alpha  occ. eigenvalues --   -0.87709  -0.74674  -0.73820  -0.68469  -0.66007
 Alpha  occ. eigenvalues --   -0.65435  -0.64462  -0.63693  -0.61540  -0.59830
 Alpha  occ. eigenvalues --   -0.57876  -0.56937  -0.56147  -0.53804  -0.52804
 Alpha  occ. eigenvalues --   -0.52271  -0.51733  -0.50196  -0.46876  -0.45207
 Alpha  occ. eigenvalues --   -0.42854  -0.42221  -0.41445
 Alpha virt. eigenvalues --    0.03122   0.03928   0.04253   0.04884   0.05388
 Alpha virt. eigenvalues --    0.05607   0.06457   0.06718   0.07050   0.07753
 Alpha virt. eigenvalues --    0.08009   0.08810   0.09749   0.10016   0.10272

 Mulliken charges:
               1
     1  Si   0.441282
     2  C    0.197892
     3  C   -0.268534
     4  O   -0.573125
     5  C    0.138247
     6  H   -0.004318
     7  H   -0.040448
     8  C    0.516275
     9  H    0.063710
    10  H    0.221537
    11  C   -0.073596
    12  H   -0.310764
    13  H   -0.216708
    14  O   -0.633793
    15  C    0.551750
    16  H   -0.069546
    17  H   -0.017556
    18  H    0.082344
    19  C    0.321122
    20  H    0.027954
    21  H    0.044845
    22  H   -0.116253
    23  H   -0.238710
    24  H   -0.043606
 Sum of Mulliken charges =   0.00000

 Dipole moment (field-independent basis, Debye):
    X=              0.1524    Y=              0.8730    Z=             -0.7424  Tot=              1.1561

 Test job not archived.
 1\1\GINC-SE284\SP\RHF\Aug-CC-pVDZ\C7H14O2Si1\OHZDE\08-Apr-2025\0\\#t h
 f aug-cc-pvdz iop(5/13=1,5/36=2,99/5=2) pseudo=read geom=check guess=(
 read,tcheck) scf=(maxcycle=1)\\title\\0,1\Si,0,-1.187411,1.56752,0.367
 135\C,0,0.520975,2.073595,-0.279021\C,0,1.754707,-0.097507,0.322515\O,
 0,1.122063,-0.131526,1.359537\C,0,1.503005,0.977985,-0.71848\H,0,1.136
 856,0.455465,-1.610287\H,0,2.468517,1.412187,-1.006392\C,0,-1.965328,0
 .088112,-0.564083\H,0,-2.107112,2.700495,0.075202\H,0,-1.240793,1.3326
 2,1.823845\C,0,-1.253384,-1.236055,-0.440505\H,0,-2.991859,0.017987,-0

 Normal termination of Gaussian 16 at Tue Apr  8 23:52:36 2025.
