 Gaussian 16, Revision C.01,

 ----------------------------------------------------------------------
 #t hf aug-cc-pvdz symm=none int=(grid=ultrafine) guess=(read,tcheck) s
 table=opt
 ----------------------------------------------------------------------
 -----
 title
 -----
 Symbolic Z-matrix:
 Charge =  0 Multiplicity = 2

 SCF Done:  E(UHF) =  -256.629002936     A.U. after   19 cycles
 Normal termination of Gaussian 16 at Wed Apr  9 00:35:56 2025.
 Gaussian 16:  ES64L-G16RevC.01  3-Jul-2019

 ----------------------------------------------------------------------
 #t hf aug-cc-pvdz iop(5/13=1,5/36=2,99/5=2) pseudo=read geom=check gue
 ss=(read,tcheck) scf=(maxcycle=1)
 ----------------------------------------------------------------------
 -----
 title
 -----
 Structure from the checkpoint file:  "BDE49_nonexpt_542_mol2.chk"
 Charge =  0 Multiplicity = 2

                         Standard orientation:
 ---------------------------------------------------------------------
 Center     Atomic      Atomic             Coordinates (Angstroms)
 Number     Number       Type             X           Y           Z
 ---------------------------------------------------------------------
      1          9           0       -1.766935   -0.702644   -0.281886
      2          6           0        0.129632    0.753306   -0.234636
      3          6           0       -1.099973    0.299488    0.464319
      4          1           0       -1.806335    1.124259    0.584336
      5          1           0       -0.857720   -0.135981    1.436349
      6          7           0        1.288495    0.124475   -0.075065
      7          5           0        2.381092   -0.472401    0.084160
      8          1           0        3.397403   -1.021001    0.233232
      9          1           0        0.066179    1.530432   -0.990391
 ---------------------------------------------------------------------

 SCF Done:  E(UHF) =  -256.714522974     A.U. after    2 cycles

 The electronic state is 2-A.
 Alpha  occ. eigenvalues --  -26.09527 -15.62794 -11.32465 -11.29433  -7.64184
 Alpha  occ. eigenvalues --   -1.62504  -1.17322  -1.00782  -0.87891  -0.74608
 Alpha  occ. eigenvalues --   -0.73403  -0.71982  -0.67743  -0.62572  -0.58511
 Alpha  occ. eigenvalues --   -0.54072  -0.52295  -0.41182  -0.31065
 Alpha virt. eigenvalues --    0.03451   0.03953   0.04359   0.05132   0.06370
 Alpha virt. eigenvalues --    0.06691   0.09087   0.10823   0.11372   0.13196
 Alpha virt. eigenvalues --    0.13762   0.14625   0.15827   0.16115   0.16611

  Beta  occ. eigenvalues --  -26.09192 -15.64015 -11.32745 -11.27155  -7.63399
  Beta  occ. eigenvalues --   -1.61440  -1.17054  -0.99564  -0.84750  -0.74035
  Beta  occ. eigenvalues --   -0.72492  -0.70167  -0.66671  -0.61938  -0.57885
  Beta  occ. eigenvalues --   -0.53929  -0.48744  -0.42591
  Beta virt. eigenvalues --    0.03497   0.03984   0.04316   0.05074   0.06410
  Beta virt. eigenvalues --    0.06701   0.06980   0.09229   0.11239   0.12128
  Beta virt. eigenvalues --    0.13884   0.14408   0.14950   0.16104   0.16494

 Mulliken charges and spin densities:
               1          2
     1  F   -0.453259   0.024051
     2  C    0.606816   1.186780
     3  C    0.599521  -0.172913
     4  H   -0.085102   0.008093
     5  H   -0.164363   0.003889
     6  N    0.031639  -0.405072
     7  B   -0.498195   0.478219
     8  H    0.215310  -0.026961
     9  H   -0.252368  -0.096086
 Sum of Mulliken charges =  -0.00000   1.00000

 Dipole moment (field-independent basis, Debye):
    X=              1.8535    Y=              1.3620    Z=              1.1374  Tot=              2.5659
                          Isotropic Fermi Contact Couplings
        Atom                 a.u.       MegaHertz       Gauss      10(-4) cm-1
     1  F(19)              0.06872     289.14557     103.17433      96.44858
     2  C(13)              0.19950     224.27505      80.02691      74.81010
     3  C(13)             -0.04091     -45.98959     -16.41023     -15.34048
     4  H(1)               0.00280      12.50965       4.46375       4.17277
     5  H(1)               0.00304      13.57352       4.84337       4.52764
     6  N(14)             -0.17693     -57.16587     -20.39821     -19.06848
     7  B(11)              0.05569      79.88450      28.50478      26.64660
     8  H(1)              -0.01357     -60.64303     -21.63894     -20.22834

 Normal termination of Gaussian 16 at Wed Apr  9 00:35:59 2025.
