 Gaussian 16, Revision C.01,

 ----------------------------------------------------------------------
 #t hf aug-cc-pvdz symm=none int=(grid=ultrafine) guess=(read,tcheck) s
 table=opt
 ----------------------------------------------------------------------
 -----
 title
 -----
 Symbolic Z-matrix:
 Charge =  0 Multiplicity = 2

 SCF Done:  E(UHF) =  -204.065799848     A.U. after   15 cycles
 Normal termination of Gaussian 16 at Tue Apr  8 22:37:22 2025.
 Gaussian 16:  ES64L-G16RevC.01  3-Jul-2019

 ----------------------------------------------------------------------
 #t hf aug-cc-pvdz iop(5/13=1,5/36=2,99/5=2) pseudo=read geom=check gue
 ss=(read,tcheck) scf=(maxcycle=1)
 ----------------------------------------------------------------------
 -----
 title
 -----
 Structure from the checkpoint file:  "BDE49_expt_1247_mol3.chk"
 Charge =  0 Multiplicity = 2

                         Standard orientation:
 ---------------------------------------------------------------------
 Center     Atomic      Atomic             Coordinates (Angstroms)
 Number     Number       Type             X           Y           Z
 ---------------------------------------------------------------------
      1          7           0        0.000000   -0.000000    0.323073
      2          8           0        0.000000    1.100584   -0.141344
      3          8           0       -0.000000   -1.100584   -0.141344
 ---------------------------------------------------------------------

 SCF Done:  E(UHF) =  -204.130326199     A.U. after    2 cycles

 The electronic state is 2-A1.
 Alpha  occ. eigenvalues --  -20.70643 -20.70637 -15.94943  -1.62620  -1.46921
 Alpha  occ. eigenvalues --   -0.96523  -0.84851  -0.82159  -0.77802  -0.62151
 Alpha  occ. eigenvalues --   -0.55314  -0.51856
 Alpha virt. eigenvalues --    0.06003   0.09304   0.10781   0.12764   0.13623
 Alpha virt. eigenvalues --    0.22011   0.22050   0.23336   0.24510   0.26170
 Alpha virt. eigenvalues --    0.28244   0.37401   0.40661   0.48713   0.64822

  Beta  occ. eigenvalues --  -20.69196 -20.69187 -15.92677  -1.58288  -1.42596
  Beta  occ. eigenvalues --   -0.88514  -0.77144  -0.76061  -0.72759  -0.54956
  Beta  occ. eigenvalues --   -0.51919
  Beta virt. eigenvalues --    0.00924   0.09006   0.10896   0.10902   0.13644
  Beta virt. eigenvalues --    0.13800   0.22252   0.22942   0.23360   0.25158
  Beta virt. eigenvalues --    0.26465   0.28329   0.38309   0.41150   0.50581

 Mulliken charges and spin densities:
               1          2
     1  N    0.703689   0.536863
     2  O   -0.351845   0.231569
     3  O   -0.351845   0.231569
 Sum of Mulliken charges =  -0.00000   1.00000

 Dipole moment (field-independent basis, Debye):
    X=              0.0000    Y=             -0.0000    Z=              0.8473  Tot=              0.8473
                          Isotropic Fermi Contact Couplings
        Atom                 a.u.       MegaHertz       Gauss      10(-4) cm-1
     1  N(14)              0.42944     138.75408      49.51091      46.28338
     2  O(17)              0.12230     -74.13822     -26.45436     -24.72985
     3  O(17)              0.12230     -74.13822     -26.45436     -24.72985
 --------------------------------------------------------
       Center         ----  Spin Dipole Couplings  ----
                      3XX-RR        3YY-RR        3ZZ-RR
 --------------------------------------------------------
     1   Atom       -0.568636     -0.784824      1.353460

 Normal termination of Gaussian 16 at Tue Apr  8 22:37:23 2025.
