 Gaussian 16, Revision C.01,

 ----------------------------------------------------------------------
 #t hf aug-cc-pvdz symm=none int=(grid=ultrafine) guess=(read,tcheck) s
 table=(opt,rrhf)
 ----------------------------------------------------------------------
 -----
 title
 -----
 Symbolic Z-matrix:
 Charge =  0 Multiplicity = 1

 SCF Done:  E(RHF) =  -940.745401232     A.U. after   15 cycles
 Normal termination of Gaussian 16 at Tue Apr  8 23:56:38 2025.
 Gaussian 16:  ES64L-G16RevC.01  3-Jul-2019

 ----------------------------------------------------------------------
 #t hf aug-cc-pvdz iop(5/13=1,5/36=2,99/5=2) pseudo=read geom=check gue
 ss=(read,tcheck) scf=(maxcycle=1)
 ----------------------------------------------------------------------
 -----
 title
 -----
 Structure from the checkpoint file:  "BDE49_nonexpt_2028_mol1.chk"
 Charge =  0 Multiplicity = 1

                         Standard orientation:
 ---------------------------------------------------------------------
 Center     Atomic      Atomic             Coordinates (Angstroms)
 Number     Number       Type             X           Y           Z
 ---------------------------------------------------------------------
      1         14           0        2.095637   -0.002763    0.017080
      2          6           0        0.141586   -0.000205    0.001180
      3          7           0       -0.432124    0.040716    1.420551
      4          8           0       -1.368071    0.770968    1.644131
      5          8           0        0.134158   -0.710287    2.193575
      6          7           0       -0.412790    1.213724   -0.750149
      7          8           0       -1.342103    1.050808   -1.504529
      8          8           0        0.160227    2.253438   -0.480135
      9          7           0       -0.416640   -1.252771   -0.680672
     10          8           0        0.165197   -1.543937   -1.709723
     11          8           0       -1.356730   -1.816234   -0.172739
     12          1           0        2.492595    0.891262    1.114344
     13          1           0        2.511675    0.496911   -1.301278
     14          1           0        2.496747   -1.397989    0.247990
 ---------------------------------------------------------------------

 SCF Done:  E(RHF) =  -940.963267489     A.U. after    2 cycles

 The electronic state is 1-A.
 Alpha  occ. eigenvalues --  -69.14096 -20.68505 -20.68505 -20.68505 -20.67751
 Alpha  occ. eigenvalues --  -20.67751 -20.67750 -15.98388 -15.98388 -15.98386
 Alpha  occ. eigenvalues --  -11.46942  -6.89286  -4.00148  -3.99996  -3.99996
 Alpha  occ. eigenvalues --   -1.63349  -1.60931  -1.60931  -1.43758  -1.43758
 Alpha  occ. eigenvalues --   -1.43625  -1.20986  -1.00408  -1.00407  -0.88616
 Alpha  occ. eigenvalues --   -0.85849  -0.85849  -0.83606  -0.79551  -0.79551
 Alpha  occ. eigenvalues --   -0.78907  -0.77409  -0.77408  -0.74490  -0.64893
 Alpha  occ. eigenvalues --   -0.59338  -0.59338  -0.58893  -0.55148  -0.55148
 Alpha  occ. eigenvalues --   -0.54715  -0.54199  -0.54199  -0.53918  -0.51828
 Alpha  occ. eigenvalues --   -0.51828
 Alpha virt. eigenvalues --    0.01227   0.01228   0.02108   0.03389   0.05164
 Alpha virt. eigenvalues --    0.05164   0.05385   0.08251   0.08251   0.09554
 Alpha virt. eigenvalues --    0.11412   0.11413   0.11739   0.14905   0.14941

 Mulliken charges:
               1
     1  Si  -0.141595
     2  C    1.907020
     3  N    0.337097
     4  O   -0.524427
     5  O   -0.565097
     6  N    0.337113
     7  O   -0.524451
     8  O   -0.565070
     9  N    0.337024
    10  O   -0.565071
    11  O   -0.524429
    12  H    0.163954
    13  H    0.163973
    14  H    0.163959
 Sum of Mulliken charges =  -0.00000

 Dipole moment (field-independent basis, Debye):
    X=              4.2861    Y=             -0.0057    Z=              0.0350  Tot=              4.2863

 Test job not archived.
 1\1\GINC-SE072\SP\RHF\Aug-CC-pVDZ\C1H3N3O6Si1\OHZDE\08-Apr-2025\0\\#t
 hf aug-cc-pvdz iop(5/13=1,5/36=2,99/5=2) pseudo=read geom=check guess=
 (read,tcheck) scf=(maxcycle=1)\\title\\0,1\Si,0,-2.095637,-0.002785,-0
 .017104\C,0,-0.141586,-0.000206,-0.001182\N,0,0.432141,0.039675,-1.420
 575\O,0,1.368088,0.769766,-1.64468\O,0,-0.134127,-0.711898,-2.193054\N
 ,0,0.412775,1.214277,0.749263\O,0,1.342079,1.051919,1.503774\O,0,-0.16
 0243,2.253789,0.478478\N,0,0.416637,-1.252269,0.681597\O,0,-0.165212,-
 1.542682,1.710855\O,0,1.356736,-1.816101,0.17409\H,0,-2.492585,0.89043

 Normal termination of Gaussian 16 at Tue Apr  8 23:56:46 2025.
