 Gaussian 16, Revision C.01,

 ----------------------------------------------------------------------
 #t hf aug-cc-pvdz symm=none int=(grid=ultrafine) guess=(read,tcheck) s
 table=(opt,rrhf)
 ----------------------------------------------------------------------
 -----
 title
 -----
 Symbolic Z-matrix:
 Charge =  0 Multiplicity = 1

 SCF Done:  E(RHF) =  -665.237610054     A.U. after   15 cycles
 Normal termination of Gaussian 16 at Wed Apr  9 00:21:38 2025.
 Gaussian 16:  ES64L-G16RevC.01  3-Jul-2019

 ----------------------------------------------------------------------
 #t hf aug-cc-pvdz iop(5/13=1,5/36=2,99/5=2) pseudo=read geom=check gue
 ss=(read,tcheck) scf=(maxcycle=1)
 ----------------------------------------------------------------------
 -----
 title
 -----
 Structure from the checkpoint file:  "BDE49_nonexpt_2675_mol1.chk"
 Charge =  0 Multiplicity = 1

                         Standard orientation:
 ---------------------------------------------------------------------
 Center     Atomic      Atomic             Coordinates (Angstroms)
 Number     Number       Type             X           Y           Z
 ---------------------------------------------------------------------
      1          9           0       -2.103322    0.740824   -0.204245
      2         16           0       -1.118751   -0.580445    0.098907
      3          6           0        0.405819    0.247300    0.244171
      4          7           0        1.409457   -0.312938   -0.312300
      5          1           0        0.476151    1.134825    0.872394
      6          8           0        2.599221    0.296280    0.069114
      7          1           0        3.258875   -0.178596   -0.448541
 ---------------------------------------------------------------------

 SCF Done:  E(RHF) =  -665.347790880     A.U. after    2 cycles

 The electronic state is 1-A.
 Alpha  occ. eigenvalues --  -93.64362 -26.14055 -20.64496 -15.73455 -11.34055
 Alpha  occ. eigenvalues --   -8.93263  -6.27442  -6.27095  -6.26631  -1.65018
 Alpha  occ. eigenvalues --   -1.41768  -1.18499  -1.00629  -0.82541  -0.77020
 Alpha  occ. eigenvalues --   -0.74324  -0.74147  -0.69751  -0.68838  -0.63692
 Alpha  occ. eigenvalues --   -0.54260  -0.47955  -0.46941  -0.38174
 Alpha virt. eigenvalues --    0.03465   0.04658   0.05183   0.06958   0.09773
 Alpha virt. eigenvalues --    0.10821   0.12257   0.13460   0.13865   0.16552
 Alpha virt. eigenvalues --    0.16863   0.17323   0.18125   0.21109   0.21632

 Mulliken charges:
               1
     1  F   -0.599734
     2  S    0.836594
     3  C    0.224667
     4  N   -0.054853
     5  H   -0.147676
     6  O   -0.461609
     7  H    0.202611
 Sum of Mulliken charges =  -0.00000

 Dipole moment (field-independent basis, Debye):
    X=              2.1260    Y=             -0.7993    Z=              0.3706  Tot=              2.3013

 Test job not archived.
 1\1\GINC-SE016\SP\RHF\Aug-CC-pVDZ\C1H2F1N1O1S1\OHZDE\09-Apr-2025\0\\#t
  hf aug-cc-pvdz iop(5/13=1,5/36=2,99/5=2) pseudo=read geom=check guess
 =(read,tcheck) scf=(maxcycle=1)\\title\\0,1\F,0,-2.103322,0.740824,-0.
 204245\S,0,-1.118751,-0.580445,0.098907\C,0,0.405819,0.2473,0.244171\N
 ,0,1.409457,-0.312938,-0.3123\H,0,0.476151,1.134825,0.872394\O,0,2.599
 221,0.29628,0.069114\H,0,3.258875,-0.178596,-0.448541\\Version=ES64L-G
 16RevC.01\State=1-A\HF=-665.3477909\RMSD=4.282e-03\Dipole=0.8364333,-0
 .3144689,0.1457933\Quadrupole=1.030986,-0.2726523,-0.7583337,0.2781513

 Normal termination of Gaussian 16 at Wed Apr  9 00:21:40 2025.
