 Gaussian 16, Revision C.01,

 ----------------------------------------------------------------------
 #t hf aug-cc-pvdz symm=none int=(grid=ultrafine) guess=(read,tcheck) s
 table=(opt,rrhf)
 ----------------------------------------------------------------------
 -----
 title
 -----
 Symbolic Z-matrix:
 Charge =  0 Multiplicity = 1

 SCF Done:  E(RHF) =  -868.646331285     A.U. after   15 cycles
 Normal termination of Gaussian 16 at Tue Apr  8 23:38:51 2025.
 Gaussian 16:  ES64L-G16RevC.01  3-Jul-2019

 ----------------------------------------------------------------------
 #t hf aug-cc-pvdz iop(5/13=1,5/36=2,99/5=2) pseudo=read geom=check gue
 ss=(read,tcheck) scf=(maxcycle=1)
 ----------------------------------------------------------------------
 -----
 title
 -----
 Structure from the checkpoint file:  "BDE49_nonexpt_1610_mol1.chk"
 Charge =  0 Multiplicity = 1

                         Standard orientation:
 ---------------------------------------------------------------------
 Center     Atomic      Atomic             Coordinates (Angstroms)
 Number     Number       Type             X           Y           Z
 ---------------------------------------------------------------------
      1          8           0       -0.187273   -0.562618   -0.988382
      2         15           0       -1.244516   -0.031652    0.197010
      3          8           0       -0.935297   -0.579990    1.511726
      4          8           0       -2.615364   -0.432105   -0.488259
      5          8           0        1.112059   -0.933838   -0.474521
      6          6           0        1.873119    0.142468   -0.126811
      7          6           0        3.237248   -0.335867    0.285531
      8          1           0        3.328644   -0.204577    1.366044
      9          1           0        3.983237    0.294322   -0.199991
     10          1           0        3.398863   -1.381734    0.032398
     11          8           0        1.485646    1.281496   -0.126976
     12          8           0       -1.289406    1.525816   -0.027587
     13          1           0       -0.376881    1.862157   -0.105808
     14          1           0       -2.891238   -1.325088   -0.248101
 ---------------------------------------------------------------------

 SCF Done:  E(RHF) =  -868.890763287     A.U. after    2 cycles

 The electronic state is 1-A.
 Alpha  occ. eigenvalues --  -81.46333 -20.71590 -20.68473 -20.63667 -20.61906
 Alpha  occ. eigenvalues --  -20.60792 -20.54494 -11.44315 -11.28252  -7.94265
 Alpha  occ. eigenvalues --   -5.08947  -5.08852  -5.08794  -1.50679  -1.40687
 Alpha  occ. eigenvalues --   -1.39645  -1.36331  -1.28465  -1.26411  -1.04143
 Alpha  occ. eigenvalues --   -0.88825  -0.84376  -0.78762  -0.75584  -0.74958
 Alpha  occ. eigenvalues --   -0.72897  -0.69451  -0.66955  -0.66068  -0.64234
 Alpha  occ. eigenvalues --   -0.62660  -0.60786  -0.59345  -0.58975  -0.56845
 Alpha  occ. eigenvalues --   -0.56563  -0.53621  -0.51478  -0.50734  -0.50503
 Alpha virt. eigenvalues --    0.02983   0.03963   0.05251   0.05527   0.06273
 Alpha virt. eigenvalues --    0.08562   0.09166   0.10221   0.12056   0.12287
 Alpha virt. eigenvalues --    0.13250   0.13612   0.13894   0.14187   0.14784

 Mulliken charges:
               1
     1  O   -0.712512
     2  P    2.400565
     3  O   -0.840011
     4  O   -0.623043
     5  O   -0.276875
     6  C    0.317502
     7  C    0.329340
     8  H    0.101033
     9  H    0.062672
    10  H   -0.034359
    11  O   -0.476558
    12  O   -0.622588
    13  H    0.223849
    14  H    0.150984
 Sum of Mulliken charges =  -0.00000

 Dipole moment (field-independent basis, Debye):
    X=              2.8820    Y=             -1.5952    Z=             -1.1081  Tot=              3.4754

 Test job not archived.
 1\1\GINC-SE344\SP\RHF\Aug-CC-pVDZ\C2H5O6P1\OHZDE\08-Apr-2025\0\\#t hf
 aug-cc-pvdz iop(5/13=1,5/36=2,99/5=2) pseudo=read geom=check guess=(re
 ad,tcheck) scf=(maxcycle=1)\\title\\0,1\O,0,-0.187273,-0.562618,-0.988
 382\P,0,-1.244516,-0.031652,0.19701\O,0,-0.935297,-0.57999,1.511726\O,
 0,-2.615364,-0.432105,-0.488259\O,0,1.112059,-0.933838,-0.474521\C,0,1
 .873119,0.142468,-0.126811\C,0,3.237248,-0.335867,0.285531\H,0,3.32864
 4,-0.204577,1.366044\H,0,3.983237,0.294322,-0.199991\H,0,3.398863,-1.3
 81734,0.032398\O,0,1.485646,1.281496,-0.126976\O,0,-1.289406,1.525816,

 Normal termination of Gaussian 16 at Tue Apr  8 23:38:57 2025.
