 Gaussian 16, Revision C.01,

 ----------------------------------------------------------------------
 #t hf aug-cc-pvdz symm=none int=(grid=ultrafine) guess=(read,tcheck) s
 table=(opt,rrhf)
 ----------------------------------------------------------------------
 -----
 title
 -----
 Symbolic Z-matrix:
 Charge =  0 Multiplicity = 1

 SCF Done:  E(RHF) =  -1040.32283904     A.U. after   11 cycles
 Normal termination of Gaussian 16 at Wed Apr  9 00:07:27 2025.
 Gaussian 16:  ES64L-G16RevC.01  3-Jul-2019

 ----------------------------------------------------------------------
 #t hf aug-cc-pvdz iop(5/13=1,5/36=2,99/5=2) pseudo=read geom=check gue
 ss=(read,tcheck) scf=(maxcycle=1)
 ----------------------------------------------------------------------
 -----
 title
 -----
 Structure from the checkpoint file:  "BDE49_nonexpt_2321_mol1.chk"
 Charge =  0 Multiplicity = 1

                         Standard orientation:
 ---------------------------------------------------------------------
 Center     Atomic      Atomic             Coordinates (Angstroms)
 Number     Number       Type             X           Y           Z
 ---------------------------------------------------------------------
      1         14           0        1.862711   -0.352739    0.000000
      2         14           0       -0.163860    0.846924    0.000000
      3          1           0       -0.308737    1.692099    1.205037
      4          1           0        1.943854   -1.202021    1.210151
      5         17           0       -1.767424   -0.500463   -0.000001
      6          1           0        1.943855   -1.202020   -1.210151
      7          1           0       -0.308737    1.692100   -1.205035
      8          1           0        2.992058    0.609112    0.000001
 ---------------------------------------------------------------------

 SCF Done:  E(RHF) =  -1040.38419981     A.U. after    2 cycles

 The electronic state is 1-A.
 Alpha  occ. eigenvalues -- -103.65181 -69.11373 -69.07477 -10.68610  -8.34302
 Alpha  occ. eigenvalues --   -8.34072  -8.34071  -6.86321  -6.82920  -3.97158
 Alpha  occ. eigenvalues --   -3.97006  -3.96975  -3.93675  -3.93669  -3.93657
 Alpha  occ. eigenvalues --   -1.13346  -0.74753  -0.67606  -0.53542  -0.53359
 Alpha  occ. eigenvalues --   -0.49865  -0.49350  -0.49100  -0.45751  -0.40516
 Alpha virt. eigenvalues --    0.03699   0.04183   0.05441   0.06204   0.07063
 Alpha virt. eigenvalues --    0.07333   0.07529   0.08530   0.08856   0.09859
 Alpha virt. eigenvalues --    0.10145   0.12089   0.13450   0.14368   0.14513

 Mulliken charges:
               1
     1  Si   0.033288
     2  Si   0.500484
     3  H    0.004111
     4  H    0.002171
     5  Cl  -0.532983
     6  H    0.002171
     7  H    0.004112
     8  H   -0.013353
 Sum of Mulliken charges =  -0.00000

 Dipole moment (field-independent basis, Debye):
    X=              1.6426    Y=              0.9393    Z=             -0.0000  Tot=              1.8922

 Test job not archived.
 1\1\GINC-SE334\SP\RHF\Aug-CC-pVDZ\Cl1H5Si2\OHZDE\09-Apr-2025\0\\#t hf
 aug-cc-pvdz iop(5/13=1,5/36=2,99/5=2) pseudo=read geom=check guess=(re
 ad,tcheck) scf=(maxcycle=1)\\title\\0,1\Si,0,1.862711,-0.352739,0.\Si,
 0,-0.16386,0.846924,0.\H,0,-0.308737,1.692099,1.205037\H,0,1.943854,-1
 .202021,1.210151\Cl,0,-1.767424,-0.500463,-0.000001\H,0,1.943855,-1.20
 202,-1.210151\H,0,-0.308737,1.6921,-1.205035\H,0,2.992058,0.609112,0.0
 00001\\Version=ES64L-G16RevC.01\State=1-A\HF=-1040.3841998\RMSD=5.404e
 -03\Dipole=0.6462671,0.3695535,-0.0000006\Quadrupole=-1.2527137,0.7966

 Normal termination of Gaussian 16 at Wed Apr  9 00:07:29 2025.
