 Gaussian 16, Revision C.01,

 ----------------------------------------------------------------------
 #t hf aug-cc-pvdz symm=none int=(grid=ultrafine) guess=(read,tcheck) s
 table=(opt,rrhf)
 ----------------------------------------------------------------------
 -----
 title
 -----
 Symbolic Z-matrix:
 Charge =  0 Multiplicity = 1

 SCF Done:  E(RHF) =  -1308.14415419     A.U. after   11 cycles
 Normal termination of Gaussian 16 at Tue Apr  8 23:46:14 2025.
 Gaussian 16:  ES64L-G16RevC.01  3-Jul-2019

 ----------------------------------------------------------------------
 #t hf aug-cc-pvdz iop(5/13=1,5/36=2,99/5=2) pseudo=read geom=check gue
 ss=(read,tcheck) scf=(maxcycle=1)
 ----------------------------------------------------------------------
 -----
 title
 -----
 Structure from the checkpoint file:  "BDE49_nonexpt_1808_mol1.chk"
 Charge =  0 Multiplicity = 1

                         Standard orientation:
 ---------------------------------------------------------------------
 Center     Atomic      Atomic             Coordinates (Angstroms)
 Number     Number       Type             X           Y           Z
 ---------------------------------------------------------------------
      1         14           0       -0.000002    0.391191    0.407103
      2          9           0       -0.000200    1.773051   -0.382214
      3         17           0        1.678928   -0.649556   -0.120672
      4         17           0       -1.678817   -0.649713   -0.120660
      5          1           0       -0.000061    0.653442    1.843125
 ---------------------------------------------------------------------

 SCF Done:  E(RHF) =  -1308.25448798     A.U. after    2 cycles

 The electronic state is 1-A.
 Alpha  occ. eigenvalues -- -103.68226-103.68225 -69.21891 -26.14434 -10.71745
 Alpha  occ. eigenvalues --  -10.71732  -8.37433  -8.37427  -8.37185  -8.37185
 Alpha  occ. eigenvalues --   -8.37183  -8.37181  -6.95688  -4.06626  -4.06582
 Alpha  occ. eigenvalues --   -4.06407  -1.67389  -1.18083  -1.15901  -0.83624
 Alpha  occ. eigenvalues --   -0.75852  -0.75704  -0.68235  -0.57772  -0.57613
 Alpha  occ. eigenvalues --   -0.52423  -0.50567  -0.49712  -0.49168
 Alpha virt. eigenvalues --    0.04898   0.05520   0.05554   0.05862   0.09398
 Alpha virt. eigenvalues --    0.12463   0.12606   0.14106   0.14717   0.15438
 Alpha virt. eigenvalues --    0.15533   0.17520   0.18657   0.19041   0.20973

 Mulliken charges:
               1
     1  Si   1.624291
     2  F   -0.731513
     3  Cl  -0.419599
     4  Cl  -0.419602
     5  H   -0.053577
 Sum of Mulliken charges =  -0.00000

 Dipole moment (field-independent basis, Debye):
    X=              0.0004    Y=             -0.2378    Z=              1.3957  Tot=              1.4159

 Test job not archived.
 1\1\GINC-SE458\SP\RHF\Aug-CC-pVDZ\Cl2F1H1Si1\OHZDE\08-Apr-2025\0\\#t h
 f aug-cc-pvdz iop(5/13=1,5/36=2,99/5=2) pseudo=read geom=check guess=(
 read,tcheck) scf=(maxcycle=1)\\title\\0,1\Si,0,-0.000002,0.391191,0.40
 7103\F,0,-0.0002,1.773051,-0.382214\Cl,0,1.678928,-0.649556,-0.120672\
 Cl,0,-1.678817,-0.649713,-0.12066\H,0,-0.000061,0.653442,1.843125\\Ver
 sion=ES64L-G16RevC.01\State=1-A\HF=-1308.254488\RMSD=4.845e-03\Dipole=
 0.0001521,-0.0935585,0.5491266\Quadrupole=-0.1477517,-1.3159355,1.4636
 872,0.0002476,-0.0001033,1.2159039\PG=C01 [X(Cl2F1H1Si1)]\\@

 Normal termination of Gaussian 16 at Tue Apr  8 23:46:15 2025.
