 Gaussian 16, Revision C.01,

 ----------------------------------------------------------------------
 #t hf aug-cc-pvdz symm=none int=(grid=ultrafine) guess=(read,tcheck) s
 table=(opt,rrhf)
 ----------------------------------------------------------------------
 -----
 title
 -----
 Symbolic Z-matrix:
 Charge =  0 Multiplicity = 1

 SCF Done:  E(RHF) =  -342.464289456     A.U. after   16 cycles
 Normal termination of Gaussian 16 at Tue Apr  8 23:19:51 2025.
 Gaussian 16:  ES64L-G16RevC.01  3-Jul-2019

 ----------------------------------------------------------------------
 #t hf aug-cc-pvdz iop(5/13=1,5/36=2,99/5=2) pseudo=read geom=check gue
 ss=(read,tcheck) scf=(maxcycle=1)
 ----------------------------------------------------------------------
 -----
 title
 -----
 Structure from the checkpoint file:  "BDE49_nonexpt_1158_mol1.chk"
 Charge =  0 Multiplicity = 1

                         Standard orientation:
 ---------------------------------------------------------------------
 Center     Atomic      Atomic             Coordinates (Angstroms)
 Number     Number       Type             X           Y           Z
 ---------------------------------------------------------------------
      1          9           0        2.119531   -0.371861   -0.279336
      2          8           0        1.105529    0.580520    0.254708
      3          6           0       -0.036025   -0.128245    0.323160
      4          7           0       -1.030090    0.378723   -0.292950
      5          1           0       -0.058449   -1.026823    0.935718
      6          8           0       -2.196450   -0.292415    0.017360
      7          1           0       -2.863186    0.187142   -0.486550
 ---------------------------------------------------------------------

 SCF Done:  E(RHF) =  -342.575658263     A.U. after    2 cycles

 The electronic state is 1-A.
 Alpha  occ. eigenvalues --  -26.18270 -20.73971 -20.65117 -15.73636 -11.37668
 Alpha  occ. eigenvalues --   -1.67411  -1.43347  -1.38365  -1.15011  -0.87784
 Alpha  occ. eigenvalues --   -0.80851  -0.77168  -0.76385  -0.72880  -0.70722
 Alpha  occ. eigenvalues --   -0.66036  -0.64159  -0.59348  -0.49395  -0.43338
 Alpha virt. eigenvalues --    0.03362   0.04118   0.04529   0.08809   0.09395
 Alpha virt. eigenvalues --    0.11718   0.14179   0.15425   0.16476   0.17643
 Alpha virt. eigenvalues --    0.19677   0.20868   0.23105   0.23321   0.24853

 Mulliken charges:
               1
     1  F   -0.309415
     2  O   -0.166017
     3  C    0.925939
     4  N   -0.100153
     5  H   -0.106018
     6  O   -0.439483
     7  H    0.195146
 Sum of Mulliken charges =  -0.00000

 Dipole moment (field-independent basis, Debye):
    X=             -2.5715    Y=             -0.3417    Z=              0.5620  Tot=              2.6543

 Test job not archived.
 1\1\GINC-SE328\SP\RHF\Aug-CC-pVDZ\C1H2F1N1O2\OHZDE\08-Apr-2025\0\\#t h
 f aug-cc-pvdz iop(5/13=1,5/36=2,99/5=2) pseudo=read geom=check guess=(
 read,tcheck) scf=(maxcycle=1)\\title\\0,1\F,0,-2.119531,0.371861,-0.27
 9336\O,0,-1.105529,-0.58052,0.254708\C,0,0.036025,0.128245,0.32316\N,0
 ,1.03009,-0.378723,-0.29295\H,0,0.058449,1.026823,0.935718\O,0,2.19645
 ,0.292415,0.01736\H,0,2.863186,-0.187142,-0.48655\\Version=ES64L-G16Re
 vC.01\State=1-A\HF=-342.5756583\RMSD=3.384e-03\Dipole=1.0117096,0.1344
 509,0.2210927\Quadrupole=0.5493265,-0.6523791,0.1030526,-1.4767043,-2.

 Normal termination of Gaussian 16 at Tue Apr  8 23:19:52 2025.
