 Gaussian 16, Revision C.01,

 ----------------------------------------------------------------------
 #t hf aug-cc-pvdz symm=none int=(grid=ultrafine) guess=(read,tcheck) s
 table=opt
 ----------------------------------------------------------------------
 -----
 title
 -----
 Symbolic Z-matrix:
 Charge =  0 Multiplicity = 2

 SCF Done:  E(UHF) =  -566.549694754     A.U. after   16 cycles
 Normal termination of Gaussian 16 at Tue Apr  8 23:22:54 2025.
 Gaussian 16:  ES64L-G16RevC.01  3-Jul-2019

 ----------------------------------------------------------------------
 #t hf aug-cc-pvdz iop(5/13=1,5/36=2,99/5=2) pseudo=read geom=check gue
 ss=(read,tcheck) scf=(maxcycle=1)
 ----------------------------------------------------------------------
 -----
 title
 -----
 Structure from the checkpoint file:  "BDE49_nonexpt_1268_mol3.chk"
 Charge =  0 Multiplicity = 2

                         Standard orientation:
 ---------------------------------------------------------------------
 Center     Atomic      Atomic             Coordinates (Angstroms)
 Number     Number       Type             X           Y           Z
 ---------------------------------------------------------------------
      1         15           0        0.000001    0.138797    0.308660
      2          8           0        0.000019    1.515518   -0.233241
      3          8           0       -1.205052   -0.840727   -0.154070
      4          1           0       -2.052048   -0.377098   -0.149431
      5          8           0        1.205033   -0.840755   -0.154069
      6          1           0        2.052037   -0.377144   -0.149437
 ---------------------------------------------------------------------

 SCF Done:  E(UHF) =  -566.684652678     A.U. after    2 cycles

 The electronic state is 2-A.
 Alpha  occ. eigenvalues --  -81.42651 -20.63709 -20.63704 -20.56648  -7.91293
 Alpha  occ. eigenvalues --   -5.05762  -5.05414  -5.05379  -1.39921  -1.36629
 Alpha  occ. eigenvalues --   -1.29808  -0.87300  -0.73960  -0.72282  -0.66747
 Alpha  occ. eigenvalues --   -0.66646  -0.62327  -0.59776  -0.54522  -0.51945
 Alpha  occ. eigenvalues --   -0.40997
 Alpha virt. eigenvalues --    0.03384   0.04219   0.07971   0.08515   0.09927
 Alpha virt. eigenvalues --    0.12763   0.17389   0.17710   0.19914   0.19971
 Alpha virt. eigenvalues --    0.21561   0.22711   0.23391   0.24110   0.26576

  Beta  occ. eigenvalues --  -81.42122 -20.63100 -20.63095 -20.55399  -7.90479
  Beta  occ. eigenvalues --   -5.05297  -5.05106  -5.03757  -1.38028  -1.34773
  Beta  occ. eigenvalues --   -1.25948  -0.85408  -0.72346  -0.69274  -0.65496
  Beta  occ. eigenvalues --   -0.62981  -0.57789  -0.57257  -0.50707  -0.48805
  Beta virt. eigenvalues --    0.00983   0.04302   0.05175   0.08689   0.08730
  Beta virt. eigenvalues --    0.10404   0.14798   0.17939   0.18235   0.20094
  Beta virt. eigenvalues --    0.20413   0.21780   0.23208   0.25694   0.25955

 Mulliken charges and spin densities:
               1          2
     1  P    1.818085   0.667596
     2  O   -0.837790   0.213332
     3  O   -0.652597   0.072554
     4  H    0.162450  -0.013018
     5  O   -0.652597   0.072554
     6  H    0.162449  -0.013017
 Sum of Mulliken charges =  -0.00000   1.00000

 Dipole moment (field-independent basis, Debye):
    X=             -0.0000    Y=             -1.1031    Z=              1.5040  Tot=              1.8652
                          Isotropic Fermi Contact Couplings
        Atom                 a.u.       MegaHertz       Gauss      10(-4) cm-1
     1  P(31)              1.02428    1855.07524     661.93698     618.78650
     2  O(17)              0.10590     -64.19694     -22.90706     -21.41379
     3  O(17)              0.09580     -58.07136     -20.72130     -19.37052
     4  H(1)              -0.00295     -13.16696      -4.69830      -4.39203
     5  O(17)              0.09580     -58.07141     -20.72132     -19.37054
     6  H(1)              -0.00295     -13.16689      -4.69827      -4.39200
 --------------------------------------------------------
       Center         ----  Spin Dipole Couplings  ----

 Normal termination of Gaussian 16 at Tue Apr  8 23:22:56 2025.
