 Gaussian 16, Revision C.01,

 ----------------------------------------------------------------------
 #t hf aug-cc-pvdz symm=none int=(grid=ultrafine) guess=(read,tcheck) s
 table=(opt,rrhf)
 ----------------------------------------------------------------------
 -----
 title
 -----
 Symbolic Z-matrix:
 Charge =  0 Multiplicity = 1

 SCF Done:  E(RHF) =  -463.470432043     A.U. after   11 cycles
 Normal termination of Gaussian 16 at Tue Apr  8 23:58:41 2025.
 Gaussian 16:  ES64L-G16RevC.01  3-Jul-2019

 ----------------------------------------------------------------------
 #t hf aug-cc-pvdz iop(5/13=1,5/36=2,99/5=2) pseudo=read geom=check gue
 ss=(read,tcheck) scf=(maxcycle=1)
 ----------------------------------------------------------------------
 -----
 title
 -----
 Structure from the checkpoint file:  "BDE49_nonexpt_2104_mol1.chk"
 Charge =  0 Multiplicity = 1

                         Standard orientation:
 ---------------------------------------------------------------------
 Center     Atomic      Atomic             Coordinates (Angstroms)
 Number     Number       Type             X           Y           Z
 ---------------------------------------------------------------------
      1          7           0        0.000001   -0.775965    1.584519
      2         14           0        0.000000   -0.006096    0.028280
      3          6           0       -0.000002    1.879767    0.098825
      4          6           0       -1.549549   -0.578083   -0.867331
      5          1           0       -1.624655   -0.119079   -1.858055
      6          1           0       -1.547440   -1.663894   -0.996132
      7          1           0       -2.456022   -0.308318   -0.315304
      8          6           0        1.549549   -0.578079   -0.867332
      9          1           0        2.456022   -0.308312   -0.315305
     10          1           0        1.624654   -0.119076   -1.858055
     11          1           0        1.547444   -1.663890   -0.996132
     12          1           0       -0.828252   -0.738109    2.162486
     13          1           0        0.828254   -0.738108    2.162485
     14          1           0       -0.000003    2.317087   -0.905489
     15          1           0        0.883150    2.258584    0.623493
     16          1           0       -0.883155    2.258582    0.623493
 ---------------------------------------------------------------------

 SCF Done:  E(RHF) =  -463.559610135     A.U. after    2 cycles

 The electronic state is 1-A.
 Alpha  occ. eigenvalues --  -69.05304 -15.58597 -11.20232 -11.20227 -11.20121
 Alpha  occ. eigenvalues --   -6.80270  -3.91165  -3.91075  -3.91028  -1.08677
 Alpha  occ. eigenvalues --   -0.94892  -0.91336  -0.91123  -0.64829  -0.64015
 Alpha  occ. eigenvalues --   -0.57051  -0.55956  -0.55564  -0.53811  -0.53568
 Alpha  occ. eigenvalues --   -0.52616  -0.49734  -0.44284  -0.42647  -0.37767
 Alpha virt. eigenvalues --    0.02804   0.04465   0.04623   0.05024   0.06829
 Alpha virt. eigenvalues --    0.06896   0.07091   0.07250   0.07482   0.09148
 Alpha virt. eigenvalues --    0.09328   0.10162   0.11644   0.12375   0.13217

 Mulliken charges:
               1
     1  N   -0.558912
     2  Si   1.869319
     3  C    0.444861
     4  C    0.502406
     5  H   -0.256487
     6  H   -0.281765
     7  H   -0.285210
     8  C    0.502409
     9  H   -0.285209
    10  H   -0.256492
    11  H   -0.281765
    12  H   -0.105620
    13  H   -0.105621
    14  H   -0.235355
    15  H   -0.333280
    16  H   -0.333279
 Sum of Mulliken charges =  -0.00000

 Dipole moment (field-independent basis, Debye):
    X=              0.0000    Y=              0.4915    Z=              0.6442  Tot=              0.8103

 Test job not archived.
 1\1\GINC-SE345\SP\RHF\Aug-CC-pVDZ\C3H11N1Si1\OHZDE\08-Apr-2025\0\\#t h
 f aug-cc-pvdz iop(5/13=1,5/36=2,99/5=2) pseudo=read geom=check guess=(
 read,tcheck) scf=(maxcycle=1)\\title\\0,1\N,0,0.000001,-0.775965,1.584
 519\Si,0,0.,-0.006096,0.02828\C,0,-0.000001,1.879767,0.098825\C,0,-1.5
 49549,-0.578082,-0.867331\H,0,-1.624655,-0.119078,-1.858055\H,0,-1.547
 441,-1.663893,-0.996132\H,0,-2.456022,-0.308317,-0.315304\C,0,1.549549
 ,-0.57808,-0.867332\H,0,2.456022,-0.308314,-0.315305\H,0,1.624654,-0.1
 19077,-1.858055\H,0,1.547443,-1.663891,-0.996132\H,0,-0.828252,-0.7381

 Normal termination of Gaussian 16 at Tue Apr  8 23:58:46 2025.
