 Gaussian 16, Revision C.01,

 ----------------------------------------------------------------------
 #t hf aug-cc-pvdz symm=none int=(grid=ultrafine) guess=(read,tcheck) s
 table=opt
 ----------------------------------------------------------------------
 -----
 title
 -----
 Symbolic Z-matrix:
 Charge =  0 Multiplicity = 2

 SCF Done:  E(UHF) =  -375.203769748     A.U. after   15 cycles
 Normal termination of Gaussian 16 at Tue Apr  8 22:37:26 2025.
 Gaussian 16:  ES64L-G16RevC.01  3-Jul-2019

 ----------------------------------------------------------------------
 #t hf aug-cc-pvdz iop(5/13=1,5/36=2,99/5=2) pseudo=read geom=check gue
 ss=(read,tcheck) scf=(maxcycle=1)
 ----------------------------------------------------------------------
 -----
 title
 -----
 Structure from the checkpoint file:  "BDE49_expt_121_mol2.chk"
 Charge =  0 Multiplicity = 2

                         Standard orientation:
 ---------------------------------------------------------------------
 Center     Atomic      Atomic             Coordinates (Angstroms)
 Number     Number       Type             X           Y           Z
 ---------------------------------------------------------------------
      1          6           0        0.553044    0.000000    0.376687
      2          9           0        1.069256   -1.096332   -0.180222
      3          6           0       -0.910022   -0.000000    0.626827
      4          9           0        1.069256    1.096333   -0.180222
      5          9           0       -1.638503   -0.000000   -0.572439
      6          1           0       -1.179105    0.896642    1.187433
      7          1           0       -1.179105   -0.896641    1.187434
 ---------------------------------------------------------------------

 SCF Done:  E(UHF) =  -375.338326929     A.U. after    2 cycles

 The electronic state is 2-A.
 Alpha  occ. eigenvalues --  -26.17258 -26.17248 -26.13182 -11.44868 -11.36496
 Alpha  occ. eigenvalues --   -1.74418  -1.69776  -1.66304  -1.09729  -0.95822
 Alpha  occ. eigenvalues --   -0.85915  -0.84852  -0.83298  -0.77977  -0.76078
 Alpha  occ. eigenvalues --   -0.75931  -0.73831  -0.73035  -0.61459  -0.59160
 Alpha  occ. eigenvalues --   -0.45778
 Alpha virt. eigenvalues --    0.03267   0.05000   0.07397   0.08678   0.11460
 Alpha virt. eigenvalues --    0.11650   0.12073   0.15695   0.15931   0.20754
 Alpha virt. eigenvalues --    0.22605   0.23568   0.25166   0.27552   0.28895

  Beta  occ. eigenvalues --  -26.16811 -26.16801 -26.12850 -11.42043 -11.36528
  Beta  occ. eigenvalues --   -1.72919  -1.68586  -1.65255  -1.06325  -0.94056
  Beta  occ. eigenvalues --   -0.85127  -0.82503  -0.78634  -0.76490  -0.74178
  Beta  occ. eigenvalues --   -0.73179  -0.73114  -0.72616  -0.59670  -0.58997
  Beta virt. eigenvalues --    0.03112   0.05007   0.05633   0.08273   0.11264
  Beta virt. eigenvalues --    0.11566   0.11703   0.12323   0.15702   0.16638
  Beta virt. eigenvalues --    0.22143   0.22892   0.23722   0.27939   0.28195

 Mulliken charges and spin densities:
               1          2
     1  C    0.522041   1.027543
     2  F   -0.319285   0.020571
     3  C    0.647590  -0.105009
     4  F   -0.319284   0.020572
     5  F   -0.419084   0.035398
     6  H   -0.055989   0.000463
     7  H   -0.055990   0.000463
 Sum of Mulliken charges =  -0.00000   1.00000

 Dipole moment (field-independent basis, Debye):
    X=             -0.7456    Y=              0.0000    Z=              2.9538  Tot=              3.0464
                          Isotropic Fermi Contact Couplings
        Atom                 a.u.       MegaHertz       Gauss      10(-4) cm-1
     1  C(13)              0.43376     487.63345     173.99974     162.65701
     2  F(19)              0.06661     280.25668     100.00255      93.48357
     3  C(13)              0.03460      38.90243      13.88135      12.97645
     4  F(19)              0.06661     280.25704     100.00268      93.48368
     5  F(19)              0.04880     205.31197      73.26042      68.48470
     6  H(1)               0.00042       1.86368       0.66501       0.62166
     7  H(1)               0.00042       1.86369       0.66501       0.62166
 --------------------------------------------------------

 Normal termination of Gaussian 16 at Tue Apr  8 22:37:28 2025.
