 Gaussian 16, Revision C.01,

 ----------------------------------------------------------------------
 #t hf aug-cc-pvdz symm=none int=(grid=ultrafine) guess=(read,tcheck) s
 table=(opt,rrhf)
 ----------------------------------------------------------------------
 -----
 title
 -----
 Symbolic Z-matrix:
 Charge =  0 Multiplicity = 1

 SCF Done:  E(RHF) =  -723.344676587     A.U. after   13 cycles
 Normal termination of Gaussian 16 at Tue Apr  8 23:25:04 2025.
 Gaussian 16:  ES64L-G16RevC.01  3-Jul-2019

 ----------------------------------------------------------------------
 #t hf aug-cc-pvdz iop(5/13=1,5/36=2,99/5=2) pseudo=read geom=check gue
 ss=(read,tcheck) scf=(maxcycle=1)
 ----------------------------------------------------------------------
 -----
 title
 -----
 Structure from the checkpoint file:  "BDE49_nonexpt_1274_mol1.chk"
 Charge =  0 Multiplicity = 1

                         Standard orientation:
 ---------------------------------------------------------------------
 Center     Atomic      Atomic             Coordinates (Angstroms)
 Number     Number       Type             X           Y           Z
 ---------------------------------------------------------------------
      1          6           0        0.617465    0.728220   -0.400100
      2         15           0       -0.782564   -0.362673   -0.023321
      3          8           0       -0.665444   -1.814314   -0.252402
      4          8           0       -1.980505    0.306291   -0.875489
      5          6           0        1.910675    0.269545    0.311692
      6          6           0        2.522039   -1.026395   -0.231244
      7          1           0        1.712653    0.175626    1.384791
      8          1           0        2.637889    1.082942    0.209954
      9          1           0        2.780940   -0.920706   -1.289554
     10          1           0        1.829575   -1.864266   -0.141081
     11          6           0        0.275753    2.197705   -0.088022
     12          1           0        0.753669    0.621352   -1.483433
     13          1           0        1.098213    2.840467   -0.413490
     14          1           0        0.132159    2.344010    0.984462
     15          1           0       -0.632380    2.517675   -0.600738
     16          1           0        3.438874   -1.273610    0.310518
     17          1           0       -2.548984   -0.376091   -1.252491
     18          8           0       -1.102499    0.012280    1.514261
     19          1           0       -1.432160   -0.755807    1.995974
 ---------------------------------------------------------------------

 SCF Done:  E(RHF) =  -723.530042756     A.U. after    2 cycles

 The electronic state is 1-A.
 Alpha  occ. eigenvalues --  -81.40704 -20.60938 -20.60890 -20.52115 -11.25871
 Alpha  occ. eigenvalues --  -11.24313 -11.23860 -11.21999  -7.89143  -5.03785
 Alpha  occ. eigenvalues --   -5.03699  -5.03385  -1.37141  -1.34176  -1.25298
 Alpha  occ. eigenvalues --   -1.08358  -0.99003  -0.88284  -0.84781  -0.79317
 Alpha  occ. eigenvalues --   -0.74947  -0.68344  -0.66539  -0.64618  -0.61665
 Alpha  occ. eigenvalues --   -0.59690  -0.59605  -0.57689  -0.56453  -0.55153
 Alpha  occ. eigenvalues --   -0.52917  -0.51508  -0.50215  -0.48801  -0.48134
 Alpha  occ. eigenvalues --   -0.47650  -0.44160
 Alpha virt. eigenvalues --    0.03214   0.04201   0.04405   0.04914   0.05878
 Alpha virt. eigenvalues --    0.06578   0.07001   0.07189   0.07827   0.09383
 Alpha virt. eigenvalues --    0.09453   0.11172   0.11537   0.13011   0.13854

 Mulliken charges:
               1
     1  C   -0.866447
     2  P    2.438505
     3  O   -0.927963
     4  O   -0.734860
     5  C    0.345134
     6  C    0.432458
     7  H   -0.143226
     8  H   -0.135632
     9  H   -0.054267
    10  H   -0.137560
    11  C    0.646988
    12  H   -0.188718
    13  H   -0.078725
    14  H   -0.016721
    15  H   -0.083242
    16  H   -0.027686
    17  H    0.146146
    18  O   -0.761443
    19  H    0.147260
 Sum of Mulliken charges =  -0.00000

 Dipole moment (field-independent basis, Debye):
    X=             -0.1144    Y=              1.6400    Z=              0.3040  Tot=              1.6719

 Test job not archived.
 1\1\GINC-SE159\SP\RHF\Aug-CC-pVDZ\C4H11O3P1\OHZDE\08-Apr-2025\0\\#t hf
  aug-cc-pvdz iop(5/13=1,5/36=2,99/5=2) pseudo=read geom=check guess=(r
 ead,tcheck) scf=(maxcycle=1)\\title\\0,1\C,0,0.617465,0.72822,-0.4001\
 P,0,-0.782564,-0.362673,-0.023321\O,0,-0.665444,-1.814314,-0.252402\O,
 0,-1.980505,0.306291,-0.875489\C,0,1.910675,0.269545,0.311692\C,0,2.52
 2039,-1.026395,-0.231244\H,0,1.712653,0.175626,1.384791\H,0,2.637889,1
 .082942,0.209954\H,0,2.78094,-0.920706,-1.289554\H,0,1.829575,-1.86426
 6,-0.141081\C,0,0.275753,2.197705,-0.088022\H,0,0.753669,0.621352,-1.4

 Normal termination of Gaussian 16 at Tue Apr  8 23:25:13 2025.
