 Gaussian 16, Revision C.01,

 ----------------------------------------------------------------------
 #t hf aug-cc-pvdz symm=none int=(grid=ultrafine) guess=(read,tcheck) s
 table=opt
 ----------------------------------------------------------------------
 -----
 title
 -----
 Symbolic Z-matrix:
 Charge =  0 Multiplicity = 2

 SCF Done:  E(UHF) =  -931.596565069     A.U. after   15 cycles
 Normal termination of Gaussian 16 at Tue Apr  8 23:52:32 2025.
 Gaussian 16:  ES64L-G16RevC.01  3-Jul-2019

 ----------------------------------------------------------------------
 #t hf aug-cc-pvdz iop(5/13=1,5/36=2,99/5=2) pseudo=read geom=check gue
 ss=(read,tcheck) scf=(maxcycle=1)
 ----------------------------------------------------------------------
 -----
 title
 -----
 Structure from the checkpoint file:  "BDE49_nonexpt_1955_mol2.chk"
 Charge =  0 Multiplicity = 2

                         Standard orientation:
 ---------------------------------------------------------------------
 Center     Atomic      Atomic             Coordinates (Angstroms)
 Number     Number       Type             X           Y           Z
 ---------------------------------------------------------------------
      1         14           0       -2.269666    0.001790   -0.079518
      2         15           0        0.779069   -0.039964   -0.108193
      3          8           0        0.514676    1.519199    0.139324
      4          1           0        1.268653    2.062998   -0.116519
      5          8           0        1.385537   -0.529035    1.289354
      6          1           0        2.034374   -1.230139    1.158120
      7          8           0        1.595890   -0.390206   -1.267715
      8          8           0       -0.697991   -0.583779   -0.083238
      9          1           0       -3.120615   -1.212096   -0.066547
     10          1           0       -2.478022    0.824209    1.139295
 ---------------------------------------------------------------------

 SCF Done:  E(UHF) =  -931.800707284     A.U. after    2 cycles

 The electronic state is 2-A.
 Alpha  occ. eigenvalues --  -81.45791 -69.12989 -20.62717 -20.62135 -20.60909
 Alpha  occ. eigenvalues --  -20.53312  -7.93621  -6.87737  -5.08323  -5.08238
 Alpha  occ. eigenvalues --   -5.08197  -3.98993  -3.98299  -3.98101  -1.40309
 Alpha  occ. eigenvalues --   -1.35919  -1.34592  -1.26895  -0.88026  -0.79908
 Alpha  occ. eigenvalues --   -0.77671  -0.69465  -0.66932  -0.65402  -0.63313
 Alpha  occ. eigenvalues --   -0.61778  -0.60761  -0.57406  -0.56540  -0.50182
 Alpha  occ. eigenvalues --   -0.49767  -0.49455  -0.35175
 Alpha virt. eigenvalues --    0.03169   0.04158   0.04808   0.06127   0.07105
 Alpha virt. eigenvalues --    0.07384   0.09020   0.10102   0.10957   0.11959
 Alpha virt. eigenvalues --    0.12776   0.13462   0.16786   0.17825   0.17956

  Beta  occ. eigenvalues --  -81.45794 -69.12421 -20.62721 -20.62126 -20.60610
  Beta  occ. eigenvalues --  -20.53318  -7.93625  -6.86845  -5.08329  -5.08243
  Beta  occ. eigenvalues --   -5.08198  -3.97944  -3.97739  -3.96901  -1.40150
  Beta  occ. eigenvalues --   -1.35906  -1.33902  -1.26896  -0.87690  -0.78939
  Beta  occ. eigenvalues --   -0.77582  -0.69370  -0.66432  -0.63419  -0.62141
  Beta  occ. eigenvalues --   -0.61020  -0.59868  -0.56967  -0.56034  -0.49878
  Beta  occ. eigenvalues --   -0.49687  -0.48224
  Beta virt. eigenvalues --    0.02508   0.03361   0.04478   0.04903   0.06346
  Beta virt. eigenvalues --    0.07512   0.09215   0.09516   0.10144   0.11066
  Beta virt. eigenvalues --    0.12295   0.13353   0.14566   0.17969   0.18205

 Mulliken charges and spin densities:
               1          2
     1  Si   0.490219   0.929528
     2  P    2.328334   0.001163
     3  O   -0.669210  -0.003169
     4  H    0.169791  -0.000951
     5  O   -0.652513  -0.000673
     6  H    0.161789   0.000823
     7  O   -0.820436   0.001349
     8  O   -1.040969  -0.023932
     9  H    0.019791   0.040946
    10  H    0.013205   0.054915
 Sum of Mulliken charges =  -0.00000   1.00000

 Dipole moment (field-independent basis, Debye):
    X=             -0.7437    Y=              0.9980    Z=              1.7115  Tot=              2.1162
                          Isotropic Fermi Contact Couplings
        Atom                 a.u.       MegaHertz       Gauss      10(-4) cm-1
     1  Si(29)             0.66646    -592.30329    -211.34854    -197.57111
     2  P(31)             -0.00490      -8.87903      -3.16826      -2.96172
     3  O(17)             -0.00131       0.79394       0.28330       0.26483
     4  H(1)              -0.00006      -0.29039      -0.10362      -0.09686
     5  O(17)              0.00195      -1.18257      -0.42197      -0.39446
     6  H(1)              -0.00003      -0.14237      -0.05080      -0.04749
     7  O(17)             -0.00069       0.41626       0.14853       0.13885
     8  O(17)              0.04018     -24.35424      -8.69020      -8.12370

 Normal termination of Gaussian 16 at Tue Apr  8 23:52:36 2025.
