 Gaussian 16, Revision C.01,

 ----------------------------------------------------------------------
 #t hf aug-cc-pvdz symm=none int=(grid=ultrafine) guess=(read,tcheck) s
 table=(opt,rrhf)
 ----------------------------------------------------------------------
 -----
 title
 -----
 Symbolic Z-matrix:
 Charge =  0 Multiplicity = 1

 SCF Done:  E(RHF) =  -256.192852466     A.U. after   12 cycles
 Normal termination of Gaussian 16 at Tue Apr  8 22:43:42 2025.
 Gaussian 16:  ES64L-G16RevC.01  3-Jul-2019

 ----------------------------------------------------------------------
 #t hf aug-cc-pvdz iop(5/13=1,5/36=2,99/5=2) pseudo=read geom=check gue
 ss=(read,tcheck) scf=(maxcycle=1)
 ----------------------------------------------------------------------
 -----
 title
 -----
 Structure from the checkpoint file:  "BDE49_expt_1523_mol1.chk"
 Charge =  0 Multiplicity = 1

                         Standard orientation:
 ---------------------------------------------------------------------
 Center     Atomic      Atomic             Coordinates (Angstroms)
 Number     Number       Type             X           Y           Z
 ---------------------------------------------------------------------
      1          6           0        0.000005   -0.000014   -0.006964
      2          6           0       -0.344730    1.421591   -0.435798
      3          9           0       -0.000044    0.000053    1.416153
      4          1           0        0.396591    2.123452   -0.047508
      5          1           0       -1.325064    1.706048   -0.047241
      6          6           0        1.403556   -0.412267   -0.435681
      7          1           0        2.139976    0.294735   -0.047382
      8          1           0        1.486475   -0.436850   -1.525543
      9          1           0        1.640839   -1.405026   -0.047020
     10          1           0       -0.365240    1.505462   -1.525668
     11          6           0       -1.058788   -1.009368   -0.435715
     12          1           0       -2.037218   -0.718327   -0.047255
     13          1           0       -0.814884   -2.000600   -0.047239
     14          1           0       -1.121340   -1.069023   -1.525577
 ---------------------------------------------------------------------

 SCF Done:  E(RHF) =  -256.278635752     A.U. after    2 cycles

 The electronic state is 1-A.
 Alpha  occ. eigenvalues --  -26.08470 -11.32550 -11.23210 -11.23210 -11.23197
 Alpha  occ. eigenvalues --   -1.61326  -1.08492  -0.94788  -0.94787  -0.81114
 Alpha  occ. eigenvalues --   -0.70906  -0.70906  -0.67543  -0.59683  -0.59683
 Alpha  occ. eigenvalues --   -0.56442  -0.54496  -0.54496  -0.52655  -0.48219
 Alpha  occ. eigenvalues --   -0.48218
 Alpha virt. eigenvalues --    0.03404   0.04715   0.04715   0.05433   0.06972
 Alpha virt. eigenvalues --    0.06972   0.07494   0.07494   0.09527   0.10349
 Alpha virt. eigenvalues --    0.14770   0.14771   0.15672   0.15672   0.15705

 Mulliken charges:
               1
     1  C   -1.546887
     2  C    0.649431
     3  F   -0.463029
     4  H   -0.014194
     5  H   -0.014154
     6  C    0.649454
     7  H   -0.014166
     8  H    0.048858
     9  H   -0.014164
    10  H    0.048857
    11  C    0.649442
    12  H   -0.014129
    13  H   -0.014140
    14  H    0.048821
 Sum of Mulliken charges =  -0.00000

 Dipole moment (field-independent basis, Debye):
    X=              0.0001    Y=             -0.0001    Z=             -2.4450  Tot=              2.4450

 Test job not archived.
 1\1\GINC-SE423\SP\RHF\Aug-CC-pVDZ\C4H9F1\OHZDE\08-Apr-2025\0\\#t hf au
 g-cc-pvdz iop(5/13=1,5/36=2,99/5=2) pseudo=read geom=check guess=(read
 ,tcheck) scf=(maxcycle=1)\\title\\0,1\C,0,-0.000005,0.000014,-0.006964
 \C,0,0.345549,-1.421392,-0.435798\F,0,0.000044,-0.000053,1.416153\H,0,
 -0.395367,-2.12368,-0.047508\H,0,1.326047,-1.705284,-0.047241\C,0,-1.4
 03793,0.411458,-0.435681\H,0,-2.139806,-0.295968,-0.047382\H,0,-1.4867
 26,0.435993,-1.525543\H,0,-1.641648,1.40408,-0.04702\H,0,0.366108,-1.5
 05251,-1.525668\C,0,1.058206,1.009978,-0.435715\H,0,2.036804,0.719501,

 Normal termination of Gaussian 16 at Tue Apr  8 22:43:46 2025.
