 Gaussian 16, Revision C.01,

 ----------------------------------------------------------------------
 #t hf aug-cc-pvdz symm=none int=(grid=ultrafine) guess=(read,tcheck) s
 table=(opt,rrhf)
 ----------------------------------------------------------------------
 -----
 title
 -----
 Symbolic Z-matrix:
 Charge =  0 Multiplicity = 1

 SCF Done:  E(RHF) =  -843.537882552     A.U. after   17 cycles
 Normal termination of Gaussian 16 at Tue Apr  8 23:33:45 2025.
 Gaussian 16:  ES64L-G16RevC.01  3-Jul-2019

 ----------------------------------------------------------------------
 #t hf aug-cc-pvdz iop(5/13=1,5/36=2,99/5=2) pseudo=read geom=check gue
 ss=(read,tcheck) scf=(maxcycle=1)
 ----------------------------------------------------------------------
 -----
 title
 -----
 Structure from the checkpoint file:  "BDE49_nonexpt_1471_mol1.chk"
 Charge =  0 Multiplicity = 1

                         Standard orientation:
 ---------------------------------------------------------------------
 Center     Atomic      Atomic             Coordinates (Angstroms)
 Number     Number       Type             X           Y           Z
 ---------------------------------------------------------------------
      1          7           0        1.140852   -0.198618    0.898461
      2          6           0        0.311031    0.983500    1.000595
      3         15           0       -1.069534    1.232480   -0.241608
      4          1           0        0.943421    1.870112    0.936010
      5          1           0       -0.145285    0.966432    1.991086
      6          7           0        2.027411   -0.293388   -0.166827
      7          1           0        0.705984   -1.097393    1.073120
      8          7           0       -1.875176   -0.455602   -0.077989
      9          8           0        2.320342    0.748349   -0.738580
     10          8           0        2.460134   -1.407543   -0.401422
     11          8           0       -1.672051   -1.109654    0.938606
     12          8           0       -2.609303   -0.773099   -0.992480
     13          1           0       -0.371901    0.841476   -1.404169
 ---------------------------------------------------------------------

 SCF Done:  E(RHF) =  -843.713169573     A.U. after    2 cycles

 The electronic state is 1-A.
 Alpha  occ. eigenvalues --  -81.35625 -20.64669 -20.64197 -20.63898 -20.63809
 Alpha  occ. eigenvalues --  -15.97348 -15.92469 -15.73761 -11.34468  -7.85673
 Alpha  occ. eigenvalues --   -4.99686  -4.99458  -4.99185  -1.59054  -1.56690
 Alpha  occ. eigenvalues --   -1.39820  -1.39018  -1.27612  -1.04392  -0.97515
 Alpha  occ. eigenvalues --   -0.89691  -0.84129  -0.81894  -0.77895  -0.77575
 Alpha  occ. eigenvalues --   -0.75930  -0.74428  -0.72231  -0.69629  -0.62867
 Alpha  occ. eigenvalues --   -0.59558  -0.55689  -0.54255  -0.53586  -0.51552
 Alpha  occ. eigenvalues --   -0.50387  -0.49976  -0.46920  -0.41735
 Alpha virt. eigenvalues --    0.02360   0.03720   0.04203   0.05040   0.06058
 Alpha virt. eigenvalues --    0.06922   0.07798   0.08009   0.09264   0.11335
 Alpha virt. eigenvalues --    0.11602   0.12703   0.13015   0.15142   0.15553

 Mulliken charges:
               1
     1  N   -0.002560
     2  C    0.566808
     3  P    0.828394
     4  H   -0.140208
     5  H   -0.173454
     6  N    0.513473
     7  H    0.076251
     8  N    0.397630
     9  O   -0.541620
    10  O   -0.533385
    11  O   -0.592251
    12  O   -0.550792
    13  H    0.151713
 Sum of Mulliken charges =  -0.00000

 Dipole moment (field-independent basis, Debye):
    X=             -0.6568    Y=              3.8139    Z=              2.3797  Tot=              4.5432

 Test job not archived.
 1\1\GINC-SE284\SP\RHF\Aug-CC-pVDZ\C1H4N3O4P1\OHZDE\08-Apr-2025\0\\#t h
 f aug-cc-pvdz iop(5/13=1,5/36=2,99/5=2) pseudo=read geom=check guess=(
 read,tcheck) scf=(maxcycle=1)\\title\\0,1\N,0,1.140852,-0.198618,0.898
 461\C,0,0.311031,0.9835,1.000595\P,0,-1.069534,1.23248,-0.241608\H,0,0
 .943421,1.870112,0.93601\H,0,-0.145285,0.966432,1.991086\N,0,2.027411,
 -0.293388,-0.166827\H,0,0.705984,-1.097393,1.07312\N,0,-1.875176,-0.45
 5602,-0.077989\O,0,2.320342,0.748349,-0.73858\O,0,2.460134,-1.407543,-
 0.401422\O,0,-1.672051,-1.109654,0.938606\O,0,-2.609303,-0.773099,-0.9

 Normal termination of Gaussian 16 at Tue Apr  8 23:33:51 2025.
