 Gaussian 16, Revision C.01,

 ----------------------------------------------------------------------
 #t hf aug-cc-pvdz symm=none int=(grid=ultrafine) guess=(read,tcheck) s
 table=(opt,rrhf)
 ----------------------------------------------------------------------
 -----
 title
 -----
 Symbolic Z-matrix:
 Charge =  0 Multiplicity = 1

 SCF Done:  E(RHF) =  -168.857401961     A.U. after   13 cycles
 Normal termination of Gaussian 16 at Tue Apr  8 22:37:21 2025.
 Gaussian 16:  ES64L-G16RevC.01  3-Jul-2019

 ----------------------------------------------------------------------
 #t hf aug-cc-pvdz iop(5/13=1,5/36=2,99/5=2) pseudo=read geom=check gue
 ss=(read,tcheck) scf=(maxcycle=1)
 ----------------------------------------------------------------------
 -----
 title
 -----
 Structure from the checkpoint file:  "BDE49_expt_1227_mol1.chk"
 Charge =  0 Multiplicity = 1

                         Standard orientation:
 ---------------------------------------------------------------------
 Center     Atomic      Atomic             Coordinates (Angstroms)
 Number     Number       Type             X           Y           Z
 ---------------------------------------------------------------------
      1          6           0        1.098084    0.143749    0.000002
      2          7           0       -0.231550   -0.520855    0.000005
      3          1           0        1.633103   -0.220991    0.881770
      4          1           0        1.000698    1.231438   -0.000011
      5          1           0        1.633109   -0.221012   -0.881755
      6          8           0       -1.154321    0.249257   -0.000006
 ---------------------------------------------------------------------

 SCF Done:  E(RHF) =  -168.910299010     A.U. after    2 cycles

 The electronic state is 1-A.
 Alpha  occ. eigenvalues --  -20.64734 -15.77122 -11.28393  -1.47411  -1.06316
 Alpha  occ. eigenvalues --   -0.85678  -0.70468  -0.68603  -0.64797  -0.56948
 Alpha  occ. eigenvalues --   -0.54894  -0.41097
 Alpha virt. eigenvalues --    0.03255   0.05276   0.05542   0.08687   0.08780
 Alpha virt. eigenvalues --    0.13650   0.14505   0.14752   0.16561   0.17771
 Alpha virt. eigenvalues --    0.19351   0.24192   0.24688   0.27019   0.27743

 Mulliken charges:
               1
     1  C    0.704761
     2  N   -0.163718
     3  H   -0.040581
     4  H   -0.068314
     5  H   -0.040579
     6  O   -0.391569
 Sum of Mulliken charges =  -0.00000

 Dipole moment (field-independent basis, Debye):
    X=              2.8692    Y=              0.2654    Z=              0.0000  Tot=              2.8815

 Test job not archived.
 1\1\GINC-SE094\SP\RHF\Aug-CC-pVDZ\C1H3N1O1\OHZDE\08-Apr-2025\0\\#t hf
 aug-cc-pvdz iop(5/13=1,5/36=2,99/5=2) pseudo=read geom=check guess=(re
 ad,tcheck) scf=(maxcycle=1)\\title\\0,1\C,0,1.098084,0.143749,0.000002
 \N,0,-0.23155,-0.520855,0.000005\H,0,1.633103,-0.220992,0.88177\H,0,1.
 000698,1.231438,-0.000011\H,0,1.633109,-0.221013,-0.881755\O,0,-1.1543
 21,0.249257,-0.000006\\Version=ES64L-G16RevC.01\State=1-A\HF=-168.9102
 99\RMSD=2.875e-03\Dipole=1.1288363,0.1044282,0.0000025\Quadrupole=-0.3
 000004,-0.749104,1.0491044,0.1009994,-0.0000045,0.0000199\PG=C01 [X(C1

 Normal termination of Gaussian 16 at Tue Apr  8 22:37:22 2025.
