 Gaussian 16, Revision C.01,

 ----------------------------------------------------------------------
 #t hf aug-cc-pvdz symm=none int=(grid=ultrafine) guess=(read,tcheck) s
 table=opt
 ----------------------------------------------------------------------
 -----
 title
 -----
 Symbolic Z-matrix:
 Charge =  0 Multiplicity = 2

 SCF Done:  E(UHF) =  -1146.11477478     A.U. after   19 cycles
 Normal termination of Gaussian 16 at Tue Apr  8 23:07:57 2025.
 Gaussian 16:  ES64L-G16RevC.01  3-Jul-2019

 ----------------------------------------------------------------------
 #t hf aug-cc-pvdz iop(5/13=1,5/36=2,99/5=2) pseudo=read geom=check gue
 ss=(read,tcheck) scf=(maxcycle=1)
 ----------------------------------------------------------------------
 -----
 title
 -----
 Structure from the checkpoint file:  "BDE49_expt_624_mol2.chk"
 Charge =  0 Multiplicity = 2

                         Standard orientation:
 ---------------------------------------------------------------------
 Center     Atomic      Atomic             Coordinates (Angstroms)
 Number     Number       Type             X           Y           Z
 ---------------------------------------------------------------------
      1          6           0       -0.000000   -0.191393    0.326460
      2          8           0       -0.000000    1.157194    0.862372
      3          8           0       -0.000001    2.105976   -0.048380
      4          6           0       -0.000000   -1.102588    1.530977
      5          1           0        0.891288   -0.907664    2.128714
      6          1           0        0.000001   -2.141379    1.206039
      7          1           0       -0.891288   -0.907665    2.128713
      8         17           0       -1.467803   -0.423082   -0.680001
      9         17           0        1.467804   -0.423081   -0.680001
 ---------------------------------------------------------------------

 SCF Done:  E(UHF) =  -1146.22302266     A.U. after    2 cycles

 The electronic state is 2-A.
 Alpha  occ. eigenvalues -- -103.68613-103.68612 -20.71883 -20.71107 -11.45738
 Alpha  occ. eigenvalues --  -11.27699 -10.71940 -10.71932  -8.37671  -8.37666
 Alpha  occ. eigenvalues --   -8.37329  -8.37327  -8.37326  -8.37325  -1.55604
 Alpha  occ. eigenvalues --   -1.27394  -1.18407  -1.15672  -1.02761  -0.86149
 Alpha  occ. eigenvalues --   -0.80977  -0.74329  -0.73623  -0.66890  -0.61191
 Alpha  occ. eigenvalues --   -0.60070  -0.58156  -0.55485  -0.53138  -0.50439
 Alpha  occ. eigenvalues --   -0.48948  -0.48578  -0.46926
 Alpha virt. eigenvalues --    0.03537   0.05640   0.05712   0.07309   0.09120
 Alpha virt. eigenvalues --    0.09981   0.12318   0.13016   0.13703   0.14116
 Alpha virt. eigenvalues --    0.15869   0.16035   0.16960   0.17864   0.18291

  Beta  occ. eigenvalues -- -103.68607-103.68607 -20.70433 -20.67710 -11.45812
  Beta  occ. eigenvalues --  -11.27704 -10.71936 -10.71928  -8.37640  -8.37635
  Beta  occ. eigenvalues --   -8.37331  -8.37330  -8.37323  -8.37321  -1.49787
  Beta  occ. eigenvalues --   -1.24368  -1.15602  -1.12410  -1.01558  -0.84713
  Beta  occ. eigenvalues --   -0.72844  -0.71937  -0.69604  -0.60845  -0.60762
  Beta  occ. eigenvalues --   -0.59617  -0.54249  -0.53022  -0.49560  -0.48685
  Beta  occ. eigenvalues --   -0.48489  -0.46921
  Beta virt. eigenvalues --    0.03540   0.05641   0.05650   0.06786   0.07333
  Beta virt. eigenvalues --    0.09144   0.10012   0.12456   0.13072   0.13959
  Beta virt. eigenvalues --    0.14125   0.16180   0.16815   0.17000   0.17899

 Mulliken charges and spin densities:
               1          2
     1  C   -0.165365  -0.012200
     2  O   -0.386586   0.041594
     3  O   -0.084428   0.968448
     4  C    0.741154  -0.000310
     5  H   -0.006720   0.000308
     6  H    0.007677  -0.001386
     7  H   -0.006722   0.000308
     8  Cl  -0.049505   0.001619
     9  Cl  -0.049505   0.001619
 Sum of Mulliken charges =  -0.00000   1.00000

 Dipole moment (field-independent basis, Debye):
    X=             -0.0000    Y=             -1.8693    Z=              1.6177  Tot=              2.4721
                          Isotropic Fermi Contact Couplings
        Atom                 a.u.       MegaHertz       Gauss      10(-4) cm-1
     1  C(13)             -0.01254     -14.09482      -5.02938      -4.70153
     2  O(17)              0.07038     -42.66467     -15.22381     -14.23140
     3  O(17)              0.29869    -181.06546     -64.60866     -60.39694
     4  C(13)             -0.00146      -1.64637      -0.58747      -0.54917
     5  H(1)              -0.00002      -0.09733      -0.03473      -0.03247
     6  H(1)              -0.00058      -2.57841      -0.92004      -0.86006
     7  H(1)              -0.00002      -0.09733      -0.03473      -0.03247
     8  Cl(35)            -0.00463      -2.02838      -0.72378      -0.67660

 Normal termination of Gaussian 16 at Tue Apr  8 23:08:01 2025.
