 Gaussian 16, Revision C.01,

 ----------------------------------------------------------------------
 #t hf aug-cc-pvdz symm=none int=(grid=ultrafine) guess=(read,tcheck) s
 table=(opt,rrhf)
 ----------------------------------------------------------------------
 -----
 title
 -----
 Symbolic Z-matrix:
 Charge =  0 Multiplicity = 1

 SCF Done:  E(RHF) =  -285.768823037     A.U. after   14 cycles
 Normal termination of Gaussian 16 at Tue Apr  8 22:36:48 2025.
 Gaussian 16:  ES64L-G16RevC.01  3-Jul-2019

 ----------------------------------------------------------------------
 #t hf aug-cc-pvdz iop(5/13=1,5/36=2,99/5=2) pseudo=read geom=check gue
 ss=(read,tcheck) scf=(maxcycle=1)
 ----------------------------------------------------------------------
 -----
 title
 -----
 Structure from the checkpoint file:  "BDE49_expt_1178_mol1.chk"
 Charge =  0 Multiplicity = 1

                         Standard orientation:
 ---------------------------------------------------------------------
 Center     Atomic      Atomic             Coordinates (Angstroms)
 Number     Number       Type             X           Y           Z
 ---------------------------------------------------------------------
      1          6           0        1.206523    0.167376    0.000000
      2          6           0       -0.000000    0.875700    0.000000
      3          6           0        1.178566   -1.223384    0.000000
      4          6           0       -0.053287   -1.868702    0.000000
      5          6           0       -1.202601   -1.080909    0.000000
      6          7           0       -1.187970    0.252781    0.000000
      7          1           0        2.149915    0.701358    0.000000
      8          1           0        2.102367   -1.791559    0.000000
      9          1           0       -0.126938   -2.949641    0.000000
     10          1           0       -2.185637   -1.545130    0.000000
     11          6           0       -0.035932    2.381817    0.000000
     12          1           0        0.966705    2.813185    0.000000
     13          1           0       -0.575117    2.745467    0.878855
     14          1           0       -0.575117    2.745467   -0.878855
 ---------------------------------------------------------------------

 SCF Done:  E(RHF) =  -285.853215835     A.U. after    2 cycles

 The electronic state is 1-A'.
 Alpha  occ. eigenvalues --  -15.62301 -11.29045 -11.28378 -11.26699 -11.24583
 Alpha  occ. eigenvalues --  -11.24545 -11.23345  -1.22931  -1.07386  -1.04935
 Alpha  occ. eigenvalues --   -0.94719  -0.85554  -0.82390  -0.70420  -0.67122
 Alpha  occ. eigenvalues --   -0.64123  -0.58774  -0.58729  -0.57309  -0.54052
 Alpha  occ. eigenvalues --   -0.51796  -0.51294  -0.40786  -0.38044  -0.33911
 Alpha virt. eigenvalues --    0.03183   0.03775   0.04375   0.05826   0.06130
 Alpha virt. eigenvalues --    0.06206   0.08037   0.09199   0.10973   0.11079
 Alpha virt. eigenvalues --    0.12064   0.12101   0.12973   0.14237   0.14356

 Mulliken charges:
               1
     1  C    0.999845
     2  C   -0.235215
     3  C   -0.381979
     4  C    0.815834
     5  C    0.510687
     6  N   -0.515518
     7  H   -0.497858
     8  H   -0.409472
     9  H   -0.403046
    10  H   -0.364105
    11  C    0.443496
    12  H   -0.091568
    13  H    0.064450
    14  H    0.064450
 Sum of Mulliken charges =  -0.00000

 Dipole moment (field-independent basis, Debye):
    X=              1.7428    Y=             -0.6782    Z=              0.0000  Tot=              1.8701

 Test job not archived.
 1\1\GINC-SE097\SP\RHF\Aug-CC-pVDZ\C6H7N1\OHZDE\08-Apr-2025\0\\#t hf au
 g-cc-pvdz iop(5/13=1,5/36=2,99/5=2) pseudo=read geom=check guess=(read
 ,tcheck) scf=(maxcycle=1)\\title\\0,1\C,0,1.206523,0.167376,0.\C,0,0.,
 0.8757,0.\C,0,1.178566,-1.223384,0.\C,0,-0.053287,-1.868702,0.\C,0,-1.
 202601,-1.080909,0.\N,0,-1.18797,0.252781,0.\H,0,2.149915,0.701358,0.\
 H,0,2.102367,-1.791559,0.\H,0,-0.126938,-2.949641,0.\H,0,-2.185637,-1.
 54513,0.\C,0,-0.035932,2.381817,0.\H,0,0.966705,2.813185,0.\H,0,-0.575
 117,2.745467,0.878855\H,0,-0.575117,2.745467,-0.878855\\Version=ES64L-

 Normal termination of Gaussian 16 at Tue Apr  8 22:36:52 2025.
