 Gaussian 16, Revision C.01,

 ----------------------------------------------------------------------
 #t hf aug-cc-pvdz symm=none int=(grid=ultrafine) guess=(read,tcheck) s
 table=(opt,rrhf)
 ----------------------------------------------------------------------
 -----
 title
 -----
 Symbolic Z-matrix:
 Charge =  0 Multiplicity = 1

 SCF Done:  E(RHF) =  -401.103466017     A.U. after   12 cycles
 Normal termination of Gaussian 16 at Tue Apr  8 23:02:48 2025.
 Gaussian 16:  ES64L-G16RevC.01  3-Jul-2019

 ----------------------------------------------------------------------
 #t hf aug-cc-pvdz iop(5/13=1,5/36=2,99/5=2) pseudo=read geom=check gue
 ss=(read,tcheck) scf=(maxcycle=1)
 ----------------------------------------------------------------------
 -----
 title
 -----
 Structure from the checkpoint file:  "BDE49_expt_349_mol1.chk"
 Charge =  0 Multiplicity = 1

                         Standard orientation:
 ---------------------------------------------------------------------
 Center     Atomic      Atomic             Coordinates (Angstroms)
 Number     Number       Type             X           Y           Z
 ---------------------------------------------------------------------
      1          6           0        2.014201   -0.129026    0.452241
      2          6           0        1.155492    1.103811    0.138358
      3          7           0       -0.255826    0.811488   -0.123053
      4          1           0        1.551021    1.570755   -0.768475
      5          1           0        1.284455    1.832285    0.962596
      6          8           0        1.927147   -1.153102   -0.520365
      7          1           0        1.786661   -0.516241    1.454867
      8          1           0        3.057512    0.197739    0.477324
      9          1           0        1.086619   -1.614655   -0.391674
     10          6           0       -0.976119    1.972389   -0.630411
     11          1           0       -0.488377    2.346317   -1.533734
     12          1           0       -1.026406    2.798222    0.101302
     13          1           0       -1.998897    1.694273   -0.895438
     14          6           0       -0.976651    0.113356    0.947926
     15          6           0       -1.802424   -1.026797    0.332558
     16          1           0       -0.256934   -0.316944    1.645668
     17          1           0       -1.618568    0.792437    1.529382
     18          8           0       -1.005064   -1.753541   -0.597758
     19          1           0       -2.697416   -0.629954   -0.166239
     20          1           0       -2.131953   -1.727666    1.101987
     21          1           0       -0.620600   -1.056247   -1.155228
 ---------------------------------------------------------------------

 SCF Done:  E(RHF) =  -401.229952290     A.U. after    2 cycles

 The electronic state is 1-A.
 Alpha  occ. eigenvalues --  -20.57045 -20.55951 -15.62472 -11.28960 -11.28618
 Alpha  occ. eigenvalues --  -11.27081 -11.26720 -11.26684  -1.32608  -1.31010
 Alpha  occ. eigenvalues --   -1.20281  -1.01412  -0.99204  -0.90617  -0.85667
 Alpha  occ. eigenvalues --   -0.78714  -0.71144  -0.70208  -0.67414  -0.64901
 Alpha  occ. eigenvalues --   -0.63479  -0.62352  -0.59198  -0.58815  -0.56958
 Alpha  occ. eigenvalues --   -0.54312  -0.53683  -0.52243  -0.49927  -0.48334
 Alpha  occ. eigenvalues --   -0.46005  -0.44435  -0.36421
 Alpha virt. eigenvalues --    0.03068   0.03832   0.04001   0.04718   0.06028
 Alpha virt. eigenvalues --    0.06281   0.06989   0.07264   0.07770   0.08630
 Alpha virt. eigenvalues --    0.08767   0.09648   0.10801   0.12817   0.12994

 Mulliken charges:
               1
     1  C    0.769591
     2  C    0.612902
     3  N   -0.956677
     4  H   -0.266806
     5  H   -0.106254
     6  O   -0.529228
     7  H   -0.141663
     8  H   -0.173342
     9  H    0.164220
    10  C    0.684806
    11  H   -0.203560
    12  H   -0.034796
    13  H   -0.260141
    14  C    0.642027
    15  C    0.851665
    16  H   -0.289663
    17  H   -0.084151
    18  O   -0.617650
    19  H   -0.192988
    20  H   -0.153057
    21  H    0.284765
 Sum of Mulliken charges =  -0.00000

 Dipole moment (field-independent basis, Debye):
    X=             -1.6007    Y=              3.1398    Z=              2.0212  Tot=              4.0627

 Test job not archived.
 1\1\GINC-SE247\SP\RHF\Aug-CC-pVDZ\C5H13N1O2\OHZDE\08-Apr-2025\0\\#t hf
  aug-cc-pvdz iop(5/13=1,5/36=2,99/5=2) pseudo=read geom=check guess=(r
 ead,tcheck) scf=(maxcycle=1)\\title\\0,1\C,0,2.014201,-0.129025,0.4522
 41\C,0,1.155491,1.103812,0.138358\N,0,-0.255826,0.811488,-0.123053\H,0
 ,1.55102,1.570756,-0.768475\H,0,1.284454,1.832286,0.962596\O,0,1.92714
 8,-1.153101,-0.520365\H,0,1.786661,-0.51624,1.454867\H,0,3.057512,0.19
 7741,0.477324\H,0,1.08662,-1.614654,-0.391674\C,0,-0.97612,1.972389,-0
 .630411\H,0,-0.488378,2.346317,-1.533734\H,0,-1.026407,2.798222,0.1013

 Normal termination of Gaussian 16 at Tue Apr  8 23:02:59 2025.
