 Gaussian 16, Revision C.01,

 ----------------------------------------------------------------------
 #t hf aug-cc-pvdz symm=none int=(grid=ultrafine) guess=(read,tcheck) s
 table=opt
 ----------------------------------------------------------------------
 -----
 title
 -----
 Symbolic Z-matrix:
 Charge =  0 Multiplicity = 2

 SCF Done:  E(UHF) =  -882.319842734     A.U. after   16 cycles
 Normal termination of Gaussian 16 at Tue Apr  8 23:38:05 2025.
 Gaussian 16:  ES64L-G16RevC.01  3-Jul-2019

 ----------------------------------------------------------------------
 #t hf aug-cc-pvdz iop(5/13=1,5/36=2,99/5=2) pseudo=read geom=check gue
 ss=(read,tcheck) scf=(maxcycle=1)
 ----------------------------------------------------------------------
 -----
 title
 -----
 Structure from the checkpoint file:  "BDE49_nonexpt_160_mol2.chk"
 Charge =  0 Multiplicity = 2

                         Standard orientation:
 ---------------------------------------------------------------------
 Center     Atomic      Atomic             Coordinates (Angstroms)
 Number     Number       Type             X           Y           Z
 ---------------------------------------------------------------------
      1         17           0       -1.579638    0.092983   -0.000000
      2         16           0        1.603373    0.026361   -0.000002
      3          5           0       -0.019996   -0.670321    0.000007
      4          1           0        1.299850    1.349122    0.000004
 ---------------------------------------------------------------------

 SCF Done:  E(UHF) =  -882.363774331     A.U. after    2 cycles

 The electronic state is 2-A.
 Alpha  occ. eigenvalues -- -103.68097 -93.56484 -10.71587  -8.86485  -8.37320
 Alpha  occ. eigenvalues --   -8.37059  -8.37004  -7.72490  -6.20597  -6.20367
 Alpha  occ. eigenvalues --   -6.20087  -1.17832  -0.99747  -0.68618  -0.60909
 Alpha  occ. eigenvalues --   -0.54670  -0.51914  -0.47842  -0.41169  -0.35913
 Alpha virt. eigenvalues --    0.04181   0.05342   0.05719   0.06030   0.07700
 Alpha virt. eigenvalues --    0.08213   0.10816   0.13346   0.13888   0.15728
 Alpha virt. eigenvalues --    0.17127   0.17708   0.17982   0.20972   0.23219

  Beta  occ. eigenvalues -- -103.68025 -93.56485 -10.71504  -8.86451  -8.37211
  Beta  occ. eigenvalues --   -8.37003  -8.36827  -7.70357  -6.20650  -6.20341
  Beta  occ. eigenvalues --   -6.20180  -1.17019  -0.98837  -0.64955  -0.59422
  Beta  occ. eigenvalues --   -0.52206  -0.51679  -0.46955  -0.41363
  Beta virt. eigenvalues --    0.02881   0.05370   0.05836   0.05902   0.08171
  Beta virt. eigenvalues --    0.09751   0.10475   0.12323   0.13584   0.14003
  Beta virt. eigenvalues --    0.16012   0.17479   0.17823   0.18727   0.21478

 Mulliken charges and spin densities:
               1          2
     1  Cl  -0.202992  -0.004163
     2  S   -0.054650  -0.101643
     3  B    0.207684   1.051884
     4  H    0.049958   0.053922
 Sum of Mulliken charges =  -0.00000   1.00000

 Dipole moment (field-independent basis, Debye):
    X=              0.5406    Y=              0.8984    Z=              0.0000  Tot=              1.0485
                          Isotropic Fermi Contact Couplings
        Atom                 a.u.       MegaHertz       Gauss      10(-4) cm-1
     1  Cl(35)             0.07153      31.36187      11.19070      10.46119
     2  S(33)              0.16387      56.28476      20.08380      18.77457
     3  B(11)              0.36661     525.84918     187.63606     175.40441
     4  H(1)               0.01846      82.51160      29.44219      27.52291
 --------------------------------------------------------
       Center         ----  Spin Dipole Couplings  ----
                      3XX-RR        3YY-RR        3ZZ-RR
 --------------------------------------------------------

 Normal termination of Gaussian 16 at Tue Apr  8 23:38:07 2025.
