 Gaussian 16, Revision C.01,

 ----------------------------------------------------------------------
 #t hf aug-cc-pvdz symm=none int=(grid=ultrafine) guess=(read,tcheck) s
 table=opt
 ----------------------------------------------------------------------
 -----
 title
 -----
 Symbolic Z-matrix:
 Charge =  0 Multiplicity = 2

 SCF Done:  E(UHF) =  -288.102200483     A.U. after   23 cycles
 Normal termination of Gaussian 16 at Tue Apr  8 23:06:44 2025.
 Gaussian 16:  ES64L-G16RevC.01  3-Jul-2019

 ----------------------------------------------------------------------
 #t hf aug-cc-pvdz iop(5/13=1,5/36=2,99/5=2) pseudo=read geom=check gue
 ss=(read,tcheck) scf=(maxcycle=1)
 ----------------------------------------------------------------------
 -----
 title
 -----
 Structure from the checkpoint file:  "BDE49_expt_618_mol2.chk"
 Charge =  0 Multiplicity = 2

                         Standard orientation:
 ---------------------------------------------------------------------
 Center     Atomic      Atomic             Coordinates (Angstroms)
 Number     Number       Type             X           Y           Z
 ---------------------------------------------------------------------
      1          6           0       -0.575691    0.500679    0.284105
      2          8           0        0.676581    0.429784   -0.400836
      3          8           0        1.482697   -0.455365    0.170033
      4          9           0       -1.379827   -0.517940   -0.132749
      5          1           0       -0.393078    0.406923    1.354216
      6          1           0       -1.008553    1.455114   -0.017688
 ---------------------------------------------------------------------

 SCF Done:  E(UHF) =  -288.201179299     A.U. after    2 cycles

 The electronic state is 2-A.
 Alpha  occ. eigenvalues --  -26.14170 -20.71218 -20.69685 -11.40978  -1.68425
 Alpha  occ. eigenvalues --   -1.53963  -1.22629  -0.97436  -0.82059  -0.80336
 Alpha  occ. eigenvalues --   -0.79498  -0.75210  -0.71623  -0.67669  -0.58320
 Alpha  occ. eigenvalues --   -0.55542  -0.54101
 Alpha virt. eigenvalues --    0.03397   0.05007   0.08418   0.09024   0.13886
 Alpha virt. eigenvalues --    0.15473   0.16572   0.20240   0.21278   0.22056
 Alpha virt. eigenvalues --    0.24186   0.26263   0.27883   0.28599   0.29713

  Beta  occ. eigenvalues --  -26.14150 -20.68988 -20.67039 -11.41026  -1.68339
  Beta  occ. eigenvalues --   -1.47971  -1.13619  -0.95678  -0.80010  -0.78870
  Beta  occ. eigenvalues --   -0.78106  -0.69848  -0.66834  -0.59383  -0.57366
  Beta  occ. eigenvalues --   -0.50947
  Beta virt. eigenvalues --    0.03360   0.04927   0.07463   0.08597   0.09113
  Beta virt. eigenvalues --    0.14195   0.15620   0.16592   0.20433   0.21779
  Beta virt. eigenvalues --    0.24182   0.25543   0.26904   0.28033   0.28769

 Mulliken charges and spin densities:
               1          2
     1  C    1.083046  -0.018390
     2  O   -0.372871   0.053029
     3  O   -0.110249   0.965104
     4  F   -0.349767   0.003603
     5  H   -0.107172  -0.002927
     6  H   -0.142987  -0.000420
 Sum of Mulliken charges =  -0.00000   1.00000

 Dipole moment (field-independent basis, Debye):
    X=             -0.8009    Y=              1.9347    Z=              1.4820  Tot=              2.5653
                          Isotropic Fermi Contact Couplings
        Atom                 a.u.       MegaHertz       Gauss      10(-4) cm-1
     1  C(13)             -0.00763      -8.57853      -3.06103      -2.86149
     2  O(17)              0.07626     -46.23015     -16.49607     -15.42072
     3  O(17)              0.29705    -180.06878     -64.25302     -60.06448
     4  F(19)              0.00048       2.03855       0.72741       0.67999
     5  H(1)               0.00009       0.38878       0.13873       0.12968
     6  H(1)              -0.00092      -4.13065      -1.47392      -1.37784
 --------------------------------------------------------
       Center         ----  Spin Dipole Couplings  ----

 Normal termination of Gaussian 16 at Tue Apr  8 23:06:45 2025.
