 Gaussian 16, Revision C.01,

 ----------------------------------------------------------------------
 #t hf aug-cc-pvdz symm=none int=(grid=ultrafine) guess=(read,tcheck) s
 table=(opt,rrhf)
 ----------------------------------------------------------------------
 -----
 title
 -----
 Symbolic Z-matrix:
 Charge =  0 Multiplicity = 1

 SCF Done:  E(RHF) =  -906.392968325     A.U. after   12 cycles
 Normal termination of Gaussian 16 at Tue Apr  8 23:43:46 2025.
 Gaussian 16:  ES64L-G16RevC.01  3-Jul-2019

 ----------------------------------------------------------------------
 #t hf aug-cc-pvdz iop(5/13=1,5/36=2,99/5=2) pseudo=read geom=check gue
 ss=(read,tcheck) scf=(maxcycle=1)
 ----------------------------------------------------------------------
 -----
 title
 -----
 Structure from the checkpoint file:  "BDE49_nonexpt_1733_mol1.chk"
 Charge =  0 Multiplicity = 1

                         Standard orientation:
 ---------------------------------------------------------------------
 Center     Atomic      Atomic             Coordinates (Angstroms)
 Number     Number       Type             X           Y           Z
 ---------------------------------------------------------------------
      1          6           0        1.208742    0.033378    0.208907
      2          6           0        0.171193    0.990047   -0.405548
      3         14           0       -1.569308    0.838450    0.265885
      4          6           0        2.619495    0.221458   -0.364510
      5          1           0        0.475489    2.033481   -0.240338
      6         17           0       -2.343510   -1.063640   -0.139722
      7          1           0        0.128837    0.857672   -1.493441
      8          1           0        0.891480   -1.003000    0.047755
      9          1           0        1.242350    0.175352    1.296186
     10          6           0        3.648904   -0.732608    0.247318
     11          1           0        2.938060    1.258534   -0.203792
     12          1           0        2.585848    0.077986   -1.451108
     13          1           0        3.728615   -0.588533    1.329301
     14          1           0        4.641850   -0.575249   -0.182134
     15          1           0        3.373109   -1.777057    0.072529
     16          1           0       -2.479367    1.810960   -0.373638
     17          1           0       -1.606290    0.999777    1.734565
 ---------------------------------------------------------------------

 SCF Done:  E(RHF) =  -906.486158126     A.U. after    2 cycles

 The electronic state is 1-A.
 Alpha  occ. eigenvalues -- -103.64365 -69.10586 -11.24107 -11.23443 -11.23432
 Alpha  occ. eigenvalues --  -11.22664 -10.67801  -8.33492  -8.33276  -8.33271
 Alpha  occ. eigenvalues --   -6.85480  -3.96334  -3.96182  -3.96171  -1.12696
 Alpha  occ. eigenvalues --   -1.06985  -0.98461  -0.87108  -0.80073  -0.69263
 Alpha  occ. eigenvalues --   -0.65257  -0.59597  -0.58756  -0.55927  -0.53180
 Alpha  occ. eigenvalues --   -0.52594  -0.50788  -0.50284  -0.48413  -0.47637
 Alpha  occ. eigenvalues --   -0.47287  -0.44871  -0.42639
 Alpha virt. eigenvalues --    0.03327   0.04134   0.04489   0.04759   0.05809
 Alpha virt. eigenvalues --    0.06312   0.06572   0.07093   0.08345   0.08717
 Alpha virt. eigenvalues --    0.09577   0.09691   0.09899   0.11615   0.12556

 Mulliken charges:
               1
     1  C    0.091165
     2  C    0.152795
     3  Si   0.723733
     4  C    0.217258
     5  H   -0.162974
     6  Cl  -0.557478
     7  H   -0.141567
     8  H   -0.170166
     9  H   -0.198517
    10  C    0.457396
    11  H   -0.139401
    12  H   -0.128067
    13  H   -0.073446
    14  H   -0.065271
    15  H   -0.081011
    16  H    0.011516
    17  H    0.064035
 Sum of Mulliken charges =  -0.00000

 Dipole moment (field-independent basis, Debye):
    X=              1.6996    Y=              1.6623    Z=              0.0267  Tot=              2.3776

 Test job not archived.
 1\1\GINC-SE329\SP\RHF\Aug-CC-pVDZ\C4H11Cl1Si1\OHZDE\08-Apr-2025\0\\#t
 hf aug-cc-pvdz iop(5/13=1,5/36=2,99/5=2) pseudo=read geom=check guess=
 (read,tcheck) scf=(maxcycle=1)\\title\\0,1\C,0,1.208742,0.033378,0.208
 907\C,0,0.171193,0.990047,-0.405548\Si,0,-1.569308,0.83845,0.265885\C,
 0,2.619495,0.221458,-0.36451\H,0,0.475489,2.033481,-0.240338\Cl,0,-2.3
 4351,-1.06364,-0.139722\H,0,0.128837,0.857672,-1.493441\H,0,0.89148,-1
 .003,0.047755\H,0,1.24235,0.175352,1.296186\C,0,3.648904,-0.732608,0.2
 47318\H,0,2.93806,1.258534,-0.203792\H,0,2.585848,0.077986,-1.451108\H

 Normal termination of Gaussian 16 at Tue Apr  8 23:43:52 2025.
