 Gaussian 16, Revision C.01,

 ----------------------------------------------------------------------
 #t hf aug-cc-pvdz symm=none int=(grid=ultrafine) guess=(read,tcheck) s
 table=(opt,rrhf)
 ----------------------------------------------------------------------
 -----
 title
 -----
 Symbolic Z-matrix:
 Charge =  0 Multiplicity = 1

 SCF Done:  E(RHF) =  -486.232108622     A.U. after   16 cycles
 Normal termination of Gaussian 16 at Tue Apr  8 22:36:39 2025.
 Gaussian 16:  ES64L-G16RevC.01  3-Jul-2019

 ----------------------------------------------------------------------
 #t hf aug-cc-pvdz iop(5/13=1,5/36=2,99/5=2) pseudo=read geom=check gue
 ss=(read,tcheck) scf=(maxcycle=1)
 ----------------------------------------------------------------------
 -----
 title
 -----
 Structure from the checkpoint file:  "BDE49_expt_1212_mol1.chk"
 Charge =  0 Multiplicity = 1

                         Standard orientation:
 ---------------------------------------------------------------------
 Center     Atomic      Atomic             Coordinates (Angstroms)
 Number     Number       Type             X           Y           Z
 ---------------------------------------------------------------------
      1          6           0        0.079224    0.500678   -0.475439
      2          7           0       -1.261770   -0.084539   -0.053247
      3          8           0       -1.604106    0.092073    1.100206
      4          8           0       -1.882255   -0.673980   -0.918823
      5          6           0        0.295351    1.888967    0.077598
      6          7           0        1.172428   -0.470607   -0.001706
      7          1           0        0.100387    0.442198   -1.561159
      8          8           0        2.310445   -0.071298   -0.163128
      9          8           0        0.830817   -1.543884    0.446260
     10          1           0        0.215691    1.879802    1.163980
     11          1           0       -0.460130    2.563915   -0.328204
     12          1           0        1.282789    2.238944   -0.219026
 ---------------------------------------------------------------------

 SCF Done:  E(RHF) =  -486.380689803     A.U. after    2 cycles

 The electronic state is 1-A.
 Alpha  occ. eigenvalues --  -20.65911 -20.65363 -20.65306 -20.65117 -15.95508
 Alpha  occ. eigenvalues --  -15.94805 -11.41482 -11.29426  -1.59629  -1.57960
 Alpha  occ. eigenvalues --   -1.41055  -1.40336  -1.18260  -1.00355  -0.97413
 Alpha  occ. eigenvalues --   -0.86066  -0.82834  -0.80462  -0.77536  -0.76436
 Alpha  occ. eigenvalues --   -0.75185  -0.72500  -0.64750  -0.62391  -0.59837
 Alpha  occ. eigenvalues --   -0.55716  -0.54803  -0.54037  -0.52292  -0.51080
 Alpha  occ. eigenvalues --   -0.49691
 Alpha virt. eigenvalues --    0.02252   0.03533   0.04350   0.05280   0.05571
 Alpha virt. eigenvalues --    0.06131   0.10473   0.10633   0.11144   0.12927
 Alpha virt. eigenvalues --    0.13124   0.13751   0.14666   0.16489   0.16719

 Mulliken charges:
               1
     1  C    1.194007
     2  N    0.350323
     3  O   -0.547852
     4  O   -0.547183
     5  C    0.314874
     6  N    0.384918
     7  H   -0.150635
     8  O   -0.578603
     9  O   -0.529123
    10  H    0.035292
    11  H    0.030820
    12  H    0.043161
 Sum of Mulliken charges =  -0.00000

 Dipole moment (field-independent basis, Debye):
    X=              0.6975    Y=              4.2712    Z=             -1.7679  Tot=              4.6750

 Test job not archived.
 1\1\GINC-SE073\SP\RHF\Aug-CC-pVDZ\C2H4N2O4\OHZDE\08-Apr-2025\0\\#t hf
 aug-cc-pvdz iop(5/13=1,5/36=2,99/5=2) pseudo=read geom=check guess=(re
 ad,tcheck) scf=(maxcycle=1)\\title\\0,1\C,0,0.079224,0.500678,-0.47543
 9\N,0,-1.26177,-0.084539,-0.053247\O,0,-1.604106,0.092073,1.100206\O,0
 ,-1.882255,-0.67398,-0.918823\C,0,0.295351,1.888967,0.077598\N,0,1.172
 428,-0.470607,-0.001706\H,0,0.100387,0.442198,-1.561159\O,0,2.310445,-
 0.071297,-0.163128\O,0,0.830817,-1.543884,0.44626\H,0,0.215691,1.87980
 2,1.16398\H,0,-0.460131,2.563915,-0.328204\H,0,1.282788,2.238944,-0.21

 Normal termination of Gaussian 16 at Tue Apr  8 22:36:44 2025.
