 Gaussian 16, Revision C.01,

 ----------------------------------------------------------------------
 #t hf aug-cc-pvdz symm=none int=(grid=ultrafine) guess=(read,tcheck) s
 table=(opt,rrhf)
 ----------------------------------------------------------------------
 -----
 title
 -----
 Symbolic Z-matrix:
 Charge =  0 Multiplicity = 1

 SCF Done:  E(RHF) =  -680.285164613     A.U. after   16 cycles
 Normal termination of Gaussian 16 at Tue Apr  8 22:42:35 2025.
 Gaussian 16:  ES64L-G16RevC.01  3-Jul-2019

 ----------------------------------------------------------------------
 #t hf aug-cc-pvdz iop(5/13=1,5/36=2,99/5=2) pseudo=read geom=check gue
 ss=(read,tcheck) scf=(maxcycle=1)
 ----------------------------------------------------------------------
 -----
 title
 -----
 Structure from the checkpoint file:  "BDE49_expt_1424_mol1.chk"
 Charge =  0 Multiplicity = 1

                         Standard orientation:
 ---------------------------------------------------------------------
 Center     Atomic      Atomic             Coordinates (Angstroms)
 Number     Number       Type             X           Y           Z
 ---------------------------------------------------------------------
      1          6           0       -0.793142    0.024955   -0.030814
      2          6           0       -0.202412    1.294414   -0.020065
      3          6           0        1.173963    1.422994   -0.006667
      4          6           0        0.015104   -1.106049   -0.026404
      5          6           0        1.403782   -0.987509   -0.013438
      6          6           0        1.989739    0.281496   -0.001843
      7          1           0       -0.436365   -2.089759   -0.039978
      8          1           0        2.009797   -1.882809   -0.014718
      9          8           0        3.326885    0.515357    0.010679
     10          6           0        4.215554   -0.596083    0.014564
     11          1           0        5.217927   -0.172315    0.025925
     12          1           0        4.091796   -1.210088   -0.883876
     13          1           0        4.074633   -1.217549    0.905299
     14          1           0       -0.826351    2.179729   -0.031224
     15          1           0        1.649360    2.395829   -0.002548
     16          6           0       -2.286552   -0.096271    0.001028
     17          9           0       -2.885717    0.806327   -0.811003
     18          9           0       -2.789858    0.119709    1.242180
     19          9           0       -2.712435   -1.320879   -0.380340
 ---------------------------------------------------------------------

 SCF Done:  E(RHF) =  -680.510390487     A.U. after    2 cycles

 The electronic state is 1-A.
 Alpha  occ. eigenvalues --  -26.15907 -26.15595 -26.15209 -20.61713 -11.52227
 Alpha  occ. eigenvalues --  -11.33502 -11.31064 -11.27550 -11.27338 -11.26787
 Alpha  occ. eigenvalues --  -11.25911 -11.25556  -1.74949  -1.68166  -1.67598
 Alpha  occ. eigenvalues --   -1.38788  -1.17069  -1.07584  -1.03850  -1.00483
 Alpha  occ. eigenvalues --   -0.95779  -0.88299  -0.87248  -0.86602  -0.84651
 Alpha  occ. eigenvalues --   -0.80428  -0.76426  -0.76250  -0.74321  -0.72094
 Alpha  occ. eigenvalues --   -0.71596  -0.70623  -0.68972  -0.68122  -0.67326
 Alpha  occ. eigenvalues --   -0.63945  -0.61599  -0.60302  -0.55865  -0.55001
 Alpha  occ. eigenvalues --   -0.54610  -0.50823  -0.49866  -0.36523  -0.34358
 Alpha virt. eigenvalues --    0.02792   0.03875   0.04309   0.05257   0.05805
 Alpha virt. eigenvalues --    0.06090   0.08410   0.08945   0.09052   0.09271
 Alpha virt. eigenvalues --    0.09478   0.10563   0.12207   0.12586   0.13372

 Mulliken charges:
               1
     1  C    1.053000
     2  C   -0.045298
     3  C    0.777267
     4  C    0.023303
     5  C    0.753120
     6  C    0.380829
     7  H   -0.555482
     8  H   -0.710735
     9  O   -0.675741
    10  C    0.835883
    11  H   -0.300884
    12  H   -0.082624
    13  H   -0.083954
    14  H   -0.554798
    15  H   -0.571823
    16  C    0.754668
    17  F   -0.338918
    18  F   -0.338447
    19  F   -0.319366
 Sum of Mulliken charges =  -0.00000

 Dipole moment (field-independent basis, Debye):
    X=              4.2431    Y=             -1.1245    Z=             -0.0757  Tot=              4.3903

 Test job not archived.
 1\1\GINC-SE095\SP\RHF\Aug-CC-pVDZ\C8H7F3O1\OHZDE\08-Apr-2025\0\\#t hf
 aug-cc-pvdz iop(5/13=1,5/36=2,99/5=2) pseudo=read geom=check guess=(re
 ad,tcheck) scf=(maxcycle=1)\\title\\0,1\C,0,-0.793142,0.024955,-0.0308
 14\C,0,-0.202412,1.294414,-0.020065\C,0,1.173963,1.422994,-0.006667\C,
 0,0.015104,-1.106049,-0.026404\C,0,1.403782,-0.987509,-0.013438\C,0,1.
 989739,0.281496,-0.001843\H,0,-0.436365,-2.089759,-0.039978\H,0,2.0097
 97,-1.882809,-0.014718\O,0,3.326885,0.515357,0.010679\C,0,4.215554,-0.
 596083,0.014564\H,0,5.217927,-0.172315,0.025925\H,0,4.091796,-1.210088

 Normal termination of Gaussian 16 at Tue Apr  8 22:42:47 2025.
