 Gaussian 16, Revision C.01,

 ----------------------------------------------------------------------
 #t hf aug-cc-pvdz symm=none int=(grid=ultrafine) guess=(read,tcheck) s
 table=(opt,rrhf)
 ----------------------------------------------------------------------
 -----
 title
 -----
 Symbolic Z-matrix:
 Charge =  0 Multiplicity = 1

 SCF Done:  E(RHF) =  -492.237607680     A.U. after   18 cycles
 Normal termination of Gaussian 16 at Wed Apr  9 00:51:56 2025.
 Gaussian 16:  ES64L-G16RevC.01  3-Jul-2019

 ----------------------------------------------------------------------
 #t hf aug-cc-pvdz iop(5/13=1,5/36=2,99/5=2) pseudo=read geom=check gue
 ss=(read,tcheck) scf=(maxcycle=1)
 ----------------------------------------------------------------------
 -----
 title
 -----
 Structure from the checkpoint file:  "BDE49_nonexpt_963_mol1.chk"
 Charge =  0 Multiplicity = 1

                         Standard orientation:
 ---------------------------------------------------------------------
 Center     Atomic      Atomic             Coordinates (Angstroms)
 Number     Number       Type             X           Y           Z
 ---------------------------------------------------------------------
      1          9           0        2.424829   -1.232998    0.000000
      2          7           0        1.499268   -0.246660    0.000000
      3          7           0        1.896617    1.028136    0.000001
      4          7           0        0.824503    1.759877   -0.000001
      5          6           0        0.150263   -0.414162    0.000000
      6          6           0       -0.276901    0.928237    0.000000
      7          6           0       -1.649080    1.222013    0.000000
      8          1           0       -1.987643    2.250465    0.000000
      9          6           0       -2.528052    0.156632    0.000000
     10          1           0       -3.595187    0.343161    0.000000
     11          6           0       -2.071579   -1.184695    0.000000
     12          1           0       -2.802240   -1.984960    0.000000
     13          6           0       -0.726201   -1.503887    0.000000
     14          1           0       -0.371795   -2.525979    0.000000
 ---------------------------------------------------------------------

 SCF Done:  E(RHF) =  -492.383455933     A.U. after    2 cycles

 The electronic state is 1-A.
 Alpha  occ. eigenvalues --  -26.21516 -15.81803 -15.75202 -15.69212 -11.32634
 Alpha  occ. eigenvalues --  -11.29491 -11.28118 -11.27920 -11.27812 -11.26748
 Alpha  occ. eigenvalues --   -1.74105  -1.42393  -1.18938  -1.17142  -1.06976
 Alpha  occ. eigenvalues --   -1.04016  -0.91625  -0.89693  -0.87637  -0.82785
 Alpha  occ. eigenvalues --   -0.79743  -0.77692  -0.72244  -0.67629  -0.66106
 Alpha  occ. eigenvalues --   -0.65817  -0.64293  -0.56661  -0.56027  -0.52954
 Alpha  occ. eigenvalues --   -0.51401  -0.46055  -0.45560  -0.35470  -0.34404
 Alpha virt. eigenvalues --    0.02722   0.03509   0.04822   0.05759   0.05901
 Alpha virt. eigenvalues --    0.09119   0.10702   0.10966   0.11095   0.12059
 Alpha virt. eigenvalues --    0.12969   0.13190   0.13508   0.13668   0.14077

 Mulliken charges:
               1
     1  F   -0.372247
     2  N   -0.028961
     3  N   -0.174848
     4  N   -0.607525
     5  C    0.374593
     6  C   -0.017309
     7  C    0.872348
     8  H   -0.441289
     9  C    0.565740
    10  H   -0.450424
    11  C    0.591263
    12  H   -0.434924
    13  C    0.562229
    14  H   -0.438645
 Sum of Mulliken charges =  -0.00000

 Dipole moment (field-independent basis, Debye):
    X=             -3.2275    Y=             -2.2502    Z=              0.0000  Tot=              3.9345

 Test job not archived.
 1\1\GINC-SE095\SP\RHF\Aug-CC-pVDZ\C6H4F1N3\OHZDE\09-Apr-2025\0\\#t hf
 aug-cc-pvdz iop(5/13=1,5/36=2,99/5=2) pseudo=read geom=check guess=(re
 ad,tcheck) scf=(maxcycle=1)\\title\\0,1\F,0,2.424829,-1.232998,0.\N,0,
 1.499268,-0.24666,0.\N,0,1.896617,1.028136,0.000001\N,0,0.824503,1.759
 877,-0.000001\C,0,0.150263,-0.414162,0.\C,0,-0.276901,0.928237,0.\C,0,
 -1.64908,1.222013,0.\H,0,-1.987643,2.250465,0.\C,0,-2.528052,0.156632,
 0.\H,0,-3.595187,0.343162,0.\C,0,-2.071579,-1.184695,0.\H,0,-2.80224,-
 1.98496,0.\C,0,-0.726201,-1.503887,0.\H,0,-0.371795,-2.525979,0.\\Vers

 Normal termination of Gaussian 16 at Wed Apr  9 00:52:03 2025.
