 Gaussian 16, Revision C.01,

 ----------------------------------------------------------------------
 #t hf aug-cc-pvdz symm=none int=(grid=ultrafine) guess=(read,tcheck) s
 table=opt
 ----------------------------------------------------------------------
 -----
 title
 -----
 Symbolic Z-matrix:
 Charge =  0 Multiplicity = 2

 SCF Done:  E(UHF) =  -429.872540219     A.U. after   16 cycles
 Normal termination of Gaussian 16 at Wed Apr  9 00:12:40 2025.
 Gaussian 16:  ES64L-G16RevC.01  3-Jul-2019

 ----------------------------------------------------------------------
 #t hf aug-cc-pvdz iop(5/13=1,5/36=2,99/5=2) pseudo=read geom=check gue
 ss=(read,tcheck) scf=(maxcycle=1)
 ----------------------------------------------------------------------
 -----
 title
 -----
 Structure from the checkpoint file:  "BDE49_nonexpt_2456_mol2.chk"
 Charge =  0 Multiplicity = 2

                         Standard orientation:
 ---------------------------------------------------------------------
 Center     Atomic      Atomic             Coordinates (Angstroms)
 Number     Number       Type             X           Y           Z
 ---------------------------------------------------------------------
      1         14           0        1.492422   -0.167764   -0.063428
      2          5           0       -0.501638    0.112839    0.007254
      3          1           0        2.076151   -1.461817    0.361079
      4          1           0        2.383143    0.957227    0.326771
      5          8           0       -1.020641    1.374880    0.008556
      6          6           0       -1.508410   -1.093812    0.005232
      7          1           0       -0.368041    2.081301    0.022801
      8          1           0       -1.425055   -1.666324    0.937094
      9          1           0       -1.291511   -1.803226   -0.800879
     10          1           0       -2.544823   -0.758831   -0.094988
 ---------------------------------------------------------------------

 SCF Done:  E(UHF) =  -429.937960364     A.U. after    2 cycles

 The electronic state is 2-A.
 Alpha  occ. eigenvalues --  -69.05577 -20.59496 -11.20647  -7.64609  -6.81257
 Alpha  occ. eigenvalues --   -3.92671  -3.91754  -3.91677  -1.33628  -0.94608
 Alpha  occ. eigenvalues --   -0.77244  -0.71842  -0.62326  -0.58015  -0.56104
 Alpha  occ. eigenvalues --   -0.53756  -0.52717  -0.48337  -0.41218  -0.30379
 Alpha virt. eigenvalues --    0.03138   0.04736   0.05092   0.05725   0.06541
 Alpha virt. eigenvalues --    0.07414   0.07902   0.08245   0.08571   0.09568
 Alpha virt. eigenvalues --    0.10313   0.10738   0.11383   0.13124   0.16314

  Beta  occ. eigenvalues --  -69.05053 -20.59395 -11.20651  -7.64669  -6.80527
  Beta  occ. eigenvalues --   -3.91361  -3.91313  -3.90490  -1.33377  -0.94556
  Beta  occ. eigenvalues --   -0.77150  -0.68236  -0.61412  -0.57300  -0.55962
  Beta  occ. eigenvalues --   -0.53347  -0.52638  -0.48190  -0.40463
  Beta virt. eigenvalues --    0.02568   0.03293   0.04857   0.05122   0.06325
  Beta virt. eigenvalues --    0.06621   0.07569   0.08147   0.09032   0.09802
  Beta virt. eigenvalues --    0.09821   0.10445   0.11175   0.11695   0.16129

 Mulliken charges and spin densities:
               1          2
     1  Si  -0.101002   1.076001
     2  B    0.596128  -0.003621
     3  H   -0.006470  -0.052779
     4  H   -0.054532  -0.055273
     5  O   -0.476637   0.037118
     6  C    0.455406   0.002767
     7  H    0.229590  -0.002957
     8  H   -0.151237   0.001291
     9  H   -0.166627  -0.001854
    10  H   -0.324619  -0.000694
 Sum of Mulliken charges =  -0.00000   1.00000

 Dipole moment (field-independent basis, Debye):
    X=              0.6058    Y=              0.2935    Z=              0.1702  Tot=              0.6943
                          Isotropic Fermi Contact Couplings
        Atom                 a.u.       MegaHertz       Gauss      10(-4) cm-1
     1  Si(29)             0.32375    -287.72678    -102.66807     -95.97532
     2  B(11)             -0.01166     -16.71863      -5.96562      -5.57673
     3  H(1)              -0.01126     -50.32565     -17.95744     -16.78683
     4  H(1)              -0.01071     -47.87756     -17.08390     -15.97023
     5  O(17)              0.01077      -6.52701      -2.32900      -2.17718
     6  C(13)             -0.00225      -2.52762      -0.90192      -0.84312
     7  H(1)              -0.00067      -3.00084      -1.07077      -1.00097
     8  H(1)               0.00137       6.10353       2.17789       2.03592

 1\1\GINC-SE253\SP\UHF\Aug-CC-pVDZ\C1H6B1O1Si1(2)\OHZDE\09-Apr-2025\0\\
 #t hf aug-cc-pvdz iop(5/13=1,5/36=2,99/5=2) pseudo=read geom=check gue
 ss=(read,tcheck) scf=(maxcycle=1)\\title\\0,2\Si,0,1.492422,-0.167764,
 -0.063428\B,0,-0.501638,0.112839,0.007254\H,0,2.076151,-1.461817,0.361
 079\H,0,2.383143,0.957226,0.326771\O,0,-1.020641,1.37488,0.008556\C,0,
 -1.50841,-1.093812,0.005232\H,0,-0.368041,2.081301,0.022801\H,0,-1.425
 055,-1.666324,0.937094\H,0,-1.291511,-1.803226,-0.800879\H,0,-2.544823
 ,-0.758831,-0.094988\\Version=ES64L-G16RevC.01\State=2-A\HF=-429.93796

 Normal termination of Gaussian 16 at Wed Apr  9 00:12:44 2025.
