 Gaussian 16, Revision C.01,

 ----------------------------------------------------------------------
 #t hf aug-cc-pvdz symm=none int=(grid=ultrafine) guess=(read,tcheck) s
 table=opt
 ----------------------------------------------------------------------
 -----
 title
 -----
 Symbolic Z-matrix:
 Charge =  0 Multiplicity = 2

 SCF Done:  E(UHF) =  -230.398763913     A.U. after   21 cycles
 Normal termination of Gaussian 16 at Tue Apr  8 22:41:42 2025.
 Gaussian 16:  ES64L-G16RevC.01  3-Jul-2019

 ----------------------------------------------------------------------
 #t hf aug-cc-pvdz iop(5/13=1,5/36=2,99/5=2) pseudo=read geom=check gue
 ss=(read,tcheck) scf=(maxcycle=1)
 ----------------------------------------------------------------------
 -----
 title
 -----
 Structure from the checkpoint file:  "BDE49_expt_1445_mol2.chk"
 Charge =  0 Multiplicity = 2

                         Standard orientation:
 ---------------------------------------------------------------------
 Center     Atomic      Atomic             Coordinates (Angstroms)
 Number     Number       Type             X           Y           Z
 ---------------------------------------------------------------------
      1          6           0       -1.219210   -0.101172   -0.378018
      2          8           0       -2.249459   -0.473167    0.061190
      3          6           0       -0.180927    0.795771    0.285874
      4          6           0        1.240848    0.574744   -0.238049
      5          1           0       -0.249385    0.651341    1.371834
      6          1           0       -0.518003    1.817071    0.069010
      7          6           0        1.795516   -0.810478    0.103201
      8          1           0        1.890100    1.348952    0.182520
      9          1           0        1.242978    0.718521   -1.323163
     10          1           0        1.828961   -0.967844    1.185750
     11          1           0        2.809658   -0.935803   -0.283788
     12          1           0        1.174003   -1.600093   -0.329732
 ---------------------------------------------------------------------

 SCF Done:  E(UHF) =  -230.472610468     A.U. after    2 cycles

 The electronic state is 2-A.
 Alpha  occ. eigenvalues --  -20.61016 -11.34939 -11.27383 -11.25203 -11.23739
 Alpha  occ. eigenvalues --   -1.40595  -1.08749  -0.97597  -0.84969  -0.77099
 Alpha  occ. eigenvalues --   -0.68004  -0.67157  -0.64770  -0.59758  -0.57934
 Alpha  occ. eigenvalues --   -0.56029  -0.50815  -0.50271  -0.49944  -0.36522
 Alpha virt. eigenvalues --    0.03227   0.04299   0.04601   0.05430   0.06842
 Alpha virt. eigenvalues --    0.07337   0.07480   0.09384   0.11076   0.12111
 Alpha virt. eigenvalues --    0.13806   0.14392   0.15037   0.15286   0.15773

  Beta  occ. eigenvalues --  -20.59901 -11.33040 -11.26814 -11.25234 -11.23732
  Beta  occ. eigenvalues --   -1.37738  -1.07733  -0.96153  -0.83865  -0.73140
  Beta  occ. eigenvalues --   -0.66078  -0.64350  -0.60108  -0.58260  -0.56332
  Beta  occ. eigenvalues --   -0.53201  -0.50220  -0.49973  -0.48780
  Beta virt. eigenvalues --    0.02928   0.04272   0.04643   0.05077   0.06748
  Beta virt. eigenvalues --    0.07350   0.07440   0.09199   0.10122   0.11940
  Beta virt. eigenvalues --    0.13314   0.14000   0.14420   0.15138   0.15423

 Mulliken charges and spin densities:
               1          2
     1  C    0.117285   0.721644
     2  O   -0.359048   0.163725
     3  C    0.122674   0.124640
     4  C    0.170777  -0.021072
     5  H   -0.060635   0.027779
     6  H    0.046844  -0.010540
     7  C    0.347735   0.009989
     8  H   -0.059661  -0.004304
     9  H   -0.111986  -0.003326
    10  H   -0.055349  -0.001593
    11  H   -0.068591   0.001889
    12  H   -0.090044  -0.008831
 Sum of Mulliken charges =  -0.00000   1.00000

 Dipole moment (field-independent basis, Debye):
    X=              2.9753    Y=              1.5760    Z=              0.1389  Tot=              3.3698
                          Isotropic Fermi Contact Couplings
        Atom                 a.u.       MegaHertz       Gauss      10(-4) cm-1
     1  C(13)              0.32491     365.25578     130.33235     121.83622
     2  O(17)              0.11423     -69.24695     -24.70903     -23.09830
     3  C(13)              0.11416     128.33861      45.79441      42.80915
     4  C(13)             -0.00434      -4.87829      -1.74070      -1.62722
     5  H(1)               0.00552      24.68750       8.80911       8.23486
     6  H(1)              -0.00258     -11.52013      -4.11067      -3.84270
     7  C(13)              0.00055       0.62184       0.22189       0.20742
     8  H(1)               0.00001       0.04715       0.01683       0.01573

 Normal termination of Gaussian 16 at Tue Apr  8 22:41:45 2025.
