 Gaussian 16, Revision C.01,

 ----------------------------------------------------------------------
 #t hf aug-cc-pvdz symm=none int=(grid=ultrafine) guess=(read,tcheck) s
 table=opt
 ----------------------------------------------------------------------
 -----
 title
 -----
 Symbolic Z-matrix:
 Charge =  0 Multiplicity = 2

 SCF Done:  E(UHF) =  -404.564663918     A.U. after   15 cycles
 Normal termination of Gaussian 16 at Tue Apr  8 23:49:23 2025.
 Gaussian 16:  ES64L-G16RevC.01  3-Jul-2019

 ----------------------------------------------------------------------
 #t hf aug-cc-pvdz iop(5/13=1,5/36=2,99/5=2) pseudo=read geom=check gue
 ss=(read,tcheck) scf=(maxcycle=1)
 ----------------------------------------------------------------------
 -----
 title
 -----
 Structure from the checkpoint file:  "BDE49_nonexpt_1884_mol2.chk"
 Charge =  0 Multiplicity = 2

                         Standard orientation:
 ---------------------------------------------------------------------
 Center     Atomic      Atomic             Coordinates (Angstroms)
 Number     Number       Type             X           Y           Z
 ---------------------------------------------------------------------
      1         14           0       -1.113731    0.110732    0.110225
      2          8           0        0.400043   -0.523867   -0.082051
      3          1           0       -1.232337    1.387774   -0.660551
      4          1           0       -2.042695   -0.915176   -0.428693
      5          6           0        1.629851    0.182514    0.015375
      6          1           0        2.408469   -0.439168   -0.429467
      7          1           0        1.889049    0.374838    1.061855
      8          1           0        1.590307    1.137333   -0.522141
 ---------------------------------------------------------------------

 SCF Done:  E(UHF) =  -404.633427266     A.U. after    2 cycles

 The electronic state is 2-A.
 Alpha  occ. eigenvalues --  -69.09986 -20.57172 -11.29649  -6.84852  -3.96091
 Alpha  occ. eigenvalues --   -3.95408  -3.95275  -1.31584  -0.93704  -0.72876
 Alpha  occ. eigenvalues --   -0.64974  -0.63816  -0.60722  -0.50914  -0.49649
 Alpha  occ. eigenvalues --   -0.47120  -0.32479
 Alpha virt. eigenvalues --    0.03525   0.04941   0.05609   0.05933   0.06818
 Alpha virt. eigenvalues --    0.07964   0.08285   0.09348   0.12401   0.13931
 Alpha virt. eigenvalues --    0.15562   0.15896   0.17024   0.18388   0.19925

  Beta  occ. eigenvalues --  -69.09467 -20.56718 -11.29673  -6.84039  -3.95097
  Beta  occ. eigenvalues --   -3.94949  -3.94139  -1.30428  -0.93497  -0.70903
  Beta  occ. eigenvalues --   -0.63785  -0.63331  -0.58126  -0.50105  -0.47401
  Beta  occ. eigenvalues --   -0.45876
  Beta virt. eigenvalues --    0.03195   0.03968   0.05233   0.05680   0.06709
  Beta virt. eigenvalues --    0.07055   0.08311   0.09527   0.10333   0.12866
  Beta virt. eigenvalues --    0.14509   0.16246   0.16562   0.17515   0.19930

 Mulliken charges and spin densities:
               1          2
     1  Si   0.611326   0.892524
     2  O   -0.866528   0.016277
     3  H   -0.054932   0.056127
     4  H   -0.018681   0.036085
     5  C    0.806683  -0.007295
     6  H   -0.198815  -0.001300
     7  H   -0.114909   0.001843
     8  H   -0.164142   0.005738
 Sum of Mulliken charges =   0.00000   1.00000

 Dipole moment (field-independent basis, Debye):
    X=              0.8065    Y=              1.0417    Z=              0.2427  Tot=              1.3396
                          Isotropic Fermi Contact Couplings
        Atom                 a.u.       MegaHertz       Gauss      10(-4) cm-1
     1  Si(29)             0.59851    -531.90909    -189.79839    -177.42577
     2  O(17)              0.05685     -34.46238     -12.29704     -11.49541
     3  H(1)               0.01615      72.20358      25.76403      24.08452
     4  H(1)               0.01390      62.13809      22.17241      20.72703
     5  C(13)             -0.00359      -4.03898      -1.44121      -1.34726
     6  H(1)              -0.00001      -0.04606      -0.01644      -0.01536
     7  H(1)               0.00008       0.35394       0.12629       0.11806
     8  H(1)               0.00017       0.74224       0.26485       0.24758

 Normal termination of Gaussian 16 at Tue Apr  8 23:49:25 2025.
