 Gaussian 16, Revision C.01,

 ----------------------------------------------------------------------
 #t hf aug-cc-pvdz symm=none int=(grid=ultrafine) guess=(read,tcheck) s
 table=(opt,rrhf)
 ----------------------------------------------------------------------
 -----
 title
 -----
 Symbolic Z-matrix:
 Charge =  0 Multiplicity = 1

 SCF Done:  E(RHF) =  -670.903830787     A.U. after   15 cycles
 Normal termination of Gaussian 16 at Tue Apr  8 23:30:36 2025.
 Gaussian 16:  ES64L-G16RevC.01  3-Jul-2019

 ----------------------------------------------------------------------
 #t hf aug-cc-pvdz iop(5/13=1,5/36=2,99/5=2) pseudo=read geom=check gue
 ss=(read,tcheck) scf=(maxcycle=1)
 ----------------------------------------------------------------------
 -----
 title
 -----
 Structure from the checkpoint file:  "BDE49_nonexpt_1417_mol1.chk"
 Charge =  0 Multiplicity = 1

                         Standard orientation:
 ---------------------------------------------------------------------
 Center     Atomic      Atomic             Coordinates (Angstroms)
 Number     Number       Type             X           Y           Z
 ---------------------------------------------------------------------
      1          6           0        1.183031   -1.211462   -0.000007
      2          6           0       -0.211168   -1.206997   -0.000010
      3          6           0       -0.933908   -0.008329   -0.000003
      4          6           0        1.848010    0.002933   -0.000002
      5          6           0        1.168479    1.214460    0.000001
      6          6           0       -0.221486    1.200466    0.000001
      7          1           0        1.749849   -2.134124   -0.000012
      8          1           0       -0.741681   -2.152700   -0.000020
      9          1           0       -0.755952    2.143425    0.000005
     10          1           0        1.729193    2.141085    0.000003
     11         15           0       -2.779402   -0.114545   -0.000004
     12          9           0        3.197544    0.013064   -0.000001
     13          1           0       -3.033015    0.828359   -1.030546
     14          1           0       -3.033007    0.828115    1.030765
 ---------------------------------------------------------------------

 SCF Done:  E(RHF) =  -671.027940266     A.U. after    2 cycles

 The electronic state is 1-A.
 Alpha  occ. eigenvalues --  -81.26478 -26.14166 -11.35043 -11.27006 -11.26889
 Alpha  occ. eigenvalues --  -11.26206 -11.26188 -11.26042  -7.76816  -4.90867
 Alpha  occ. eigenvalues --   -4.90719  -4.90540  -1.68044  -1.16536  -1.03570
 Alpha  occ. eigenvalues --   -1.03484  -0.87952  -0.87142  -0.79027  -0.77444
 Alpha  occ. eigenvalues --   -0.75604  -0.74909  -0.65741  -0.63314  -0.62699
 Alpha  occ. eigenvalues --   -0.61377  -0.54535  -0.51947  -0.50340  -0.49324
 Alpha  occ. eigenvalues --   -0.36558  -0.36234  -0.35164
 Alpha virt. eigenvalues --    0.03220   0.04050   0.04549   0.06025   0.06349
 Alpha virt. eigenvalues --    0.06463   0.08148   0.08312   0.09922   0.10472
 Alpha virt. eigenvalues --    0.11081   0.11371   0.12776   0.12973   0.14056

 Mulliken charges:
               1
     1  C    0.500053
     2  C    0.349620
     3  C   -0.259087
     4  C    0.237650
     5  C    0.447666
     6  C    0.791335
     7  H   -0.410377
     8  H   -0.477773
     9  H   -0.490104
    10  H   -0.417738
    11  P   -0.176763
    12  F   -0.334894
    13  H    0.120196
    14  H    0.120216
 Sum of Mulliken charges =  -0.00000

 Dipole moment (field-independent basis, Debye):
    X=             -1.0228    Y=              0.6115    Z=              0.0001  Tot=              1.1916

 Test job not archived.
 1\1\GINC-SE364\SP\RHF\Aug-CC-pVDZ\C6H6F1P1\OHZDE\08-Apr-2025\0\\#t hf
 aug-cc-pvdz iop(5/13=1,5/36=2,99/5=2) pseudo=read geom=check guess=(re
 ad,tcheck) scf=(maxcycle=1)\\title\\0,1\C,0,1.183031,-1.211462,-0.0000
 07\C,0,-0.211168,-1.206997,-0.00001\C,0,-0.933908,-0.008329,-0.000003\
 C,0,1.84801,0.002933,-0.000002\C,0,1.168479,1.21446,0.000001\C,0,-0.22
 1486,1.200466,0.000001\H,0,1.749849,-2.134124,-0.000012\H,0,-0.741681,
 -2.1527,-0.00002\H,0,-0.755952,2.143425,0.000005\H,0,1.729193,2.141085
 ,0.000003\P,0,-2.779402,-0.114545,-0.000004\F,0,3.197544,0.013064,-0.0

 Normal termination of Gaussian 16 at Tue Apr  8 23:30:42 2025.
