 Gaussian 16, Revision C.01,

 ----------------------------------------------------------------------
 #t hf aug-cc-pvdz symm=none int=(grid=ultrafine) guess=(read,tcheck) s
 table=(opt,rrhf)
 ----------------------------------------------------------------------
 -----
 title
 -----
 Symbolic Z-matrix:
 Charge =  0 Multiplicity = 1

 SCF Done:  E(RHF) =  -824.766002679     A.U. after   11 cycles
 Normal termination of Gaussian 16 at Tue Apr  8 23:48:19 2025.
 Gaussian 16:  ES64L-G16RevC.01  3-Jul-2019

 ----------------------------------------------------------------------
 #t hf aug-cc-pvdz iop(5/13=1,5/36=2,99/5=2) pseudo=read geom=check gue
 ss=(read,tcheck) scf=(maxcycle=1)
 ----------------------------------------------------------------------
 -----
 title
 -----
 Structure from the checkpoint file:  "BDE49_nonexpt_1837_mol1.chk"
 Charge =  0 Multiplicity = 1

                         Standard orientation:
 ---------------------------------------------------------------------
 Center     Atomic      Atomic             Coordinates (Angstroms)
 Number     Number       Type             X           Y           Z
 ---------------------------------------------------------------------
      1         14           0        0.954509   -0.000000   -0.404443
      2          6           0       -0.913213    0.000000    0.011378
      3          9           0       -1.157597   -0.000003    1.338098
      4          9           0        1.593837   -1.291436    0.260924
      5          9           0       -1.519363   -1.091001   -0.516579
      6          9           0        1.593838    1.291436    0.260923
      7          9           0       -1.519362    1.091004   -0.516574
      8          1           0        1.193964   -0.000000   -1.847193
 ---------------------------------------------------------------------

 SCF Done:  E(RHF) =  -825.003046723     A.U. after    2 cycles

 The electronic state is 1-A.
 Alpha  occ. eigenvalues --  -69.21015 -26.18143 -26.18134 -26.18048 -26.15666
 Alpha  occ. eigenvalues --  -26.15664 -11.52670  -6.95170  -4.06181  -4.06056
 Alpha  occ. eigenvalues --   -4.05902  -1.77179  -1.70355  -1.70335  -1.69225
 Alpha  occ. eigenvalues --   -1.68063  -1.04197  -0.90365  -0.88877  -0.88871
 Alpha  occ. eigenvalues --   -0.85464  -0.81262  -0.79001  -0.78488  -0.77930
 Alpha  occ. eigenvalues --   -0.77524  -0.75791  -0.74496  -0.74282  -0.73951
 Alpha  occ. eigenvalues --   -0.73128  -0.62983  -0.54447
 Alpha virt. eigenvalues --    0.04306   0.05171   0.05328   0.05800   0.09431
 Alpha virt. eigenvalues --    0.10759   0.11399   0.12008   0.14938   0.15733
 Alpha virt. eigenvalues --    0.19065   0.19550   0.22121   0.22612   0.24001

 Mulliken charges:
               1
     1  Si   1.829649
     2  C    0.757672
     3  F   -0.335356
     4  F   -0.751513
     5  F   -0.348008
     6  F   -0.751513
     7  F   -0.348008
     8  H   -0.052921
 Sum of Mulliken charges =  -0.00000

 Dipole moment (field-independent basis, Debye):
    X=              1.1192    Y=             -0.0000    Z=             -1.8629  Tot=              2.1733

 Test job not archived.
 1\1\GINC-SE419\SP\RHF\Aug-CC-pVDZ\C1H1F5Si1\OHZDE\08-Apr-2025\0\\#t hf
  aug-cc-pvdz iop(5/13=1,5/36=2,99/5=2) pseudo=read geom=check guess=(r
 ead,tcheck) scf=(maxcycle=1)\\title\\0,1\Si,0,0.954509,0.,-0.404443\C,
 0,-0.913213,0.,0.011378\F,0,-1.157597,-0.000003,1.338098\F,0,1.593837,
 -1.291436,0.260924\F,0,-1.519363,-1.091001,-0.516579\F,0,1.593838,1.29
 1436,0.260923\F,0,-1.519362,1.091004,-0.516574\H,0,1.193964,0.,-1.8471
 93\\Version=ES64L-G16RevC.01\State=1-A\HF=-825.0030467\RMSD=5.717e-03\
 Dipole=0.4403383,0.,-0.732926\Quadrupole=-0.9652066,-1.2745328,2.23973

 Normal termination of Gaussian 16 at Tue Apr  8 23:48:23 2025.
