 Gaussian 16, Revision C.01,

 ----------------------------------------------------------------------
 #t hf aug-cc-pvdz symm=none int=(grid=ultrafine) guess=(read,tcheck) s
 table=(opt,rrhf)
 ----------------------------------------------------------------------
 -----
 title
 -----
 Symbolic Z-matrix:
 Charge =  0 Multiplicity = 1

 SCF Done:  E(RHF) =  -784.657675390     A.U. after   15 cycles
 Normal termination of Gaussian 16 at Wed Apr  9 00:03:34 2025.
 Gaussian 16:  ES64L-G16RevC.01  3-Jul-2019

 ----------------------------------------------------------------------
 #t hf aug-cc-pvdz iop(5/13=1,5/36=2,99/5=2) pseudo=read geom=check gue
 ss=(read,tcheck) scf=(maxcycle=1)
 ----------------------------------------------------------------------
 -----
 title
 -----
 Structure from the checkpoint file:  "BDE49_nonexpt_2177_mol1.chk"
 Charge =  0 Multiplicity = 1

                         Standard orientation:
 ---------------------------------------------------------------------
 Center     Atomic      Atomic             Coordinates (Angstroms)
 Number     Number       Type             X           Y           Z
 ---------------------------------------------------------------------
      1         14           0       -1.841047    0.015070   -0.073667
      2          8           0       -1.850333    1.545969   -0.658539
      3          8           0       -1.535531   -1.132782   -1.216674
      4          1           0       -2.529700    1.777582   -1.296769
      5          6           0        0.871167    0.006074    0.682174
      6          6           0        1.528793   -1.200150    0.404828
      7          6           0        2.803068   -1.210628   -0.159802
      8          6           0        1.527048    1.203137    0.367669
      9          6           0        2.800364    1.194379   -0.195338
     10          6           0        3.444941   -0.012187   -0.462559
     11          1           0        1.029551    2.147104    0.561937
     12          1           0        3.290936    2.133872   -0.425411
     13          1           0        4.437551   -0.017834   -0.898196
     14          1           0        1.042919   -2.139526    0.650367
     15          1           0        3.296256   -2.156548   -0.355847
     16          6           0       -0.526191    0.008835    1.258949
     17          1           0       -0.684060    0.884771    1.894625
     18          1           0       -0.683309   -0.874909    1.885125
     19          1           0       -0.635515   -1.190408   -1.549861
     20          8           0       -3.342907   -0.346959    0.482835
     21          1           0       -3.654955   -1.241672    0.328862
 ---------------------------------------------------------------------

 SCF Done:  E(RHF) =  -784.859050749     A.U. after    2 cycles

 The electronic state is 1-A.
 Alpha  occ. eigenvalues --  -69.12918 -20.57080 -20.56921 -20.56887 -11.25991
 Alpha  occ. eigenvalues --  -11.24883 -11.24731 -11.24381 -11.24279 -11.24122
 Alpha  occ. eigenvalues --  -11.22696  -6.87085  -3.98116  -3.98109  -3.97922
 Alpha  occ. eigenvalues --   -1.32442  -1.29453  -1.29134  -1.14743  -1.04154
 Alpha  occ. eigenvalues --   -1.01061  -0.93197  -0.83128  -0.80667  -0.77272
 Alpha  occ. eigenvalues --   -0.73014  -0.71765  -0.69980  -0.64437  -0.63896
 Alpha  occ. eigenvalues --   -0.60957  -0.60087  -0.59168  -0.57926  -0.57219
 Alpha  occ. eigenvalues --   -0.55262  -0.54758  -0.53635  -0.52489  -0.51731
 Alpha  occ. eigenvalues --   -0.49551  -0.49265  -0.46423  -0.34323  -0.32581
 Alpha virt. eigenvalues --    0.02954   0.03800   0.04133   0.04996   0.05447
 Alpha virt. eigenvalues --    0.05735   0.06701   0.06824   0.07745   0.08004
 Alpha virt. eigenvalues --    0.08205   0.09743   0.09847   0.10743   0.10982

 Mulliken charges:
               1
     1  Si   2.476039
     2  O   -0.843979
     3  O   -0.833053
     4  H    0.119964
     5  C    0.624476
     6  C    0.629314
     7  C    0.135608
     8  C    0.509189
     9  C    0.248925
    10  C    0.671095
    11  H   -0.584024
    12  H   -0.447412
    13  H   -0.437769
    14  H   -0.623327
    15  H   -0.460119
    16  C    0.053257
    17  H   -0.331090
    18  H   -0.329435
    19  H    0.127952
    20  O   -0.855415
    21  H    0.149804
 Sum of Mulliken charges =   0.00000

 Dipole moment (field-independent basis, Debye):
    X=              0.5440    Y=             -0.9212    Z=             -0.6697  Tot=              1.2622

 Test job not archived.
 1\1\GINC-SE331\SP\RHF\Aug-CC-pVDZ\C7H10O3Si1\OHZDE\09-Apr-2025\0\\#t h
 f aug-cc-pvdz iop(5/13=1,5/36=2,99/5=2) pseudo=read geom=check guess=(
 read,tcheck) scf=(maxcycle=1)\\title\\0,1\Si,0,-1.841047,0.01507,-0.07
 3667\O,0,-1.850333,1.545969,-0.658539\O,0,-1.535531,-1.132782,-1.21667
 4\H,0,-2.5297,1.777582,-1.296769\C,0,0.871167,0.006074,0.682174\C,0,1.
 528793,-1.20015,0.404828\C,0,2.803068,-1.210628,-0.159802\C,0,1.527048
 ,1.203137,0.367669\C,0,2.800364,1.194379,-0.195338\C,0,3.444941,-0.012
 187,-0.462559\H,0,1.029551,2.147104,0.561937\H,0,3.290936,2.133872,-0.

 Normal termination of Gaussian 16 at Wed Apr  9 00:03:48 2025.
