 Gaussian 16, Revision C.01,

 ----------------------------------------------------------------------
 #t hf aug-cc-pvdz symm=none int=(grid=ultrafine) guess=(read,tcheck) s
 table=(opt,rrhf)
 ----------------------------------------------------------------------
 -----
 title
 -----
 Symbolic Z-matrix:
 Charge =  0 Multiplicity = 1

 SCF Done:  E(RHF) =  -899.561949468     A.U. after   12 cycles
 Normal termination of Gaussian 16 at Tue Apr  8 23:41:59 2025.
 Gaussian 16:  ES64L-G16RevC.01  3-Jul-2019

 ----------------------------------------------------------------------
 #t hf aug-cc-pvdz iop(5/13=1,5/36=2,99/5=2) pseudo=read geom=check gue
 ss=(read,tcheck) scf=(maxcycle=1)
 ----------------------------------------------------------------------
 -----
 title
 -----
 Structure from the checkpoint file:  "BDE49_nonexpt_1677_mol1.chk"
 Charge =  0 Multiplicity = 1

                         Standard orientation:
 ---------------------------------------------------------------------
 Center     Atomic      Atomic             Coordinates (Angstroms)
 Number     Number       Type             X           Y           Z
 ---------------------------------------------------------------------
      1         14           0       -0.930980    0.000000   -0.045508
      2         15           0        1.255419   -0.000000   -0.650560
      3          6           0        1.904633   -1.443430    0.340587
      4          1           0        1.733356   -1.338311    1.414852
      5          1           0        2.978387   -1.545418    0.166214
      6          1           0        1.420579   -2.360099   -0.002783
      7          8           0       -1.597715    1.384089   -0.666769
      8          6           0       -1.364402   -0.000002    1.760823
      9          1           0       -0.973027   -0.887800    2.262781
     10          1           0       -2.452646   -0.000003    1.871815
     11          1           0       -0.973030    0.887798    2.262782
     12          6           0        1.904633    1.443430    0.340587
     13          1           0        1.420580    2.360099   -0.002783
     14          1           0        2.978387    1.545417    0.166213
     15          1           0        1.733356    1.338312    1.414852
     16          1           0       -1.384623    1.626739   -1.571050
     17          8           0       -1.597716   -1.384088   -0.666772
     18          1           0       -1.384619   -1.626739   -1.571052
 ---------------------------------------------------------------------

 SCF Done:  E(RHF) =  -899.711173157     A.U. after    2 cycles

 The electronic state is 1-A.
 Alpha  occ. eigenvalues --  -81.23618 -69.10892 -20.56793 -20.56793 -11.23934
 Alpha  occ. eigenvalues --  -11.23933 -11.21396  -7.74099  -6.85297  -4.88101
 Alpha  occ. eigenvalues --   -4.88033  -4.87777  -3.96272  -3.96140  -3.96058
 Alpha  occ. eigenvalues --   -1.30727  -1.28917  -0.97949  -0.94102  -0.93471
 Alpha  occ. eigenvalues --   -0.76203  -0.71579  -0.70644  -0.61196  -0.59471
 Alpha  occ. eigenvalues --   -0.58815  -0.57177  -0.56269  -0.56185  -0.55565
 Alpha  occ. eigenvalues --   -0.55072  -0.54585  -0.51482  -0.48947  -0.45908
 Alpha  occ. eigenvalues --   -0.40738  -0.31426
 Alpha virt. eigenvalues --    0.03123   0.04227   0.04545   0.05042   0.06477
 Alpha virt. eigenvalues --    0.06622   0.06688   0.06838   0.07326   0.08751
 Alpha virt. eigenvalues --    0.09413   0.09597   0.09859   0.10569   0.10827

 Mulliken charges:
               1
     1  Si   2.339144
     2  P    0.010107
     3  C    0.331479
     4  H   -0.170598
     5  H   -0.196452
     6  H   -0.198758
     7  O   -0.868113
     8  C    0.425941
     9  H   -0.239919
    10  H   -0.249013
    11  H   -0.239914
    12  C    0.331478
    13  H   -0.198757
    14  H   -0.196451
    15  H   -0.170599
    16  H    0.079269
    17  O   -0.868113
    18  H    0.079270
 Sum of Mulliken charges =  -0.00000

 Dipole moment (field-independent basis, Debye):
    X=              1.5548    Y=              0.0000    Z=             -0.3239  Tot=              1.5882

 Test job not archived.
 1\1\GINC-SE043\SP\RHF\Aug-CC-pVDZ\C3H11O2P1Si1\OHZDE\08-Apr-2025\0\\#t
  hf aug-cc-pvdz iop(5/13=1,5/36=2,99/5=2) pseudo=read geom=check guess
 =(read,tcheck) scf=(maxcycle=1)\\title\\0,1\Si,0,-0.93098,0.,-0.045508
 \P,0,1.255419,0.,-0.65056\C,0,1.904633,-1.44343,0.340587\H,0,1.733356,
 -1.338311,1.414852\H,0,2.978387,-1.545417,0.166214\H,0,1.42058,-2.3600
 99,-0.002783\O,0,-1.597715,1.384089,-0.666769\C,0,-1.364402,-0.000002,
 1.760823\H,0,-0.973027,-0.8878,2.262781\H,0,-2.452646,-0.000004,1.8718
 15\H,0,-0.97303,0.887798,2.262782\C,0,1.904633,1.44343,0.340587\H,0,1.

 Normal termination of Gaussian 16 at Tue Apr  8 23:42:21 2025.
