 Gaussian 16, Revision C.01,

 ----------------------------------------------------------------------
 #t hf aug-cc-pvdz symm=none int=(grid=ultrafine) guess=(read,tcheck) s
 table=(opt,rrhf)
 ----------------------------------------------------------------------
 -----
 title
 -----
 Symbolic Z-matrix:
 Charge =  0 Multiplicity = 1

 SCF Done:  E(RHF) =  -626.144672929     A.U. after   16 cycles
 Normal termination of Gaussian 16 at Wed Apr  9 00:20:35 2025.
 Gaussian 16:  ES64L-G16RevC.01  3-Jul-2019

 ----------------------------------------------------------------------
 #t hf aug-cc-pvdz iop(5/13=1,5/36=2,99/5=2) pseudo=read geom=check gue
 ss=(read,tcheck) scf=(maxcycle=1)
 ----------------------------------------------------------------------
 -----
 title
 -----
 Structure from the checkpoint file:  "BDE49_nonexpt_2661_mol1.chk"
 Charge =  0 Multiplicity = 1

                         Standard orientation:
 ---------------------------------------------------------------------
 Center     Atomic      Atomic             Coordinates (Angstroms)
 Number     Number       Type             X           Y           Z
 ---------------------------------------------------------------------
      1          9           0        1.847629    0.569352    0.000001
      2         16           0        0.453213   -0.461159   -0.000000
      3          7           0       -1.100570   -0.242650   -0.000000
      4          8           0       -2.022010    0.494117   -0.000000
 ---------------------------------------------------------------------

 SCF Done:  E(RHF) =  -626.249505848     A.U. after    2 cycles

 The electronic state is 1-A.
 Alpha  occ. eigenvalues --  -93.71113 -26.12407 -20.70605 -15.87832  -8.99412
 Alpha  occ. eigenvalues --   -6.33675  -6.32954  -6.32684  -1.62916  -1.55261
 Alpha  occ. eigenvalues --   -1.19189  -0.89076  -0.80427  -0.75555  -0.72833
 Alpha  occ. eigenvalues --   -0.71214  -0.70344  -0.57783  -0.45579  -0.45143
 Alpha virt. eigenvalues --    0.02654   0.03011   0.07635   0.08907   0.10235
 Alpha virt. eigenvalues --    0.11355   0.13915   0.18040   0.18128   0.21055
 Alpha virt. eigenvalues --    0.24485   0.24917   0.25881   0.28463   0.29379

 Mulliken charges:
               1
     1  F   -0.602387
     2  S    1.040985
     3  N   -0.083157
     4  O   -0.355441
 Sum of Mulliken charges =  -0.00000

 Dipole moment (field-independent basis, Debye):
    X=             -0.9028    Y=             -1.6596    Z=             -0.0000  Tot=              1.8892

 Test job not archived.
 1\1\GINC-SE343\SP\RHF\Aug-CC-pVDZ\F1N1O1S1\OHZDE\09-Apr-2025\0\\#t hf
 aug-cc-pvdz iop(5/13=1,5/36=2,99/5=2) pseudo=read geom=check guess=(re
 ad,tcheck) scf=(maxcycle=1)\\title\\0,1\F,0,1.847629,0.569352,0.000001
 \S,0,0.453213,-0.461159,0.\N,0,-1.10057,-0.24265,0.\O,0,-2.02201,0.494
 117,0.\\Version=ES64L-G16RevC.01\State=1-A\HF=-626.2495058\RMSD=5.352e
 -03\Dipole=-0.3551759,-0.6529242,-0.0000005\Quadrupole=-3.6372124,1.42
 78148,2.2093975,-0.891655,-0.0000025,-0.0000004\PG=C01 [X(F1N1O1S1)]\\
 @

 Normal termination of Gaussian 16 at Wed Apr  9 00:20:36 2025.
