 Gaussian 16, Revision C.01,

 ----------------------------------------------------------------------
 #t hf aug-cc-pvdz symm=none int=(grid=ultrafine) guess=(read,tcheck) s
 table=(opt,rrhf)
 ----------------------------------------------------------------------
 -----
 title
 -----
 Symbolic Z-matrix:
 Charge =  0 Multiplicity = 1

 SCF Done:  E(RHF) =  -1332.74046162     A.U. after   12 cycles
 Normal termination of Gaussian 16 at Tue Apr  8 22:28:31 2025.
 Gaussian 16:  ES64L-G16RevC.01  3-Jul-2019

 ----------------------------------------------------------------------
 #t hf aug-cc-pvdz iop(5/13=1,5/36=2,99/5=2) pseudo=read geom=check gue
 ss=(read,tcheck) scf=(maxcycle=1)
 ----------------------------------------------------------------------
 -----
 title
 -----
 Structure from the checkpoint file:  "BDE49_expt_1024_mol1.chk"
 Charge =  0 Multiplicity = 1

                         Standard orientation:
 ---------------------------------------------------------------------
 Center     Atomic      Atomic             Coordinates (Angstroms)
 Number     Number       Type             X           Y           Z
 ---------------------------------------------------------------------
      1          6           0        1.621344   -0.180901   -0.024460
      2          9           0        1.855684    1.099082   -0.354022
      3          9           0        2.586786   -0.928073   -0.598557
      4          9           0        1.770270   -0.287608    1.316575
      5          6           0        0.257475   -0.682326   -0.468520
      6          6           0       -0.917787   -0.106994    0.311780
      7          1           0        0.265688   -1.763521   -0.317825
      8         17           0       -1.211160    1.624522   -0.060129
      9         17           0       -2.396205   -1.078052   -0.041019
     10          1           0        0.142056   -0.486993   -1.535261
     11          1           0       -0.763390   -0.168757    1.383835
 ---------------------------------------------------------------------

 SCF Done:  E(RHF) =  -1332.92146238     A.U. after    2 cycles

 The electronic state is 1-A.
 Alpha  occ. eigenvalues -- -103.68707-103.68316 -26.17907 -26.17743 -26.17586
 Alpha  occ. eigenvalues --  -11.54317 -11.40322 -11.30794 -10.71981 -10.71620
 Alpha  occ. eigenvalues --   -8.37699  -8.37387  -8.37378  -8.37338  -8.37022
 Alpha  occ. eigenvalues --   -8.37014  -1.77274  -1.70266  -1.70177  -1.23796
 Alpha  occ. eigenvalues --   -1.15210  -1.11200  -1.00241  -0.90598  -0.89255
 Alpha  occ. eigenvalues --   -0.88435  -0.82897  -0.78583  -0.78386  -0.74140
 Alpha  occ. eigenvalues --   -0.74042  -0.72858  -0.68482  -0.65124  -0.63090
 Alpha  occ. eigenvalues --   -0.59176  -0.57027  -0.49674  -0.49457  -0.47303
 Alpha  occ. eigenvalues --   -0.46889
 Alpha virt. eigenvalues --    0.03815   0.04727   0.05629   0.07290   0.08013
 Alpha virt. eigenvalues --    0.09134   0.11241   0.11516   0.11761   0.12443
 Alpha virt. eigenvalues --    0.14563   0.15136   0.16119   0.16720   0.17094

 Mulliken charges:
               1
     1  C    1.057902
     2  F   -0.297974
     3  F   -0.311412
     4  F   -0.349339
     5  C    0.221907
     6  C   -0.379667
     7  H    0.033956
     8  Cl  -0.048314
     9  Cl  -0.069182
    10  H    0.036576
    11  H    0.105546
 Sum of Mulliken charges =  -0.00000

 Dipole moment (field-independent basis, Debye):
    X=             -0.5249    Y=             -1.4579    Z=             -0.1754  Tot=              1.5594

 Test job not archived.
 1\1\GINC-SE073\SP\RHF\Aug-CC-pVDZ\C3H3Cl2F3\OHZDE\08-Apr-2025\0\\#t hf
  aug-cc-pvdz iop(5/13=1,5/36=2,99/5=2) pseudo=read geom=check guess=(r
 ead,tcheck) scf=(maxcycle=1)\\title\\0,1\C,0,1.621344,-0.180901,-0.024
 46\F,0,1.855684,1.099082,-0.354022\F,0,2.586786,-0.928073,-0.598557\F,
 0,1.77027,-0.287608,1.316575\C,0,0.257475,-0.682326,-0.46852\C,0,-0.91
 7787,-0.106994,0.31178\H,0,0.265688,-1.763521,-0.317825\Cl,0,-1.21116,
 1.624522,-0.060129\Cl,0,-2.396205,-1.078052,-0.041019\H,0,0.142056,-0.
 486993,-1.535261\H,0,-0.76339,-0.168757,1.383835\\Version=ES64L-G16Rev

 Normal termination of Gaussian 16 at Tue Apr  8 22:28:36 2025.
