 Gaussian 16, Revision C.01,

 ----------------------------------------------------------------------
 #t hf aug-cc-pvdz symm=none int=(grid=ultrafine) guess=(read,tcheck) s
 table=(opt,rrhf)
 ----------------------------------------------------------------------
 -----
 title
 -----
 Symbolic Z-matrix:
 Charge =  0 Multiplicity = 1

 SCF Done:  E(RHF) =  -815.634692396     A.U. after   11 cycles
 Normal termination of Gaussian 16 at Tue Apr  8 22:58:30 2025.
 Gaussian 16:  ES64L-G16RevC.01  3-Jul-2019

 ----------------------------------------------------------------------
 #t hf aug-cc-pvdz iop(5/13=1,5/36=2,99/5=2) pseudo=read geom=check gue
 ss=(read,tcheck) scf=(maxcycle=1)
 ----------------------------------------------------------------------
 -----
 title
 -----
 Structure from the checkpoint file:  "BDE49_expt_1941_mol1.chk"
 Charge =  0 Multiplicity = 1

                         Standard orientation:
 ---------------------------------------------------------------------
 Center     Atomic      Atomic             Coordinates (Angstroms)
 Number     Number       Type             X           Y           Z
 ---------------------------------------------------------------------
      1         14           0        1.187732   -0.000015    0.000071
      2         14           0       -1.187732    0.000015   -0.000071
      3          6           0       -1.848898   -1.527285   -0.904626
      4          1           0       -2.944176   -1.532654   -0.906865
      5          1           0       -1.515024   -2.453056   -0.426571
      6          1           0       -1.516313   -1.552603   -1.946664
      7          6           0       -1.849078    1.546992   -0.870317
      8          1           0       -1.516188    1.595739   -1.911400
      9          1           0       -1.515717    2.461939   -0.371520
     10          1           0       -2.944349    1.552007   -0.872840
     11          6           0       -1.849338   -0.019859    1.774634
     12          1           0       -1.516470    0.857372    2.337394
     13          1           0       -1.516110   -0.909285    2.317689
     14          1           0       -2.944611   -0.020176    1.780029
     15          6           0        1.848898    1.527287    0.904623
     16          1           0        1.515027    2.453057    0.426564
     17          1           0        2.944175    1.532653    0.906866
     18          1           0        1.516309    1.552610    1.946660
     19          6           0        1.849078   -1.546990    0.870320
     20          1           0        1.516199   -1.595728    1.911407
     21          1           0        2.944350   -1.552012    0.872831
     22          1           0        1.515706   -2.461939    0.371533
     23          6           0        1.849338    0.019856   -1.774634
     24          1           0        1.516097    0.909272   -2.317696
     25          1           0        1.516484   -0.857385   -2.337387
     26          1           0        2.944611    0.020189   -1.780029
 ---------------------------------------------------------------------

 SCF Done:  E(RHF) =  -815.761211549     A.U. after    2 cycles

 The electronic state is 1-A.
 Alpha  occ. eigenvalues --  -69.03522 -69.03522 -11.20662 -11.20662 -11.20657
 Alpha  occ. eigenvalues --  -11.20657 -11.20657 -11.20657  -6.78803  -6.78785
 Alpha  occ. eigenvalues --   -3.89555  -3.89555  -3.89553  -3.89545  -3.89545
 Alpha  occ. eigenvalues --   -3.89459  -0.96000  -0.94700  -0.91428  -0.91427
 Alpha  occ. eigenvalues --   -0.91261  -0.91260  -0.64482  -0.58713  -0.57506
 Alpha  occ. eigenvalues --   -0.56127  -0.56126  -0.55981  -0.55978  -0.55026
 Alpha  occ. eigenvalues --   -0.54160  -0.54159  -0.53390  -0.53389  -0.53177
 Alpha  occ. eigenvalues --   -0.52579  -0.43287  -0.43286  -0.41818  -0.41817
 Alpha  occ. eigenvalues --   -0.34636
 Alpha virt. eigenvalues --    0.03130   0.03923   0.04311   0.04312   0.05958
 Alpha virt. eigenvalues --    0.06121   0.06121   0.06330   0.06331   0.07985
 Alpha virt. eigenvalues --    0.07985   0.08232   0.08749   0.08853   0.08855

 Mulliken charges:
               1
     1  Si   1.560696
     2  Si   1.560696
     3  C    0.500922
     4  H   -0.344416
     5  H   -0.338335
     6  H   -0.338500
     7  C    0.501032
     8  H   -0.338498
     9  H   -0.338336
    10  H   -0.344525
    11  C    0.501336
    12  H   -0.338585
    13  H   -0.338654
    14  H   -0.344135
    15  C    0.500924
    16  H   -0.338334
    17  H   -0.344419
    18  H   -0.338500
    19  C    0.501027
    20  H   -0.338497
    21  H   -0.344524
    22  H   -0.338333
    23  C    0.501338
    24  H   -0.338656
    25  H   -0.338587
    26  H   -0.344133
 Sum of Mulliken charges =  -0.00000

 Dipole moment (field-independent basis, Debye):
    X=              0.0000    Y=             -0.0000    Z=             -0.0000  Tot=              0.0000

 Test job not archived.
 1\1\GINC-SE366\SP\RHF\Aug-CC-pVDZ\C6H18Si2\OHZDE\08-Apr-2025\0\\#t hf
 aug-cc-pvdz iop(5/13=1,5/36=2,99/5=2) pseudo=read geom=check guess=(re
 ad,tcheck) scf=(maxcycle=1)\\title\\0,1\Si,0,1.187732,-0.000015,0.0000
 71\Si,0,-1.187732,0.000015,-0.000071\C,0,-1.848898,-1.527285,-0.904626
 \H,0,-2.944176,-1.532654,-0.906865\H,0,-1.515024,-2.453056,-0.426571\H
 ,0,-1.516313,-1.552603,-1.946664\C,0,-1.849078,1.546992,-0.870317\H,0,
 -1.516188,1.595739,-1.9114\H,0,-1.515717,2.461939,-0.37152\H,0,-2.9443
 49,1.552007,-0.87284\C,0,-1.849338,-0.019859,1.774634\H,0,-1.51647,0.8

 Normal termination of Gaussian 16 at Tue Apr  8 22:58:44 2025.
