 Gaussian 16, Revision C.01,

 ----------------------------------------------------------------------
 #t hf aug-cc-pvdz symm=none int=(grid=ultrafine) guess=(read,tcheck) s
 table=(opt,rrhf)
 ----------------------------------------------------------------------
 -----
 title
 -----
 Symbolic Z-matrix:
 Charge =  0 Multiplicity = 1

 SCF Done:  E(RHF) =  -685.934755155     A.U. after   16 cycles
 Normal termination of Gaussian 16 at Tue Apr  8 23:32:17 2025.
 Gaussian 16:  ES64L-G16RevC.01  3-Jul-2019

 ----------------------------------------------------------------------
 #t hf aug-cc-pvdz iop(5/13=1,5/36=2,99/5=2) pseudo=read geom=check gue
 ss=(read,tcheck) scf=(maxcycle=1)
 ----------------------------------------------------------------------
 -----
 title
 -----
 Structure from the checkpoint file:  "BDE49_nonexpt_1429_mol1.chk"
 Charge =  0 Multiplicity = 1

                         Standard orientation:
 ---------------------------------------------------------------------
 Center     Atomic      Atomic             Coordinates (Angstroms)
 Number     Number       Type             X           Y           Z
 ---------------------------------------------------------------------
      1          6           0        2.503145    0.229756   -0.005896
      2          6           0        1.484783    1.183752    0.006380
      3          6           0        0.141405    0.809561    0.018788
      4          6           0        2.175819   -1.120348   -0.001660
      5          6           0        0.840071   -1.524471    0.011372
      6          6           0       -0.171266   -0.563279    0.016820
      7          1           0        3.540191    0.543824   -0.012701
      8          1           0        1.741475    2.237436    0.009835
      9         15           0       -1.240523    2.023562   -0.115391
     10          1           0        0.600839   -2.579446    0.017392
     11          8           0       -1.506364   -0.849816    0.030457
     12          1           0        2.956822   -1.872271   -0.006557
     13          6           0       -1.920933   -2.207636   -0.027064
     14          1           0       -3.009241   -2.185696   -0.034833
     15          1           0       -1.576390   -2.767835    0.848944
     16          1           0       -1.560942   -2.696991   -0.938465
     17          1           0       -0.499231    3.140104    0.349893
     18          1           0       -1.852910    1.781967    1.141258
 ---------------------------------------------------------------------

 SCF Done:  E(RHF) =  -686.060863034     A.U. after    2 cycles

 The electronic state is 1-A.
 Alpha  occ. eigenvalues --  -81.25356 -20.60519 -11.31694 -11.30180 -11.25287
 Alpha  occ. eigenvalues --  -11.25271 -11.24871 -11.24533 -11.23976  -7.75673
 Alpha  occ. eigenvalues --   -4.89754  -4.89670  -4.89336  -1.37511  -1.14291
 Alpha  occ. eigenvalues --   -1.02726  -1.01567  -0.94639  -0.85269  -0.81842
 Alpha  occ. eigenvalues --   -0.77131  -0.72190  -0.68151  -0.67143  -0.65555
 Alpha  occ. eigenvalues --   -0.62437  -0.59361  -0.56483  -0.54194  -0.52958
 Alpha  occ. eigenvalues --   -0.51949  -0.49801  -0.48471  -0.47132  -0.38288
 Alpha  occ. eigenvalues --   -0.33362  -0.30777
 Alpha virt. eigenvalues --    0.03180   0.03921   0.04232   0.05412   0.05653
 Alpha virt. eigenvalues --    0.05925   0.07233   0.07978   0.08517   0.08962
 Alpha virt. eigenvalues --    0.10331   0.10863   0.11197   0.11840   0.12836

 Mulliken charges:
               1
     1  C    0.499807
     2  C    0.830754
     3  C   -0.732184
     4  C    0.429781
     5  C    0.685375
     6  C    0.688452
     7  H   -0.451781
     8  H   -0.539380
     9  P   -0.126047
    10  H   -0.757092
    11  O   -0.686215
    12  H   -0.440834
    13  C    0.855603
    14  H   -0.296405
    15  H   -0.094558
    16  H   -0.079415
    17  H    0.055989
    18  H    0.158151
 Sum of Mulliken charges =  -0.00000

 Dipole moment (field-independent basis, Debye):
    X=              0.6155    Y=             -2.0506    Z=              0.4650  Tot=              2.1909

 Test job not archived.
 1\1\GINC-SE173\SP\RHF\Aug-CC-pVDZ\C7H9O1P1\OHZDE\08-Apr-2025\0\\#t hf
 aug-cc-pvdz iop(5/13=1,5/36=2,99/5=2) pseudo=read geom=check guess=(re
 ad,tcheck) scf=(maxcycle=1)\\title\\0,1\C,0,2.503145,0.229757,-0.00589
 6\C,0,1.484783,1.183752,0.00638\C,0,0.141405,0.809561,0.018788\C,0,2.1
 7582,-1.120347,-0.00166\C,0,0.840072,-1.524471,0.011372\C,0,-0.171266,
 -0.563279,0.01682\H,0,3.540191,0.543825,-0.012701\H,0,1.741474,2.23743
 7,0.009835\P,0,-1.240524,2.023561,-0.115391\H,0,0.60084,-2.579446,0.01
 7392\O,0,-1.506363,-0.849817,0.030457\H,0,2.956823,-1.87227,-0.006557\

 Normal termination of Gaussian 16 at Tue Apr  8 23:32:27 2025.
