 Gaussian 16, Revision C.01,

 ----------------------------------------------------------------------
 #t hf aug-cc-pvdz symm=none int=(grid=ultrafine) guess=(read,tcheck) s
 table=(opt,rrhf)
 ----------------------------------------------------------------------
 -----
 title
 -----
 Symbolic Z-matrix:
 Charge =  0 Multiplicity = 1

 SCF Done:  E(RHF) =  -2738.96101388     A.U. after   16 cycles
 Normal termination of Gaussian 16 at Tue Apr  8 23:22:45 2025.
 Gaussian 16:  ES64L-G16RevC.01  3-Jul-2019

 ----------------------------------------------------------------------
 #t hf aug-cc-pvdz iop(5/13=1,5/36=2,99/5=2) pseudo=read geom=check gue
 ss=(read,tcheck) scf=(maxcycle=1)
 ----------------------------------------------------------------------
 -----
 title
 -----
 Structure from the checkpoint file:  "BDE49_nonexpt_1237_mol1.chk"
 Charge =  0 Multiplicity = 1

                         Standard orientation:
 ---------------------------------------------------------------------
 Center     Atomic      Atomic             Coordinates (Angstroms)
 Number     Number       Type             X           Y           Z
 ---------------------------------------------------------------------
      1         17           0       -0.000368    2.456130   -1.434259
      2         17           0        2.974799   -1.693649    0.091871
      3         17           0       -2.974262   -1.694449    0.091828
      4         15           0       -0.000267    2.149952    0.653091
      5         15           0        1.650033   -0.353803   -0.732786
      6         15           0       -1.649834   -0.354233   -0.732772
      7          6           0       -1.385800    0.806102    0.771616
      8          6           0        1.385768    0.806594    0.771525
      9          6           0        0.000223   -1.308178   -0.415919
     10          8           0       -2.040312    0.764152    1.767953
     11          8           0        2.039565    0.764101    1.768308
     12          8           0        0.000372   -2.479800   -0.200864
 ---------------------------------------------------------------------

 SCF Done:  E(RHF) =  -2739.17925343     A.U. after    2 cycles

 The electronic state is 1-A.
 Alpha  occ. eigenvalues -- -103.71039-103.69027-103.69026 -81.37960 -81.36800
 Alpha  occ. eigenvalues --  -81.36799 -20.64944 -20.64944 -20.63766 -11.41787
 Alpha  occ. eigenvalues --  -11.41784 -11.41280 -10.74344 -10.72346 -10.72345
 Alpha  occ. eigenvalues --   -8.40037  -8.39763  -8.39755  -8.38057  -8.38056
 Alpha  occ. eigenvalues --   -8.37750  -8.37749  -8.37738  -8.37738  -7.87803
 Alpha  occ. eigenvalues --   -7.86707  -7.86695  -5.01574  -5.01458  -5.01226
 Alpha  occ. eigenvalues --   -5.00563  -5.00521  -5.00467  -5.00406  -5.00191
 Alpha  occ. eigenvalues --   -5.00178  -1.43908  -1.43656  -1.42872  -1.19230
 Alpha  occ. eigenvalues --   -1.17452  -1.17403  -0.98363  -0.90269  -0.90065
 Alpha  occ. eigenvalues --   -0.79519  -0.79237  -0.74907  -0.71510  -0.69835
 Alpha  occ. eigenvalues --   -0.69459  -0.66028  -0.64059  -0.63223  -0.62168
 Alpha  occ. eigenvalues --   -0.61007  -0.60759  -0.55036  -0.53626  -0.52302
 Alpha  occ. eigenvalues --   -0.52114  -0.51114  -0.50549  -0.50428  -0.49491
 Alpha  occ. eigenvalues --   -0.44737  -0.40763  -0.38545  -0.38004
 Alpha virt. eigenvalues --   -0.00248   0.03062   0.03833   0.03934   0.04325
 Alpha virt. eigenvalues --    0.05314   0.05899   0.06847   0.08015   0.08756
 Alpha virt. eigenvalues --    0.08799   0.09274   0.09730   0.09842   0.10348

 Mulliken charges:
               1
     1  Cl  -0.373626
     2  Cl  -0.373680
     3  Cl  -0.373680
     4  P    0.736258
     5  P    0.812355
     6  P    0.812329
     7  C    0.041407
     8  C    0.041444
     9  C   -0.066605
    10  O   -0.433185
    11  O   -0.433170
    12  O   -0.389849
 Sum of Mulliken charges =  -0.00000

 Dipole moment (field-independent basis, Debye):
    X=              0.0003    Y=              3.0913    Z=             -3.1400  Tot=              4.4063

 Test job not archived.
 1\1\GINC-SE341\SP\RHF\Aug-CC-pVDZ\C3Cl3O3P3\OHZDE\08-Apr-2025\0\\#t hf
  aug-cc-pvdz iop(5/13=1,5/36=2,99/5=2) pseudo=read geom=check guess=(r
 ead,tcheck) scf=(maxcycle=1)\\title\\0,1\Cl,0,-0.000368,2.45613,-1.434
 259\Cl,0,2.974799,-1.693649,0.091871\Cl,0,-2.974262,-1.694449,0.091828
 \P,0,-0.000267,2.149952,0.653091\P,0,1.650033,-0.353803,-0.732786\P,0,
 -1.649834,-0.354233,-0.732772\C,0,-1.3858,0.806102,0.771616\C,0,1.3857
 68,0.806594,0.771525\C,0,0.000223,-1.308178,-0.415919\O,0,-2.040312,0.
 764152,1.767953\O,0,2.039565,0.764101,1.768308\O,0,0.000372,-2.4798,-0

 Normal termination of Gaussian 16 at Tue Apr  8 23:22:57 2025.
