 Gaussian 16, Revision C.01,

 ----------------------------------------------------------------------
 #t hf aug-cc-pvdz symm=none int=(grid=ultrafine) guess=(read,tcheck) s
 table=(opt,rrhf)
 ----------------------------------------------------------------------
 -----
 title
 -----
 Symbolic Z-matrix:
 Charge =  0 Multiplicity = 1

 SCF Done:  E(RHF) =  -270.056073114     A.U. after   12 cycles

 1\1\GINC-SE393\Stability\RHF\Aug-CC-pVDZ\C5H10O1\OHZDE\08-Apr-2025\0\\
 #t hf aug-cc-pvdz symm=none int=(grid=ultrafine) guess=(read,tcheck) s
 table=(opt,rrhf)\\title\\0,1\C,0,-1.09827,-0.890638,-0.429536\C,0,-1.4
 49968,0.599569,-0.225603\C,0,0.019395,-1.13726,0.59481\H,0,-0.70137,-1
 .047022,-1.43563\H,0,-1.957146,-1.553097,-0.30028\C,0,0.878317,0.13206
 2,0.486068\H,0,0.595536,-2.05,0.412785\H,0,-0.398669,-1.208684,1.60640
 6\C,0,-0.144333,1.267853,0.295365\H,0,-0.317681,1.788125,1.24052\H,0,0
 .267007,1.994126,-0.407306\H,0,-2.24573,0.697553,0.518887\H,0,-1.81539

 Normal termination of Gaussian 16 at Tue Apr  8 22:39:45 2025.
 Gaussian 16:  ES64L-G16RevC.01  3-Jul-2019

 ----------------------------------------------------------------------
 #t hf aug-cc-pvdz iop(5/13=1,5/36=2,99/5=2) pseudo=read geom=check gue
 ss=(read,tcheck) scf=(maxcycle=1)
 ----------------------------------------------------------------------
 -----
 title
 -----
 Structure from the checkpoint file:  "BDE49_expt_1343_mol1.chk"
 Charge =  0 Multiplicity = 1

                         Standard orientation:
 ---------------------------------------------------------------------
 Center     Atomic      Atomic             Coordinates (Angstroms)
 Number     Number       Type             X           Y           Z
 ---------------------------------------------------------------------
      1          6           0       -1.098270   -0.890638   -0.429536
      2          6           0       -1.449968    0.599569   -0.225603
      3          6           0        0.019395   -1.137260    0.594810
      4          1           0       -0.701370   -1.047022   -1.435630
      5          1           0       -1.957146   -1.553097   -0.300280
      6          6           0        0.878317    0.132062    0.486068
      7          1           0        0.595536   -2.050000    0.412785
      8          1           0       -0.398669   -1.208684    1.606406
      9          6           0       -0.144333    1.267853    0.295365
     10          1           0       -0.317681    1.788125    1.240520
     11          1           0        0.267007    1.994126   -0.407306
     12          1           0       -2.245730    0.697553    0.518887
     13          1           0       -1.815395    1.064746   -1.143198
     14          8           0        1.692226    0.104939   -0.695697
     15          1           0        1.511552    0.288453    1.368422
     16          1           0        2.293244   -0.643232   -0.621657
 ---------------------------------------------------------------------

 SCF Done:  E(RHF) =  -270.138888095     A.U. after    2 cycles

 The electronic state is 1-A.
 Alpha  occ. eigenvalues --  -20.56603 -11.28428 -11.22799 -11.22381 -11.22270
 Alpha  occ. eigenvalues --  -11.22192  -1.31559  -1.09707  -0.95841  -0.94529
 Alpha  occ. eigenvalues --   -0.78880  -0.77096  -0.69598  -0.65947  -0.64332
 Alpha  occ. eigenvalues --   -0.59104  -0.55552  -0.53928  -0.50254  -0.47916
 Alpha  occ. eigenvalues --   -0.47144  -0.46564  -0.45387  -0.44053
 Alpha virt. eigenvalues --    0.03424   0.04514   0.04626   0.05037   0.06524
 Alpha virt. eigenvalues --    0.06644   0.06944   0.07294   0.07375   0.09171
 Alpha virt. eigenvalues --    0.13141   0.13460   0.14353   0.14802   0.15042

 Mulliken charges:
               1
     1  C    0.319559
     2  C    0.238435
     3  C    0.354452
     4  H   -0.107347
     5  H   -0.102766
     6  C    0.272864
     7  H   -0.108084
     8  H   -0.132757
     9  C    0.280737
    10  H   -0.062678
    11  H   -0.078028
    12  H   -0.144957
    13  H   -0.103084
    14  O   -0.594349
    15  H   -0.173123
    16  H    0.141124
 Sum of Mulliken charges =  -0.00000

 Dipole moment (field-independent basis, Debye):
    X=             -0.1027    Y=             -1.1122    Z=              1.3139  Tot=              1.7245

 Test job not archived.
 1\1\GINC-SE393\SP\RHF\Aug-CC-pVDZ\C5H10O1\OHZDE\08-Apr-2025\0\\#t hf a
 ug-cc-pvdz iop(5/13=1,5/36=2,99/5=2) pseudo=read geom=check guess=(rea
 d,tcheck) scf=(maxcycle=1)\\title\\0,1\C,0,-1.09827,-0.890638,-0.42953
 6\C,0,-1.449968,0.599569,-0.225603\C,0,0.019395,-1.13726,0.59481\H,0,-
 0.70137,-1.047022,-1.43563\H,0,-1.957146,-1.553097,-0.30028\C,0,0.8783
 17,0.132062,0.486068\H,0,0.595536,-2.05,0.412785\H,0,-0.398669,-1.2086
 84,1.606406\C,0,-0.144333,1.267853,0.295365\H,0,-0.317681,1.788125,1.2
 4052\H,0,0.267007,1.994126,-0.407306\H,0,-2.24573,0.697553,0.518887\H,

 Normal termination of Gaussian 16 at Tue Apr  8 22:39:50 2025.
